 vasp.5.4.4.18Apr17-6-g9f103f2a35 (build Mar 16 2023 09:39:13) complex          
  
 executed on             LinuxIFC date 2024.04.30  12:05:43
 running on   48 total cores
 distrk:  each k-point on   48 cores,    1 groups
 distr:  one band on NCORES_PER_BAND=  12 cores,    4 groups


--------------------------------------------------------------------------------------------------------


 INCAR:
 POTCAR:    PAW_PBE Ca_sv 06Sep2000               
 POTCAR:    PAW_PBE Si 05Jan2001                  
 POTCAR:    PAW_PBE O 08Apr2002                   
 POTCAR:    PAW_PBE Ca_sv 06Sep2000               
   SHA256 =  a47365830e737f14e0e6c5cf1ed81b94e081eecf0a33df105380881bc9da05d5 Ca
   COPYR  = (c) Copyright 06Sep2000 Georg Kresse                                
   COPYR  = This file is part of the software VASP. Any use, copying, and all ot
   COPYR  = If you do not have a valid VASP license, you may not use, copy or di
   VRHFIN =Ca: 3s3p4s                                                           
   LEXCH  = PE                                                                  
   EATOM  =  1006.0909 eV,   73.9456 Ry                                         
                                                                                
   TITEL  = PAW_PBE Ca_sv 06Sep2000                                             
   LULTRA =        F    use ultrasoft PP ?                                      
   IUNSCR =        1    unscreen: 0-lin 1-nonlin 2-no                           
   RPACOR =    2.000    partial core radius                                     
   POMASS =   40.078; ZVAL   =   10.000    mass and valenz                      
   RCORE  =    2.300    outmost cutoff radius                                   
   RWIGS  =    2.500; RWIGS  =    1.323    wigner-seitz radius (au A)           
   ENMAX  =  266.622; ENMIN  =  199.967 eV                                      
   RCLOC  =    1.808    cutoff for local pot                                    
   LCOR   =        T    correct aug charges                                     
   LPAW   =        T    paw PP                                                  
   EAUG   =  420.852                                                            
   RMAX   =    2.359    core radius for proj-oper                               
   RAUG   =    1.300    factor for augmentation sphere                          
   RDEP   =    2.392    radius for radial grids                                 
   RDEPT  =    1.987    core radius for aug-charge                              
                                                                                
   Atomic configuration                                                         
    7 entries                                                                   
     n  l   j            E        occ.                                          
     1  0  0.50     -3949.1705   2.0000                                         
     2  0  0.50      -414.3434   2.0000                                         
     2  1  1.50      -334.7047   6.0000                                         
     3  0  0.50       -47.0896   2.0000                                         
     4  0  0.50        -3.7663   2.0000                                         
     3  1  1.50       -28.0061   6.0000                                         
     3  2  1.50        -4.0817   0.0000                                         
   Description                                                                  
     l       E           TYP  RCUT    TYP  RCUT                                 
     0    -47.0896403     23  2.300                                             
     0     -3.7663320     23  2.300                                             
     1    -28.0060855     23  2.300                                             
     1      6.8029130     23  2.300                                             
     2     -4.0817478     23  2.300                                             
     2      0.4464412     23  2.300                                             
  local pseudopotential read in
  partial core-charges read in
  partial kinetic energy density read in
  atomic valenz-charges read in
  non local Contribution for L=           0  read in
    real space projection operators read in
  non local Contribution for L=           0  read in
    real space projection operators read in
  non local Contribution for L=           1  read in
    real space projection operators read in
  non local Contribution for L=           1  read in
    real space projection operators read in
  non local Contribution for L=           2  read in
    real space projection operators read in
  non local Contribution for L=           2  read in
    real space projection operators read in
    PAW grid and wavefunctions read in
 
   number of l-projection  operators is LMAX  =           6
   number of lm-projection operators is LMMAX =          18
 
 POTCAR:    PAW_PBE Si 05Jan2001                  
   SHA256 =  79d9987ad8750f624c4d6acb2a16d13abf6a777132adc04dc6c8399be72b42bb Si
   COPYR  = (c) Copyright 05Jan2001 Georg Kresse                                
   COPYR  = This file is part of the software VASP. Any use, copying, and all ot
   COPYR  = If you do not have a valid VASP license, you may not use, copy or di
   VRHFIN =Si: s2p2                                                             
   LEXCH  = PE                                                                  
   EATOM  =   103.0669 eV,    7.5752 Ry                                         
                                                                                
   TITEL  = PAW_PBE Si 05Jan2001                                                
   LULTRA =        F    use ultrasoft PP ?                                      
   IUNSCR =        1    unscreen: 0-lin 1-nonlin 2-no                           
   RPACOR =    1.500    partial core radius                                     
   POMASS =   28.085; ZVAL   =    4.000    mass and valenz                      
   RCORE  =    1.900    outmost cutoff radius                                   
   RWIGS  =    2.480; RWIGS  =    1.312    wigner-seitz radius (au A)           
   ENMAX  =  245.345; ENMIN  =  184.009 eV                                      
   ICORE  =        2    local potential                                         
   LCOR   =        T    correct aug charges                                     
   LPAW   =        T    paw PP                                                  
   EAUG   =  322.069                                                            
   DEXC   =    0.000                                                            
   RMAX   =    1.950    core radius for proj-oper                               
   RAUG   =    1.300    factor for augmentation sphere                          
   RDEP   =    1.993    radius for radial grids                                 
   RDEPT  =    1.837    core radius for aug-charge                              
                                                                                
   Atomic configuration                                                         
    6 entries                                                                   
     n  l   j            E        occ.                                          
     1  0  0.50     -1785.8828   2.0000                                         
     2  0  0.50      -139.4969   2.0000                                         
     2  1  1.50       -95.5546   6.0000                                         
     3  0  0.50       -10.8127   2.0000                                         
     3  1  0.50        -4.0811   2.0000                                         
     3  2  1.50        -4.0817   0.0000                                         
   Description                                                                  
     l       E           TYP  RCUT    TYP  RCUT                                 
     0    -10.8127223     23  1.900                                             
     0     -7.6451159     23  1.900                                             
     1     -4.0811372     23  1.900                                             
     1      2.4879257     23  1.900                                             
     2     -4.0817478      7  1.900                                             
  local pseudopotential read in
  partial core-charges read in
  partial kinetic energy density read in
  atomic valenz-charges read in
  non local Contribution for L=           0  read in
    real space projection operators read in
  non local Contribution for L=           0  read in
    real space projection operators read in
  non local Contribution for L=           1  read in
    real space projection operators read in
  non local Contribution for L=           1  read in
    real space projection operators read in
    PAW grid and wavefunctions read in
 
   number of l-projection  operators is LMAX  =           4
   number of lm-projection operators is LMMAX =           8
 
 POTCAR:    PAW_PBE O 08Apr2002                   
   SHA256 =  818f92134a0a090dccd8ba1447fa70422a3b330e708bb4f08108d8ae51209ddf O/
   COPYR  = (c) Copyright 08Apr2002 Georg Kresse                                
   COPYR  = This file is part of the software VASP. Any use, copying, and all ot
   COPYR  = If you do not have a valid VASP license, you may not use, copy or di
   VRHFIN =O: s2p4                                                              
   LEXCH  = PE                                                                  
   EATOM  =   432.3788 eV,   31.7789 Ry                                         
                                                                                
   TITEL  = PAW_PBE O 08Apr2002                                                 
   LULTRA =        F    use ultrasoft PP ?                                      
   IUNSCR =        1    unscreen: 0-lin 1-nonlin 2-no                           
   RPACOR =    1.200    partial core radius                                     
   POMASS =   16.000; ZVAL   =    6.000    mass and valenz                      
   RCORE  =    1.520    outmost cutoff radius                                   
   RWIGS  =    1.550; RWIGS  =    0.820    wigner-seitz radius (au A)           
   ENMAX  =  400.000; ENMIN  =  300.000 eV                                      
   ICORE  =        2    local potential                                         
   LCOR   =        T    correct aug charges                                     
   LPAW   =        T    paw PP                                                  
   EAUG   =  605.392                                                            
   DEXC   =    0.000                                                            
   RMAX   =    1.553    core radius for proj-oper                               
   RAUG   =    1.300    factor for augmentation sphere                          
   RDEP   =    1.550    radius for radial grids                                 
   RDEPT  =    1.329    core radius for aug-charge                              
                                                                                
   Atomic configuration                                                         
    4 entries                                                                   
     n  l   j            E        occ.                                          
     1  0  0.50      -514.6923   2.0000                                         
     2  0  0.50       -23.9615   2.0000                                         
     2  1  0.50        -9.0305   4.0000                                         
     3  2  1.50        -9.5241   0.0000                                         
   Description                                                                  
     l       E           TYP  RCUT    TYP  RCUT                                 
     0    -23.9615318     23  1.200                                             
     0     -9.5240782     23  1.200                                             
     1     -9.0304911     23  1.520                                             
     1      8.1634956     23  1.520                                             
     2     -9.5240782      7  1.500                                             
  local pseudopotential read in
  partial core-charges read in
  partial kinetic energy density read in
  kinetic energy density of atom read in
  atomic valenz-charges read in
  non local Contribution for L=           0  read in
    real space projection operators read in
  non local Contribution for L=           0  read in
    real space projection operators read in
  non local Contribution for L=           1  read in
    real space projection operators read in
  non local Contribution for L=           1  read in
    real space projection operators read in
    PAW grid and wavefunctions read in
 
   number of l-projection  operators is LMAX  =           4
   number of lm-projection operators is LMMAX =           8
 
 Optimization of the real space projectors (new method)

 maximal supplied QI-value         = 16.25
 optimisation between [QCUT,QGAM] = [ 12.51, 25.03] = [ 43.85,175.40] Ry 
 Optimized for a Real-space Cutoff    1.47 Angstroem

   l    n(q)    QCUT    max X(q) W(low)/X(q) W(high)/X(q)  e(spline) 
   0     11    12.514    11.817    0.25E-04    0.32E-05    0.87E-07
   0     11    12.514     8.461    0.39E-04    0.59E-05    0.18E-06
   1     11    12.514     3.957    0.97E-05    0.57E-05    0.28E-07
   1     11    12.514     4.314    0.42E-04    0.14E-04    0.23E-06
   2     10    12.514    14.565    0.79E-04    0.50E-03    0.16E-05
   2     10    12.514    14.552    0.75E-04    0.48E-03    0.15E-05
 Optimization of the real space projectors (new method)

 maximal supplied QI-value         = 19.84
 optimisation between [QCUT,QGAM] = [ 12.50, 25.00] = [ 43.76,175.03] Ry 
 Optimized for a Real-space Cutoff    1.16 Angstroem

   l    n(q)    QCUT    max X(q) W(low)/X(q) W(high)/X(q)  e(spline) 
   0      9    12.501   159.560    0.10E-03    0.83E-04    0.71E-07
   0      9    12.501   115.863    0.99E-04    0.81E-04    0.70E-07
   1      8    12.501    88.339    0.20E-03    0.25E-03    0.76E-07
   1      8    12.501    48.592    0.20E-03    0.24E-03    0.75E-07
 Optimization of the real space projectors (new method)

 maximal supplied QI-value         = 24.76
 optimisation between [QCUT,QGAM] = [ 12.38, 25.00] = [ 42.90,175.06] Ry 
 Optimized for a Real-space Cutoff    1.16 Angstroem

   l    n(q)    QCUT    max X(q) W(low)/X(q) W(high)/X(q)  e(spline) 
   0      9    12.378    20.381    0.16E-03    0.67E-05    0.31E-06
   0      9    12.378    15.268    0.17E-03    0.81E-05    0.33E-06
   1      8    12.378     5.964    0.20E-03    0.16E-03    0.30E-06
   1      8    12.378     5.382    0.18E-03    0.14E-03    0.26E-06
  PAW_PBE Ca_sv 06Sep2000               :
 energy of atom  1       EATOM=-1006.0909
 kinetic energy error for atom=    0.0012 (will be added to EATOM!!)
  PAW_PBE Si 05Jan2001                  :
 energy of atom  2       EATOM= -103.0669
 kinetic energy error for atom=    0.0003 (will be added to EATOM!!)
  PAW_PBE O 08Apr2002                   :
 energy of atom  3       EATOM= -432.3788
 kinetic energy error for atom=    0.0168 (will be added to EATOM!!)
 
 
 POSCAR: Ca Si  O                                
  positions in direct lattice
  No initial velocities read in
 exchange correlation table for  LEXCH =        8
   RHO(1)=    0.500       N(1)  =     2000
   RHO(2)=  100.500       N(2)  =     4000
 


--------------------------------------------------------------------------------------------------------


 ion  position               nearest neighbor table
   1  0.591  0.190  0.485-  82 1.79 115 2.16  68 2.24  25 2.26 116 2.36 103 2.37  66 2.45  23 2.79
                            41 2.87  53 2.98  19 3.06
   2  0.075  0.246  0.210-  93 2.07 134 2.08  91 2.08  88 2.16 105 2.43 125 2.43  60 2.54  10 2.68
                            35 2.75  51 2.88  40 2.95   9 3.06
   3  0.363  0.126  0.100-  81 2.04 119 2.05  78 2.21  60 2.33  71 2.34  87 2.40  68 2.41  14 2.52
                           125 2.55  51 2.70  37 2.83  30 2.87  41 2.87  38 2.94  24 3.05  36 3.14
   4  0.502  0.701  0.582-  59 2.15  74 2.16 101 2.17 128 2.18 124 2.31  57 2.38  75 2.43 131 2.46
                            92 2.49  47 2.65  46 2.79  28 2.89  33 2.95  53 3.11  49 3.14
   5  0.723  0.957  0.070- 113 1.97 108 2.09 119 2.10 133 2.11  55 2.20  86 2.31  54 2.70  23 2.72
                            52 2.84  17 2.87  38 2.93  35 2.96  14 3.12
   6  0.871  0.530  0.161- 110 1.88 121 1.94  95 2.15 134 2.23  91 2.51 104 2.53  62 2.54  22 2.84
                            13 2.85  19 2.86  39 2.88  40 3.01  18 3.13
   7  0.045  0.948  0.418-  93 2.00 130 2.07 111 2.09  69 2.16 126 2.34  24 2.41  34 2.45 102 2.54
                             8 2.78  54 2.80  11 2.98
   8  0.303  0.012  0.469-  60 2.04  66 2.17  63 2.27 128 2.34 131 2.41 126 2.42 115 2.48  94 2.56
                            24 2.65  31 2.77   7 2.78  51 2.88
   9  0.973  0.194  0.935-  98 1.98  73 2.15  86 2.25 117 2.26 109 2.32  88 2.35  18 2.68  52 2.74
                            15 2.88  36 2.90  45 2.94   2 3.06  40 3.13  37 3.16  17 3.16
  10  0.052  0.419  0.405- 105 1.91 123 2.09  65 2.13  96 2.19 134 2.22  95 2.26  89 2.53  19 2.67
                             2 2.68  44 2.97  21 3.06  22 3.16  15 3.17
  11  0.065  0.007  0.702-  63 1.94 130 2.01  80 2.22  73 2.24 126 2.29  58 2.35 109 2.35 129 2.54
                            17 2.75  34 2.81   7 2.98  37 3.00  29 3.02  31 3.03
  12  0.304  0.517  0.217-  64 1.95  99 2.02  81 2.20  92 2.28  96 2.29 122 2.34  22 2.50  30 2.50
                           134 2.51  32 2.67  46 2.86  21 2.86  40 2.94  51 2.95
  13  0.642  0.643  0.052- 104 2.11  61 2.17  55 2.19  90 2.27 127 2.28  79 2.29  99 2.32 112 2.44
                           133 2.52  62 2.55  33 2.57  50 2.70   6 2.85  49 2.94  38 2.96
  14  0.533  0.145  0.924-  84 2.07  87 2.11  70 2.16 119 2.22 117 2.41  77 2.42  76 2.45   3 2.52
                            45 2.80  29 2.83  18 2.83  53 2.99  25 3.04  30 3.05   5 3.12  41 3.16
  15  0.981  0.337  0.693- 109 1.97  98 2.13 123 2.17  65 2.18  80 2.23  72 2.40  83 2.42  48 2.47
                           118 2.49  34 2.81  45 2.83   9 2.88  31 2.92  10 3.17
  16  0.261  0.732  0.969-  97 2.01  90 2.14  78 2.18 114 2.23 120 2.30  56 2.32  75 2.32  64 2.44
                           122 2.46  37 2.56  47 2.80  38 2.82  39 3.06  22 3.12  20 3.12
  17  0.825  0.953  0.810- 117 2.10 113 2.12 133 2.14  85 2.19 129 2.26  80 2.34  73 2.45  27 2.58
                            11 2.75   5 2.87  45 2.88  26 2.98  53 3.12   9 3.16
  18  0.746  0.288  0.024-  98 2.07 117 2.11 104 2.20  87 2.24 108 2.30  91 2.34  84 2.37  41 2.52
                           121 2.54   9 2.68  45 2.74  14 2.83  48 2.88  50 2.99  35 3.06   6 3.13
  19  0.796  0.381  0.385-  65 1.94 107 2.00  83 2.17  91 2.18 103 2.38  62 2.56  95 2.56  10 2.67
                            28 2.73  35 2.83  32 2.86   6 2.86  44 3.04   1 3.06  34 3.08  41 3.10
  20  0.302  0.506  0.770-  74 2.09 120 2.11  72 2.17 135 2.25  75 2.32  77 2.50  57 2.57  36 2.72
                            47 2.73  21 3.01  16 3.12
  21  0.338  0.447  0.485- 105 2.03  67 2.11  96 2.12  92 2.16 123 2.23  74 2.24  66 2.39  51 2.57
                            31 2.78  42 2.83  12 2.86  32 2.87  25 3.01  20 3.01  10 3.06
  22  0.107  0.661  0.221-  69 1.93 110 2.15 122 2.17 134 2.24  96 2.27  56 2.29  95 2.40 114 2.44
                            12 2.50   6 2.84  39 2.85  24 2.87  42 2.95  54 2.96  40 3.02  16 3.12
  23  0.596  0.991  0.300-  94 2.03 115 2.10  68 2.12 108 2.17 119 2.23 101 2.29 102 2.30  82 2.47
                             5 2.72  41 2.73  38 2.74   1 2.79  49 2.89  35 2.91  26 2.99  46 3.12
  24  0.205  0.922  0.248-  69 1.94  60 2.08 122 2.11  94 2.13 111 2.14 125 2.18 114 2.34  78 2.39
                             7 2.41   8 2.65  52 2.77  22 2.87  37 2.93  46 2.95  38 3.02   3 3.05
  25  0.503  0.283  0.664- 135 1.88  76 2.03  84 2.12 116 2.14  57 2.22   1 2.26  66 2.41 103 2.44
                            45 2.77  31 2.89  28 2.97  50 2.99  21 3.01  14 3.04  53 3.14
  26  0.751  0.908  0.533- 130 2.04 124 2.13 106 2.22 100 2.22 102 2.27 115 2.32 101 2.44  85 2.45
                            53 2.69  17 2.98  23 2.99  49 2.99  44 3.10  34 3.14  27 3.17
  27  0.778  0.709  0.769- 112 1.83  79 2.03 132 2.17 133 2.18 124 2.25 129 2.31 106 2.55  17 2.58
                            33 2.60  48 2.72  43 2.83  28 2.94  50 2.99  39 3.02  44 3.14  26 3.17
  28  0.691  0.494  0.602- 132 1.58  59 1.60 103 1.68  83 1.76  57 1.79 116 1.81  50 2.63  19 2.73
                            44 2.78   4 2.89  27 2.94  25 2.97
  29  0.346  0.998  0.785-  63 1.62  71 1.65  76 1.68  97 1.74 131 1.75  70 1.81  53 2.35  37 2.55
                            47 2.67  14 2.83  11 3.02  36 3.08
  30  0.424  0.394  0.044-  87 1.65  77 1.68  61 1.75  81 1.81  99 1.81  64 1.92  12 2.50   3 2.87
                            41 2.90  50 2.97  36 2.99  32 3.00  14 3.05
  31  0.231  0.231  0.608- 135 1.53  66 1.73 126 1.77 123 1.80  63 1.95 109 1.97  36 2.62   8 2.77
                            21 2.78  25 2.89  15 2.92  11 3.03  51 3.05
  32  0.546  0.469  0.298-  67 1.56  62 1.57 107 1.60  99 1.61  92 1.83 103 2.11  41 2.56  12 2.67
                            19 2.86  49 2.87  21 2.87  30 3.00  46 3.14
  33  0.549  0.770  0.857- 133 1.61 112 1.63  90 1.67  75 1.73  70 1.90 124 2.07  13 2.57  27 2.60
                            53 2.81  38 2.94   4 2.95  50 3.06
  34  0.941  0.146  0.501-  65 1.49 130 1.62  93 1.73 126 1.79  80 2.04  82 2.18   7 2.45  35 2.65
                            15 2.81  11 2.81  19 3.08  26 3.14
  35  0.837  0.137  0.265-  86 1.71  91 1.72  93 1.77 108 1.78  82 1.86 102 1.98  34 2.65   2 2.75
                            41 2.77  19 2.83  23 2.91   5 2.96  52 3.04  18 3.06
  36  0.236  0.267  0.861-  77 1.60 109 1.64  71 1.81  88 1.82 135 1.89  72 1.94  31 2.62  20 2.72
                            40 2.77   9 2.90  30 2.99  29 3.08   3 3.14
  37  0.180  0.968  0.968-  73 1.60 125 1.62  78 1.65  97 1.73  71 1.85 114 1.85  52 2.19  29 2.55
                            16 2.56   3 2.83  24 2.93  11 3.00   9 3.16
  38  0.459  0.857  0.114-  90 1.53 127 1.69  94 1.74 119 1.76  78 1.78 122 2.20  46 2.50  23 2.74
                            16 2.82   5 2.93  33 2.94   3 2.94  13 2.96  24 3.02
  39  0.964  0.737  0.996-  79 1.51 110 1.65  56 1.71 113 1.79 114 1.87 129 2.06  52 2.58  22 2.85
                            54 2.86   6 2.88  27 3.02  16 3.06
  40  0.112  0.453  0.013-  72 1.67  56 1.68 121 1.70  64 1.73 134 1.87  88 1.89  36 2.77  12 2.94
                             2 2.95  48 2.99   6 3.01  22 3.02   9 3.13
  41  0.594  0.241  0.210-  68 1.51 108 1.55  87 1.55 107 1.68  67 2.29  18 2.52  32 2.56  23 2.73
                            35 2.77   1 2.87   3 2.87  30 2.90  51 2.97  19 3.10  14 3.16
  42  0.201  0.686  0.491-  96 1.44  89 1.66  69 1.71  74 1.71 128 1.76  58 1.88  47 2.40  43 2.63
                            21 2.83  46 2.85  22 2.95
  43  0.043  0.691  0.692- 120 1.61  89 1.63 118 1.67 129 1.72  58 1.96 106 1.97  47 2.54  42 2.63
                            44 2.65  27 2.83
  44  0.889  0.642  0.491-  95 1.56 106 1.66  83 1.79 100 1.91  59 2.07  89 2.11  43 2.65  28 2.78
                            49 2.94  10 2.97  19 3.04  26 3.10  27 3.14
  45  0.743  0.218  0.767- 117 1.59  84 1.74 116 1.76  98 1.82  85 1.83  80 1.89  18 2.74  25 2.77
                            14 2.80  15 2.83  17 2.88   9 2.94  48 3.08  50 3.10
  46  0.418  0.746  0.327- 127 1.56  92 1.66 122 1.74 128 1.76 101 1.94  94 2.04  38 2.50  49 2.58
                             4 2.79  42 2.85  12 2.86  24 2.95  23 3.12  32 3.14
  47  0.280  0.762  0.699- 120 1.60  58 1.63 131 1.68  74 1.71  75 1.75  97 1.91 128 2.40  42 2.40
                            43 2.54   4 2.65  29 2.67  20 2.73  16 2.80
  48  0.869  0.476  0.854-  98 1.57 132 1.62 104 1.67 118 1.70 121 1.92  79 2.26  15 2.47  50 2.59
                            27 2.72  18 2.88  40 2.99  45 3.08
  49  0.668  0.720  0.326- 101 1.50  55 1.57  62 1.61 100 1.76 127 2.08  59 2.25  54 2.52  46 2.58
                            32 2.87  23 2.89  44 2.94  13 2.94  26 2.99   4 3.14
  50  0.616  0.480  0.847- 112 1.63  61 1.64 104 1.70  84 1.79  57 1.86 132 2.05  48 2.59  28 2.63
                            13 2.70  30 2.97  18 2.99  25 2.99  27 2.99  33 3.06  45 3.10
  51  0.329  0.253  0.328- 105 1.52  60 1.66  67 1.70  81 1.74  66 1.77  68 1.93  21 2.57   3 2.70
                             8 2.88   2 2.88  12 2.95  41 2.97  31 3.05
  52  0.999  0.971  0.081- 125 1.54 111 1.60 113 1.62  86 1.70 114 1.70  73 1.73  37 2.19  54 2.57
                            39 2.58   9 2.74  24 2.77   5 2.84  35 3.04
  53  0.551  0.982  0.684- 124 1.57  85 1.60  76 1.60  70 1.87 115 1.91 131 2.07  29 2.35  26 2.69
                            33 2.81   1 2.98  14 2.99   4 3.11  17 3.12  25 3.14
  54  0.872  0.828  0.243- 111 1.54 100 1.57 110 1.65 102 1.67  55 1.74  49 2.52  52 2.57   5 2.70
                             7 2.80  39 2.86  22 2.96
  55  0.716  0.783  0.196-  49 1.57  54 1.74  13 2.19   5 2.20
  56  0.073  0.612  0.006-  40 1.68  39 1.71  22 2.29  16 2.32
  57  0.537  0.496  0.685-  28 1.79  50 1.86  25 2.22   4 2.38  20 2.57
  58  0.159  0.819  0.611-  47 1.63  42 1.88  43 1.96  11 2.35
  59  0.690  0.630  0.526-  28 1.60  44 2.07   4 2.15  49 2.25
  60  0.259  0.110  0.302-  51 1.66   8 2.04  24 2.08   3 2.33   2 2.54
  61  0.505  0.514  0.956-  50 1.64  30 1.75  13 2.17
  62  0.662  0.568  0.287-  32 1.57  49 1.61 107 1.93   6 2.54  13 2.55  19 2.56
  63  0.246  0.055  0.678-  29 1.62  11 1.94  31 1.95   8 2.27
  64  0.273  0.503  0.030-  40 1.73  30 1.92  12 1.95  16 2.44
  65  0.918  0.289  0.496-  34 1.49  19 1.94  10 2.13  15 2.18
  66  0.354  0.216  0.495-  31 1.73  51 1.77   8 2.17  21 2.39  25 2.41   1 2.45
  67  0.458  0.355  0.347-  32 1.56  51 1.70  21 2.11  41 2.29
  68  0.494  0.170  0.291-  41 1.51  51 1.93  23 2.12   1 2.24   3 2.41
  69  0.155  0.778  0.361-  42 1.71  22 1.93  24 1.94   7 2.16
  70  0.500  0.949  0.856-  29 1.81  53 1.87  33 1.90  14 2.16
  71  0.277  0.099  0.891-  29 1.65  36 1.81  37 1.85   3 2.34
  72  0.127  0.422  0.855-  40 1.67  36 1.94  20 2.17  15 2.40
  73  0.035  0.994  0.918-  37 1.60  52 1.73   9 2.15  11 2.24  17 2.45
  74  0.307  0.626  0.606-  47 1.71  42 1.71  20 2.09   4 2.16  21 2.24
  75  0.406  0.705  0.798-  33 1.73  47 1.75  20 2.32  16 2.32   4 2.43
  76  0.449  0.098  0.706-  53 1.60  29 1.68  25 2.03  14 2.45
  77  0.375  0.319  0.906-  36 1.60  30 1.68  14 2.42  20 2.50
  78  0.315  0.924  0.044-  37 1.65  38 1.78  16 2.18   3 2.21  24 2.39
  79  0.840  0.671  0.953-  39 1.51  27 2.03  48 2.26  13 2.29
  80  0.893  0.138  0.694-  45 1.89 130 1.92  34 2.04  11 2.22  15 2.23  17 2.34
  81  0.330  0.310  0.168-  51 1.74  30 1.81   3 2.04  12 2.20
  82  0.744  0.137  0.420-   1 1.79  35 1.86  34 2.18  23 2.47
  83  0.856  0.484  0.559-  28 1.76  44 1.79 132 1.94  19 2.17  15 2.42
  84  0.615  0.306  0.835-  45 1.74  50 1.79  14 2.07  25 2.12  18 2.37
  85  0.682  0.065  0.699-  53 1.60  45 1.83  17 2.19  26 2.45
  86  0.895  0.095  0.114-  52 1.70  35 1.71   9 2.25   5 2.31
  87  0.535  0.283  0.077-  41 1.55  30 1.65  14 2.11  18 2.24   3 2.40
  88  0.167  0.278  0.024-  36 1.82  40 1.89   2 2.16   9 2.35
  89  0.079  0.607  0.562-  43 1.63  42 1.66  44 2.11  10 2.53
  90  0.465  0.765  0.997-  38 1.53  33 1.67  16 2.14  13 2.27
  91  0.876  0.290  0.211-  35 1.72   2 2.08  19 2.18  18 2.34   6 2.51
  92  0.442  0.593  0.374-  46 1.66  32 1.83  21 2.16  12 2.28   4 2.49
  93  0.989  0.119  0.342-  34 1.73  35 1.77   7 2.00   2 2.07
  94  0.412  0.932  0.259-  38 1.74  23 2.03  46 2.04  24 2.13   8 2.56
  95  0.926  0.592  0.353-  44 1.56   6 2.15  10 2.26  22 2.40  19 2.56
  96  0.198  0.576  0.404-  42 1.44  21 2.12  10 2.19  22 2.27  12 2.29
  97  0.240  0.877  0.839-  37 1.73  29 1.74  47 1.91  16 2.01
  98  0.854  0.324  0.857-  48 1.57  45 1.82   9 1.98  18 2.07  15 2.13
  99  0.491  0.511  0.157-  32 1.61  30 1.81  12 2.02  13 2.32
 100  0.823  0.774  0.378-  54 1.57  49 1.76  44 1.91 102 1.93  26 2.22
 101  0.579  0.798  0.411-  49 1.50  46 1.94   4 2.17  23 2.29  26 2.44
 102  0.815  0.955  0.326-  54 1.67 100 1.93  35 1.98  26 2.27  23 2.30   7 2.54
 103  0.594  0.421  0.492-  28 1.68  32 2.11   1 2.37  19 2.38  25 2.44
 104  0.742  0.492  0.955-  48 1.67  50 1.70  13 2.11  18 2.20   6 2.53
 105  0.215  0.333  0.379-  51 1.52  10 1.91  21 2.03   2 2.43
 106  0.918  0.777  0.575-  44 1.66  43 1.97  26 2.22  27 2.55
 107  0.664  0.386  0.241-  32 1.60  41 1.68  62 1.93  19 2.00
 108  0.690  0.130  0.172-  41 1.55  35 1.78   5 2.09  23 2.17  18 2.30
 109  0.118  0.221  0.763-  36 1.64  31 1.97  15 1.97   9 2.32  11 2.35
 110  0.917  0.707  0.147-  54 1.65  39 1.65   6 1.88  22 2.15
 111  0.999  0.907  0.223-  54 1.54  52 1.60   7 2.09  24 2.14
 112  0.623  0.635  0.815-  50 1.63  33 1.63  27 1.83  13 2.44
 113  0.889  0.894  0.998-  52 1.62  39 1.79   5 1.97  17 2.12
 114  0.098  0.840  0.065-  52 1.70  37 1.85  39 1.87  16 2.23  24 2.34  22 2.44
 115  0.542  0.985  0.498-  53 1.91  23 2.10   1 2.16  26 2.32   8 2.48
 116  0.706  0.321  0.635-  45 1.76  28 1.81  25 2.14   1 2.36
 117  0.766  0.131  0.893-  45 1.59  17 2.10  18 2.11   9 2.26  14 2.41
 118  0.984  0.565  0.776-  43 1.67  48 1.70  15 2.49
 119  0.527  0.013  0.095-  38 1.76   3 2.05   5 2.10  14 2.22  23 2.23
 120  0.177  0.670  0.771-  47 1.60  43 1.61  20 2.11  16 2.30
 121  0.948  0.433  0.018-  40 1.70  48 1.92   6 1.94  18 2.54
 122  0.300  0.745  0.205-  46 1.74  24 2.11  22 2.17  38 2.20  12 2.34  16 2.46
 123  0.152  0.386  0.579-  31 1.80  10 2.09  15 2.17  21 2.23
 124  0.630  0.851  0.691-  53 1.57  33 2.07  26 2.13  27 2.25   4 2.31
 125  0.128  0.047  0.094-  52 1.54  37 1.62  24 2.18   2 2.43   3 2.55
 126  0.112  0.137  0.527-  31 1.77  34 1.79  11 2.29   7 2.34   8 2.42
 127  0.506  0.729  0.205-  46 1.56  38 1.69  49 2.08  13 2.28
 128  0.340  0.786  0.474-  46 1.76  42 1.76   4 2.18   8 2.34  47 2.40
 129  0.982  0.798  0.805-  43 1.72  39 2.06  17 2.26  27 2.31  11 2.54
 130  0.922  0.004  0.567-  34 1.62  80 1.92  11 2.01  26 2.04   7 2.07
 131  0.373  0.889  0.657-  47 1.68  29 1.75  53 2.07   8 2.41   4 2.46
 132  0.776  0.502  0.729-  28 1.58  48 1.62  83 1.94  50 2.05  27 2.17
 133  0.682  0.838  0.907-  33 1.61   5 2.11  17 2.14  27 2.18  13 2.52
 134  0.070  0.448  0.191-  40 1.87   2 2.08  10 2.22   6 2.23  22 2.24  12 2.51
 135  0.324  0.299  0.703-  31 1.53  25 1.88  36 1.89  20 2.25
 

IMPORTANT INFORMATION: All symmetrisations will be switched off!
NOSYMM: (Re-)initialisation of all symmetry stuff for point group C_1.

 
 

Automatic generation of k-mesh.
 generate k-points for:    3    3    3
Space group operators:
 irot       det(A)        alpha          n_x          n_y          n_z        tau_x        tau_y        tau_z
    1     1.000000     0.000001     1.000000     0.000000     0.000000     0.000000     0.000000     0.000000
 
 Subroutine IBZKPT returns following result:
 ===========================================
 
 Found     14 irreducible k-points:
 
 Following reciprocal coordinates:
            Coordinates               Weight
  0.000000  0.000000  0.000000      1.000000
  0.333333  0.000000  0.000000      2.000000
  0.000000  0.333333  0.000000      2.000000
  0.333333  0.333333  0.000000      2.000000
 -0.333333  0.333333  0.000000      2.000000
  0.000000  0.000000  0.333333      2.000000
  0.333333  0.000000  0.333333      2.000000
 -0.333333  0.000000  0.333333      2.000000
  0.000000  0.333333  0.333333      2.000000
  0.333333  0.333333  0.333333      2.000000
 -0.333333  0.333333  0.333333      2.000000
  0.000000 -0.333333  0.333333      2.000000
  0.333333 -0.333333  0.333333      2.000000
 -0.333333 -0.333333  0.333333      2.000000
 
 Following cartesian coordinates:
            Coordinates               Weight
  0.000000  0.000000  0.000000      1.000000
  0.032480  0.000000  0.000000      2.000000
  0.000000  0.032480  0.000000      2.000000
  0.032480  0.032480  0.000000      2.000000
 -0.032480  0.032480  0.000000      2.000000
  0.000000  0.000000  0.032480      2.000000
  0.032480  0.000000  0.032480      2.000000
 -0.032480  0.000000  0.032480      2.000000
  0.000000  0.032480  0.032480      2.000000
  0.032480  0.032480  0.032480      2.000000
 -0.032480  0.032480  0.032480      2.000000
  0.000000 -0.032480  0.032480      2.000000
  0.032480 -0.032480  0.032480      2.000000
 -0.032480 -0.032480  0.032480      2.000000
 


--------------------------------------------------------------------------------------------------------




 Dimension of arrays:
   k-points           NKPTS =     14   k-points in BZ     NKDIM =     14   number of bands    NBANDS=    520
   number of dos      NEDOS =    301   number of ions     NIONS =    135
   non local maximal  LDIM  =      6   non local SUM 2l+1 LMDIM =     18
   total plane-waves  NPLWV = 592704
   max r-space proj   IRMAX =   7356   max aug-charges    IRDMAX= 209463
   dimension x,y,z NGX =    84 NGY =   84 NGZ =   84
   dimension x,y,z NGXF=   168 NGYF=  168 NGZF=  168
   support grid    NGXF=   336 NGYF=  336 NGZF=  336
   ions per type =              27  27  81
   NGX,Y,Z   is equivalent  to a cutoff of  13.61, 13.61, 13.61 a.u.
   NGXF,Y,Z  is equivalent  to a cutoff of  27.21, 27.21, 27.21 a.u.

 SYSTEM =  unknown system                          
 POSCAR =  Ca Si  O                                

 Startparameter for this run:
   NWRITE =      2    write-flag & timer
   PREC   = a         normal or accurate (medium, high low for compatibility)
   ISTART =      0    job   : 0-new  1-cont  2-samecut
   ICHARG =      2    charge: 1-file 2-atom 10-const
   ISPIN  =      1    spin polarized calculation?
   LNONCOLLINEAR =      F non collinear calculations
   LSORBIT =      F    spin-orbit coupling
   INIWAV =      1    electr: 0-lowe 1-rand  2-diag
   LASPH  =      F    aspherical Exc in radial PAW
   METAGGA=      F    non-selfconsistent MetaGGA calc.

 Electronic Relaxation 1
   ENCUT  =  600.0 eV  44.10 Ry    6.64 a.u.  20.50 20.50 20.50*2*pi/ulx,y,z
   ENINI  =  600.0     initial cutoff
   ENAUG  =  605.4 eV  augmentation charge cutoff
   NELM   =     60;   NELMIN=  2; NELMDL= -5     # of ELM steps 
   EDIFF  = 0.1E-05   stopping-criterion for ELM
   LREAL  =      T    real-space projection
   NLSPLINE    = F    spline interpolate recip. space projectors
   LCOMPAT=      F    compatible to vasp.4.4
   GGA_COMPAT  = T    GGA compatible to vasp.4.4-vasp.4.6
   LMAXPAW     = -100 max onsite density
   LMAXMIX     =    2 max onsite mixed and CHGCAR
   VOSKOWN=      0    Vosko Wilk Nusair interpolation
   ROPT   =   -0.00025  -0.00025  -0.00025
 Ionic relaxation
   EDIFFG = -.1E-01   stopping-criterion for IOM
   NSW    =      1    number of steps for IOM
   NBLOCK =      1;   KBLOCK =      1    inner block; outer block 
   IBRION =     -1    ionic relax: 0-MD 1-quasi-New 2-CG
   NFREE  =      0    steps in history (QN), initial steepest desc. (CG)
   ISIF   =      2    stress and relaxation
   IWAVPR =     10    prediction:  0-non 1-charg 2-wave 3-comb
   ISYM   =      0    0-nonsym 1-usesym 2-fastsym
   LCORR  =      T    Harris-Foulkes like correction to forces

   POTIM  = 1.0000    time-step for ionic-motion
   TEIN   =    0.0    initial temperature
   TEBEG  =    0.0;   TEEND  =   0.0 temperature during run
   SMASS  =  -3.00    Nose mass-parameter (am)
   estimated Nose-frequenzy (Omega)   =  0.10E-29 period in steps =****** mass=  -0.241E-26a.u.
   SCALEE = 1.0000    scale energy and forces
   NPACO  =    256;   APACO  = 16.0  distance and # of slots for P.C.
   PSTRESS=    0.0 pullay stress

  Mass of Ions in am
   POMASS =  40.08 28.09 16.00
  Ionic Valenz
   ZVAL   =  10.00  4.00  6.00
  Atomic Wigner-Seitz radii
   RWIGS  =  -1.00 -1.00 -1.00
  virtual crystal weights 
   VCA    =   1.00  1.00  1.00
   NELECT =     864.0000    total number of electrons
   NUPDOWN=      -1.0000    fix difference up-down

 DOS related values:
   EMIN   =  10.00;   EMAX   =-10.00  energy-range for DOS
   EFERMI =   0.00
   ISMEAR =     0;   SIGMA  =   0.05  broadening in eV -4-tet -1-fermi 0-gaus

 Electronic relaxation 2 (details)
   IALGO  =     38    algorithm
   LDIAG  =      T    sub-space diagonalisation (order eigenvalues)
   LSUBROT=      F    optimize rotation matrix (better conditioning)
   TURBO    =      0    0=normal 1=particle mesh
   IRESTART =      0    0=no restart 2=restart with 2 vectors
   NREBOOT  =      0    no. of reboots
   NMIN     =      0    reboot dimension
   EREF     =   0.00    reference energy to select bands
   IMIX   =      4    mixing-type and parameters
     AMIX     =   0.40;   BMIX     =  1.00
     AMIX_MAG =   1.60;   BMIX_MAG =  1.00
     AMIN     =   0.10
     WC   =   100.;   INIMIX=   1;  MIXPRE=   1;  MAXMIX= -45

 Intra band minimization:
   WEIMIN = 0.0000     energy-eigenvalue tresh-hold
   EBREAK =  0.48E-09  absolut break condition
   DEPER  =   0.30     relativ break condition  

   TIME   =   0.40     timestep for ELM

  volume/ion in A,a.u.               =       8.01        54.03
  Fermi-wavevector in a.u.,A,eV,Ry     =   1.519301  2.871062 31.405975  2.308274
  Thomas-Fermi vector in A             =   2.628305
 
 Write flags
   LWAVE        =      F    write WAVECAR
   LDOWNSAMPLE  =      F    k-point downsampling of WAVECAR
   LCHARG       =      F    write CHGCAR
   LVTOT        =      F    write LOCPOT, total local potential
   LVHAR        =      F    write LOCPOT, Hartree potential only
   LELF         =      F    write electronic localiz. function (ELF)
   LORBIT       =      0    0 simple, 1 ext, 2 COOP (PROOUT), +10 PAW based schemes


 Dipole corrections
   LMONO  =      F    monopole corrections only (constant potential shift)
   LDIPOL =      F    correct potential (dipole corrections)
   IDIPOL =      0    1-x, 2-y, 3-z, 4-all directions 
   EPSILON=  1.0000000 bulk dielectric constant

 Exchange correlation treatment:
   GGA     =    --    GGA type
   LEXCH   =     8    internal setting for exchange type
   VOSKOWN=      0    Vosko Wilk Nusair interpolation
   LHFCALC =     F    Hartree Fock is set to
   LHFONE  =     F    Hartree Fock one center treatment
   AEXX    =    0.0000 exact exchange contribution

 Linear response parameters
   LEPSILON=     F    determine dielectric tensor
   LRPA    =     F    only Hartree local field effects (RPA)
   LNABLA  =     F    use nabla operator in PAW spheres
   LVEL    =     F    velocity operator in full k-point grid
   LINTERFAST=   F  fast interpolation
   KINTER  =     0    interpolate to denser k-point grid
   CSHIFT  =0.1000    complex shift for real part using Kramers Kronig
   OMEGAMAX=  -1.0    maximum frequency
   DEG_THRESHOLD= 0.2000000E-02 threshold for treating states as degnerate
   RTIME   =   -0.100 relaxation time in fs
  (WPLASMAI=    0.000 imaginary part of plasma frequency in eV, 0.658/RTIME)
   DFIELD  = 0.0000000 0.0000000 0.0000000 field for delta impulse in time
 
 Orbital magnetization related:
   ORBITALMAG=     F  switch on orbital magnetization
   LCHIMAG   =     F  perturbation theory with respect to B field
   DQ        =  0.001000  dq finite difference perturbation B field
   LLRAUG    =     F  two centre corrections for induced B field



--------------------------------------------------------------------------------------------------------


 Static calculation
 charge density and potential will be updated during run
 non-spin polarized calculation
 Variant of blocked Davidson
 Davidson routine will perform the subspace rotation
 perform sub-space diagonalisation
    after iterative eigenvector-optimisation
 modified Broyden-mixing scheme, WC =      100.0
 initial mixing is a Kerker type mixing with AMIX =  0.4000 and BMIX =      1.0000
 Hartree-type preconditioning will be used
 using additional bands           88
 real space projection scheme for non local part
 use partial core corrections
 calculate Harris-corrections to forces 
   (improved forces if not selfconsistent)
 use gradient corrections 
 use of overlap-Matrix (Vanderbilt PP)
 Gauss-broadening in eV      SIGMA  =   0.05


--------------------------------------------------------------------------------------------------------


  energy-cutoff  :      600.00
  volume of cell :     1080.95
      direct lattice vectors                 reciprocal lattice vectors
    10.262875590  0.000000000  0.000000000     0.097438578  0.000000000  0.000000000
     0.000000000 10.262875590  0.000000000     0.000000000  0.097438578  0.000000000
     0.000000000  0.000000000 10.262875590     0.000000000  0.000000000  0.097438578

  length of vectors
    10.262875590 10.262875590 10.262875590     0.097438578  0.097438578  0.097438578


 
 k-points in units of 2pi/SCALE and weight: read from INCAR                         
   0.00000000  0.00000000  0.00000000       0.037
   0.03247953  0.00000000  0.00000000       0.074
   0.00000000  0.03247953  0.00000000       0.074
   0.03247953  0.03247953  0.00000000       0.074
  -0.03247953  0.03247953  0.00000000       0.074
   0.00000000  0.00000000  0.03247953       0.074
   0.03247953  0.00000000  0.03247953       0.074
  -0.03247953  0.00000000  0.03247953       0.074
   0.00000000  0.03247953  0.03247953       0.074
   0.03247953  0.03247953  0.03247953       0.074
  -0.03247953  0.03247953  0.03247953       0.074
   0.00000000 -0.03247953  0.03247953       0.074
   0.03247953 -0.03247953  0.03247953       0.074
  -0.03247953 -0.03247953  0.03247953       0.074
 
 k-points in reciprocal lattice and weights: read from INCAR                         
   0.00000000  0.00000000  0.00000000       0.037
   0.33333333  0.00000000  0.00000000       0.074
   0.00000000  0.33333333  0.00000000       0.074
   0.33333333  0.33333333  0.00000000       0.074
  -0.33333333  0.33333333  0.00000000       0.074
   0.00000000  0.00000000  0.33333333       0.074
   0.33333333  0.00000000  0.33333333       0.074
  -0.33333333  0.00000000  0.33333333       0.074
   0.00000000  0.33333333  0.33333333       0.074
   0.33333333  0.33333333  0.33333333       0.074
  -0.33333333  0.33333333  0.33333333       0.074
   0.00000000 -0.33333333  0.33333333       0.074
   0.33333333 -0.33333333  0.33333333       0.074
  -0.33333333 -0.33333333  0.33333333       0.074
 
 position of ions in fractional coordinates (direct lattice) 
   0.59087994  0.18981739  0.48531633
   0.07464732  0.24641811  0.20991887
   0.36290251  0.12610497  0.10048439
   0.50174562  0.70127524  0.58211071
   0.72259475  0.95702031  0.07037916
   0.87116339  0.53022088  0.16091310
   0.04484943  0.94790252  0.41758602
   0.30345395  0.01193067  0.46916720
   0.97302841  0.19363168  0.93499797
   0.05236228  0.41932505  0.40478026
   0.06463330  0.00666323  0.70165978
   0.30369347  0.51691246  0.21698231
   0.64183379  0.64306967  0.05152875
   0.53334871  0.14502860  0.92427947
   0.98103397  0.33669535  0.69337793
   0.26083654  0.73235792  0.96946882
   0.82546449  0.95329603  0.81024148
   0.74634605  0.28847224  0.02384456
   0.79583017  0.38148110  0.38463514
   0.30180586  0.50643971  0.76997445
   0.33793913  0.44739695  0.48466043
   0.10713894  0.66098584  0.22132572
   0.59612639  0.99078425  0.30038525
   0.20499899  0.92184383  0.24841710
   0.50250585  0.28333290  0.66385070
   0.75130666  0.90779064  0.53289801
   0.77843347  0.70948482  0.76869824
   0.69062228  0.49386552  0.60192679
   0.34628758  0.99819139  0.78547574
   0.42363528  0.39353918  0.04426840
   0.23102121  0.23147985  0.60820806
   0.54569547  0.46940667  0.29841002
   0.54913471  0.76985678  0.85698819
   0.94058658  0.14627576  0.50096978
   0.83652900  0.13684565  0.26452482
   0.23564235  0.26699568  0.86111323
   0.18013716  0.96821259  0.96794867
   0.45875090  0.85686307  0.11404708
   0.96401666  0.73716150  0.99567325
   0.11238899  0.45314392  0.01349878
   0.59358981  0.24106822  0.21004188
   0.20142728  0.68640150  0.49122304
   0.04289998  0.69073935  0.69197372
   0.88875636  0.64176100  0.49111800
   0.74317437  0.21779818  0.76656047
   0.41798182  0.74569057  0.32727556
   0.27968094  0.76195032  0.69859005
   0.86892197  0.47607401  0.85435515
   0.66811252  0.71950411  0.32635170
   0.61638865  0.47977019  0.84673607
   0.32915538  0.25282037  0.32800218
   0.99896802  0.97132580  0.08094969
   0.55087495  0.98191403  0.68400773
   0.87246073  0.82756858  0.24304675
   0.71577201  0.78273940  0.19553238
   0.07328291  0.61154749  0.00613182
   0.53693288  0.49584549  0.68457493
   0.15947871  0.81872192  0.61143606
   0.69038713  0.63021338  0.52550084
   0.25916370  0.10981517  0.30227216
   0.50492743  0.51410897  0.95577212
   0.66195340  0.56768202  0.28740482
   0.24570120  0.05545794  0.67829010
   0.27284757  0.50299829  0.03034078
   0.91810044  0.28942352  0.49575557
   0.35424078  0.21574953  0.49487757
   0.45841341  0.35504619  0.34664327
   0.49387076  0.16989344  0.29081515
   0.15454939  0.77784670  0.36055210
   0.50013168  0.94875808  0.85568692
   0.27722469  0.09857759  0.89059425
   0.12710631  0.42178424  0.85483159
   0.03525497  0.99386593  0.91771343
   0.30673419  0.62624442  0.60574416
   0.40565990  0.70474067  0.79798881
   0.44878148  0.09801905  0.70586318
   0.37527097  0.31888373  0.90639571
   0.31499601  0.92439730  0.04354156
   0.83983162  0.67065501  0.95310551
   0.89274222  0.13800602  0.69395390
   0.32966982  0.31002779  0.16836455
   0.74442681  0.13715891  0.42027327
   0.85634834  0.48420540  0.55893966
   0.61514207  0.30623953  0.83499481
   0.68190353  0.06500303  0.69874474
   0.89456309  0.09511604  0.11405541
   0.53486726  0.28275450  0.07675747
   0.16664071  0.27778017  0.02362576
   0.07928451  0.60720464  0.56164996
   0.46508223  0.76511406  0.99675323
   0.87634569  0.29040577  0.21094301
   0.44153136  0.59291783  0.37356484
   0.98939340  0.11896200  0.34155661
   0.41175264  0.93198703  0.25881255
   0.92597461  0.59191946  0.35294429
   0.19758827  0.57608705  0.40420383
   0.24018175  0.87728208  0.83890445
   0.85391495  0.32366800  0.85669506
   0.49127317  0.51149823  0.15706150
   0.82269912  0.77423104  0.37799623
   0.57948410  0.79816056  0.41125996
   0.81538701  0.95487165  0.32608866
   0.59368214  0.42061461  0.49195163
   0.74151370  0.49150643  0.95487476
   0.21545458  0.33308064  0.37875523
   0.91812428  0.77721158  0.57459883
   0.66403160  0.38575678  0.24097780
   0.68954813  0.13045471  0.17248041
   0.11792689  0.22090093  0.76304086
   0.91721578  0.70715278  0.14664225
   0.99896782  0.90670014  0.22314326
   0.62323287  0.63544200  0.81486946
   0.88900371  0.89446743  0.99780641
   0.09797858  0.83970002  0.06452599
   0.54189369  0.98508922  0.49785192
   0.70566258  0.32106743  0.63461972
   0.76569938  0.13109361  0.89320937
   0.98438324  0.56457686  0.77598192
   0.52726168  0.01258289  0.09535913
   0.17690277  0.67024607  0.77096455
   0.94768105  0.43257421  0.01838993
   0.30029027  0.74492542  0.20515503
   0.15189541  0.38568699  0.57948508
   0.62999440  0.85063512  0.69097170
   0.12788172  0.04650202  0.09441045
   0.11236680  0.13667467  0.52670498
   0.50638446  0.72857872  0.20490454
   0.34012803  0.78649795  0.47422159
   0.98195171  0.79802017  0.80549832
   0.92202438  0.00387866  0.56743108
   0.37336818  0.88948390  0.65659912
   0.77649810  0.50158519  0.72891252
   0.68170330  0.83807027  0.90721346
   0.06996182  0.44825881  0.19107634
   0.32436552  0.29854649  0.70330258
 
 position of ions in cartesian coordinates  (Angst):
   6.06412735  1.94807228  4.98074115
   0.76609620  2.52895844  2.15437125
   3.72442334  1.29419961  1.03125879
   5.14935283  7.19710056  5.97412975
   7.41590001  9.82178037  0.72229258
   8.94064154  5.44159097  1.65143108
   0.46028416  9.72820567  4.28563333
   3.11431012  0.12244302  4.81500461
   9.98606949  1.98721784  9.59576783
   0.53738755  4.30348084  4.15420945
   0.66332349  0.06838388  7.20104700
   3.11676829  5.30500827  2.22686245
   6.58706038  6.59974398  0.52883317
   5.47369145  1.48841048  9.48576521
  10.06822958  3.45546246  7.11605143
   2.67693294  7.51609819  9.94953784
   8.47163934  9.78355852  8.31540755
   7.65965663  2.96055475  0.24471376
   8.16750605  3.91509305  3.94746263
   3.09739604  5.19752778  7.90215203
   3.46822723  4.59157920  4.97400966
   1.09955362  6.78361543  2.27143835
   6.11797093 10.16829547  3.08281645
   2.10387915  9.46076857  2.54947384
   5.15715500  2.90781032  6.81301715
   7.71056680  9.31654239  5.46906598
   7.98896587  7.28135445  7.88905439
   7.08777057  5.06848041  6.17749973
   3.55390631 10.24431409  8.06123984
   4.34771618  4.03884364  0.45432113
   2.37094190  2.37564895  6.24196367
   5.60040470  4.81746221  3.06254492
   5.63570116  7.90094432  8.79516313
   9.65312302  1.50120992  5.14139051
   8.58519308  1.40442990  2.71478534
   2.41836811  2.74014341  8.83749795
   1.84872525  9.93664532  9.93393676
   4.70810340  8.79387909  1.17045101
   9.89358300  7.56539676 10.21847071
   1.15343419  4.65055965  0.13853633
   6.09193833  2.47405313  2.15563365
   2.06722314  7.04445318  5.04136090
   0.44027715  7.08897204  7.10164018
   9.12119593  6.58631334  5.04028298
   7.62710615  2.23523567  7.86711474
   4.28969546  7.65292952  3.35878832
   2.87033068  7.81980131  7.16954281
   8.91763808  4.88588830  8.76814063
   6.85675570  7.38418119  3.34930688
   6.32592000  4.92382176  8.68994691
   3.37808073  2.59466402  3.36624560
  10.25228451  9.96859584  0.83077661
   5.65356104 10.07726158  7.01988628
   8.95395591  8.49323337  2.49435854
   7.34587910  8.03315708  2.00672449
   0.75209339  6.27623584  0.06293012
   5.51047536  5.08880059  7.02570737
   1.63671012  8.40244116  6.27509221
   7.08535718  6.46780150  5.39314974
   2.65976477  1.12701942  3.10218156
   5.18200735  5.27623638  9.80897031
   6.79354540  5.82604996  2.94959993
   2.52160088  0.56915794  6.96120691
   2.80020070  5.16220885  0.31138368
   9.42235060  2.97031754  5.08787776
   3.63552909  2.21421063  5.07886692
   4.70463982  3.64379492  3.55755677
   5.06853416  1.74359528  2.98459969
   1.58612119  7.98294386  3.70030130
   5.13278923  9.73698613  8.78180844
   2.84512246  1.01168953  9.14005797
   1.30447622  4.32871923  8.77303028
   0.36181733 10.19992240  9.41837873
   3.14797480  6.42706858  6.21667695
   4.16323708  7.23266584  8.18965988
   4.60578847  1.00595730  7.24418603
   3.85135931  3.27266409  9.30222642
   3.23276491  9.48697450  0.44686159
   8.61908741  6.88284897  9.78160329
   9.16210234  1.41633866  7.12196257
   3.38336034  3.18177666  1.72790440
   7.63995970  1.40764486  4.31321229
   8.78859650  4.96933978  5.73632822
   6.31312652  3.14289822  8.56944787
   6.99829108  0.66711801  7.17113032
   9.18078971  0.97616405  1.17053646
   5.48927618  2.90187428  0.78775235
   1.71021284  2.85082337  0.24246820
   0.81368709  6.23166572  5.76414362
   4.77308103  7.85227044 10.22955442
   8.99382674  2.98039833  2.16488184
   4.53138142  6.08504188  3.83384946
  10.15402133  1.22089223  3.50535300
   4.22576613  9.56486698  2.65616097
   9.50316219  6.07479575  3.62222330
   2.02782385  5.91230971  4.14829358
   2.46495541  9.00343680  8.60957196
   8.76362293  3.32176439  8.79215479
   5.04187539  5.24944275  1.61190268
   8.44325870  7.94583689  3.87932831
   5.94717321  8.19142253  4.22070984
   8.36821541  9.79972890  3.34660734
   6.09288591  4.31671545  5.04883835
   7.61006289  5.04426932  9.79976089
   2.21118355  3.41836521  3.88711778
   9.42259528  7.97642572  5.89703632
   6.81487373  3.95897380  2.47312520
   7.07674664  1.33884050  1.77014497
   1.21026900  2.26707876  7.83099342
   9.41327141  7.25742100  1.50497113
  10.25228249  9.30535077  2.29009155
   6.39616143  6.52146218  8.36290390
   9.12373445  9.17980798 10.24036300
   1.00554193  8.61773684  0.66222222
   5.56138748 10.10984809  5.10939230
   7.24212724  3.29507504  6.51302323
   7.85827748  1.34539745  9.16689668
  10.10260276  5.79418203  7.96380591
   5.41122106  0.12913665  0.97865885
   1.81553112  6.87865201  7.91231329
   9.72593273  4.43945526  0.18873353
   3.08184173  7.64507690  2.10548052
   1.55888373  3.95825758  5.94718333
   6.46555413  8.72996246  7.09135662
   1.31243419  0.47724443  0.96892271
   1.15320653  1.40267511  5.40550768
   5.19696069  7.47731279  2.10290977
   3.49069162  8.07173060  4.86687719
  10.07764820  8.18998172  8.26672907
   9.46262154  0.03980617  5.82347461
   3.83183120  9.12866262  6.73859513
   7.96910338  5.14770643  7.48073852
   6.99623614  8.60101093  9.31061886
   0.71800945  4.60042440  1.96099270
   3.32892295  3.06394550  7.21790683
 


--------------------------------------------------------------------------------------------------------


 k-point  1 :   0.0000 0.0000 0.0000  plane waves:   36137
 k-point  2 :   0.3333 0.0000 0.0000  plane waves:   36093
 k-point  3 :   0.0000 0.3333 0.0000  plane waves:   36093
 k-point  4 :   0.3333 0.3333 0.0000  plane waves:   36091
 k-point  5 :  -0.3333 0.3333 0.0000  plane waves:   36091
 k-point  6 :   0.0000 0.0000 0.3333  plane waves:   36093
 k-point  7 :   0.3333 0.0000 0.3333  plane waves:   36091
 k-point  8 :  -0.3333 0.0000 0.3333  plane waves:   36091
 k-point  9 :   0.0000 0.3333 0.3333  plane waves:   36091
 k-point 10 :   0.3333 0.3333 0.3333  plane waves:   36060
 k-point 11 :  -0.3333 0.3333 0.3333  plane waves:   36060
 k-point 12 :   0.0000-0.3333 0.3333  plane waves:   36091
 k-point 13 :   0.3333-0.3333 0.3333  plane waves:   36060
 k-point 14 :  -0.3333-0.3333 0.3333  plane waves:   36060

 maximum and minimum number of plane-waves per node :      3039     2965

 maximum number of plane-waves:     36137
 maximum index in each direction: 
   IXMAX=   20   IYMAX=   20   IZMAX=   20
   IXMIN=  -20   IYMIN=  -20   IZMIN=  -20


 real space projection operators:
  total allocation   :      50465.89 KBytes
  max/ min on nodes  :       4279.98       4139.86


 parallel 3D FFT for wavefunctions:
    minimum data exchange during FFTs selected (reduces bandwidth)
 parallel 3D FFT for charge:
    minimum data exchange during FFTs selected (reduces bandwidth)


 total amount of memory used by VASP MPI-rank0   169870. kBytes
=======================================================================

   base      :      30000. kBytes
   nonlr-proj:      22107. kBytes
   fftplans  :      16051. kBytes
   grid      :       9274. kBytes
   one-center:        186. kBytes
   wavefun   :      92252. kBytes
 
     INWAV:  cpu time    0.0000: real time    0.0000
 Broyden mixing: mesh for mixing (old mesh)
   NGX = 41   NGY = 41   NGZ = 41
  (NGX  =168   NGY  =168   NGZ  =168)
  gives a total of  68921 points

 initial charge density was supplied:
 charge density of overlapping atoms calculated
 number of electron     864.0000000 magnetization 
 keeping initial charge density in first step


--------------------------------------------------------------------------------------------------------


 Maximum index for non-local projection operator          673
 Maximum index for augmentation-charges         4738 (set IRDMAX)


--------------------------------------------------------------------------------------------------------


 First call to EWALD:  gamma=   0.173
 Maximum number of real-space cells 3x 3x 3
 Maximum number of reciprocal cells 3x 3x 3

    FEWALD:  cpu time    0.0080: real time    0.0082


--------------------------------------- Iteration      1(   1)  ---------------------------------------


    POTLOK:  cpu time    0.0739: real time    0.0853
    SETDIJ:  cpu time    0.2843: real time    0.2845
     EDDAV:  cpu time   44.8358: real time   45.1136
       DOS:  cpu time    0.0044: real time    0.0044
    --------------------------------------------
      LOOP:  cpu time   45.1984: real time   45.4879

 eigenvalue-minimisations  : 14560
 total energy-change (2. order) : 0.1060583E+05  (-0.4981543E+05)
 number of electron     864.0000000 magnetization 
 augmentation part      864.0000000 magnetization 

 Free energy of the ion-electron system (eV)
  ---------------------------------------------------
  alpha Z        PSCENC =      4420.68831078
  Ewald energy   TEWEN  =    -58307.90143388
  -Hartree energ DENC   =    -11166.22793753
  -exchange      EXHF   =         0.00000000
  -V(xc)+E(xc)   XCENC  =      3305.69767927
  PAW double counting   =     50594.51003143   -49994.65612350
  entropy T*S    EENTRO =        -0.03112958
  eigenvalues    EBANDS =      6785.20845098
  atomic energy  EATOM  =     64968.54023382
  Solvation  Ediel_sol  =         0.00000000
  ---------------------------------------------------
  free energy    TOTEN  =     10605.82808180 eV

  energy without entropy =    10605.85921137  energy(sigma->0) =    10605.84364659


--------------------------------------------------------------------------------------------------------




--------------------------------------- Iteration      1(   2)  ---------------------------------------


     EDDAV:  cpu time   48.5232: real time   48.7713
       DOS:  cpu time    0.0017: real time    0.0017
    --------------------------------------------
      LOOP:  cpu time   48.5249: real time   48.7729

 eigenvalue-minimisations  : 16232
 total energy-change (2. order) :-0.1030838E+05  (-0.9867038E+04)
 number of electron     864.0000000 magnetization 
 augmentation part      864.0000000 magnetization 

 Free energy of the ion-electron system (eV)
  ---------------------------------------------------
  alpha Z        PSCENC =      4420.68831078
  Ewald energy   TEWEN  =    -58307.90143388
  -Hartree energ DENC   =    -11166.22793753
  -exchange      EXHF   =         0.00000000
  -V(xc)+E(xc)   XCENC  =      3305.69767927
  PAW double counting   =     50594.51003143   -49994.65612350
  entropy T*S    EENTRO =        -0.00000000
  eigenvalues    EBANDS =     -3523.20505153
  atomic energy  EATOM  =     64968.54023382
  Solvation  Ediel_sol  =         0.00000000
  ---------------------------------------------------
  free energy    TOTEN  =       297.44570886 eV

  energy without entropy =      297.44570886  energy(sigma->0) =      297.44570886


--------------------------------------------------------------------------------------------------------




--------------------------------------- Iteration      1(   3)  ---------------------------------------


     EDDAV:  cpu time   49.9273: real time   50.2299
       DOS:  cpu time    0.0017: real time    0.0017
    --------------------------------------------
      LOOP:  cpu time   49.9289: real time   50.2316

 eigenvalue-minimisations  : 16864
 total energy-change (2. order) :-0.1208554E+04  (-0.1197563E+04)
 number of electron     864.0000000 magnetization 
 augmentation part      864.0000000 magnetization 

 Free energy of the ion-electron system (eV)
  ---------------------------------------------------
  alpha Z        PSCENC =      4420.68831078
  Ewald energy   TEWEN  =    -58307.90143388
  -Hartree energ DENC   =    -11166.22793753
  -exchange      EXHF   =         0.00000000
  -V(xc)+E(xc)   XCENC  =      3305.69767927
  PAW double counting   =     50594.51003143   -49994.65612350
  entropy T*S    EENTRO =        -0.00000000
  eigenvalues    EBANDS =     -4731.75906830
  atomic energy  EATOM  =     64968.54023382
  Solvation  Ediel_sol  =         0.00000000
  ---------------------------------------------------
  free energy    TOTEN  =      -911.10830790 eV

  energy without entropy =     -911.10830790  energy(sigma->0) =     -911.10830790


--------------------------------------------------------------------------------------------------------




--------------------------------------- Iteration      1(   4)  ---------------------------------------


     EDDAV:  cpu time   59.3259: real time   59.7088
       DOS:  cpu time    0.0017: real time    0.0017
    --------------------------------------------
      LOOP:  cpu time   59.3276: real time   59.7105

 eigenvalue-minimisations  : 21096
 total energy-change (2. order) :-0.6294521E+02  (-0.6272255E+02)
 number of electron     864.0000000 magnetization 
 augmentation part      864.0000000 magnetization 

 Free energy of the ion-electron system (eV)
  ---------------------------------------------------
  alpha Z        PSCENC =      4420.68831078
  Ewald energy   TEWEN  =    -58307.90143388
  -Hartree energ DENC   =    -11166.22793753
  -exchange      EXHF   =         0.00000000
  -V(xc)+E(xc)   XCENC  =      3305.69767927
  PAW double counting   =     50594.51003143   -49994.65612350
  entropy T*S    EENTRO =        -0.00000000
  eigenvalues    EBANDS =     -4794.70427582
  atomic energy  EATOM  =     64968.54023382
  Solvation  Ediel_sol  =         0.00000000
  ---------------------------------------------------
  free energy    TOTEN  =      -974.05351543 eV

  energy without entropy =     -974.05351543  energy(sigma->0) =     -974.05351543


--------------------------------------------------------------------------------------------------------




--------------------------------------- Iteration      1(   5)  ---------------------------------------


     EDDAV:  cpu time   64.8525: real time   65.4019
       DOS:  cpu time    0.0017: real time    0.0017
    CHARGE:  cpu time    1.2406: real time    1.2505
    MIXING:  cpu time    0.0054: real time    0.0058
    --------------------------------------------
      LOOP:  cpu time   66.1002: real time   66.6600

 eigenvalue-minimisations  : 23568
 total energy-change (2. order) :-0.4632510E+01  (-0.4629749E+01)
 number of electron     864.0000006 magnetization 
 augmentation part      134.1328788 magnetization 

 Broyden mixing:
  rms(total) = 0.91253E+01    rms(broyden)= 0.91247E+01
  rms(prec ) = 0.10749E+02
  weight for this iteration     100.00

 Free energy of the ion-electron system (eV)
  ---------------------------------------------------
  alpha Z        PSCENC =      4420.68831078
  Ewald energy   TEWEN  =    -58307.90143388
  -Hartree energ DENC   =    -11166.22793753
  -exchange      EXHF   =         0.00000000
  -V(xc)+E(xc)   XCENC  =      3305.69767927
  PAW double counting   =     50594.51003143   -49994.65612350
  entropy T*S    EENTRO =        -0.00000000
  eigenvalues    EBANDS =     -4799.33678572
  atomic energy  EATOM  =     64968.54023382
  Solvation  Ediel_sol  =         0.00000000
  ---------------------------------------------------
  free energy    TOTEN  =      -978.68602532 eV

  energy without entropy =     -978.68602532  energy(sigma->0) =     -978.68602532


--------------------------------------------------------------------------------------------------------




--------------------------------------- Iteration      1(   6)  ---------------------------------------


    POTLOK:  cpu time    0.0768: real time    0.0838
    SETDIJ:  cpu time    0.2811: real time    0.2817
     EDDAV:  cpu time   51.2803: real time   51.5612
       DOS:  cpu time    0.0016: real time    0.0016
    CHARGE:  cpu time    1.2498: real time    1.2605
    MIXING:  cpu time    0.0057: real time    0.0057
    --------------------------------------------
      LOOP:  cpu time   52.8952: real time   53.1945

 eigenvalue-minimisations  : 17488
 total energy-change (2. order) : 0.1308089E+03  (-0.5146186E+02)
 number of electron     864.0000005 magnetization 
 augmentation part      123.7610918 magnetization 

 Broyden mixing:
  rms(total) = 0.39526E+01    rms(broyden)= 0.39518E+01
  rms(prec ) = 0.41560E+01
  weight for this iteration     100.00

 eigenvalues of (default mixing * dielectric matrix)
  average eigenvalue GAMMA=   1.2194
  1.2194

 Free energy of the ion-electron system (eV)
  ---------------------------------------------------
  alpha Z        PSCENC =      4420.68831078
  Ewald energy   TEWEN  =    -58307.90143388
  -Hartree energ DENC   =    -12222.71991092
  -exchange      EXHF   =         0.00000000
  -V(xc)+E(xc)   XCENC  =      3383.13454407
  PAW double counting   =     70863.09458186   -70396.64780144
  entropy T*S    EENTRO =        -0.00000000
  eigenvalues    EBANDS =     -3556.06565938
  atomic energy  EATOM  =     64968.54023382
  Solvation  Ediel_sol  =         0.00000000
  ---------------------------------------------------
  free energy    TOTEN  =      -847.87713510 eV

  energy without entropy =     -847.87713510  energy(sigma->0) =     -847.87713510


--------------------------------------------------------------------------------------------------------




--------------------------------------- Iteration      1(   7)  ---------------------------------------


    POTLOK:  cpu time    0.0705: real time    0.0773
    SETDIJ:  cpu time    0.2804: real time    0.2804
     EDDAV:  cpu time   52.2217: real time   52.5019
       DOS:  cpu time    0.0018: real time    0.0018
    CHARGE:  cpu time    1.2559: real time    1.2657
    MIXING:  cpu time    0.0052: real time    0.0052
    --------------------------------------------
      LOOP:  cpu time   53.8354: real time   54.1324

 eigenvalue-minimisations  : 17872
 total energy-change (2. order) :-0.1785090E+01  (-0.7248366E+01)
 number of electron     864.0000005 magnetization 
 augmentation part      121.2069716 magnetization 

 Broyden mixing:
  rms(total) = 0.17094E+01    rms(broyden)= 0.17094E+01
  rms(prec ) = 0.18499E+01
  weight for this iteration     100.00

 eigenvalues of (default mixing * dielectric matrix)
  average eigenvalue GAMMA=   1.3056
  1.3056  1.3056

 Free energy of the ion-electron system (eV)
  ---------------------------------------------------
  alpha Z        PSCENC =      4420.68831078
  Ewald energy   TEWEN  =    -58307.90143388
  -Hartree energ DENC   =    -12379.12832151
  -exchange      EXHF   =         0.00000000
  -V(xc)+E(xc)   XCENC  =      3395.28082057
  PAW double counting   =     93379.88698722   -92977.53624968
  entropy T*S    EENTRO =        -0.00000000
  eigenvalues    EBANDS =     -3349.49257287
  atomic energy  EATOM  =     64968.54023382
  Solvation  Ediel_sol  =         0.00000000
  ---------------------------------------------------
  free energy    TOTEN  =      -849.66222556 eV

  energy without entropy =     -849.66222556  energy(sigma->0) =     -849.66222556


--------------------------------------------------------------------------------------------------------




--------------------------------------- Iteration      1(   8)  ---------------------------------------


    POTLOK:  cpu time    0.0746: real time    0.0822
    SETDIJ:  cpu time    0.2808: real time    0.2813
     EDDAV:  cpu time   54.0022: real time   54.3832
       DOS:  cpu time    0.0017: real time    0.0017
    CHARGE:  cpu time    1.2394: real time    1.2420
    MIXING:  cpu time    0.0051: real time    0.0052
    --------------------------------------------
      LOOP:  cpu time   55.6038: real time   55.9957

 eigenvalue-minimisations  : 18728
 total energy-change (2. order) : 0.5853282E+00  (-0.1125988E+01)
 number of electron     864.0000005 magnetization 
 augmentation part      121.4434703 magnetization 

 Broyden mixing:
  rms(total) = 0.71403E+00    rms(broyden)= 0.71394E+00
  rms(prec ) = 0.81183E+00
  weight for this iteration     100.00

 eigenvalues of (default mixing * dielectric matrix)
  average eigenvalue GAMMA=   1.3996
  2.1284  1.0352  1.0352

 Free energy of the ion-electron system (eV)
  ---------------------------------------------------
  alpha Z        PSCENC =      4420.68831078
  Ewald energy   TEWEN  =    -58307.90143388
  -Hartree energ DENC   =    -12329.89326403
  -exchange      EXHF   =         0.00000000
  -V(xc)+E(xc)   XCENC  =      3392.69350253
  PAW double counting   =    103931.66264108  -103557.48916379
  entropy T*S    EENTRO =        -0.00000000
  eigenvalues    EBANDS =     -3367.37772385
  atomic energy  EATOM  =     64968.54023382
  Solvation  Ediel_sol  =         0.00000000
  ---------------------------------------------------
  free energy    TOTEN  =      -849.07689734 eV

  energy without entropy =     -849.07689734  energy(sigma->0) =     -849.07689734


--------------------------------------------------------------------------------------------------------




--------------------------------------- Iteration      1(   9)  ---------------------------------------


    POTLOK:  cpu time    0.0749: real time    0.0810
    SETDIJ:  cpu time    0.2807: real time    0.2817
     EDDAV:  cpu time   51.3981: real time   51.5710
       DOS:  cpu time    0.0017: real time    0.0017
    CHARGE:  cpu time    1.2521: real time    1.2526
    MIXING:  cpu time    0.0052: real time    0.0052
    --------------------------------------------
      LOOP:  cpu time   53.0127: real time   53.1932

 eigenvalue-minimisations  : 17416
 total energy-change (2. order) : 0.1785005E+00  (-0.2526189E+00)
 number of electron     864.0000005 magnetization 
 augmentation part      120.7185430 magnetization 

 Broyden mixing:
  rms(total) = 0.20919E+00    rms(broyden)= 0.20916E+00
  rms(prec ) = 0.23835E+00
  weight for this iteration     100.00

 eigenvalues of (default mixing * dielectric matrix)
  average eigenvalue GAMMA=   1.3984
  2.2227  1.4051  0.9829  0.9829

 Free energy of the ion-electron system (eV)
  ---------------------------------------------------
  alpha Z        PSCENC =      4420.68831078
  Ewald energy   TEWEN  =    -58307.90143388
  -Hartree energ DENC   =    -12392.17368341
  -exchange      EXHF   =         0.00000000
  -V(xc)+E(xc)   XCENC  =      3397.79023773
  PAW double counting   =    111936.63770094  -111580.66169430
  entropy T*S    EENTRO =        -0.00000000
  eigenvalues    EBANDS =     -3291.81806853
  atomic energy  EATOM  =     64968.54023382
  Solvation  Ediel_sol  =         0.00000000
  ---------------------------------------------------
  free energy    TOTEN  =      -848.89839685 eV

  energy without entropy =     -848.89839685  energy(sigma->0) =     -848.89839685


--------------------------------------------------------------------------------------------------------




--------------------------------------- Iteration      1(  10)  ---------------------------------------


    POTLOK:  cpu time    0.0732: real time    0.0812
    SETDIJ:  cpu time    0.2818: real time    0.2819
     EDDAV:  cpu time   59.9287: real time   60.0240
       DOS:  cpu time    0.0017: real time    0.0017
    CHARGE:  cpu time    1.2542: real time    1.2547
    MIXING:  cpu time    0.0054: real time    0.0054
    --------------------------------------------
      LOOP:  cpu time   61.5449: real time   61.6490

 eigenvalue-minimisations  : 21288
 total energy-change (2. order) :-0.6378290E-01  (-0.8516981E-01)
 number of electron     864.0000005 magnetization 
 augmentation part      120.5354224 magnetization 

 Broyden mixing:
  rms(total) = 0.14362E+00    rms(broyden)= 0.14360E+00
  rms(prec ) = 0.16091E+00
  weight for this iteration     100.00

 eigenvalues of (default mixing * dielectric matrix)
  average eigenvalue GAMMA=   1.3669
  2.3334  1.5031  1.2281  0.8851  0.8851

 Free energy of the ion-electron system (eV)
  ---------------------------------------------------
  alpha Z        PSCENC =      4420.68831078
  Ewald energy   TEWEN  =    -58307.90143388
  -Hartree energ DENC   =    -12395.79679045
  -exchange      EXHF   =         0.00000000
  -V(xc)+E(xc)   XCENC  =      3398.20124805
  PAW double counting   =    112865.56035317  -112508.82750488
  entropy T*S    EENTRO =        -0.00000000
  eigenvalues    EBANDS =     -3289.42659638
  atomic energy  EATOM  =     64968.54023382
  Solvation  Ediel_sol  =         0.00000000
  ---------------------------------------------------
  free energy    TOTEN  =      -848.96217976 eV

  energy without entropy =     -848.96217976  energy(sigma->0) =     -848.96217976


--------------------------------------------------------------------------------------------------------




--------------------------------------- Iteration      1(  11)  ---------------------------------------


    POTLOK:  cpu time    0.0755: real time    0.0769
    SETDIJ:  cpu time    0.2824: real time    0.2825
     EDDAV:  cpu time   51.5951: real time   51.7034
       DOS:  cpu time    0.0018: real time    0.0018
    CHARGE:  cpu time    1.2444: real time    1.2470
    MIXING:  cpu time    0.0045: real time    0.0045
    --------------------------------------------
      LOOP:  cpu time   53.2037: real time   53.3160

 eigenvalue-minimisations  : 17560
 total energy-change (2. order) :-0.1215474E-02  (-0.1311942E-01)
 number of electron     864.0000005 magnetization 
 augmentation part      120.4598979 magnetization 

 Broyden mixing:
  rms(total) = 0.74613E-01    rms(broyden)= 0.74604E-01
  rms(prec ) = 0.83157E-01
  weight for this iteration     100.00

 eigenvalues of (default mixing * dielectric matrix)
  average eigenvalue GAMMA=   1.4384
  2.3170  2.3170  1.0615  1.0615  0.9366  0.9366

 Free energy of the ion-electron system (eV)
  ---------------------------------------------------
  alpha Z        PSCENC =      4420.68831078
  Ewald energy   TEWEN  =    -58307.90143388
  -Hartree energ DENC   =    -12405.68171608
  -exchange      EXHF   =         0.00000000
  -V(xc)+E(xc)   XCENC  =      3398.91779637
  PAW double counting   =    112812.53409869  -112453.80707676
  entropy T*S    EENTRO =        -0.00000000
  eigenvalues    EBANDS =     -3282.25360817
  atomic energy  EATOM  =     64968.54023382
  Solvation  Ediel_sol  =         0.00000000
  ---------------------------------------------------
  free energy    TOTEN  =      -848.96339523 eV

  energy without entropy =     -848.96339523  energy(sigma->0) =     -848.96339523


--------------------------------------------------------------------------------------------------------




--------------------------------------- Iteration      1(  12)  ---------------------------------------


    POTLOK:  cpu time    0.0948: real time    0.1008
    SETDIJ:  cpu time    0.2836: real time    0.2842
     EDDAV:  cpu time   53.9523: real time   54.0907
       DOS:  cpu time    0.0017: real time    0.0017
    CHARGE:  cpu time    1.2534: real time    1.2538
    MIXING:  cpu time    0.0049: real time    0.0049
    --------------------------------------------
      LOOP:  cpu time   55.5907: real time   55.7360

 eigenvalue-minimisations  : 18600
 total energy-change (2. order) :-0.1984061E-03  (-0.4070302E-02)
 number of electron     864.0000005 magnetization 
 augmentation part      120.5074087 magnetization 

 Broyden mixing:
  rms(total) = 0.17698E-01    rms(broyden)= 0.17685E-01
  rms(prec ) = 0.21468E-01
  weight for this iteration     100.00

 eigenvalues of (default mixing * dielectric matrix)
  average eigenvalue GAMMA=   1.4382
  2.5526  2.4383  1.2319  0.9971  0.9971  0.9251  0.9251

 Free energy of the ion-electron system (eV)
  ---------------------------------------------------
  alpha Z        PSCENC =      4420.68831078
  Ewald energy   TEWEN  =    -58307.90143388
  -Hartree energ DENC   =    -12403.43042242
  -exchange      EXHF   =         0.00000000
  -V(xc)+E(xc)   XCENC  =      3398.74070479
  PAW double counting   =    112482.51311377  -112120.93643351
  entropy T*S    EENTRO =        -0.00000000
  eigenvalues    EBANDS =     -3287.17766699
  atomic energy  EATOM  =     64968.54023382
  Solvation  Ediel_sol  =         0.00000000
  ---------------------------------------------------
  free energy    TOTEN  =      -848.96359364 eV

  energy without entropy =     -848.96359364  energy(sigma->0) =     -848.96359364


--------------------------------------------------------------------------------------------------------




--------------------------------------- Iteration      1(  13)  ---------------------------------------


    POTLOK:  cpu time    0.0768: real time    0.0842
    SETDIJ:  cpu time    0.2825: real time    0.2836
     EDDAV:  cpu time   58.1479: real time   58.2895
       DOS:  cpu time    0.0017: real time    0.0017
    CHARGE:  cpu time    1.2541: real time    1.2546
    MIXING:  cpu time    0.0050: real time    0.0050
    --------------------------------------------
      LOOP:  cpu time   59.7681: real time   59.9186

 eigenvalue-minimisations  : 20448
 total energy-change (2. order) :-0.3655261E-03  (-0.6467302E-03)
 number of electron     864.0000005 magnetization 
 augmentation part      120.4948052 magnetization 

 Broyden mixing:
  rms(total) = 0.99225E-02    rms(broyden)= 0.99212E-02
  rms(prec ) = 0.11035E-01
  weight for this iteration     100.00

 eigenvalues of (default mixing * dielectric matrix)
  average eigenvalue GAMMA=   1.3875
  2.5825  2.4726  1.4354  0.9265  0.9265  0.9793  0.9793  0.7981

 Free energy of the ion-electron system (eV)
  ---------------------------------------------------
  alpha Z        PSCENC =      4420.68831078
  Ewald energy   TEWEN  =    -58307.90143388
  -Hartree energ DENC   =    -12406.40733013
  -exchange      EXHF   =         0.00000000
  -V(xc)+E(xc)   XCENC  =      3398.94290100
  PAW double counting   =    112437.54917542  -112075.18145719
  entropy T*S    EENTRO =        -0.00000000
  eigenvalues    EBANDS =     -3285.19435898
  atomic energy  EATOM  =     64968.54023382
  Solvation  Ediel_sol  =         0.00000000
  ---------------------------------------------------
  free energy    TOTEN  =      -848.96395916 eV

  energy without entropy =     -848.96395916  energy(sigma->0) =     -848.96395916


--------------------------------------------------------------------------------------------------------




--------------------------------------- Iteration      1(  14)  ---------------------------------------


    POTLOK:  cpu time    0.0720: real time    0.0809
    SETDIJ:  cpu time    0.2846: real time    0.2848
     EDDAV:  cpu time   57.4273: real time   57.5766
       DOS:  cpu time    0.0016: real time    0.0016
    CHARGE:  cpu time    1.2574: real time    1.2580
    MIXING:  cpu time    0.0055: real time    0.0055
    --------------------------------------------
      LOOP:  cpu time   59.0486: real time   59.2073

 eigenvalue-minimisations  : 20176
 total energy-change (2. order) :-0.7004663E-04  (-0.1075600E-03)
 number of electron     864.0000005 magnetization 
 augmentation part      120.4955723 magnetization 

 Broyden mixing:
  rms(total) = 0.69103E-02    rms(broyden)= 0.69098E-02
  rms(prec ) = 0.76335E-02
  weight for this iteration     100.00

 eigenvalues of (default mixing * dielectric matrix)
  average eigenvalue GAMMA=   1.3766
  2.7623  2.3486  1.6276  1.0021  1.0021  0.9107  0.9107  0.9125  0.9125

 Free energy of the ion-electron system (eV)
  ---------------------------------------------------
  alpha Z        PSCENC =      4420.68831078
  Ewald energy   TEWEN  =    -58307.90143388
  -Hartree energ DENC   =    -12406.77456667
  -exchange      EXHF   =         0.00000000
  -V(xc)+E(xc)   XCENC  =      3398.96600743
  PAW double counting   =    112442.30116568  -112079.84485707
  entropy T*S    EENTRO =        -0.00000000
  eigenvalues    EBANDS =     -3284.93888930
  atomic energy  EATOM  =     64968.54023382
  Solvation  Ediel_sol  =         0.00000000
  ---------------------------------------------------
  free energy    TOTEN  =      -848.96402921 eV

  energy without entropy =     -848.96402921  energy(sigma->0) =     -848.96402921


--------------------------------------------------------------------------------------------------------




[...]
   -.134E+02 0.203E+01 0.178E+02   0.165E+02 -.100E+02 -.290E+01   -.431E+01 0.745E+01 -.177E+02   -.104E-04 0.377E-04 0.394E-03
   0.102E+03 0.405E+02 -.378E+02   -.104E+03 -.703E+02 0.303E+02   -.263E+01 0.303E+02 0.839E+01   0.448E-03 0.687E-04 -.192E-04
   -.532E+01 0.511E+02 0.280E+02   -.611E+01 -.702E+02 -.352E+02   0.145E+02 0.165E+02 0.431E+01   0.250E-03 -.197E-03 -.272E-04
   0.118E+02 -.427E+02 0.487E+00   -.650E+01 0.599E+02 -.107E+02   -.736E+01 -.173E+02 0.120E+02   -.718E-04 0.162E-03 -.285E-03
   -.571E+02 -.154E+02 -.634E+02   0.542E+02 0.621E+01 0.766E+02   0.422E+01 0.859E+01 -.126E+02   -.162E-03 0.106E-03 0.179E-04
   -.721E+01 -.545E+02 -.320E+01   0.269E+02 0.535E+02 -.526E+01   -.231E+02 0.203E+01 0.834E+01   0.136E-03 -.361E-03 -.707E-04
   -.401E+01 -.102E+02 -.794E+02   -.200E+01 0.253E+02 0.899E+02   0.591E+01 -.174E+02 -.858E+01   0.296E-03 -.132E-03 -.360E-03
   0.203E+02 -.130E+02 -.566E+02   -.142E+02 0.862E+01 0.333E+02   -.464E+01 0.186E+01 0.217E+02   -.194E-03 -.917E-04 -.359E-03
   0.260E+02 0.175E+02 0.103E+02   -.306E+02 -.428E+02 -.291E+02   0.691E+01 0.165E+02 0.973E+01   0.385E-03 0.625E-03 0.265E-03
   0.378E+02 0.531E+01 0.503E+02   -.448E+02 -.188E+02 -.562E+02   0.620E+01 0.167E+02 0.454E+01   0.443E-03 -.769E-03 0.455E-03
   -.165E+02 -.300E+02 0.552E+02   0.192E+02 0.153E+02 -.496E+02   -.425E+01 0.136E+02 -.952E+01   -.298E-03 0.112E-03 0.366E-03
   -.319E+02 -.157E+02 0.752E+02   0.347E+02 0.362E+02 -.913E+02   -.383E+01 -.233E+02 0.148E+02   -.959E-04 0.661E-03 -.109E-03
   -.343E+02 0.839E+02 -.917E+02   0.378E+02 -.813E+02 0.115E+03   -.516E+01 -.875E+01 -.185E+02   -.356E-03 0.314E-03 -.128E-03
   0.504E+01 -.290E+01 -.573E+02   -.191E+02 0.257E+02 0.831E+02   0.109E+02 -.214E+02 -.248E+02   0.135E-03 -.201E-03 0.154E-03
   0.893E+01 -.574E+02 -.304E+02   -.141E+02 0.651E+02 0.465E+02   0.384E+01 -.160E+01 -.201E+02   -.487E-03 -.502E-03 0.196E-03
   0.938E+01 -.485E+02 0.260E+02   -.229E+02 0.414E+02 -.323E+02   0.141E+02 0.764E+01 0.228E+01   -.719E-04 0.111E-03 0.414E-03
   0.322E+02 0.291E+02 -.614E+02   -.298E+02 -.227E+02 0.831E+02   -.546E+01 -.974E+01 -.209E+02   -.455E-03 0.508E-03 0.216E-03
   0.560E+02 0.654E+02 0.296E+02   -.779E+02 -.557E+02 -.180E+02   0.206E+02 -.943E+01 -.155E+02   0.690E-03 0.444E-03 -.127E-03
   -.242E+02 0.223E+02 -.226E+02   0.279E+02 0.250E+01 0.271E+02   -.342E+01 -.278E+02 -.211E+01   -.631E-03 0.287E-03 0.159E-03
   -.491E+02 0.131E+02 0.573E+02   0.742E+02 -.261E+01 -.662E+02   -.249E+02 -.189E+02 0.485E+01   0.281E-04 0.676E-03 -.422E-04
   -.406E+02 -.402E+02 -.598E+01   0.460E+02 0.198E+02 -.954E+01   -.260E+01 0.221E+02 0.164E+02   -.549E-03 -.545E-03 -.476E-03
   -.192E+02 0.109E+02 -.204E+02   0.284E+01 -.188E+02 0.128E+02   0.174E+02 0.491E+01 0.890E+01   -.496E-03 0.214E-03 0.127E-03
   0.396E+02 -.151E+02 -.288E+02   -.430E+02 0.908E+00 0.319E+02   0.482E+01 0.192E+02 -.526E+00   -.145E-03 -.668E-03 -.410E-03
   0.493E+02 -.789E+01 -.603E+02   -.281E+02 0.126E+02 0.743E+02   -.210E+02 -.376E+01 -.115E+02   0.361E-03 -.481E-03 -.191E-03
   0.114E+03 0.249E+02 0.396E+02   -.112E+03 -.281E+02 -.511E+02   -.581E+01 0.441E+01 0.144E+02   0.344E-03 0.533E-03 0.264E-03
   0.291E+02 0.458E+02 0.251E+02   -.451E+02 -.483E+02 -.397E+02   0.148E+02 -.153E+01 0.175E+02   -.847E-03 0.282E-04 -.401E-03
   -.245E+02 0.102E+03 0.673E+02   0.358E+02 -.116E+03 -.560E+02   -.979E+01 0.105E+02 -.157E+02   0.348E-03 -.179E-03 0.369E-03
   0.519E+02 0.186E+02 -.518E+02   -.570E+02 -.262E+02 0.423E+02   0.423E+01 0.991E+01 0.137E+02   0.416E-03 -.751E-04 -.201E-03
   -.802E+02 0.503E+02 0.316E+02   0.835E+02 -.500E+02 -.451E+02   -.757E+00 -.456E+01 0.146E+02   -.778E-03 0.120E-03 0.172E-03
   0.401E+02 0.648E+02 -.221E+02   -.356E+02 -.802E+02 0.388E+02   -.617E+01 0.128E+02 -.120E+02   -.255E-03 -.218E-03 -.255E-03
   -.458E+02 0.500E+01 0.297E+02   0.608E+02 -.946E+01 -.266E+02   -.185E+02 0.261E+01 -.290E+01   -.313E-03 0.288E-03 0.263E-03
   -.140E+02 0.355E+02 0.689E+02   0.185E+02 -.226E+02 -.688E+02   -.347E+01 -.162E+02 -.229E+01   0.177E-03 -.286E-03 -.300E-03
   0.687E+02 0.601E+02 -.727E+02   -.714E+02 -.777E+02 0.964E+02   0.292E+01 0.165E+02 -.197E+02   0.643E-03 0.206E-03 0.102E-03
   -.338E+02 0.536E+02 0.414E+02   0.243E+02 -.589E+02 -.340E+02   0.945E+01 0.234E+01 -.130E+02   -.591E-03 0.657E-03 0.290E-03
   -.418E+02 0.680E+02 0.520E+02   0.329E+02 -.683E+02 -.628E+02   0.910E+01 -.195E+01 0.940E+01   0.418E-04 -.782E-04 -.262E-03
   0.214E+02 -.421E+02 -.910E+02   -.277E+02 0.585E+02 0.915E+02   0.821E+01 -.187E+02 0.212E+01   0.490E-04 0.246E-03 -.196E-03
   0.101E+02 0.423E+02 0.393E+02   0.343E+01 -.602E+02 -.405E+02   -.136E+02 0.135E+02 0.129E+01   0.248E-03 -.144E-03 0.191E-03
   -.421E+02 -.173E+03 -.253E+02   0.583E+02 0.201E+03 0.446E+02   -.120E+02 -.219E+02 -.160E+02   -.110E-03 -.971E-03 -.860E-04
   -.123E+02 -.508E+02 0.374E+02   0.167E+02 0.466E+02 -.449E+02   -.469E+01 0.463E+01 0.743E+01   -.860E-04 -.652E-03 0.149E-03
   -.361E+02 0.291E+02 0.254E+02   0.481E+02 -.515E+02 -.407E+02   -.650E+01 0.233E+02 0.134E+02   -.157E-03 -.236E-03 -.413E-03
   -.286E+02 -.621E+02 0.140E+02   0.312E+02 0.770E+02 -.612E+00   -.638E+00 -.145E+02 -.188E+02   0.552E-03 -.205E-03 0.335E-03
   -.551E+02 0.189E+02 0.426E+02   0.539E+02 -.569E+01 -.358E+02   0.173E+01 -.135E+02 -.658E+01   -.703E-03 0.121E-03 0.483E-04
   0.525E+02 0.475E+02 -.823E+00   -.589E+02 -.656E+02 0.141E+02   0.562E+01 0.148E+02 -.186E+02   -.230E-04 -.240E-03 0.530E-04
   -.600E+02 0.526E+01 0.360E+02   0.653E+02 0.963E+00 -.585E+02   -.186E+01 -.685E+01 0.238E+02   0.367E-03 -.400E-03 -.394E-04
   -.266E+02 -.590E+01 0.308E+02   0.360E+02 0.671E+01 -.360E+02   -.124E+02 -.612E-01 0.124E+02   -.167E-03 0.492E-03 0.283E-03
   0.432E+02 -.307E+02 -.325E+02   -.264E+02 0.401E+02 0.406E+02   -.169E+02 -.968E+01 -.564E+01   -.149E-03 -.207E-03 -.169E-03
   -.250E+02 0.226E+02 0.633E+01   0.213E+02 -.232E+02 0.216E+01   0.650E+01 0.214E+01 -.917E+01   -.208E-03 0.524E-03 0.385E-04
   0.286E+02 -.561E+02 -.477E+02   -.126E+02 0.690E+02 0.587E+02   -.175E+02 -.107E+02 -.610E+01   0.102E-02 0.219E-03 -.440E-03
 -----------------------------------------------------------------------------------------------
   -.647E+01 -.177E+02 -.579E+02   -.544E-12 -.938E-12 0.604E-12   0.647E+01 0.177E+02 0.579E+02   0.123E-02 -.770E-03 0.127E-02
 
 
 POSITION                                       TOTAL-FORCE (eV/Angst)
 -----------------------------------------------------------------------------------
      6.06413      1.94807      4.98074        -4.192968      1.614249      1.936400
      0.76610      2.52896      2.15437         3.540470     -0.835373     -1.031755
      3.72442      1.29420      1.03126        -3.532545     -1.215756      1.306684
      5.14935      7.19710      5.97413         0.668534     -0.365067      0.752675
      7.41590      9.82178      0.72229        -1.197209      0.569057     -1.113664
      8.94064      5.44159      1.65143        -3.068024     -4.244007      1.576236
      0.46028      9.72821      4.28563        -0.064844     -3.484420      3.329502
      3.11431      0.12244      4.81500         2.874999     -2.679657      3.175679
      9.98607      1.98722      9.59577         3.346634     -0.130138      0.531450
      0.53739      4.30348      4.15421        -1.767059      2.885847      1.550882
      0.66332      0.06838      7.20105        -0.300755     -1.439080      2.272105
      3.11677      5.30501      2.22686        -2.901900      0.528286      4.848073
      6.58706      6.59974      0.52883        -0.033307      0.236614      1.532566
      5.47369      1.48841      9.48577        -0.247845     -2.309677     -2.124793
     10.06823      3.45546      7.11605         0.486372      3.066960     -3.997211
      2.67693      7.51610      9.94954         0.005535     -5.453742      1.785566
      8.47164      9.78356      8.31541         1.295438      0.126930     -2.062755
      7.65966      2.96055      0.24471         1.867368      1.949440      2.504819
      8.16751      3.91509      3.94746        -0.836768      2.115183      1.755508
      3.09740      5.19753      7.90215         0.748427     -0.996996      1.385757
      3.46823      4.59158      4.97401         0.771493      1.597434      4.128316
      1.09955      6.78362      2.27144        -0.957062     -1.863921     -0.612371
      6.11797     10.16830      3.08282         0.798554     -1.753609      2.082896
      2.10388      9.46077      2.54947         2.870024      0.807554     -3.759867
      5.15715      2.90781      6.81302         1.500053      2.851945     -0.683682
      7.71057      9.31654      5.46907        -0.785058      0.378403     -1.890300
      7.98897      7.28135      7.88905         6.778098      2.641564     -4.543052
      7.08777      5.06848      6.17750        -1.760329     -4.936755     -2.762661
      3.55391     10.24431      8.06124        -0.457079     -1.932472     -2.666278
      4.34772      4.03884      0.45432        -2.551655      4.965358     -0.116778
      2.37094      2.37565      6.24196        -7.213938     -2.112066     -2.836400
      5.60040      4.81746      3.06254        -2.016848      3.717334      4.558701
      5.63570      7.90094      8.79516        -3.808866      3.248448     -1.571006
      9.65312      1.50121      5.14139         1.263068     -2.490239      2.428563
      8.58519      1.40443      2.71479         1.379122     -1.869367      1.215701
      2.41837      2.74014      8.83750        -4.353661      1.073197      0.747049
      1.84873      9.93665      9.93394         3.585268     -0.872732     -1.885730
      4.70810      8.79388      1.17045        -4.796456      4.643515      3.414093
      9.89358      7.56540     10.21847         4.356637      1.644937     -2.908497
      1.15343      4.65056      0.13854        -0.353706     -0.989720      1.102485
      6.09194      2.47405      2.15563         0.650594      3.978845      2.038796
      2.06722      7.04445      5.04136         0.091921      7.724020      2.047857
      0.44028      7.08897      7.10164        -2.188265      1.606087      2.160799
      9.12120      6.58631      5.04028        -0.867871     -1.372550      1.840249
      7.62711      2.23524      7.86711         3.493440      0.583682     -6.274546
      4.28970      7.65293      3.35879        -4.029432      2.670812      3.451356
      2.87033      7.81980      7.16954         3.026744      1.569230      2.277848
      8.91764      4.88589      8.76814         3.747676      5.981668      4.575550
      6.85676      7.38418      3.34931         2.497904     -4.142752      0.183454
      6.32592      4.92382      8.68995        -1.837174     -0.496345     -2.453160
      3.37808      2.59466      3.36625         2.957247     -3.004155     -1.030160
     10.25228      9.96860      0.83078        -4.519704      0.705991     -1.069383
      5.65356     10.07726      7.01989        -2.116409     -0.929618     -3.646848
      8.95396      8.49323      2.49436        -2.965161     -1.669449     -0.447271
      7.34588      8.03316      2.00672         0.814762      3.565474     -4.018575
      0.75209      6.27624      0.06293         0.784191      3.118770     -0.391807
      5.51048      5.08880      7.02571        -0.297907     -0.982510      2.174829
      1.63671      8.40244      6.27509        -2.464850      0.745501     -2.065256
      7.08536      6.46780      5.39315         2.302865      3.397393     -0.041186
      2.65976      1.12702      3.10218        -0.650805      2.263260     -2.168647
      5.18201      5.27624      9.80897        -1.439074     -3.525654     -2.772355
      6.79355      5.82605      2.94960         5.094128      6.137618      1.034865
      2.52160      0.56916      6.96121         0.475054      2.994461     -3.084704
      2.80020      5.16221      0.31138         1.311808     -0.336322     -2.863620
      9.42235      2.97032      5.08788         0.904578      1.151223      0.658186
      3.63553      2.21421      5.07887         1.368240     -0.654073      1.283428
      4.70464      3.64379      3.55756        -2.492448      0.653104     -0.297232
      5.06853      1.74360      2.98460        -2.735432     -4.271257      1.550370
      1.58612      7.98294      3.70030        -4.083852      2.521415      5.827916
      5.13279      9.73699      8.78181        -2.367152     -0.488574     -1.658721
      2.84512      1.01169      9.14006         0.628477      1.293121      3.224802
      1.30448      4.32872      8.77303         2.321074     -1.327837     -0.194426
      0.36182     10.19992      9.41838         0.449278      3.537605     -4.605720
      3.14797      6.42707      6.21668         0.754129     -0.494560     -0.837916
      4.16324      7.23267      8.18966         0.577804      0.776325     -1.035272
      4.60579      1.00596      7.24419         1.193873      1.795127      1.341162
      3.85136      3.27266      9.30223         2.955961     -0.186062      2.558273
      3.23276      9.48697      0.44686         0.662748      0.560876      1.075944
      8.61909      6.88285      9.78160        -2.787686     -3.133883     -1.234212
      9.16210      1.41634      7.12196        -1.690107      5.757008      3.938571
      3.38336      3.18178      1.72790         0.383966      1.203935     -0.373801
      7.63996      1.40764      4.31321         6.693275      0.559841     -4.509861
      8.78860      4.96934      5.73633         2.406313      3.705661     -4.390853
      6.31313      3.14290      8.56945         0.580982      1.490932      1.994761
      6.99829      0.66712      7.17113        -0.388245      3.582322     -0.739754
      9.18079      0.97616      1.17054         1.394645     -1.392420     -0.698994
      5.48928      2.90187      0.78775         0.371269     -0.371659     -2.470916
      1.71021      2.85082      0.24247        -1.159687     -0.544758     -2.843334
      0.81369      6.23167      5.76414        -4.684596      0.494629      0.938401
      4.77308      7.85227     10.22955         3.067398     -2.676234     -2.833006
      8.99383      2.98040      2.16488        -2.051251     -0.096892      1.702113
      4.53138      6.08504      3.83385         1.250112     -0.548179      0.562911
     10.15402      1.22089      3.50535        -3.402219      1.007092     -0.129716
      4.22577      9.56487      2.65616        -0.106617     -2.234228      1.875436
      9.50316      6.07480      3.62222         1.497919     -2.543928     -1.613529
      2.02782      5.91231      4.14829         2.301761     -8.724194     -9.092731
      2.46496      9.00344      8.60957        -0.750727      3.205482     -1.323937
      8.76362      3.32176      8.79215        -1.542343     -1.111251     -3.936061
      5.04188      5.24944      1.61190        -1.014210     -2.820986     -1.316260
      8.44326      7.94584      3.87933        -1.619295     -6.105092      4.590345
      5.94717      8.19142      4.22071        -3.122022      1.427943      0.985837
      8.36822      9.79973      3.34661        -1.301297      6.062640     -3.960178
      6.09289      4.31672      5.04884         0.576980      0.606658     -4.089092
      7.61006      5.04427      9.79976        -3.075414     -3.256076      0.813476
      2.21118      3.41837      3.88712        -1.327475      0.196835     -3.939927
      9.42260      7.97643      5.89704         0.304215     -2.950755      2.367708
      6.81487      3.95897      2.47313         0.114388     -8.399450     -4.021620
      7.07675      1.33884      1.77014         2.803101      1.669626      0.892729
      1.21027      2.26708      7.83099         1.067661     -3.041836      1.231491
      9.41327      7.25742      1.50497         1.455264      5.042899      2.614668
     10.25228      9.30535      2.29009         0.264555      0.906469      2.455259
      6.39616      6.52146      8.36290        -4.238655      1.191384      2.856467
      9.12373      9.17981     10.24036        -1.280340     -4.034019      2.900623
      1.00554      8.61774      0.66222         1.542658     -3.846944     -4.357504
      5.56139     10.10985      5.10939        -0.873316      2.311284      4.223578
      7.24213      3.29508      6.51302         2.582475     -4.247148      1.068799
      7.85828      1.34540      9.16690        -1.763633     -2.569652      4.678783
     10.10260      5.79418      7.96381        -3.509952     -1.857607      0.274587
      5.41122      0.12914      0.97866         1.013813     -3.289053     -2.192538
      1.81553      6.87865      7.91231         0.273126     -1.153477      3.932559
      9.72593      4.43946      0.18873        -0.051908     -2.981032     -5.590225
      3.08184      7.64508      2.10548         0.245163     -2.310386     -1.482857
      1.55888      3.95826      5.94718         1.864081     -2.302577      2.564649
      6.46555      8.72996      7.09136        -0.114514     -4.418395      0.071107
      1.31243      0.47724      0.96892         4.238198      6.526647      3.384231
      1.15321      1.40268      5.40551        -0.288288      0.453236     -0.089784
      5.19696      7.47731      2.10291         5.523557      0.846611     -1.953834
      3.49069      8.07173      4.86688         1.909189      0.459669     -5.369167
     10.07765      8.18998      8.26673         0.526034     -0.308744      0.235661
      9.46262      0.03981      5.82347        -0.737388     -3.262676     -5.271419
      3.83183      9.12866      6.73860         3.457327     -0.620544      1.194895
      7.96910      5.14771      7.48074        -3.020820      0.747606      7.204277
      6.99624      8.60101      9.31062        -0.049916     -0.273008      2.379302
      0.71801      4.60042      1.96099         2.852125      1.569928     -0.680641
      3.32892      3.06395      7.21791        -1.556801      2.263391      4.868743
 -----------------------------------------------------------------------------------
    total drift:                               -0.001996      0.006717     -0.017992


--------------------------------------------------------------------------------------------------------



  FREE ENERGIE OF THE ION-ELECTRON SYSTEM (eV)
  ---------------------------------------------------
  free  energy   TOTEN  =      -848.96401867 eV

  energy  without entropy=     -848.96401867  energy(sigma->0) =     -848.96401867
 


--------------------------------------------------------------------------------------------------------


    POTLOK:  cpu time    0.3569: real time    0.3573


--------------------------------------------------------------------------------------------------------


     LOOP+:  cpu time 1026.8662: real time 1031.5809
    4ORBIT:  cpu time    0.0000: real time    0.0000

 total amount of memory used by VASP MPI-rank0   169870. kBytes
=======================================================================

   base      :      30000. kBytes
   nonlr-proj:      22107. kBytes
   fftplans  :      16051. kBytes
   grid      :       9274. kBytes
   one-center:        186. kBytes
   wavefun   :      92252. kBytes
 
  
  
 General timing and accounting informations for this job:
 ========================================================
  
                  Total CPU time used (sec):     1053.380
                            User time (sec):     1048.394
                          System time (sec):        4.986
                         Elapsed time (sec):     1058.407
  
                   Maximum memory used (kb):      284464.
                   Average memory used (kb):           0.
  
                          Minor page faults:       188756
                          Major page faults:            0
                 Voluntary context switches:          413
