80
Time=50000.00000004 pbc="T T F" Lattice="13.79398668 0.00000000 0.00000000 -6.89699334 11.94594288 0.00000000 0.00000000 0.00000000 27.81022107" energy=-523.41461325 virial="4.12401954 -1.12222440 -5.34602997 -1.12222440 5.78859483 1.24482861 -5.34602997 1.24482861 -26.23912848" stress="0.00180253 -0.00024489 -0.00116659 -0.00024489 0.00216577 0.00027164 -0.00116659 0.00027164 -0.00482317" Properties=species:S:1:pos:R:3
Sc 0.07592690 1.99455928 15.09865265
Sc -1.64101919 5.09569535 15.28769305
Sc -3.37044843 7.92871993 15.16432756
Sc -5.04326746 10.93812017 15.23146876
Sc 3.56181210 1.99909911 15.23125042
Sc 1.78372521 5.02680102 15.21088510
Sc 0.12974439 7.96098611 15.17041058
Sc -1.77199645 10.89598703 15.11971781
Sc 6.81823668 1.98367100 15.14892770
Sc 5.13009654 4.93510215 15.24137240
Sc 3.55066922 8.01016822 15.24481284
Sc 1.68320620 10.95795778 15.16712512
Sc 10.26669436 2.02420005 15.22231562
Sc 8.61168421 5.04483797 15.09535991
Sc 6.97196186 7.96318026 15.24539982
Sc 5.23678165 10.96500348 15.05195529
Sc 1.81544681 0.93176842 12.78917641
Sc 0.04008212 3.81619082 12.65205754
Sc -1.70566293 6.90217883 12.64514954
Sc -3.50999140 10.04445019 12.72331731
Sc 5.19646393 1.09174202 12.70185750
Sc 3.32749507 4.05741919 12.60562298
Sc 1.70961074 7.03647450 12.69931540
Sc -0.07831306 9.99999673 12.58475813
Sc 8.64785206 1.02694265 12.65793273
Sc 6.70280492 3.98926167 12.53577706
Sc 5.19252922 6.94745649 12.75273254
Sc 3.46421912 9.84328160 12.75458877
Sc 12.02030763 0.93249569 12.56239403
Sc 10.40322855 4.05037781 12.63652271
Sc 8.65276179 6.95662915 12.55209721
Sc 7.08170732 9.88087828 12.50038110
Cl -0.01890083 1.91401093 10.86692343
Cl -1.66436919 4.68491945 10.89126141
Cl -3.28321578 7.97584931 10.85345968
Cl -5.28769530 10.85873416 10.67958958
Cl 3.29043352 1.83971823 10.87039535
Cl 1.69024306 5.10863410 11.19601619
Cl 0.00500258 7.81118035 10.91323398
Cl -1.83511661 10.94387084 11.19503567
Cl 7.02538665 2.18248836 10.99457298
Cl 5.07691667 5.00667547 10.76206266
Cl 3.43102601 8.07481526 11.02978031
Cl 1.46917299 11.07527227 10.91617940
Cl 10.10056014 2.05065332 10.77631365
Cl 8.61422239 5.17610658 10.97193777
Cl 6.90574033 7.87903300 10.91410447
Cl 4.95918004 10.92606920 10.66237806
Cl 1.66605664 0.85707174 16.80133110
Cl -0.05519805 4.07408233 16.69009705
Cl -1.65830224 7.19611551 16.84782139
Cl -3.42316932 9.87524648 16.80272735
Cl 5.06129987 0.70691018 16.74946810
Cl 3.59028661 3.95114928 16.85169234
Cl 1.85839431 6.78627445 16.96997646
Cl 0.10361971 9.78493119 16.68521381
Cl 8.41674723 0.94386109 16.81048648
Cl 6.95563084 4.00234710 16.89225943
Cl 5.24057397 7.14533205 16.91806048
Cl 3.20356569 9.95675401 17.06886359
Cl 12.13628355 1.01628680 16.86690516
Cl 10.43527693 3.88158603 17.03281159
Cl 8.55693414 7.07849776 17.05666988
Cl 6.96234177 10.13546061 16.86417396
C -6.79744579 11.83745844 13.86478127
C -1.60178936 2.98622112 13.82539349
C 10.21356534 6.00044655 13.85140273
C -5.07235437 9.02366695 13.92537877
C -3.49556376 11.87626630 13.96620138
C 1.83951198 3.10036597 13.94228504
C 0.02783268 5.99976136 14.06944078
C -1.76205100 8.93995028 13.99689074
C 6.79125067 0.03960452 13.82018342
C 5.20067550 3.14131714 13.96966347
C 3.38266601 6.19078791 13.98364602
C 1.73210072 9.01683756 13.83254501
C 10.43406062 0.03084467 13.98934900
C 8.61849297 2.98121579 13.93726113
C 6.80869747 5.82811253 13.96701101
C 5.23631851 8.90735358 13.99373999
80
Time=99999.99999996 pbc="T T F" Lattice="13.79398668 0.00000000 0.00000000 -6.89699334 11.94594288 0.00000000 0.00000000 0.00000000 27.81022107" energy=-524.48789072 virial="11.04595066 -2.78980689 -7.38486472 -2.78980689 10.71350931 2.67996275 -7.38486472 2.67996275 -2.14414544" stress="0.00331301 -0.00060878 -0.00161149 -0.00060878 0.00324046 0.00058481 -0.00161149 0.00058481 0.00043472" Properties=species:S:1:pos:R:3
Sc 0.10110094 1.95097021 15.16179690
Sc -1.77496384 5.09734106 15.10543869
Sc -3.44044573 7.88753044 15.19274053
Sc -5.14459893 10.99227157 15.22332582
Sc 3.44876308 1.89794428 15.08842052
Sc 1.51403616 5.04547773 15.02906968
Sc 0.04941434 7.84380487 15.03230602
Sc -1.65634622 10.91878372 15.11598033
Sc 7.01166937 1.86334633 15.16656406
Sc 5.01252626 4.96027064 15.18091625
Sc 3.55016358 7.85830618 15.27994381
Sc 1.78929726 10.95979976 15.11473214
Sc 10.42669083 2.14877053 15.10842309
Sc 8.59202415 5.00721207 14.98314924
Sc 6.92819595 7.93739165 15.33223818
Sc 5.32351296 10.88166568 15.17426346
Sc 1.63806755 1.07915839 12.52833204
Sc -0.20726038 3.84661955 12.61320397
Sc -1.79819131 6.96284798 12.61898702
Sc -3.52328432 9.98921914 12.71052135
Sc 5.19597898 1.07051875 12.62693798
Sc 3.43302093 3.92678888 12.62817839
Sc 1.84963186 7.02454042 12.65300504
Sc -0.04120039 9.86689215 12.52851926
Sc 8.62425797 0.92376997 12.65510227
Sc 6.81858167 3.89398688 12.64421229
Sc 5.18497651 7.01436057 12.85608700
Sc 3.40899729 9.97665587 12.78640229
Sc 12.08977122 1.04207103 12.72631115
Sc 10.16764040 3.96398453 12.61592457
Sc 8.65670887 7.14693707 12.75166627
Sc 6.82460372 9.95094811 12.64553806
Cl -0.20839932 1.92620900 10.77326720
Cl -1.72685874 5.07968867 10.83836488
Cl -3.54971128 7.88001351 10.91971773
Cl -5.27967122 11.13742985 10.77070434
Cl 3.69138901 2.01397048 10.93493436
Cl 1.72692295 4.70576538 11.10108681
Cl -0.02091644 8.04221994 11.02946998
Cl -1.67446306 11.16997386 11.13399642
Cl 6.82599007 2.16308104 10.91839138
Cl 5.15467429 5.06742522 11.13549763
Cl 3.43675983 7.85873091 10.96961458
Cl 1.61205192 11.02951178 10.99165678
Cl 10.35960726 1.86419664 10.98256969
Cl 8.54970979 5.04582855 10.92092385
Cl 6.90221056 7.91140887 11.12737435
Cl 5.16972949 10.85282927 11.04447934
Cl 1.72619717 1.00260822 16.80371555
Cl -0.01299174 4.00211495 16.88100787
Cl -1.42474387 7.02521805 16.98175913
Cl -3.27239597 10.05917727 16.85986155
Cl 5.24917985 0.99880893 16.65103578
Cl 3.37652954 3.72652743 16.86909008
Cl 1.77553561 6.87285634 16.89405469
Cl -0.11869209 9.83410598 16.71989529
Cl 8.53154463 1.02397946 17.01142247
Cl 6.87297961 4.11070188 16.80024091
Cl 5.07297649 7.05958038 17.01075457
Cl 3.58168268 10.13425117 16.73058175
Cl 12.14224484 0.83884469 16.65034034
Cl 10.41961215 3.90406743 16.68652919
Cl 8.79579824 6.99956330 16.90961983
Cl 7.05628229 9.98991893 16.96992672
C 0.03715636 0.01605778 13.94923030
C -1.67870910 3.07383583 13.92577468
C 10.31373961 5.97055915 13.91423870
C 8.57155893 8.96361674 14.04701556
C -3.58583552 11.93198440 13.93390657
C 1.89587213 2.93348925 13.97043000
C -0.02750643 5.90218744 13.88946496
C -1.76171791 8.89447974 13.85756671
C 6.82761106 0.09816510 13.76846275
C 5.22722363 2.99028741 13.93233319
C 3.37149940 6.00577539 14.01150669
C 1.70510589 9.00524916 13.80512478
C 3.45492512 11.91914206 13.88461169
C 8.65067833 2.96729648 13.93256789
C 6.93147947 6.06466263 13.89673744
C 5.21256801 9.02060065 13.90985190
80
Time=149999.99999957 pbc="T T F" Lattice="13.79398668 0.00000000 0.00000000 -6.89699334 11.94594288 0.00000000 0.00000000 0.00000000 27.81022107" energy=-524.28129625 virial="13.26445892 -0.11912403 -2.85670361 -0.11912403 18.52769580 6.39921446 -2.85670361 6.39921446 13.27649466" stress="0.00379712 -0.00002599 -0.00062338 -0.00002599 0.00494564 0.00139641 -0.00062338 0.00139641 0.00379974" Properties=species:S:1:pos:R:3
Sc 0.03782062 1.97465165 15.07897227
Sc -1.77427376 4.86771543 15.16402927
Sc -3.30647366 7.97716100 15.13911478
Sc -5.15036929 10.91470755 15.11595782
Sc 3.28052197 1.96370177 15.24227797
Sc 1.60794834 4.99743408 15.12902534
Sc 0.07191914 8.16528157 15.20340543
Sc -1.63286789 11.03139100 15.12540588
Sc 6.86802653 2.04333411 15.20779745
Sc 5.03150593 4.75968234 15.13141405
Sc 3.56569976 7.90002266 15.24706310
Sc 1.73169433 11.06611107 15.04972140
Sc 10.36387053 1.85743736 15.01000373
Sc 8.54043774 4.98078117 15.04041562
Sc 6.87844210 7.95627210 15.18167446
Sc 5.32303454 10.80320787 15.10693336
Sc 1.78718921 0.89858832 12.63434680
Sc 0.02707784 3.99509165 12.60061356
Sc -1.71040516 6.84486406 12.71873605
Sc -3.32824171 9.86377560 12.73827551
Sc 5.22894380 1.06068636 12.78240834
Sc 3.46298770 3.90003328 12.54730697
Sc 1.71932650 6.94390610 12.69076289
Sc -0.05200427 10.11749765 12.62983035
Sc 8.54602681 1.08710622 12.71059166
Sc 6.86664051 4.04531664 12.60059034
Sc 5.21324172 6.81591216 12.77821525
Sc 3.34790962 10.08904467 12.84892719
Sc 12.13695512 0.90704284 12.66735851
Sc 10.26361364 3.91980301 12.63374831
Sc 8.60559688 6.97907992 12.66418411
Sc 6.89065258 9.91165951 12.62635536
Cl -0.12146140 2.12228370 10.99576213
Cl -1.65956051 5.03992135 10.93981471
Cl -3.46059725 8.11517947 10.99759342
Cl -5.16879652 11.15413107 10.88771799
Cl 3.38217866 2.14078458 10.81832066
Cl 1.53979486 5.04682954 11.02327345
Cl -0.06746060 8.07865210 11.25529681
Cl -1.89326406 10.92707510 11.10155490
Cl 6.90455121 1.91754580 11.05402400
Cl 5.25992410 4.91435002 10.80169275
Cl 3.52968042 7.87591004 11.04203767
Cl 1.61221124 10.97235015 10.82893633
Cl 10.30907010 2.11721231 11.08664054
Cl 8.69226144 5.06946158 10.99604134
Cl 6.86914748 7.89234733 11.05998489
Cl 5.18287048 10.93120952 11.08905985
Cl 1.73826541 1.21143173 16.92520430
Cl -0.14042283 3.86214168 16.77869675
Cl -1.67838874 6.83679613 16.89440721
Cl -3.50652630 9.92201338 16.87062205
Cl 5.10875219 0.99653504 16.90378972
Cl 3.31107704 3.98639191 16.87375547
Cl 1.77952829 7.01890833 16.72925113
Cl 0.15286890 10.20337397 16.88315628
Cl 8.66858834 0.96923565 16.80408882
Cl 6.89859021 4.07121625 16.83204804
Cl 5.21131011 6.92890332 16.82030719
Cl 3.54712889 10.04802089 16.83655850
Cl 12.18879990 0.96003614 16.58448388
Cl 10.39941071 3.79737423 16.63777898
Cl 8.70845697 6.76250408 16.84902493
Cl 6.94747931 9.98306383 16.80400062
C 0.04763223 0.04440982 13.80798578
C -1.68123159 2.96465308 13.81441300
C 10.20457728 5.94669506 13.71735225
C 8.49674487 9.07471545 13.93543071
C -3.62390205 11.77927407 13.74114821
C 1.85331400 2.94983306 13.91480320
C -0.00561995 5.86195982 13.82770136
C -1.67729925 8.93870958 13.87890311
C 6.93148556 0.25899159 14.02533419
C 5.06865620 2.93225408 13.95729200
C 3.56992788 5.91681518 13.93777377
C 1.71057811 9.07047067 13.86595560
C 3.45706621 11.80308749 13.97946992
C 8.58391340 2.88539512 13.81603400
C 6.94598162 5.91048236 13.87599774
C 5.26928617 8.91072647 13.95737774
80
Time=199999.99999918 pbc="T T F" Lattice="13.79398668 0.00000000 0.00000000 -6.89699334 11.94594288 0.00000000 0.00000000 0.00000000 27.81022107" energy=-525.38699770 virial="10.16220748 -1.76230040 1.24341154 -1.76230040 11.22412173 -1.26727118 1.24341154 -1.26727118 1.90762996" stress="0.00312016 -0.00038456 0.00027133 -0.00038456 0.00335189 -0.00027654 0.00027133 -0.00027654 0.00131888" Properties=species:S:1:pos:R:3
Sc -0.07870774 2.12057158 15.25637124
Sc -1.68487342 5.04113707 15.24647999
Sc -3.49910662 7.81716755 15.04312029
Sc -5.15995483 10.98497441 15.05586871
Sc 3.50726405 2.05281080 15.16320705
Sc 1.82138051 5.03615334 15.08529186
Sc 0.09681841 7.99650407 15.23541843
Sc -1.62353335 10.92281157 15.06656385
Sc 6.91485058 2.18417367 15.05947279
Sc 5.24379285 5.01335623 14.99075865
Sc 3.52764280 7.93263913 15.08086013
Sc 1.77003027 10.86695999 15.18780315
Sc 10.28671627 2.00106933 15.17375754
Sc 8.56938415 4.97123829 15.08447792
Sc 6.80996972 7.95497838 15.19065421
Sc 5.16048517 11.00759496 15.22795847
Sc 1.73340209 0.93348179 12.73913477
Sc 0.07789002 3.95267421 12.66242501
Sc -1.74010683 6.90788292 12.62575722
Sc -3.44442700 9.93793332 12.58490746
Sc 5.13675746 1.11108743 12.65463370
Sc 3.48741889 4.03429260 12.68562865
Sc 1.49760568 6.93615123 12.63527032
Sc -0.05915361 9.98626806 12.69863887
Sc 8.63264806 0.92489637 12.69816495
Sc 7.00686443 4.03936023 12.53792516
Sc 5.14801623 7.14514127 12.47096206
Sc 3.40399499 9.94780737 12.75831522
Sc 12.12545286 1.00606816 12.69781213
Sc 10.34861395 4.03487319 12.68003914
Sc 8.55428171 7.04240056 12.67325530
Sc 6.85247101 9.94708902 12.77778603
Cl 0.27436089 1.90168235 10.93255171
Cl -1.94480309 5.09591587 10.89546052
Cl -3.36310584 7.88117783 11.00233098
Cl -5.33317311 10.89130805 11.09935362
Cl 3.39354398 1.89915141 11.07373496
Cl 1.67630380 4.97536346 11.09390409
Cl 0.02058899 7.90657137 10.92752557
Cl -1.71554097 10.91697176 11.02931035
Cl 6.95463472 1.80444465 10.95884681
Cl 5.24932585 4.73949239 10.85227747
Cl 3.43930761 8.01361244 10.90152966
Cl 1.73186583 10.80519151 11.00641785
Cl 10.38835734 2.06911228 11.15764788
Cl 8.72943936 4.98564565 10.89250706
Cl 6.78271546 8.14480837 10.91054422
Cl 5.10548579 10.99255624 11.13938778
Cl 1.74241909 0.93924792 16.75720039
Cl 0.00486728 4.12634955 16.82188254
Cl -1.76453057 6.97884223 16.90802356
Cl -3.60133185 9.94777515 16.70700043
Cl 5.20094803 0.97896786 16.71708584
Cl 3.51704440 4.07710715 16.82274601
Cl 1.90609702 6.76618507 17.01286071
Cl -0.15990371 9.85956918 16.86556625
Cl 8.60748290 1.08449858 16.92196321
Cl 6.87691787 3.94148495 16.82879501
Cl 5.19396405 7.08464028 16.84503271
Cl 3.34918194 9.94167638 16.70697700
Cl 12.13050230 1.03878608 17.00077212
Cl 10.35357681 4.01855191 16.81204614
Cl 8.52989989 6.77359055 16.86950088
Cl 6.86749036 9.98966043 16.77749840
C 6.85483604 11.85021378 14.02882152
C 12.05903690 2.96689865 13.98202693
C -3.35857317 5.95381099 14.01947161
C 8.57034467 8.81200144 13.76607317
C -3.41698870 11.64108764 13.85324173
C 1.71897891 2.99713540 13.83722627
C -0.02145441 5.98026950 14.02014648
C -1.50333124 8.78607256 13.88143092
C -0.05633157 11.88387685 13.74055350
C 5.24559371 3.05482293 13.89624212
C 3.50044637 6.00265472 13.88563198
C 1.84831949 8.92193491 14.00992792
C 3.37918094 11.82880558 14.00647630
C 8.59900886 3.05785008 13.80302234
C 6.87126343 5.94573135 13.85962938
C 5.22992315 8.98720438 13.93032853
80
Time=249999.99999879 pbc="T T F" Lattice="13.79398668 0.00000000 0.00000000 -6.89699334 11.94594288 0.00000000 0.00000000 0.00000000 27.81022107" energy=-524.33456564 virial="7.61806013 0.31804733 -1.58519178 0.31804733 6.92875861 4.38448250 -1.58519178 4.38448250 -13.76146300" stress="0.00256499 0.00006940 -0.00034591 0.00006940 0.00241457 0.00095676 -0.00034591 0.00095676 -0.00210035" Properties=species:S:1:pos:R:3
Sc -0.04206959 2.00030951 15.32259802
Sc -1.85722838 5.02619569 15.08031285
Sc -3.29878427 7.94926525 15.07685221
Sc -5.20162204 10.98425762 15.34857535
Sc 3.53757058 2.00539011 15.18160829
Sc 1.69279769 5.02470907 15.23064944
Sc 0.06983579 7.88757645 15.23915599
Sc -1.62352774 10.89695507 15.25874361
Sc 6.93601398 2.09432330 14.98364573
Sc 5.22035701 4.96447900 15.13539108
Sc 3.55517793 7.92956188 15.02241195
Sc 1.66709625 10.79591681 15.32642363
Sc 10.35448983 2.12445516 15.09144794
Sc 8.57696214 5.00845702 14.96487219
Sc 6.84675902 8.10747973 15.09402974
Sc 5.13153748 11.09953461 15.12738761
Sc 1.78815270 0.97137049 12.80566164
Sc 0.14646057 4.01421948 12.80446552
Sc -1.70466355 7.00788657 12.68532376
Sc -3.38635538 10.10432250 12.48103901
Sc 5.08529833 0.92271063 12.42635333
Sc 3.41848113 4.14094608 12.69815273
Sc 1.69279672 7.00165638 12.69416407
Sc -0.01148116 9.90973224 12.80850733
Sc 8.62792642 1.03983363 12.74650362
Sc 6.87514562 3.93674005 12.53200938
Sc 5.27692296 7.07389935 12.50505932
Sc 3.48534066 10.16691479 12.56188054
Sc 12.03879194 1.14259269 12.76362807
Sc 10.29314376 4.08014040 12.52138250
Sc 8.54521530 6.93376113 12.64891499
Sc 6.92284944 9.97040504 12.82029449
Cl 0.03191707 1.85007720 11.14164310
Cl -1.70489498 4.97048450 11.03283652
Cl -3.34546333 7.97107647 10.89565494
Cl -5.26410237 10.93830107 11.05258476
Cl 3.36193341 2.13732104 11.05555535
Cl 1.57817966 4.73431309 10.94025690
Cl -0.05528199 7.98476655 10.97475315
Cl -1.64728217 10.84062349 10.87530940
Cl 6.84151834 1.87019390 10.87533858
Cl 5.08456058 4.93656453 10.87617162
Cl 3.46696856 7.95955752 10.98499478
Cl 1.54542734 10.90367771 11.06262819
Cl 10.34920770 1.92788082 10.80084889
Cl 8.65061579 4.86322384 10.92927411
Cl 6.91920370 8.11152222 10.88782443
Cl 5.28778200 10.98493248 10.80845338
Cl 1.64061805 0.79810353 16.96974281
Cl -0.15523207 3.86745289 16.96734073
Cl -1.75843573 6.86815652 16.82472220
Cl -3.62670814 9.96141875 16.92793714
Cl 5.23886484 0.86485773 16.81937634
Cl 3.54315733 4.01565871 16.78911113
Cl 1.74443879 6.85492544 16.82905256
Cl 0.07357653 9.89115281 16.93416841
Cl 8.48804784 1.16244032 16.80791593
Cl 7.02362824 4.00958530 16.75746619
Cl 5.41796242 6.76473796 16.87887859
Cl 3.56088813 9.83438094 16.85808867
Cl 11.78518282 0.74730189 16.98737366
Cl 10.22010855 3.96544996 16.75799156
Cl 8.57204092 6.98696173 16.74201643
Cl 7.00484116 9.91866598 16.83927788
C 0.06591166 0.04384647 14.19514008
C -1.69806163 2.97266958 14.02184749
C -3.46062838 6.02338900 13.91944613
C 8.56336036 8.97658808 13.82042360
C -3.27696962 11.94290494 13.94170243
C 1.82410480 3.06732473 14.07802035
C -0.14954485 6.06421466 14.01908666
C -1.71381591 8.93527798 13.94359512
C 0.04267855 11.86409598 13.99029111
C 5.13390250 3.01338208 13.84854065
C 3.42899868 6.03400841 13.72592520
C 1.83103872 8.98293292 13.85750909
C 10.37262100 0.00114871 13.91716591
C 8.69803234 2.99860911 13.81426470
C 6.86078704 5.92737613 13.74895148
C 5.12124349 9.13813343 13.78338471
80
Time=299999.99999840 pbc="T T F" Lattice="13.79398668 0.00000000 0.00000000 -6.89699334 11.94594288 0.00000000 0.00000000 0.00000000 27.81022107" energy=-524.27369022 virial="14.85967991 -0.21736325 8.41626550 -0.21736325 14.87071615 8.77937881 8.41626550 8.77937881 11.14969654" stress="0.00414522 -0.00004743 0.00183656 -0.00004743 0.00414763 0.00191580 0.00183656 0.00191580 0.00333564" Properties=species:S:1:pos:R:3
Sc 0.05899783 1.93223228 15.18447816
Sc -1.72642600 5.11741862 15.11645477
Sc -3.50194017 8.05225006 14.99198656
Sc -5.16080717 11.01098803 15.08116026
Sc 3.43232640 1.96927531 15.16766363
Sc 1.59528245 4.96596858 15.07711648
Sc -0.07897539 7.93788773 15.16899539
Sc -1.78942098 10.97868773 15.22013985
Sc 6.85939238 1.97789032 15.12146123
Sc 4.99582383 5.01288134 15.19336243
Sc 3.46303286 7.87165877 15.12229492
Sc 1.75046921 10.86949748 15.17680193
Sc 10.50847391 1.92879428 15.12137583
Sc 8.56303007 4.92943941 15.14250107
Sc 6.88497028 7.89160864 15.22180829
Sc 5.11130943 10.82394896 15.18736344
Sc 1.75713383 0.95075623 12.61858167
Sc 0.02647325 3.90493046 12.54192312
Sc -1.69055170 6.99507115 12.59230251
Sc -3.40903768 10.06848950 12.64213366
Sc 5.17503017 1.12388791 12.65282101
Sc 3.49854856 3.76539794 12.51545995
Sc 1.60317452 6.95385009 12.53301093
Sc 0.02929210 9.96394147 12.64178186
Sc 8.58896035 1.15096262 12.73899303
Sc 6.87841037 4.06100373 12.91088904
Sc 5.13698279 6.99266805 12.68010254
Sc 3.46087550 9.97222082 12.71784275
Sc 12.21666082 0.95472979 12.69504378
Sc 10.57126556 3.94683170 12.59730162
Sc 8.72061720 6.99996021 12.79691873
Sc 6.80808764 9.94173244 12.72340312
Cl 0.04059820 1.81163897 10.93858116
Cl -1.75502303 5.31236479 11.01205688
Cl -3.35878493 8.25134225 10.99354039
Cl -5.17783040 10.83306666 11.06188868
Cl 3.36811016 2.07706410 10.51994786
Cl 1.87470743 4.99569073 10.92829217
Cl -0.11956719 8.02159055 11.10107592
Cl -1.63839417 10.96651136 11.14233200
Cl 7.10517163 2.11066720 11.15381894
Cl 5.28303114 5.04329750 10.95642444
Cl 3.47783651 7.96756255 11.09007361
Cl 1.68241949 10.93705833 10.95831672
Cl 10.41007652 2.08614551 11.09225563
Cl 8.66209287 4.98077371 11.09056734
Cl 6.82978326 8.09691076 11.07502799
Cl 5.18571899 10.83534823 11.02509059
Cl 1.71697914 0.88655362 16.81484197
Cl -0.21802732 3.94936833 16.77729853
Cl -1.77392490 6.92785758 16.87011428
Cl -3.32330840 9.90199273 16.98352601
Cl 5.26559989 1.00494632 16.81648026
Cl 3.25997453 3.88460112 16.77821648
Cl 1.65194108 6.97934423 16.61110561
Cl -0.09819935 9.87468569 16.83142823
Cl 8.79360385 0.85337566 16.78187593
Cl 6.90115339 4.22790491 16.73268303
Cl 5.10293434 6.91460923 16.83617666
Cl 3.16956763 9.70054372 16.87224416
Cl 12.23682605 0.98186137 16.76490707
Cl 10.30352633 4.10059586 16.74101166
Cl 8.62394955 6.94999777 16.85783259
Cl 6.76019893 9.78274655 16.89827085
C 6.88974915 11.87710482 14.07297741
C -1.55775085 3.02326493 13.80343674
C -3.42002074 6.14480737 13.87374363
C -5.09703335 9.00614587 13.82255162
C -3.46488925 11.91685033 13.88774244
C 1.79735233 2.75879330 13.92619261
C -0.12985988 5.91485218 13.89663647
C -1.67794352 9.09770449 13.85078869
C 6.86113396 0.06022869 13.90628476
C 5.09311887 3.10203282 13.86930463
C 3.44783804 5.87635429 13.91726991
C 1.79449168 8.92476134 13.89270266
C 3.55647586 11.94587783 13.86755727
C 8.71258596 2.98215664 13.92156959
C 6.86046305 5.97785310 13.95415480
C 5.19541722 9.01388597 13.85677468
80
Time=349999.99999862 pbc="T T F" Lattice="13.79398668 0.00000000 0.00000000 -6.89699334 11.94594288 0.00000000 0.00000000 0.00000000 27.81022107" energy=-524.99085045 virial="11.78821921 -0.90198323 -5.48967862 -0.90198323 15.89840820 1.81915768 -5.48967862 1.81915768 7.07024232" stress="0.00347498 -0.00019683 -0.00119793 -0.00019683 0.00437189 0.00039697 -0.00119793 0.00039697 0.00244545" Properties=species:S:1:pos:R:3
Sc -0.00863597 2.02408656 15.08931520
Sc -1.72038098 4.86134775 15.01743987
Sc -3.33443314 7.87971566 15.20415791
Sc -5.19814610 10.83159323 15.19029642
Sc 3.30580748 2.05968206 15.14678342
Sc 1.67102933 5.08903406 15.07636961
Sc 0.11900296 8.05997539 15.12692806
Sc -1.73863229 11.08192770 15.21912349
Sc 6.67863303 2.10162700 15.05030746
Sc 5.17225538 4.97424976 15.04941320
Sc 3.57898794 8.04917127 15.30257354
Sc 1.80861197 11.08173201 15.12296071
Sc 10.49915633 1.96797267 15.09148753
Sc 8.71725387 4.99386517 15.11492894
Sc 6.93768190 7.83495476 15.07365196
Sc 5.16613995 10.97184080 15.37109709
Sc 1.69968407 0.92494324 12.77548730
Sc -0.04734687 3.92067501 12.61937935
Sc -1.69088232 6.89359983 12.85867876
Sc -3.26405194 9.81187029 12.69346964
Sc 5.16194618 1.01941653 12.72677078
Sc 3.44744536 4.00796207 12.62624589
Sc 1.84126207 7.03508044 12.68500064
Sc 0.08763568 9.95791862 12.64371215
Sc 8.47087389 1.05039887 12.64204546
Sc 6.82539961 3.95371451 12.56474223
Sc 5.16987883 6.99276730 12.61043776
Sc 3.47200744 9.89870776 12.80930623
Sc 12.07716668 0.89540550 12.77848927
Sc 10.38178971 3.95441645 12.59650554
Sc 8.61803892 6.96596092 12.60713961
Sc 6.74059944 9.99622709 12.65483859
Cl -0.20028226 1.92727449 10.94613024
Cl -1.75844598 5.11835954 10.90505937
Cl -3.37741692 8.00238991 11.23193155
Cl -5.36148152 10.89486176 10.92541342
Cl 3.27189777 1.76265945 11.04721502
Cl 1.60900133 5.05124280 10.90512419
Cl 0.08512883 7.95063030 10.97064723
Cl -1.82623755 10.98304035 10.93371714
Cl 6.74337718 1.96051738 10.90254337
Cl 5.16131911 4.88627792 10.93638922
Cl 3.61692244 7.90892372 10.88514407
Cl 1.65553703 11.11613183 11.06327107
Cl 10.32644729 1.89633507 11.03269200
Cl 8.56703624 5.21822493 10.92926433
Cl 6.86148953 8.12612080 10.97784206
Cl 5.07646574 11.10452579 11.09573074
Cl 1.60560585 1.02841811 16.76448809
Cl 0.04114164 3.97171245 16.78195106
Cl -1.53017364 7.07472985 16.91118282
Cl -3.42287348 9.91210962 16.83409017
Cl 5.13559330 1.04793077 16.80210288
Cl 3.63054545 3.93475746 16.70201836
Cl 1.77354651 6.91475974 16.78591642
Cl -0.03343742 10.02166018 16.66356218
Cl 8.58891467 0.96930941 16.80034504
Cl 6.91604076 4.00803548 16.78157142
Cl 5.04185163 6.84108350 16.86642238
Cl 3.49328573 9.82519750 16.98515652
Cl 12.13022566 0.93296866 16.99508369
Cl 10.53229003 3.88841321 16.80176194
Cl 8.64422816 6.98422524 16.75424391
Cl 6.87789320 9.94061771 16.87725537
C 6.87493715 11.91149034 13.92634041
C 12.05917829 2.84081347 13.85859813
C -3.25310388 5.91773583 13.93690797
C -5.07863154 8.87542347 14.11337657
C -3.43178566 11.92592662 13.72069127
C 1.53908157 2.80897067 13.87292468
C 0.06470285 5.93392342 13.91757374
C -1.61283771 9.03013709 13.96576264
C 6.92242434 0.10606119 13.99115566
C 5.15132591 3.00101773 13.73497206
C 3.53255522 5.96526540 13.88585911
C 1.71261267 9.09057203 13.78052183
C 3.47483511 11.89886751 14.05834281
C 8.56393446 3.09105171 13.77760405
C 6.93368136 5.97515933 13.88177329
C 5.13229617 8.91403153 13.89895426
80
Time=400000.00000008 pbc="T T F" Lattice="13.79398668 0.00000000 0.00000000 -6.89699334 11.94594288 0.00000000 0.00000000 0.00000000 27.81022107" energy=-524.08383989 virial="10.71340163 0.11898968 12.34024927 0.11898968 9.07303634 -6.30062882 12.34024927 -6.30062882 -4.40149662" stress="0.00324044 0.00002597 0.00269283 0.00002597 0.00288249 -0.00137489 0.00269283 -0.00137489 -0.00005786" Properties=species:S:1:pos:R:3
Sc -0.21065189 1.98677264 15.13415707
Sc -1.85865811 5.18265112 15.05967895
Sc -3.51402775 8.00610292 15.06449457
Sc -5.28876094 10.94619335 15.24673007
Sc 3.41036310 2.01985488 15.18202162
Sc 1.68561059 5.03486372 15.10941170
Sc -0.02855391 8.07716299 15.10590643
Sc -1.72755141 11.09596943 15.19461565
Sc 6.93013190 2.03988848 15.06881647
Sc 5.37324927 5.02651711 15.21426251
Sc 3.54554544 7.98088308 15.18466683
Sc 1.52972392 11.15506182 15.03432378
Sc 10.25287790 1.92833193 15.16254649
Sc 8.63594025 4.90716246 15.19150226
Sc 6.81486282 7.94390059 15.13820073
Sc 5.03757515 10.81417132 15.24382914
Sc 1.84791633 0.97748391 12.79721231
Sc 0.10464822 3.88132948 12.70572767
Sc -1.57862415 6.98427010 12.70761387
Sc -3.49531589 10.06947041 12.61390513
Sc 5.18688735 0.99805725 12.57149965
Sc 3.43273861 3.97220453 12.64139413
Sc 1.73194127 7.18845950 12.62588055
Sc -0.23958178 10.04743564 12.66599145
Sc 8.51701464 0.93941382 12.59250900
Sc 6.85279800 3.93038547 12.57671840
Sc 5.24857046 6.90338424 12.72192584
Sc 3.49529477 9.90782866 12.71744896
Sc 11.91763303 0.92499490 12.76556050
Sc 10.35707283 3.82738006 12.60982384
Sc 8.71674599 6.90773211 12.70831704
Sc 7.05362136 9.98756605 12.60689035
Cl -0.02218271 1.80998079 11.01703163
Cl -1.66740822 5.05702057 10.89772890
Cl -3.20937140 7.78792171 10.98117973
Cl -5.00815044 11.00629431 10.98514147
Cl 3.34906430 2.08908401 11.02144768
Cl 1.76798101 4.90419671 11.04596547
Cl -0.06878764 7.92269182 10.99970653
Cl -1.52920349 10.90907005 10.91963495
Cl 6.97911045 2.00166910 10.72556897
Cl 5.41887054 5.05253382 10.87569795
Cl 3.53482390 7.90656769 11.13666526
Cl 1.62268534 10.94210718 10.92730203
Cl 10.41712554 1.89366444 10.95209474
Cl 8.77703355 4.97692023 10.96889344
Cl 7.16000563 7.96419612 10.83070980
Cl 5.14494975 10.79760037 11.11008096
Cl 1.74383205 0.93725048 16.97321874
Cl -0.00416282 3.92870034 16.70125591
Cl -1.90320060 6.98133613 16.74357306
Cl -3.33325282 9.94454361 16.80266413
Cl 5.22343813 1.16175611 17.04484593
Cl 3.40671912 4.05231190 16.78081578
Cl 1.55854217 6.98378765 16.81938451
Cl -0.02600213 9.91760862 16.79574403
Cl 8.56730722 0.86025722 16.70405950
Cl 7.20627801 3.91534333 16.89869234
Cl 5.14038718 6.87018179 16.90131343
Cl 3.40760841 10.02138989 17.07425468
Cl 11.85102112 1.07135757 16.92418742
Cl 10.33933415 3.88271574 16.75827416
Cl 8.51869569 6.88690704 16.77062668
Cl 6.81081017 9.99770542 16.86631676
C 6.88674577 11.85756963 14.01005993
C 12.02046920 2.90603027 13.80048857
C 10.15349282 5.80817729 13.98214476
C -5.09242427 8.97753729 13.91548588
C -3.30126951 11.94432336 13.90854541
C 1.77702870 2.97858140 14.04119213
C -0.00934877 6.14187704 13.87195836
C -1.80546572 9.16543963 13.94704981
C 6.84425455 0.05418244 13.81159288
C 5.16626605 2.96347696 13.82169502
C 3.54804326 6.01369983 13.89598036
C 1.62697594 9.16643621 13.72947947
C 10.31845548 0.02974296 13.96206258
C 8.72510685 3.03205418 13.90603043
C 6.94956780 6.01894563 13.94469507
C 5.03724169 8.86322552 13.96105892
80
Time=450000.00000155 pbc="T T F" Lattice="13.79398668 0.00000000 0.00000000 -6.89699334 11.94594288 0.00000000 0.00000000 0.00000000 27.81022107" energy=-523.70125818 virial="9.66668166 1.82969859 -2.30535776 1.82969859 13.50821204 -3.28200287 -2.30535776 -3.28200287 -11.95695004" stress="0.00301203 0.00039927 -0.00050306 0.00039927 0.00385031 -0.00071618 -0.00050306 -0.00071618 -0.00170658" Properties=species:S:1:pos:R:3
Sc -0.02636171 2.23768968 15.38558876
Sc -1.85387022 5.07011344 15.14403204
Sc -3.46130620 8.00035535 15.13705276
Sc -5.15734693 10.88360204 15.21753560
Sc 3.36259059 2.10784912 15.44679746
Sc 1.72718043 5.04445673 15.03067335
Sc 0.02359556 7.96078938 15.17512343
Sc -1.65408857 10.91399287 15.22008596
Sc 6.81648801 1.96008068 15.04516224
Sc 5.22524390 5.05499277 15.15235635
Sc 3.56334274 7.99171736 15.19988134
Sc 1.64922221 10.91404279 15.25828022
Sc 10.25444238 1.94728127 15.07409389
Sc 8.75090255 4.94836267 15.02949798
Sc 6.91277793 7.95290163 15.20120750
Sc 5.00842575 10.87770136 15.19511115
Sc 1.58874091 1.00747540 12.83778278
Sc -0.03252509 3.91180195 12.73567037
Sc -1.64870462 6.85548922 12.48569281
Sc -3.29264243 9.93272431 12.71069221
Sc 5.06763208 1.03898620 12.94083402
Sc 3.43247556 4.02905732 12.47141668
Sc 1.84719935 7.00745643 12.60536573
Sc -0.00705008 9.91453613 12.54743841
Sc 8.51484139 0.86253083 12.57684334
Sc 6.99654716 3.93554543 12.50804378
Sc 5.19172740 6.94395121 12.65439745
Sc 3.39385393 9.94522230 12.71224145
Sc 11.99787584 1.07326224 12.51602870
Sc 10.34954025 4.02402938 12.58165018
Sc 8.48360663 7.01062430 12.75753722
Sc 6.92701720 9.95391474 12.65526729
Cl 0.11445803 1.92208682 11.00733506
Cl -1.67035407 4.86359426 10.77453005
Cl -3.53194489 7.94203804 10.84454417
Cl -5.09189037 10.95976059 11.22111043
Cl 3.44858158 1.91134918 11.07032849
Cl 1.56955642 5.01707922 10.90670902
Cl 0.15206413 8.08946860 10.99569924
Cl -1.71194090 10.79003082 10.84062301
Cl 6.54660738 2.04773375 10.73731234
Cl 5.13139587 5.12068713 10.97956343
Cl 3.64822712 7.94275677 10.94382742
Cl 1.79146963 10.89471488 11.06734645
Cl 10.22700295 1.93441135 10.70924733
Cl 8.62383524 4.89267092 11.08531915
Cl 6.84325374 7.86937026 11.02371247
Cl 5.18723063 10.95251917 11.06213952
Cl 1.52304630 1.06242242 17.00051002
Cl 0.05204434 4.23467110 16.93001538
Cl -1.59627805 6.88739083 16.77669341
Cl -3.38745298 9.82075190 16.84871215
Cl 5.31819798 0.93291157 16.85543790
Cl 3.41953665 4.11614120 16.76973776
Cl 1.75439308 7.01152741 16.69293395
Cl 0.00403213 10.04274295 16.95543758
Cl 8.68369429 1.02361085 16.89085970
Cl 7.03923589 3.92449004 16.58900966
Cl 5.06727791 7.00376494 16.91447247
Cl 3.45789309 9.99233287 16.93697651