 running on   52 total cores
 distrk:  each k-point on   52 cores,    1 groups
 distr:  one band on   13 cores,    4 groups
 using from now: INCAR     
 vasp.5.4.4.18Apr17-6-g9f103f2a35 (build Oct 31 2019 15:01:46) complex          
  
 POSCAR found type information on POSCAR  Ca Si O 
 POSCAR found :  3 types and     135 ions
 scaLAPACK is switched off
 LDA part: xc-table for Pade appr. of Perdew
 generate k-points for:    2    2    2
 POSCAR, INCAR and KPOINTS ok, starting setup
 FFT: planning ...
 WAVECAR not read
 entering main loop
       N       E                     dE             d eps       ncg     rms          rms(c)
DAV:   1     0.103913429272E+05    0.10391E+05   -0.49466E+05  8320   0.192E+03
DAV:   2     0.191137378336E+03   -0.10200E+05   -0.98273E+04  9432   0.537E+02
DAV:   3    -0.941130143759E+03   -0.11323E+04   -0.11239E+04  9872   0.181E+02
DAV:   4    -0.999876950822E+03   -0.58747E+02   -0.58557E+02 12072   0.349E+01
DAV:   5    -0.100418377319E+04   -0.43068E+01   -0.43047E+01 13784   0.802E+00    0.892E+01
DAV:   6    -0.869984425900E+03    0.13420E+03   -0.53214E+02 10000   0.372E+01    0.374E+01
DAV:   7    -0.871182913370E+03   -0.11985E+01   -0.62404E+01 10848   0.125E+01    0.165E+01
DAV:   8    -0.870523408017E+03    0.65951E+00   -0.98641E+00 11256   0.592E+00    0.685E+00
DAV:   9    -0.870350964726E+03    0.17244E+00   -0.20608E+00 10264   0.293E+00    0.202E+00
DAV:  10    -0.870405945224E+03   -0.54980E-01   -0.69419E-01 11528   0.145E+00    0.138E+00
DAV:  11    -0.870405955768E+03   -0.10543E-04   -0.11601E-01 10936   0.651E-01    0.679E-01
DAV:  12    -0.870406428519E+03   -0.47275E-03   -0.32297E-02 10752   0.314E-01    0.152E-01
DAV:  13    -0.870406887508E+03   -0.45899E-03   -0.40500E-03 12224   0.127E-01    0.996E-02
DAV:  14    -0.870406946005E+03   -0.58497E-04   -0.94357E-04 11168   0.501E-02    0.659E-02
DAV:  15    -0.870406939165E+03    0.68405E-05   -0.16511E-04 10320   0.250E-02    0.302E-02
DAV:  16    -0.870406941092E+03   -0.19269E-05   -0.52478E-05 13112   0.140E-02    0.980E-03
DAV:  17    -0.870406939979E+03    0.11126E-05   -0.19010E-05 10352   0.866E-03    0.605E-03
DAV:  18    -0.870406939243E+03    0.73572E-06   -0.26915E-06  6576   0.345E-03
   1 F= -.87040694E+03 E0= -.87040694E+03  d E =-.179087E-12
