135
Time=99999.99999996 pbc="T T T" Lattice="12.93041299 0.00000000 0.00000000 0.00000000 12.93041299 0.00000000 0.00000000 0.00000000 12.93041299" energy=-901.35066933 virial="16.34856731 -6.95793905 11.32470328 -6.95793905 1.79122902 0.17858940 11.32470328 0.17858940 1.92509980" stress="0.02908645 -0.00321843 0.00523829 -0.00321843 0.02235289 0.00008261 0.00523829 0.00008261 0.02241481" Properties=species:S:1:pos:R:3
Ca 9.16259510 10.00469328 2.67468410
Ca 10.10852085 1.63990233 11.48514169
Ca 5.13167405 5.15158147 4.55340882
Ca 0.63973922 1.68475910 3.26477688
Ca 12.33643462 6.14735443 5.39906388
Ca 9.36322880 5.01913283 6.51832805
Ca 2.07923376 6.68036735 7.71834284
Ca 6.06755092 11.52170912 3.13897320
Ca 3.72234298 11.11076948 8.49354645
Ca 3.00714733 8.59507095 11.63418569
Ca 3.02419315 12.51089784 0.72635192
Ca 1.12366171 3.99625576 6.88179292
Ca 10.11411258 1.03259250 2.57482950
Ca 12.70617839 0.71871729 6.34486788
Ca 4.33926132 8.95158980 5.96774640
Ca 12.64008887 8.60343019 2.67708104
Ca 8.34803413 12.61281559 5.57680662
Ca 7.61324653 6.94452898 10.84389023
Ca 6.33254232 0.72203959 8.53013621
Ca 10.68794187 10.40849122 11.61640534
Ca 10.27173962 4.75512499 11.01054392
Ca 4.48862331 0.77578044 5.63168397
Ca 5.02798145 3.50348648 0.89032415
Ca 1.26167448 5.41599736 1.09960387
Ca 12.85249684 9.91837755 8.57960586
Ca 11.08304661 4.30925622 1.33980353
Ca 8.45518309 6.81167519 3.03015007
Si 3.38450595 1.10893725 9.52374704
Si 10.09928993 8.69709600 6.31316594
Si 7.91208929 12.88427303 11.35146100
Si 4.52840836 6.82246456 0.64835388
Si 11.19858110 7.47997952 0.60733959
Si 6.42522050 9.32989121 1.72292804
Si 10.84951720 11.37703936 4.93520677
Si 8.24099860 2.51634380 5.79464694
Si 3.66622694 5.21330647 11.44999613
Si 8.12404987 10.64416044 9.90011509
Si 2.14153821 6.98328440 4.73968737
Si 3.78815095 4.78566018 8.97684247
Si 6.79486007 2.40422377 3.38805588
Si 6.57563493 9.88758290 7.74450501
Si 5.10353827 0.89647135 11.78126194
Si 1.16486894 12.21288010 10.38867926
Si 10.78629196 2.97498730 7.90440575
Si 11.84040118 11.33602502 2.09108220
Si 6.99244415 3.35937130 10.81992506
Si 2.60705555 11.85845617 4.63329315
Si 7.04929722 8.35152627 5.63342343
Si 0.43115918 8.09624872 11.34639024
Si 12.80054484 1.86576420 0.22961012
Si 11.64111451 6.95194312 8.51288190
Si 8.27047709 3.62371062 0.75957806
Si 1.52290719 10.09127865 6.23407470
Si 11.70587274 3.43140945 4.74887015
O 9.78953414 7.98752476 2.13652137
O 10.45687216 7.14131704 5.41280306
O 8.14849260 12.37932262 9.69432878
O 7.05810627 3.00073756 1.46858625
O 2.78389222 2.36611253 10.33066609
O 11.52535458 10.13214518 3.68108094
O 11.67823059 2.28684637 3.73860720
O 11.95775711 6.82323916 1.87803459
O 6.33155904 0.70555157 3.44497713
O 4.75626455 5.82679425 1.79375125
O 9.48072892 9.47381085 10.23587414
O 1.59946730 5.81887964 5.80094001
O 3.11962573 6.35438954 10.22900032
O 10.93567353 10.93817638 0.79683324
O 8.85554529 11.39861712 4.14151078
O 11.39384958 8.36050225 7.37946012
O 1.39545423 7.05781099 12.20154548
O 2.90214904 7.49301484 0.62242155
O 7.95383285 8.96858395 1.25265182
O 5.69736635 8.14063744 0.63384969
O 1.99518325 8.44582738 5.86319572
O 8.92980615 0.13002088 12.57631556
O 2.08338625 9.33217989 7.71774182
O 2.50177955 4.05154456 12.12687879
O 8.22596837 9.01772785 6.40771554
O 4.64404692 5.67578023 7.91209137
O 1.02226584 6.66221478 3.54174939
O 12.31164368 3.00484777 12.05564658
O 5.33278035 2.87001572 3.09251157
O 11.66360482 0.81863321 0.69073485
O 2.84133832 11.64322595 6.37279732
O 11.57125274 12.51052277 3.01445653
O 10.72969523 6.09623569 12.58776383
O 9.86124288 2.82732128 0.45694023
O 5.13919219 9.44663783 8.50915767
O 0.55980740 3.81653043 2.02421079
O 9.40969815 3.02683781 7.27359493
O 4.95750551 6.00685802 12.26837737
O 0.09014583 10.69016674 6.79967939
O 5.61430105 2.51596464 11.44645570
O 0.14100419 4.21994225 4.75552115
O 10.05690824 6.89181940 9.17537731
O 10.85480740 0.10187258 5.35552262
O 6.02431634 8.31936623 6.77595864
O 1.12483652 9.34515018 10.93790850
O 6.89238783 4.93006840 10.35130105
O 1.48940617 10.67446002 4.43228489
O 6.94201175 1.46117099 6.36669444
O 4.17508684 12.19791572 4.06295667
O 4.62888681 0.31945871 10.26326925
O 10.64254022 4.37259999 8.75834810
O 3.67772758 7.00831549 4.31109268
O 6.13649970 11.45189069 7.22365822
O 7.73130931 3.89049902 5.41425279
O 12.66796895 11.06630216 10.44386828
O 1.33172651 0.92102015 1.21197669
O 10.48193504 10.11304410 5.94169702
O 4.39726134 1.09299562 8.26410564
O 8.67168243 5.03846940 1.84538804
O 6.41885661 0.00124953 11.72894079
O 6.45739654 9.64054557 4.41960518
O 12.72743873 6.05745559 7.88476656
O 11.68168410 2.84268708 6.37154962
O 2.22044001 12.48547440 11.63107671
O 8.21063974 10.53249091 8.28945920
O 5.72081482 10.70979481 1.07031087
O 10.75508374 1.44910395 8.55864962
O 4.48780354 1.10010121 0.37928403
O 2.16641577 12.59443172 9.16045428
O 11.98911825 8.30841596 12.47338683
O 12.33181945 7.65067172 10.02051319
O 0.31884488 10.68715494 1.46194788
O 1.80529529 0.53935207 4.73743879
O 7.79130961 3.59987593 12.21790433
O 10.56082246 4.50235313 5.00460580
O 7.94371113 11.10301047 11.49642276
O 8.50387426 2.28918722 3.94723688
O 4.91109633 4.53751494 9.97775902
O 7.64676622 2.24198946 9.84222340
O 7.27424120 6.86266449 4.93067339
O 2.69229024 3.77239841 8.31021191
135
Time=199999.99999918 pbc="T T T" Lattice="12.93041299 0.00000000 0.00000000 0.00000000 12.93041299 0.00000000 0.00000000 0.00000000 12.93041299" energy=-895.43497449 virial="-21.98383792 -14.29894600 -45.83653104 -14.29894600 -43.72130481 20.65341651 -45.83653104 20.65341651 -7.42282095" stress="0.01135562 -0.00661404 -0.02120189 -0.00661404 0.00130086 0.00955333 -0.02120189 0.00955333 0.01809089" Properties=species:S:1:pos:R:3
Ca 1.70083721 1.07105398 12.72675491
Ca 3.55224987 1.93181193 5.85006215
Ca 5.84131111 5.30320405 5.02281356
Ca 7.70625263 2.11544984 4.44569243
Ca 9.43768160 1.90002967 9.49081327
Ca 5.89871701 3.29374787 9.82813166
Ca 9.71779888 7.54228350 5.24405232
Ca 3.31025836 10.77361005 3.76075617
Ca 8.31810964 4.34793964 1.29737751
Ca 5.29125479 12.20228431 9.77870238
Ca 11.34058984 1.85663937 0.39387996
Ca 4.16515126 6.54795283 2.57116961
Ca 8.03556967 0.46428551 6.75690249
Ca 1.33692316 12.04854937 6.76543622
Ca 12.07114197 8.54873181 11.62018450
Ca 9.74149772 7.30721094 9.87235613
Ca 4.20109028 7.24159901 7.68780146
Ca 12.39665647 3.02990351 7.30929996
Ca 6.23177202 8.05547143 10.46404557
Ca 5.28706693 1.42427017 0.82503487
Ca 1.48564602 4.65130499 0.07288506
Ca 10.24610021 10.94766249 7.75600802
Ca 2.06887422 11.38404810 10.67743781
Ca 8.95892634 10.27235343 11.26946644
Ca 11.17296645 3.64976505 3.69587496
Ca 8.79297395 10.48636023 4.99508455
Ca 12.07112016 10.84448237 1.15112997
Si 2.22173456 5.42926732 4.97692451
Si 12.69549999 12.68401187 3.13176402
Si 4.12026541 3.46966929 2.07706767
Si 7.22199203 10.71610907 1.62944035
Si 6.51736656 8.33684241 3.48750397
Si 1.57497267 1.71500599 3.11236202
Si 10.84082035 6.10003164 1.70206928
Si 10.98689241 0.65776699 5.47576161
Si 0.00431089 2.77429966 10.76784723
Si 5.17665917 12.61116314 5.91594922
Si 6.26445365 7.25538145 1.03615821
Si 2.86868406 2.12013823 9.38180790
Si 0.86182135 7.12743127 2.51588363
Si 7.46595146 7.76430880 7.14370404
Si 12.29921644 12.00342552 10.93863967
Si 4.26303444 10.92169490 0.05037154
Si 9.06083873 4.21360542 7.07015355
Si 11.82279595 6.19567305 6.61968999
Si 1.84991614 8.44907119 0.29999401
Si 12.82963015 5.44643043 9.73371464
Si 11.83899731 9.63401440 4.15047173
Si 7.62252859 1.49548484 11.48980869
Si 6.18559203 10.20729583 7.91821786
Si 8.49510003 0.75168829 1.85498483
Si 9.42766937 8.38635485 0.86976912
Si 1.97400511 8.02387104 10.30196781
Si 0.72284992 8.74290488 7.01457077
O 2.82794003 0.22169559 10.39079700
O 7.65462333 10.88427939 7.74358320
O 8.66671306 1.82470387 0.29237129
O 5.56703570 7.45575072 12.38868198
O 4.27780825 10.49588268 11.32154216
O 9.35259084 2.14427742 2.66447144
O 0.85024718 2.87237780 12.15088168
O 6.01296998 1.04790307 11.56271346
O 10.80198153 12.00553695 10.54407710
O 6.75825717 1.09187609 2.29797129
O 12.04677601 6.89679787 5.20315674
O 10.14518826 3.09233103 7.76937166
O 12.68664589 10.60059161 12.21288373
O 10.41465534 6.01522413 0.12120052
O 11.43691700 12.88066647 2.09549334
O 12.25058990 0.84247147 6.82463216
O 6.33504123 10.36753042 9.53702017
O 1.42076499 6.27039573 10.42709122
O 6.59113994 12.42114462 5.14046091
O 5.65390060 11.35625588 0.85112129
O 10.27931229 1.99686829 5.05045317
O 9.14214516 5.55965596 7.96537441
O 1.91099320 5.55304077 3.50875060
O 12.87710500 8.04434347 3.66932773
O 3.23570448 2.51884456 1.15813696
O 1.34958717 12.80817156 2.78311852
O 12.04691996 0.04534873 4.48506484
O 5.72835634 8.17994874 2.11925564
O 11.83796938 6.58185117 10.45652057
O 5.94722735 9.04602907 6.96658354
O 9.85603270 5.04213486 2.42151643
O 5.22538109 7.91939093 4.14043190
O 10.33690234 5.25798749 6.12795009
O 8.35048554 8.83082473 6.35767399
O 8.38172947 10.51077347 0.67837365
O 6.97556337 6.24465510 6.65081158
O 12.68295205 10.13779148 6.41019728
O 5.75836005 1.11959167 6.76370070
O 3.48033421 12.56884653 0.69935757
O 0.36039042 8.34070813 0.61296564
O 3.64902788 5.26429340 5.78196073
O 7.56630971 7.75593939 8.91902922
O 8.23573275 7.83510824 12.56832042
O 12.44470982 6.05355630 2.09092516
O 3.36966024 9.30757820 0.39847698
O 12.64767928 4.88904844 8.17359723
O 1.77535020 8.74508757 8.56121024
O 2.44247026 6.97749809 0.06241169
O 12.34658512 4.29816990 10.58509492
O 9.70428417 12.38077260 5.87571057
O 2.13422144 8.38254825 2.43009733
O 12.42517012 0.51611346 11.96408509
O 10.19822385 9.68353057 9.47647946
O 6.47789688 5.99127282 2.03991190
O 2.97131052 1.73547646 3.64041949
O 7.73197094 2.81533288 10.61373834
O 3.62477821 4.68768093 1.04767456
O 1.04556202 4.00003810 5.49880103
O 11.75014581 7.67673032 7.42021577
O 3.01643003 1.34656668 7.91260472
O 0.32455095 2.50461659 2.36958450
O 12.77692906 10.77789019 3.43679076
O 3.45878206 7.70858491 10.11285719
O 6.96956188 9.68919075 2.77174628
O 8.04506486 3.03927215 6.51249855
O 2.23307021 9.31736179 6.18296042
O 11.17092259 2.74200725 10.85201080
O 3.68494008 12.37131793 5.62153933
O 7.83948580 7.80789451 4.14700746
O 8.42879672 12.24159049 2.63642293
O 1.45079773 9.07249680 11.10364725
O 10.26460961 7.72657201 2.10513825
O 0.30181411 11.88505634 9.48950755
O 5.38339581 11.54804820 7.39322781
O 1.16405407 2.50284027 9.75194051
O 10.35413162 9.33289680 0.23104668
O 1.45555202 6.73445959 6.10210755
O 4.90921086 4.05097751 3.20315424
O 3.54472038 3.54538877 9.39122329
O 8.29627062 0.22540599 10.74793272
O 10.45508227 9.24811476 4.28381070
135
Time=299999.99999840 pbc="T T T" Lattice="12.93041299 0.00000000 0.00000000 0.00000000 12.93041299 0.00000000 0.00000000 0.00000000 12.93041299" energy=-898.05400697 virial="-31.32236564 -19.76600985 -6.35210326 -19.76600985 1.21723524 24.95997016 -6.35210326 24.95997016 -25.93835532" stress="0.00703605 -0.00914285 -0.00293819 -0.00914285 0.02208738 0.01154534 -0.00293819 0.01154534 0.00952645" Properties=species:S:1:pos:R:3
Ca 2.64482944 4.63785473 8.43102562
Ca 8.64426308 1.30412808 10.67946650
Ca 5.50967331 4.34634109 5.31436000
Ca 5.79721062 3.02783453 0.99675579
Ca 11.77989982 11.23107481 12.50345606
Ca 8.65802145 7.47646874 8.78485846
Ca 4.74449204 8.01465462 8.35649273
Ca 3.73421153 9.98616488 10.32646063
Ca 11.29610275 8.95008659 9.89959779
Ca 10.87976833 2.83249417 12.85998872
Ca 11.21879052 1.65221686 7.29606508
Ca 0.56913861 4.61034681 5.80132859
Ca 12.43928220 10.51492696 6.19823092
Ca 7.03577682 11.72463494 0.47018868
Ca 8.34175099 11.57617902 6.95275608
Ca 11.72852651 9.34879162 2.96307599
Ca 10.03943523 4.84972965 6.45728306
Ca 5.97104478 9.57334287 2.13158075
Ca 3.17871718 12.44601595 3.16820572
Ca 1.07905294 10.92720602 9.32652719
Ca 10.44623579 11.97059602 3.31337795
Ca 2.79000097 7.01784529 2.76014838
Ca 10.97956714 7.62730435 12.15577186
Ca 11.67276042 5.91876705 2.44356273
Ca 5.40286940 6.18109890 12.59158181
Ca 1.62813073 1.12696729 0.06083480
Ca 5.25996120 1.53658793 7.13333363
Si 5.39792458 11.63226409 5.01960570
Si 8.63781453 10.84823412 10.51860103
Si 0.47435954 0.61211478 4.43341912
Si 5.87650320 5.19978508 8.30496151
Si 0.01324320 3.01375951 10.65306632
Si 10.37812135 8.08578954 6.19774811
Si 8.79965789 6.53520350 2.27441831
Si 2.43264723 2.67805523 5.62407897
Si 8.28650516 3.62305977 8.30060019
Si 10.94506078 11.91371884 9.16866822
Si 0.88817123 8.08899553 12.92212295
Si 8.94579425 3.94162189 2.55339415
Si 1.55893010 10.94816157 0.15974191
Si 1.85566022 2.81641420 2.89859112
Si 8.95667542 1.53290804 2.88218425
Si 0.84740005 7.45675832 7.39899862
Si 7.02628491 8.30496810 11.35662870
Si 8.92894996 9.70457907 1.04112162
Si 4.46564702 12.44580569 0.35521840
Si 2.66130757 9.58343408 4.48603572
Si 4.37409126 4.02452013 11.62705196
Si 0.86715102 4.72504190 0.10827911
Si 4.98601901 11.13514534 7.65574092
Si 8.12907109 1.73359885 5.59427691
Si 11.97140765 5.41633441 8.99007003
Si 2.89065474 1.69916795 10.26677776
Si 5.80853319 6.34115622 2.64657833
O 2.92053229 3.65937476 3.99285115
O 12.30414428 0.12557440 5.63779851
O 6.81849836 4.01607611 8.95398645
O 10.10696353 10.27165708 11.18139316
O 4.43421528 10.96365525 12.44244736
O 5.41798781 9.81758745 7.11939539
O 4.82148022 12.38447916 6.17896609
O 7.08492151 11.40823901 4.94977210
O 4.40794542 10.58010821 4.28024396
O 10.30280365 3.84063286 1.62192316
O 2.69248033 12.27857655 0.47864075
O 0.46091867 2.21384667 3.62469889
O 10.83722945 6.40920710 9.48542811
O 8.80135800 5.46739324 3.62035915
O 12.39619639 7.23542973 6.49269067
O 3.47604333 1.65052830 11.62839134
O 10.58963894 11.86065299 7.42773229
O 8.25537726 8.83250500 12.60406073
O 1.63027163 10.69698730 5.03699162
O 5.67181819 8.87994540 10.80267753
O 4.91086474 6.48841483 4.11295232
O 0.25033493 10.80708618 1.02298219
O 11.35428817 4.42916579 7.80626096
O 3.31486915 10.67089271 8.31074193
O 12.47529469 1.87790584 11.71310913
O 11.53421017 4.50820180 4.17923136
O 9.78352182 7.69667925 2.18478820
O 5.08629535 0.84913640 0.49138141
O 0.34223565 8.06778307 11.24196638
O 5.81077256 12.35347805 8.49238806
O 6.99659125 7.46272803 2.76597534
O 2.98502732 8.47661410 5.43649059
O 4.94189027 11.54767754 1.65229740
O 12.03360481 10.80258853 8.93779593
O 8.14331753 11.80501044 11.86837912
O 9.32273922 12.16604347 9.61322487
O 0.70693896 8.95650910 8.13897929
O 1.30458249 2.84712846 6.63805555
O 7.49825929 6.83484943 11.30586244
O 9.31739924 2.67975815 9.32097444
O 1.24528638 7.09610119 1.19526983
O 7.96361703 3.19918554 6.64034716
O 1.90195173 9.10160663 3.10679082
O 4.60403654 6.74703086 1.50147517
O 8.97985933 5.29710825 8.57890221
O 7.95554398 9.69009516 9.75563100
O 8.19160625 10.46241374 2.01129334
O 4.65382908 4.80855366 7.42667827
O 2.67625123 2.11485065 1.92221287
O 6.14354874 4.39438263 2.75684772
O 9.17037001 2.65800628 4.13018816
O 2.13032325 9.62912364 12.80213220
O 10.15803678 0.42694902 1.70089002
O 12.21276328 8.31253512 0.82509469
O 11.66295620 4.31103823 10.39178634
O 4.25177045 4.86456472 10.04378895
O 8.48398180 5.42527814 1.34369255
O 10.46291369 8.87252614 7.56111944
O 8.57080776 0.90251255 6.89756975
O 6.49659723 1.99710297 4.96036823
O 10.59181909 10.23651956 1.22422974
O 0.64745065 5.45829038 8.53472346
O 12.46354553 5.88413106 0.41048465
O 9.40240282 7.03967487 5.87684680
O 2.33066628 6.95895202 7.75021875
O 3.66102545 4.37417995 0.19648089
O 3.84335866 2.65520541 9.55935618
O 1.29814667 4.03845960 1.50910309
O 2.16918676 1.03081547 5.19669292
O 8.13705052 2.42552936 1.82662560
O 0.95949869 2.40900201 9.49286290
O 5.91363674 3.56068299 11.71678366
O 2.85349569 0.01011854 10.01237417
O 1.33799561 3.80992910 11.77898370
O 6.37657477 6.58504690 8.14511161
O 11.72253068 0.52941868 9.42275586
O 8.65469402 0.40626278 4.31794523
O 4.12150873 2.59327700 5.90198214
O 0.71047342 11.57328352 11.75663959
O 0.10497006 12.45767684 3.33570833
O 10.76499709 9.41263639 5.03330653
135
Time=400000.00000008 pbc="T T T" Lattice="12.93041299 0.00000000 0.00000000 0.00000000 12.93041299 0.00000000 0.00000000 0.00000000 12.93041299" energy=-900.54279891 virial="-12.01501932 10.98700606 3.84824643 10.98700606 -49.26370288 31.12252735 3.84824643 31.12252735 -38.33253290" stress="0.01596675 0.00508209 0.00178002 0.00508209 -0.00126280 0.01439586 0.00178002 0.01439586 0.00379346" Properties=species:S:1:pos:R:3
Ca 5.79262520 7.08576007 11.59676228
Ca 5.10562232 3.08207726 0.33820032
Ca 9.52640303 7.35533285 0.65197090
Ca 4.72086913 3.88812882 5.52542830
Ca 12.69981729 12.15367834 6.38260217
Ca 3.84181152 9.31181909 1.97377065
Ca 9.75073748 1.96097325 7.95148983
Ca 2.69565088 4.89912700 7.30132823
Ca 10.12126346 9.12149281 7.05736979
Ca 1.25005115 7.48020201 5.11199481
Ca 11.91673506 11.41185445 0.25474583
Ca 8.69531941 1.83550708 1.26509744
Ca 9.72209155 5.49708702 7.24968392
Ca 7.11741923 9.60261402 4.68267185
Ca 5.88494079 0.41866738 7.94029491
Ca 1.27054947 8.16846482 0.99122065
Ca 8.43559003 9.46320270 9.80460145
Ca 0.49156813 4.76092040 3.30327216
Ca 11.57819976 8.40008663 10.61389360
Ca 9.89721301 12.32580040 4.09242251
Ca 7.07078175 5.50235322 2.93432307
Ca 3.88733334 12.90855303 4.60431729
Ca 2.39216571 2.12734123 1.61331968
Ca 1.16410103 0.22971342 10.26938792
Ca 5.03422588 12.79100618 11.70476061
Ca 10.77302440 2.70833430 11.47262972
Ca 2.57782069 9.34170747 9.84385625
Si 3.99715317 7.80323155 8.36860064
Si 1.65894747 1.99845597 5.88782302
Si 11.40056253 9.53750553 3.94313139
Si 9.28869541 10.75365393 1.67590377
Si 8.71152986 11.98906926 7.08295982
Si 5.21749145 3.09271025 9.99411954
Si 6.77412171 1.66194642 4.39923880
Si 7.18838427 9.42271700 0.62914277
Si 7.31375789 4.83839797 12.56113463
Si 0.16672255 0.87824177 3.19524580
Si 10.59131752 11.80942245 9.67855568
Si 11.96258545 4.90274547 9.48048731
Si 9.63325018 4.62663666 3.53807706
Si 12.56430431 5.60465331 12.73250797
Si 8.81673749 6.45361880 10.03267517
Si 0.77068794 7.29479568 8.72707539
Si 2.34716462 5.58231087 1.09582578
Si 6.25098025 5.54686959 8.82463946
Si 11.47143862 3.64047225 1.72921698
Si 12.37139477 2.58126940 8.09414806
Si 4.31493075 7.04230257 4.78883019
Si 12.67948277 4.30263920 6.04661359
Si 9.35378616 7.23515947 5.01409685
Si 1.37464376 12.00657611 0.77598630
Si 5.84500218 10.50311229 10.73876779
Si 5.39889151 0.51186472 1.81862583
Si 3.77337833 9.81276490 6.04985001
O 8.88573183 5.26973755 11.70083166
O 8.01596313 0.36441204 7.71085274
O 11.44182931 4.16176239 3.45287581
O 0.59653510 3.42703894 5.00911264
O 11.20600630 3.28794427 6.53441271
O 12.71488826 8.66521091 3.46020706
O 7.88396309 7.66219556 4.40717736
O 4.73395088 2.33931757 2.25655310
O 7.72580560 6.19418892 8.92762740
O 5.25970722 6.06001270 4.17187230
O 12.00593204 0.36297726 4.13884467
O 5.09593606 1.57015952 5.52212091
O 6.18019304 10.69166074 12.46930855
O 0.03644103 8.35977518 7.50441511
O 10.60249715 10.46561223 2.28187404
O 6.71632474 0.65164639 3.22056905
O 9.12731791 6.47879746 2.61384777
O 4.48531576 11.26721327 6.22022056
O 1.54631127 10.60524619 1.51830448
O 10.51622361 6.53354676 9.18582513
O 3.86996216 7.86857647 10.14775738
O 12.28837224 7.28439086 0.30337955
O 0.92579408 11.93437150 11.97997853
O 10.43489232 2.64688797 0.80263059
O 5.45649294 6.93458525 8.13078236
O 0.05138905 12.91297286 1.78638696
O 7.91361007 11.10137469 6.16827983
O 0.37983583 2.31059828 9.31540246
O 0.95587824 7.73519281 10.10551014
O 0.21367388 3.92938782 7.56443621
O 6.87514786 3.48167526 4.54416573
O 11.26017212 4.80115866 0.68191635
O 1.14213846 4.96568993 12.69475201
O 2.31579132 6.77485336 8.26631534
O 1.97631631 0.64422487 0.31100585
O 1.20553598 6.17370528 2.31525000
O 2.59808956 1.22843846 4.87841139
O 3.24623563 6.25164332 5.74765013
O 6.59518889 5.28571417 11.11330943
O 9.72163684 10.81485081 8.71664311
O 10.39303655 12.67376317 6.80408922
O 10.64026931 0.26080095 10.76350185
O 2.28199596 10.03085428 6.00912861
O 5.99016308 0.75290232 0.36062690
O 3.47575036 8.05467323 3.73262421
O 7.41178453 7.83103938 0.02862976
O 2.84497218 2.51495223 7.22606914
O 6.11424856 9.04620310 2.11428349
O 4.23567200 12.37140188 2.10936003
O 1.66302028 1.01029062 3.45476590
O 6.13258750 5.28329290 0.87733030
O 8.03397028 10.70228887 2.78285898
O 4.40493641 10.98066989 10.15550882
O 8.72705684 7.32256536 7.00300671
O 6.68926733 4.68452123 7.54179898
O 6.47738776 2.52803047 9.27318027
O 10.77623093 3.45966782 9.23932042
O 11.05452245 10.43447930 5.22429759
O 0.13061805 2.69975603 2.29810020
O 12.54880811 5.92011924 5.75293758
O 10.93939014 10.40134583 10.91730372
O 6.68322993 10.98870470 9.53388720
O 0.21981036 5.64721156 8.86305270
O 8.83969214 7.59465958 11.11421124
O 8.38088661 1.49413828 4.92539224
O 3.13384423 7.10081370 0.44095051
O 0.45590320 1.45235375 6.84116044
O 4.66526210 4.64984699 9.53593062
O 2.81513387 4.30016662 1.83053500
O 12.00723576 5.39717142 11.07713737
O 7.24195711 3.30624637 12.66519250
O 4.07662103 1.84844695 11.05524547
O 12.33047543 11.96213669 9.22799337
O 9.49828828 5.48709037 4.98981182
O 9.03070503 3.28007562 2.92492034
O 3.70697971 9.60148106 7.83804087
O 10.89680038 7.73333338 5.33690801
O 8.97251850 9.55578342 0.48104017
O 4.60721780 8.54427097 5.53287411
O 6.11811983 8.87632833 10.59503052
O 9.38688322 12.40892912 1.39567160
135
Time=500000.00000301 pbc="T T T" Lattice="12.93041299 0.00000000 0.00000000 0.00000000 12.93041299 0.00000000 0.00000000 0.00000000 12.93041299" energy=-906.52168164 virial="9.88231986 21.44360617 1.10583365 21.44360617 22.76635600 6.55282520 1.10583365 6.55282520 25.86627302" stress="0.02609546 0.00991883 0.00051151 0.00991883 0.03205502 0.00303104 0.00051151 0.00303104 0.03348890" Properties=species:S:1:pos:R:3
Ca 1.69910564 3.03573613 6.33377873
Ca 8.72854932 10.13760240 0.53365712
Ca 12.27550920 9.37125159 9.79282505
Ca 11.35486498 0.62218450 1.17545373
Ca 11.77728121 5.92947645 11.27168405
Ca 8.52509747 2.32548811 5.55140467
Ca 3.99248968 2.75534699 9.95150967
Ca 2.08299435 11.86533449 2.52393868
Ca 9.82633669 7.08932826 1.92684468
Ca 5.07502928 4.57784617 0.57270693
Ca 0.55993747 1.35219826 11.48846167
Ca 7.33906681 9.39651116 3.56978318
Ca 12.67473016 0.88772193 4.57769014
Ca 0.22923444 11.53735070 7.17446321
Ca 6.78818547 1.34076684 0.80979768
Ca 1.62445236 6.48877272 0.64874272
Ca 3.90184434 12.49892598 12.85979316
Ca 4.01619574 9.21786079 1.35055957
Ca 2.70413944 9.35620448 10.23289412
Ca 5.13943816 9.39626850 7.11020348
Ca 6.85864267 9.66740010 9.85672688
Ca 7.50010987 5.86687061 6.74884987
Ca 0.67683285 5.90785859 7.75366005
Ca 6.78753517 0.75834482 8.40896442
Ca 11.05539720 4.58053851 5.22238840
Ca 2.98583354 2.21792910 3.22069751
Ca 9.76725984 4.00474896 9.40675181
Si 2.84479895 2.75288790 0.58160498
Si 5.80254637 11.25535255 2.25146154
Si 4.18566011 12.33224300 9.66047493
Si 8.34339290 9.03202264 7.94487144
Si 12.61820502 8.83273256 0.72102688
Si 12.60282874 3.21039768 8.73016513
Si 7.21104349 11.87871046 11.41497593
Si 11.14451273 8.68465891 6.90801988
Si 4.59266335 6.50550299 8.84532024
Si 8.93446700 5.71083793 11.48548137
Si 12.61536761 6.30894388 2.87685895
Si 2.00612235 6.60031736 4.82934781
Si 6.86162294 4.08694567 9.48952772
Si 4.56383746 6.88665152 2.45685853
Si 5.39911558 2.41116035 5.99603397
Si 7.86859511 11.65244381 6.58665528
Si 9.78910040 0.13819284 10.48213999
Si 6.30160908 12.88480842 4.10541002
Si 5.56689000 4.39899413 3.57758326
Si 9.65356848 11.82161317 3.76456651
Si 11.05367118 2.27185598 6.75744210
Si 0.04343216 3.32312770 1.53922984
Si 0.81713460 11.15222054 12.37960657
Si 2.05799412 6.74266002 10.69901055
Si 10.50077766 2.51855538 11.69312067
Si 9.61724705 7.28139386 4.87950042
Si 2.53468998 9.92699064 4.60330893
O 10.95089263 9.07259364 0.69739023
O 3.91705457 1.99479390 6.70247617
O 12.44225589 2.89084026 6.24188908
O 8.78113310 0.24631506 3.73873452
O 8.64181208 12.44854005 12.22950779
O 7.35537441 10.38339954 11.81823628
O 4.97000809 5.86415119 3.81225240
O 1.45406302 2.59112126 8.82141805
O 12.79635077 7.52428787 12.78559985
O 10.33573254 4.22155124 11.60363723
O 4.96953967 11.82887660 3.63162769
O 11.07295742 1.56714296 5.36900832
O 9.58778089 6.29076508 6.13242962
O 1.41925339 11.23285606 4.79301029
O 3.24109459 11.11494272 9.18660397
O 6.61156961 0.15735750 2.57217383
O 6.29551024 12.81754436 12.71378960
O 7.90890265 12.49295733 9.79448131
O 5.47249593 5.18984287 9.58771073
O 4.12449043 6.60338707 1.01896344
O 11.04341587 12.10054975 3.18794967
O 8.82226683 6.13163545 0.13396470
O 4.48375067 8.18168554 9.12569668
O 4.90574038 3.55598483 4.78528936
O 11.66161755 2.91529471 0.71207468
O 7.06565436 7.93580464 8.32964739
O 7.44709079 4.40650345 4.67594509
O 11.60792348 1.16886275 12.15098576
O 11.25119157 10.35747002 7.49410451
O 8.57183332 7.35823188 3.70995603
O 8.01187841 4.48183413 8.42299857
O 0.41828505 5.85899297 4.66073165
O 3.02006890 7.65507173 11.67325294
O 12.24094975 4.73938368 8.41413105
O 9.74459397 8.44161972 7.49774687
O 8.55447761 10.25357503 6.48703573
O 3.22933903 3.83931034 1.82584811
O 3.51155447 9.83197078 5.85003956
O 9.81016760 3.56966255 6.77926023
O 0.96581830 12.71656871 12.86007062
O 3.13754039 10.08016735 3.18013957
O 12.65900461 5.37269023 1.37955156
O 10.84657368 2.21964345 8.37394334
O 4.02515900 2.68407329 12.19411440
O 2.93042404 1.38131412 1.07497561
O 3.69369795 0.83082123 10.07979009
O 8.88111620 0.05780414 6.86320209
O 5.72622970 7.81961989 2.87748702
O 6.50662310 11.28100356 7.30452673
O 12.38952398 7.73271479 7.65987830
O 11.01231697 6.37079503 3.49610537
O 4.38588476 11.37037641 1.39293243
O 12.77938959 10.47840417 11.42212194
O 2.19747921 6.74447082 3.24141265
O 2.64510299 6.24791185 9.18791769
O 1.29599409 5.43022360 11.46131600
O 9.88015417 6.64183141 10.54099994
O 12.35994052 3.07365082 10.47545215
O 10.92285981 12.62643767 9.47301444
O 10.88281201 8.08263934 5.29163481
O 1.29277418 8.19407674 9.54098407
O 7.99660919 4.60847472 10.80510962
O 2.49678393 10.61459988 12.08681927
O 6.25982140 3.57752071 2.25247179
O 1.67578513 8.34088981 5.29178865
O 0.14479527 7.90957777 2.51561433
O 6.31397674 2.71195648 9.78556766
O 6.47434470 10.05976809 1.63444518
O 2.58408943 5.29692440 5.63884066
O 1.46733164 1.42887854 5.01703976
O 12.65387648 2.70011923 2.85884841
O 1.30033166 3.07878364 0.75232653
O 8.88732981 10.73726007 2.97857307
O 8.87034848 9.74753013 9.20577883
O 5.39934948 11.73150960 10.56427539
O 6.79553332 2.34273416 6.84876683
O 7.17266823 11.83287346 5.02526310
O 6.10128461 1.28192342 5.02454550
O 0.46862262 10.29381353 1.08804412
O 9.50189277 1.80078119 10.30901312
O 4.84700513 6.78339449 7.30093564
135
Time=600000.00000594 pbc="T T T" Lattice="12.93041299 0.00000000 0.00000000 0.00000000 12.93041299 0.00000000 0.00000000 0.00000000 12.93041299" energy=-906.15823690 virial="-22.77846199 10.94207170 30.74294887 10.94207170 -6.43746818 25.15342163 30.74294887 25.15342163 27.71052617" stress="0.01098807 0.00506130 0.01422029 0.00506130 0.01854667 0.01163483 0.01422029 0.01163483 0.03434197" Properties=species:S:1:pos:R:3
Ca 3.85746581 2.51937979 2.57271252
Ca 8.07822127 3.23315682 8.26108168
Ca 10.43381997 0.87553275 12.87077773
Ca 7.81730460 7.35434580 12.17743588
Ca 11.22956445 5.20419087 12.06826525
Ca 7.16439205 3.81696583 0.68304682
Ca 4.71017114 7.20117977 3.54606645
Ca 0.54272880 2.88312947 0.84296471
Ca 4.33702615 1.95746228 10.15541754
Ca 3.63301046 7.82624958 9.31165035
Ca 3.66698780 11.69211790 9.71905050
Ca 2.16298111 4.25395058 4.06748312
Ca 10.05794561 8.94609164 4.52388097
Ca 11.11733946 2.16322615 5.70066252
Ca 6.89456808 0.68910345 5.18260689
Ca 1.88413232 3.50022383 7.99148229
Ca 7.08119253 11.80743475 10.41039279
Ca 5.27438823 4.95758099 6.27910793
Ca 0.98285606 9.53948024 7.23945038
Ca 10.56279031 2.77767493 2.78211732
Ca 3.00508441 9.94620218 0.20570476
Ca 1.74662856 6.35001663 11.17517624
Ca 7.00214596 8.74411141 4.81141408
Ca 11.29438102 12.10148874 8.96769967
Ca 3.89312584 11.64722250 3.91108458
Ca 1.23754575 0.07057965 12.34732087
Ca 11.79836909 9.15147940 12.02953365
Si 1.28358789 1.07041479 3.02839112
Si 11.45096213 5.31301680 5.37289442
Si 12.88281751 6.82700377 2.84051431
Si 7.49598052 11.15373371 2.86712621
Si 1.14675896 0.34157849 7.57400407
Si 7.11871471 10.43704463 0.20522258
Si 12.04517260 6.57799080 9.31696236
Si 10.32248422 6.34548158 1.56637320
Si 3.69834028 1.53173177 6.61039653
Si 7.36578550 7.47254020 8.72238035
Si 6.81564103 1.16972426 1.74145213
Si 10.46816169 7.20417181 7.27767752
Si 9.20193725 3.33630614 10.87083386
Si 5.98491542 4.99708830 10.43060129
Si 1.18518075 9.89895196 11.03562123
Si 9.63922691 11.01647129 11.63434740
Si 0.21252608 2.08448899 10.78611548
Si 11.61285139 4.22381962 8.13475350
Si 4.64578210 12.54381903 0.12239117
Si 6.07512276 3.72176508 3.92291697
Si 2.44763478 5.70849691 0.99524325
Si 7.47804037 6.36354389 2.42504673
Si 12.66847746 11.79464619 5.08684712
Si 2.47320864 6.57871431 7.36016675
Si 9.42380553 12.09747521 5.88402924
Si 6.99083580 10.67909990 7.81936331
Si 1.56494837 9.24554916 4.07476314
O 0.98938392 9.59264080 9.56043415
O 12.20455396 6.27557840 4.35866736
O 12.69282369 0.51767205 10.64313335
O 6.73613200 9.07808536 1.18943035
O 10.72838467 4.13062150 4.88502005
O 8.12460339 1.79404131 1.29507138
O 8.31930086 2.08664775 10.13242876
O 5.48415178 0.40013402 1.25675962
O 0.91317255 2.55440432 2.95781600
O 3.58286377 8.54551821 4.36997419
O 2.73570831 4.16006675 1.56857227
O 0.86436525 7.86799440 3.54491375
O 0.66431295 9.78793887 12.62815956
O 12.90935922 0.04702104 3.59934185
O 6.13658702 3.53660582 9.65636738
O 12.12557013 2.63378183 12.01790308
O 12.08147315 7.14631415 10.82019070
O 1.48065674 7.70217633 6.74974031
O 1.30416875 11.86186380 8.26670117
O 0.97123517 1.84610605 8.28072823
O 7.80754827 11.38948751 1.17658432
O 10.97021371 10.71558372 10.65601133
O 5.99569773 10.83315805 3.48501114
O 5.42952756 11.06453909 7.78601274
O 7.20840160 8.15560001 10.15032314
O 5.64373918 6.53857059 9.65210193
O 2.81075576 0.59806102 3.71877149
O 2.14114982 11.12579000 11.36676592
O 1.98470442 1.84365096 10.71768358
O 5.06951983 3.60478462 11.60052758