  4.4934695e-05   6.4323940e-05
 -4.4521465e-05   1.0567872e-04
 -7.5575978e-01   2.6026948e-05
 -4.4073054e-04   1.3758907e-04
  2.7507363e-05   1.4291650e-04
 -6.0105034e-05   7.1922419e-05
 -3.7892991e-05   5.2720370e-05
 -1.9828297e-04   4.7824444e-05
 -3.0272439e-04   1.5501240e-04
 -5.5120466e-04   1.9374891e-04
  2.0472391e-04   7.4501069e-05
  5.1090785e-04   7.8517238e-05
 -1.9884187e-04   6.8523084e-05
  2.1279155e-04   7.0317976e-05
  2.5860564e-04   1.9815589e-04
  8.9018758e-05   7.9728969e-05
  4.1808217e-04   1.0363592e-04
 -4.5118013e-06   1.2992629e-04
 -1.4122517e-04   9.6827884e-05
  3.2756091e-04   8.6872147e-05
  2.0032939e-04   1.4854399e-04
  2.9493807e-04   1.1456756e-04
 -2.0257164e-04   3.5016499e-05
  4.3178230e-04   5.4437787e-05
  7.8586780e-04   5.0896644e-05
 -8.7737426e-04   1.6852615e-04
  1.3481342e-04   1.6304532e-04
  7.9396879e-05   8.8604669e-05
  2.3246976e-04   1.3068898e-04
  2.3847223e-04   6.6889435e-05
 -1.2027662e-04   1.0124232e-04
  9.6327375e-04   9.9728786e-05
 -1.4850062e-04   1.8880000e-04
 -1.3275778e-04   1.0476883e-04
  5.5153779e-04   1.2420956e-04
 -2.0584858e-04   8.6281871e-05
  5.1492425e-06   3.4751924e-05
 -1.2703636e-04   8.6141976e-05
 -1.2402945e-04   1.1832926e-04
 -2.7727260e-04   1.4352213e-04
 -2.1381298e-04   5.6968958e-05
 -3.0008229e-04   1.6770219e-04
  3.9497172e-05   5.8257905e-05
 -3.7241617e-04   1.2419309e-04
 -3.7380014e-04   6.5557077e-05
 -3.7438798e-04   1.0379023e-04
  2.9749848e-04   3.1607000e-05
 -4.2287930e-04   6.8367794e-05
 -1.1336632e-04   4.1455591e-05
  1.0825910e-03   1.1733297e-04
  1.4010186e-03   2.6253127e-05
  1.7761657e-04   6.9952708e-05
  9.4706753e-05   9.1807175e-05
 -3.6654048e-05   9.0606918e-05
  3.2386015e-04   3.8370617e-05
 -2.9650723e-04   1.6677529e-04
  3.6339963e-05   1.2822889e-04
  4.2224699e-04   1.2013489e-04
  1.2292202e-04   5.6224082e-05
  6.9562736e-04   8.4259154e-05
 -6.7689118e-04   1.2265464e-04
 -2.4123273e-04   3.9860744e-05
 -3.1757772e-05   3.8437611e-05
 -2.0088248e-04   1.1826280e-04
  3.3195323e-04   7.1618910e-05
 -4.2280840e-04   1.4174041e-04
  2.9598997e-04   1.0992074e-04
  2.0064600e-04   2.8266311e-05
  1.1806727e-04   8.7548629e-05
  4.4639633e-05   5.3432141e-05
 -2.4058917e-04   2.8909344e-05
  1.7711661e-04   2.4635016e-04
  1.9253709e-04   7.1275237e-05
 -2.1084142e-04   7.2505303e-05
  9.1689770e-05   6.9467940e-05
  3.7009650e-04   8.3215215e-05
 -9.8314963e-04   1.6495308e-04
  5.3859729e-04   8.9465269e-05
  2.9991224e-04   6.0095736e-05
  5.2167707e-05   2.2470742e-05
  6.3087507e-05   6.4117179e-05
  1.2225297e-03   8.0455684e-05
 -7.2834641e-04   1.2010289e-04
 -1.6552587e-04   8.8248846e-05
 -6.9060596e-05   9.5879608e-05
 -3.5870937e-04   3.5285550e-05
 -9.9351781e-04   9.3206305e-05
 -7.8188408e-05   1.3092627e-04
 -2.7781990e-04   1.0124096e-04
  1.1813404e-04   8.8489025e-05
 -1.2348442e-04   4.2158121e-05
 -3.3235055e-04   1.3037707e-04
  3.6788004e-04   6.1516039e-05
 -1.6963173e-04   8.4106505e-05
 -3.8902299e-04   9.6044409e-05
  5.2375952e-04   9.6768817e-05
 -1.7718539e-04   5.4847544e-05
  6.8151545e-05   8.7861183e-05
  3.0667227e-04   1.2039441e-04
  4.0705624e-04   4.2817530e-05
  4.5825736e-04   3.7455025e-05
 -1.7648024e-04   1.0695325e-04
  6.7009576e-05   2.7422613e-05
  1.1718603e-04   5.6230172e-05
  2.0777272e-05   8.1618440e-05
  9.3766907e-04   6.3374297e-05
  8.4429066e-06   2.4305504e-05
 -1.7161572e-05   5.3111748e-05
  2.7986104e-04   1.0480559e-04
  6.8620990e-05   8.2098923e-05
 -3.4728658e-04   4.5428482e-05
 -3.3913922e-04   1.2087212e-04
 -2.3710958e-04   1.1150313e-04
 -1.1166307e-04   9.5622898e-05
  7.0016402e-05   9.2484399e-05
  3.9010851e-05   1.4650638e-04
  6.4863195e-04   5.5759112e-05
  2.7116991e-04   1.5723500e-04
 -4.1875677e-04   5.6801236e-05
  6.8998284e-04   5.4785425e-05
 -4.8820532e-04   4.3334247e-05
 -1.3925470e-04   7.0826303e-05
 -2.1861991e-04   3.9151131e-05
 -2.5108585e-04   1.8262189e-04
  3.5879665e-04   4.2452102e-05
  1.0687000e-04   3.9720828e-05
 -1.1080638e-04   5.8559530e-05
 -3.9478543e-04   1.6281130e-05
  1.5644314e-04   5.6372810e-05
 -1.2066492e-04   1.3944467e-04
 -7.3722702e-05   4.1947154e-05
  3.6770356e-04   9.4149567e-05
 -1.6811553e-04   1.7843176e-04
  2.1804823e-04   1.4330556e-05
 -9.1804985e-05   7.5801720e-05
  2.9427340e-04   1.0256639e-04
 -7.6942373e-04   7.0387956e-05
 -1.9026213e-04   1.0612229e-04
  1.4824340e-04   1.5532083e-04
 -2.1513376e-06   5.8882761e-05
  7.1794854e-04   9.4813186e-05
 -4.1540238e-04   5.5387718e-05
 -1.8513156e-04   3.7875783e-05
  1.8681521e-05   5.6864370e-05
 -6.5387500e-04   1.5815455e-04
 -6.0835762e-05   3.2121578e-05
  1.0325327e-04   4.7938280e-05
 -2.1844824e-04   7.9595622e-05
  4.2076092e-04   3.9271425e-05
 -1.4426808e-04   6.8326292e-05
 -4.4942144e-01   8.3595260e-05
 -4.0105278e-05   2.9906278e-05
 -7.1261927e-02   1.8735479e-04
 -8.2246435e-05   3.3769385e-05
  3.0697932e-02   7.4757721e-05
 -1.1200304e-04   8.4460407e-05
 -1.1127035e-04   4.6984856e-05
  1.1122659e-01   2.4162948e-05
 -2.1149840e-03   5.0515948e-05
  2.0994013e-04   1.9275301e-04
  9.5776469e-04   1.0731143e-04
 -3.4148768e-03   9.2575225e-05
  2.6107117e-04   6.6890163e-05
 -3.4768544e-02   1.0287448e-04
  1.4088370e-01   5.4549996e-06
  9.0202008e-04   8.9446970e-05
  2.3997278e-04   4.3490913e-05
 -5.5954121e-02   1.8038394e-04
  1.4379740e-01   3.2331161e-05
  7.0603033e-05   6.5659930e-05
  4.2397631e-04   9.8423625e-05
  3.1989210e-05   5.4405031e-05
  1.4117241e-04   1.0404561e-04
  2.2447332e-04   1.0562698e-05
  7.1318023e-04   6.2297164e-05
 -6.0157854e-05   9.8527547e-05
  6.1493594e-04   1.1361122e-04
  2.7661995e-04   7.8101788e-05
 -1.2215041e-03   1.0473504e-04
 -2.1560350e-04   6.1549195e-05
 -2.2626424e-04   4.5998473e-05
 -3.5960667e-04   5.2596752e-05
  4.7668591e-04   9.8819553e-05
 -1.9938312e-04   1.3618557e-04
  2.0399115e-04   6.3477659e-05
 -2.8713775e-04   5.9228656e-05
 -4.0079281e-04   1.7331418e-04
  6.1385188e-04   3.7363046e-05
  1.5983930e-04   7.7562705e-05
  2.6562595e-04   1.3481456e-04
 -6.0213031e-04   4.8739294e-05
  3.9380876e-04   8.9055866e-05
 -1.5452025e-04   1.7467888e-04
  6.8458183e-05   1.3127358e-04
  2.0845886e-04   5.3415373e-05
 -1.2280865e-03   7.6908211e-05
 -6.4446422e-04   5.0805796e-05
 -7.3458592e-05   8.3171559e-05
  4.8495232e-05   6.4459200e-05
  1.7395605e-05   6.5863394e-05
 -8.9817760e-05   5.8790985e-05
  1.0411397e-04   7.3820731e-05
  2.9964276e-04   8.1106991e-05
 -7.1454351e-04   6.1219012e-05
  2.4468261e-05   8.5637243e-05
  9.5273339e-04   1.7014507e-04
  9.0591464e-04   6.5280925e-05
  2.5035552e-04   4.7090296e-05
 -2.2694471e-04   1.0050379e-04
 -3.8548879e-04   1.8737535e-04
 -9.9678361e-04   8.5934851e-05
  5.0880844e-05   6.7630368e-05
 -1.9395559e-03   5.4811535e-05
 -1.8909741e-04   9.7933571e-06
  1.3327687e-04   1.1789842e-04
  1.2617944e-03   4.0217055e-05
 -4.2693136e-04   6.4549007e-05
 -1.7178165e-05   5.7312180e-05
 -2.6459509e-04   1.3800163e-04
 -4.4927947e-05   6.1053994e-05
 -3.6217596e-05   3.6275891e-05
 -9.6470576e-05   4.3550484e-05
 -2.5440427e-04   1.7629437e-04
 -2.1544653e-04   3.1128107e-05
  3.1802582e-04   1.8142772e-04
  3.5858924e-05   5.4995664e-05
  3.8050939e-04   7.9715632e-05
 -8.8551737e-02   7.8074750e-04
  2.6289772e-04   6.6854147e-05
 -2.3310135e-05   5.6335743e-05
  4.0009434e-04   3.3198849e-05
  8.9814639e-05   5.9605871e-05
  1.8047926e-04   8.5138665e-05
  5.0171835e-05   1.7263381e-04
 -3.3171757e-04   7.5137155e-05
 -1.9547113e-04   2.0964464e-04
  4.6323272e-05   6.0984985e-05
 -4.2473912e-05   1.5067337e-04
 -4.2187690e-05   1.1516223e-04
 -1.4591099e-03   6.4390777e-05
  5.4955482e-04   8.4082341e-05
 -9.5411140e-04   6.4824853e-05
  4.4412541e-04   1.3703025e-04
  2.7528586e-04   4.8296217e-05
 -1.1831361e-04   1.3455239e-04
  2.9742057e-04   2.0634643e-05
 -2.6114524e-04   9.1089853e-05
 -1.1054257e-04   1.0116895e-04
 -5.9432111e-04   1.4074291e-04
  1.0156775e-03   4.9690723e-05
  8.6142414e-04   5.2822008e-05
  1.9302603e-04   4.1343854e-05
 -6.7214227e-05   4.2858494e-05
  7.1242512e-06   3.0821589e-05
 -1.2809542e-04   3.7036945e-05
 -4.2547981e-04   6.9206471e-05
  2.6940546e-04   1.2218104e-04
 -2.9630869e-04   1.0215240e-04
  3.6583096e-04   2.7902193e-05
  1.5459064e-04   5.5657241e-05
  7.1003358e-04   5.2746200e-05
 -8.7530271e-04   1.3249858e-04
 -7.9509387e-05   7.1657094e-05
  1.5254036e-05   3.7018188e-05
 -4.9191531e-05   1.0198996e-04
  1.5024656e-04   5.9178801e-05
  8.8832341e-04   1.3210384e-04
  1.8255350e-05   1.0532041e-04
 -2.1090212e-04   1.0366270e-04
 -1.2748722e-04   6.0604616e-05
 -1.5094291e-01   1.2493953e-04
  2.2794387e-01   1.2774333e-04
 -7.9381251e-01   1.1488221e-04
 -4.5276296e-01   1.9943914e-04
  9.4962472e-01   5.8937909e-05
 -1.9061625e-04   6.4273881e-05
 -1.2424828e-04   2.8626611e-05
 -2.3223405e+00   1.5748285e-05
 -1.1267156e-04   8.4639010e-05
 -3.0730662e-04   7.5704957e-05
  2.2636885e-05   6.6220353e-05
 -1.7971607e-04   6.3430620e-05
  9.9899495e-05   1.2217338e-04
 -4.5156334e-02   8.5543667e-05
 -1.8573586e-02   1.6669928e-04
  4.4939914e-04   4.5880603e-05
 -2.2917919e-05   1.1481642e-04
 -1.7183351e-04   8.1747996e-05
  2.8962520e-01   8.3834631e-05
 -4.9490511e-05   2.9321483e-05
 -2.7274064e-05   1.2933220e-04
  1.8037597e-04   1.2075834e-04
  3.8653426e-04   1.0042432e-04
  4.0874706e-04   1.7331363e-04
  1.5296409e-04   4.3250675e-05
 -7.7246536e-05   1.2081937e-04
 -2.3829234e-04   7.7352910e-05
 -7.1250711e-04   8.8735054e-05
 -7.1376239e-06   5.7706246e-05
  1.2101525e-04   5.5014305e-05
  3.6752241e-04   1.0699563e-04
  3.5110620e-04   7.9997786e-05
 -2.4422555e-04   3.0039871e-05
  4.1667861e-04   7.9842190e-05
  7.7376346e-04   2.9360795e-05
 -9.9610035e-05   4.1878764e-05
  1.4878377e-05   1.0796675e-04
 -9.0801455e-05   5.0778472e-05
 -4.2252336e-04   1.8091442e-04
 -4.1257121e-04   8.9036846e-05
  1.7617653e-04   2.8488876e-05
 -3.5360092e-04   3.1648775e-05
  3.9546838e-04   1.4406706e-04
 -9.8199700e-05   5.1264364e-05
 -1.4132213e-04   3.5545745e-05
  6.2572322e-04   8.4114014e-05
 -7.6666521e-04   2.0622165e-05
 -8.3619001e-05   6.8566951e-05
  3.4390271e-04   9.8075434e-05
  1.1671221e-04   8.5046559e-05
  4.6388665e-04   1.2402808e-04
  9.7541651e-04   5.4010445e-05
  3.4131360e-04   1.3609455e-04
 -2.2214785e-05   5.0005427e-05
  1.6643890e-04   3.5111912e-05
  4.5568973e-04   5.0338625e-05
 -1.3682625e-04   7.0595415e-05
  1.2369512e-04   6.7539819e-05
  3.3487406e-04   2.7300817e-05
 -1.5509708e-04   1.0266175e-04
  2.9443174e-05   8.2963968e-05
 -1.2252995e-04   6.9900263e-05
  2.7219381e-04   3.4284556e-05
 -1.5065545e-04   1.2626110e-04
  1.6868772e-04   3.4517001e-05
 -1.6435175e-04   8.7553737e-05
  1.0202913e-05   1.5858773e-04
 -6.2684732e-04   6.8350964e-05
  7.2364369e-04   4.6791094e-05
 -3.2149744e-04   1.0722569e-04
 -6.8898132e-04   1.5740610e-04
  6.2827159e-05   1.4168417e-04
 -2.1068854e-04   5.7081736e-05
  2.7585751e-04   7.5016505e-05
 -1.3532069e-04   6.3020809e-05
 -2.8720548e-04   5.6636942e-05
  7.7063020e-04   4.6364992e-05
 -5.8656425e-04   1.6131553e-04
  1.7816035e-04   8.9195717e-05
 -4.0208336e-04   4.6018278e-05
  2.9414869e-06   5.3839267e-05
 -1.0572970e-04   9.1543450e-05
 -7.9389858e-05   5.8043770e-05
  2.6024468e-04   1.3896108e-04
 -1.8985695e-04   8.1299033e-05
  4.9595674e-04   1.3104519e-04
 -4.3085765e-05   4.6396879e-05
 -1.7995085e-04   5.3233362e-05
 -3.7007290e-04   6.1379455e-05
 -1.0464462e-03   1.1882107e-05
 -7.0047873e-04   4.4321754e-05
  3.1788638e-04   1.4670593e-04
  3.4281550e-04   3.9035651e-05
 -2.2552873e-04   3.1914995e-05
 -2.5949997e-04   2.2367269e-05
 -6.4647308e-04   5.0332208e-05
 -1.4643655e-04   3.9297145e-05
 -4.8035933e-04   1.3704640e-04
 -9.5480675e-04   7.2622393e-06
 -2.6347404e-04   5.6990575e-05
 -9.8208885e-04   8.8130815e-05
  9.2523318e-04   7.9534198e-05
 -2.1046450e-04   8.8116412e-06
  1.0617116e-03   8.2326245e-05
  1.2976794e-04   1.2664504e-04
  7.6960030e-05   8.8245048e-05
 -1.5398431e-04   6.3685293e-05
  1.1383792e-03   8.1288163e-05
  4.9448287e-04   7.5501383e-05
  9.8203670e-04   8.4231164e-05
  4.7743486e-04   1.0529913e-04
 -1.4983378e-04   1.5495873e-04
  3.6572572e-04   6.5359796e-05
 -2.0230800e-04   6.3853557e-05
 -1.2874823e-04   3.7234662e-05
  7.0277648e-04   6.3539592e-05
  4.8233717e-04   1.0081334e-04
 -2.9333978e-04   1.0682993e-04
 -5.7786884e-04   1.2518643e-04
 -8.9207391e-04   1.2122783e-04
  2.2859249e+00   2.3540253e-05
 -2.2922261e-01   1.1905183e-04
  4.3050209e-01   1.9558973e-05
 -5.7972079e-06   1.0643030e-04
 -4.2385533e-03   4.8002144e-05
 -2.8858770e-04   6.2478510e-05
 -8.1191707e-04   5.0376846e-05
  1.2000791e-01   5.2857649e-05
  1.6094178e-03   1.4425843e-04
 -9.5993670e-04   5.3735603e-05
  2.5980181e-01   1.1264587e-04
 -5.0342597e-02   4.7693975e-05
 -2.9809872e-04   9.4099065e-05
  2.5326690e-01   1.2484753e-04
  1.7218433e-01   6.3246021e-05
 -3.4296426e-01   1.2577840e-04
 -5.0713259e-01   4.3585351e-05
  1.9051984e-01   3.4663426e-05
  1.5430505e-03   3.7940768e-05
 -5.7770225e-04   5.0372641e-05
 -4.8961960e-05   5.6429239e-05
 -1.1239796e-05   1.1057638e-04
 -1.5349174e-04   5.8291604e-05
  3.9290243e-01   2.7864839e-05
  1.6830755e-04   5.1852214e-05
  2.1377522e-04   6.4481050e-05
  2.1389379e-04   3.5462170e-05
 -4.1776214e-04   6.0358088e-05
  2.4492245e-03   3.7671834e-05
  4.9448537e-04   6.8472764e-05
  1.1689330e-04   2.8471039e-05
 -2.2229323e-01   9.9488912e-05
  1.8226829e+00   1.6122171e-05
 -8.0087012e-01   2.5842903e-04
 -2.1096122e-01   1.9403842e-05
  1.8891886e-04   1.0511631e-04
 -1.4359846e-03   3.7419308e-05
  1.0699000e-01   3.8115526e-05
  1.8792109e-04   8.5733875e-05
 -8.0762264e-05   9.1340829e-05
 -1.3301001e-04   8.6739259e-05
 -6.3982958e-01   1.1506297e-04
 -1.7408449e-03   1.3572504e-04
  2.6718056e-01   6.8399364e-05
  7.5073127e-04   7.4709096e-05
 -6.1928630e-02   1.4312885e-04
 -1.0145222e+00   1.0384001e-04
  4.8925579e-01   1.1562699e-04
 -4.4501948e-04   1.5881986e-05
 -5.9364451e-04   4.1970681e-05
  4.6872279e-05   7.8262958e-05
 -2.3967613e-02   9.1615242e-05
  5.1027964e-05   9.6987846e-05
  5.6314014e-04   1.3892267e-04
  2.2276300e-04   1.2934572e-04
 -1.2786717e-04   1.2518771e-04
 -3.1607677e-05   4.4056542e-05
  8.7891160e-05   1.0481246e-04
 -4.8364283e-05   4.5185225e-05
 -8.5685839e-05   5.2054467e-05
  5.4235372e-04   6.9029884e-05
 -3.3967590e-04   4.0129136e-05
  2.1678389e-03   1.9725470e-04
 -8.2065753e-04   1.3345043e-04
 -1.1739699e+00   1.9690915e-05
 -5.0706306e-04   9.5061318e-05
 -2.6138636e-04   5.0536048e-05
 -1.8474838e-04   6.8312038e-05
  9.8626572e-04   7.4684409e-05
 -2.1399274e-04   1.7217272e-04
 -2.6608867e-04   4.0590305e-05
 -1.3682220e-04   3.6380377e-05
  2.2815214e-04   3.2472664e-05
  1.2418386e-03   2.3988748e-04
  5.7873660e-04   9.1731992e-05
 -6.3092494e-04   1.2405771e-04
  1.0009911e-05   5.8314443e-05
  3.4255337e-02   1.0878599e-04
  1.8479463e-03   3.6288795e-05
 -4.9123156e-04   3.0810836e-05
 -3.9851919e-04   5.5587028e-05
 -1.2208801e-04   4.6268859e-05
 -5.5596716e-04   1.3680033e-04
  6.9196394e-05   3.8846993e-05
 -1.4241426e-03   8.6651278e-05
  8.0605713e-04   1.0981260e-04
 -7.7741817e-05   8.3122170e-05
 -3.0231720e-04   4.5556400e-05
 -1.3894006e-04   6.1710292e-05
  2.6979176e-05   6.5930901e-05
  1.1190829e-01   2.1070797e-05
  6.5355998e-01   2.6746068e-04
  3.2148600e-01   4.5655157e-05
 -4.3221760e-01   1.0813113e-04
  1.8049078e+00   1.6204775e-05
 -4.4393371e-05   6.0850460e-05
  2.1966752e-04   8.9908113e-05
 -1.6445129e-01   9.4767063e-05
  1.2381785e-03   1.5392118e-04
 -1.3758960e-03   1.3207122e-04
 -1.8643846e-01   1.1199817e-04
  4.4491116e-04   1.1771823e-04
 -1.3839561e-04   7.7740340e-05
 -3.4504810e-01   1.0763765e-04
 -3.0216569e-04   7.9436490e-05
  5.7138219e-02   2.2899092e-04
  1.9088210e-04   4.8698887e-05
  7.1482176e-01   2.2404254e-04
 -7.7989894e-01   3.7396869e-05
 -1.4198099e-04   5.2857653e-05
 -8.8360748e-04   1.2582476e-04
 -3.3974567e-05   2.6879781e-05
  1.1873893e-04   1.0272545e-04
  2.8800170e-04   7.0201873e-05
  3.7725709e-05   2.3701403e-05
 -8.5739064e-04   6.8037465e-05
 -8.6137574e-05   9.7429423e-05
 -4.0455820e-04   1.1699648e-04
  1.8010450e-04   6.0979335e-05
 -3.5093917e-04   9.7513286e-05
 -5.7680294e-04   9.1262307e-05
  1.9859354e-04   4.6533514e-05
 -5.5035675e-04   6.4027590e-05
 -9.3531133e-05   3.1029693e-05
 -1.0450804e-04   1.0218701e-04
 -2.0190985e-04   1.4226726e-04
 -2.2248831e-04   1.4547165e-04
 -2.4592728e-04   2.4929972e-05
 -8.1268977e-04   7.9574063e-05
  5.7493911e-05   8.5205429e-05
  8.3651037e-05   1.6023948e-04
  5.6264963e-04   5.1671588e-05
 -2.6870912e-05   8.7438741e-05
  4.6828375e-04   1.1768191e-04
  5.6336917e-06   7.5672178e-05
 -7.3716912e-04   5.6822933e-05
  1.4035981e-04   2.9338722e-05
  7.0447270e-05   7.3977113e-05
 -9.3742419e-05   1.0093423e-04
 -1.0902066e-04   8.9476547e-05
 -1.2105581e-04   7.9957368e-05
  7.2347315e-04   1.8561952e-05
  6.0463353e-04   3.1046948e-05
 -1.9174533e-04   3.1593838e-05
 -1.7912492e-04   7.7676312e-05
  6.8819812e-05   7.5335891e-05
 -8.8203169e-04   6.8573674e-05
  2.1838448e-04   6.5463537e-05
 -1.2280411e-04   2.1715117e-05
  9.6121134e-04   4.9891209e-05
 -3.3238551e-04   1.0107898e-04
  6.4538472e-05   1.3249904e-04
 -1.1669605e-04   3.9666666e-05
  4.4341950e-04   5.2383217e-05
  7.0459071e-05   7.5761942e-05
  7.5315482e-05   5.1178024e-05
 -1.5140037e-04   5.1869152e-05
  5.3352042e-04   1.5221450e-04
 -2.3459052e-04   4.9524799e-05
 -4.5252073e-04   7.4335083e-05
  1.8668261e-04   8.9130415e-05
  1.5543758e-04   4.2720887e-05
  6.9141017e-05   7.1158691e-05
  3.1558060e-04   4.4826898e-05
 -3.7223690e-05   6.1125465e-05
  3.3315393e-04   9.1040383e-05
 -4.2108568e-05   9.6511867e-05
  1.7844475e-04   2.4275812e-04
 -3.2479866e-04   4.3739532e-05
  1.2729598e-03   6.4533007e-05
 -1.9479256e-04   6.4458960e-05
  3.0553798e-04   2.6558979e-05
  1.2549864e-06   1.3482229e-04
 -7.4208051e-04   1.1959245e-04
  9.0512668e-04   8.1585073e-05
  9.6403412e-05   1.4142490e-04
 -1.5765504e-04   6.6564178e-05
  9.6185640e-06   5.2632982e-05
 -2.3976313e-04   8.4523846e-05
  6.7976660e-05   4.2024363e-05
 -6.5966308e-01   1.2170318e-05
  1.1576467e-01   3.0975156e-05
 -4.8730519e-01   3.4240125e-05
 -1.2454541e-01   3.1696694e-05
  1.0224137e+00   1.7687926e-05
 -1.8128061e-04   8.5928419e-05
 -4.6671238e-02   9.4510862e-05
  1.6805071e-02   1.0567001e-05
 -1.3892259e-01   4.0504918e-05
  8.4889539e-02   1.4436619e-04
  4.2532284e-02   4.9811264e-05
  2.8439272e-02   4.6255635e-05
 -7.9363197e-02   2.3749404e-05
  4.9602294e-01   3.5077261e-05
  2.4814907e-02   2.5505713e-05
 -6.3516833e-02   6.2576401e-05
 -1.3414864e-01   1.1015957e-05
 -3.5320246e-01   3.7887625e-05
 -3.7600845e-01   3.0017594e-05
  4.3684479e-02   1.1471708e-04
  1.4598006e-03   6.6135253e-05
  2.5642812e-01   4.3928434e-05
  3.1149271e-04   6.0600949e-05
 -1.6632430e-03   6.3570624e-05
  2.8615287e-03   1.4730991e-04
 -4.0387283e-03   1.4177737e-04
 -4.4990459e-04   9.3593371e-05
  6.1513053e-04   6.1652689e-05
 -4.2921960e-04   5.4809807e-05
  6.3266093e-04   1.3443954e-04
  1.3707535e+00   5.6495142e-06
  1.7830195e+00   2.5737891e-05
 -1.4392308e+00   2.2668075e-05
  9.0768886e-01   2.9549690e-05
  6.3541704e-01   2.0153981e-05
 -7.7827024e-01   1.6230866e-04
  1.2988214e+00   1.4439682e-04
 -7.9553300e-01   1.0186851e-05
 -1.2863827e+00   1.7986709e-05
  6.3779181e-01   2.7474499e-04
 -1.5012161e-01   9.8711298e-06
 -5.6463826e-02   9.4386260e-06
  8.5112460e-02   6.1212137e-05
  1.7607242e-01   1.0283624e-05
  2.1472780e-01   3.1512223e-05
 -2.0228271e-01   4.5992441e-05
 -5.3458255e-02   2.6459027e-05
  9.9672234e-01   1.5539676e-05
 -5.8635104e-01   1.0832409e-05
  3.7955377e-01   5.7264711e-05
  2.9140186e-01   9.8249970e-05
  1.9214467e+00   9.9114528e-05
 -1.4081699e-04   7.2286421e-05
 -4.0754017e-01   3.0336312e-05
  2.4568717e-01   4.5369679e-04
  4.2810373e-02   2.9350093e-05
 -2.3401631e-02   5.9687940e-05
 -1.0010917e-01   1.6600131e-04
 -5.6302559e-02   9.4118099e-05
  4.0523328e-02   2.1969325e-04
  3.8614517e-01   5.7896101e-05
  2.5746244e-01   1.3951327e-04
  6.5037735e-02   2.0175803e-04
 -3.0083934e-04   1.1818503e-04
 -1.0255958e-02   5.0491308e-05
  4.3004350e-04   1.5249086e-04
  1.2710011e-04   1.1380226e-04
 -3.2935284e-02   7.5281656e-05
  4.7762976e-03   1.4141675e-04
 -9.4361247e-05   7.3270770e-05
 -5.3567975e-04   2.2013432e-05
  7.4231022e-05   7.5092241e-05
 -1.1238520e-03   1.3098950e-04
  1.0172599e-02   1.0337440e-04
  2.8569641e-04   8.8868583e-05
 -5.5018976e-05   3.4397013e-05
 -3.6444963e-04   8.8274741e-05
  7.9799257e-02   5.5643759e-05
  5.3497119e-04   4.8900503e-05
  1.2690244e-04   7.5007105e-05
  5.0660665e-04   7.4901043e-05
 -1.3411172e-04   1.1200663e-04
 -2.9564931e-04   5.1521896e-05
 -1.4502488e-04   6.8846501e-05
  3.6803429e-04   8.0222773e-05
  4.2054261e-04   7.0399110e-05
 -2.2303411e-04   1.3830429e-05
  1.3112686e-04   1.1297077e-04
  1.9027255e-04   4.9809685e-05
  4.3495090e-04   6.4064392e-05
  8.9646266e-05   1.3192921e-04
  1.7263395e-05   1.2081061e-04
 -6.9946240e-05   1.7076025e-04
 -2.5032018e-04   4.4527464e-05
  6.9467045e-05   9.7206772e-05
  4.9102184e-04   5.3088264e-05
 -5.6803699e-05   1.1019570e-04
  2.7299864e-04   1.0047328e-04
 -4.3158181e-04   8.0087215e-05
 -1.8811875e-04   6.8203713e-05
 -5.4994387e-05   1.4865337e-04
  2.1583740e-01   1.1722965e-04
  3.4080120e-05   6.7677393e-05
 -6.7987072e-04   9.2679402e-05
  1.2585887e-04   8.6284228e-05
  2.0177481e-03   6.3371437e-05
  1.8179994e-04   9.3188581e-05
  2.4601261e-04   8.2672923e-05
 -9.6934848e-04   4.4365068e-05
  9.8974910e-05   5.5137210e-05
  9.0667274e-04   8.1119440e-05
 -1.0097893e-04   4.3623088e-05
 -2.4328766e-04   9.8351411e-05
  1.6758835e-04   6.1822750e-05
 -1.4575804e-04   3.7910300e-05
  1.5399263e-03   5.3022661e-05
  4.2831356e-04   3.6085751e-06
  9.7324031e-05   4.2372354e-05
  4.1213009e-04   6.0265942e-05
 -5.1334500e-04   4.0633007e-05
 -2.1573198e-04   2.0455000e-05
 -6.5806409e-04   8.8497007e-05
  3.6711968e-05   2.7774724e-05
  1.1022993e-04   1.4534855e-04
 -1.3186540e-04   9.8329379e-05
  1.8938361e-03   1.4566809e-04
 -3.0442575e-04   1.2679647e-04
  1.0205640e-04   1.9215047e-04
 -5.0972012e-04   4.8541740e-05
  1.5846646e-04   8.4421103e-05
 -7.6625423e-05   5.4254804e-05
 -3.7607108e-04   5.7755660e-05
  2.6736426e-04   4.5875215e-05
  3.8427528e-04   6.0778937e-05
  4.4848764e-04   1.8469598e-05
 -1.5462251e-04   8.1210972e-05
  2.4548365e-04   6.8313442e-05
  1.4663894e-04   4.3272354e-05
  7.5410331e-05   6.6383029e-05
 -5.8734539e-04   5.4431312e-05
  4.8844406e-04   7.4244606e-05
  2.1559154e-04   3.5496781e-05
  5.0398422e-04   1.0080052e-04
  5.1454833e-04   1.5530651e-04
  2.2633333e-04   8.5458880e-05
  8.0810358e-05   6.5199121e-05
 -1.9889044e-04   5.2655745e-05
  2.9162606e-04   8.8201639e-05
 -2.5209726e-04   1.1859123e-04
  1.0541291e-04   6.9894093e-05
 -2.5761980e-01   1.2337261e-04
  2.9959342e-02   1.3551772e-04
 -4.4513461e-01   6.2185281e-05
 -1.5908338e-03   9.6303709e-05
  1.5309352e-02   9.7186305e-05
 -9.9603308e-04   3.8151189e-05
 -2.9054516e-05   4.2455944e-05
  2.3717574e-05   5.5297547e-05
 -5.1497207e-03   2.4651939e-05
  2.9673097e-03   1.5011865e-04
 -4.7649167e-04   4.4089422e-05
  4.7435141e-03   6.6675988e-05
  2.6622572e-05   2.7960614e-05
 -1.6854763e-01   1.5202098e-04
 -2.7309128e-04   5.1082781e-05
  3.0633550e-05   1.1146830e-04
 -3.1471500e-01   1.3719453e-04
  4.8702186e-01   1.0296037e-04
  7.6033208e-03   8.7777989e-05
  3.3678583e-04   5.0271086e-05
 -8.5736086e-05   6.8830188e-05
 -7.2836250e-05   1.4207184e-05
  1.3567228e-03   1.2555966e-04
  2.2149146e-05   1.3261489e-04
  1.0121499e-04   5.9446131e-05
 -7.7479577e-05   1.1130580e-04
 -1.2838402e-04   1.1458735e-04
 -1.0006957e-03   1.8749158e-04
 -6.4711424e-04   6.4024542e-05
  5.5048929e-04   1.2128153e-04
 -5.6141586e-04   1.9681283e-05
 -8.8624431e-05   9.2824448e-05
 -5.3097151e-04   6.9177273e-05
 -6.9178734e-04   7.1020993e-05
  2.0703582e-04   1.0269439e-04
 -1.9716751e-04   1.4393023e-04
  7.3142454e-04   1.0328370e-04
  5.1111751e-04   1.7637851e-04
  5.3433009e-04   1.3080121e-04
  2.0177488e-04   1.0104128e-04
  1.0391945e-04   9.8927056e-05
  5.3201315e-05   1.1561134e-04
  4.4809224e-04   5.9429804e-05
 -1.5873144e-05   7.4224394e-05
  2.4093698e-04   1.3704431e-04
 -3.5337982e-04   3.2128086e-05
  3.1814812e-05   7.6744975e-05
  2.6605045e-04   8.6257241e-05
 -7.1306672e-04   1.4278670e-04
 -1.1357814e-04   5.8107835e-05
  2.2250447e-04   5.8026122e-05
  1.1467176e-04   9.5179821e-05
  7.9710466e-05   5.2979860e-05
 -6.8901674e-05   9.7765420e-05
 -2.6634563e-04   8.0799713e-05
  2.3169389e-04   1.5633414e-04
 -3.7257528e-04   1.9923356e-04
 -2.0537066e-04   6.7772635e-05
 -2.4088493e-04   1.2953834e-04
 -2.1731298e-04   1.2569672e-04
  4.0902293e-01   1.2079187e-05
 -3.4248105e-01   2.0175597e-05
  4.7468311e-01   3.0927393e-05
 -3.6696860e-01   5.7197325e-05
 -1.3509575e-01   4.0257313e-05
 -1.4648486e-04   5.5443372e-05
  2.5957401e-04   1.0444812e-04
  2.7439290e-01   4.7385198e-05
  2.6216534e-01   4.9957893e-05
 -1.3568680e-01   1.8747569e-04
  1.2537299e-03   2.2322933e-05
 -3.6472000e-02   4.7256384e-05
  1.4399124e-02   4.9291750e-05
  1.1885531e-01   5.0493360e-05
 -5.0191891e-01   4.4268123e-05
 -7.2140142e-02   6.5485227e-05
  6.4396816e-03   2.5045250e-05
  1.9541499e-01   3.5591896e-05
  8.6381324e-02   1.7571425e-05
 -7.7129580e-02   2.0144288e-04
  8.3895517e-05   1.0676128e-04
 -3.7967411e-01   4.2949992e-05
 -7.6612028e-05   6.4456901e-05
  4.2592682e-04   9.1241105e-05
 -1.0278232e-01   6.2151994e-05
 -8.8040542e-05   1.7063358e-04
  6.0989812e-05   2.1244678e-05
  5.5286062e-05   1.2142301e-04
  8.6609689e-05   4.7168003e-05
 -6.0389063e-04   1.1455172e-04
  5.1515375e-04   5.9937338e-05
 -9.0890459e-04   3.9395265e-05
  3.8153530e-04   1.1902658e-04
 -1.0914070e-04   7.7986944e-05
 -1.4251053e-04   6.6886409e-05
 -1.8053903e-04   9.1948612e-05
  5.3592343e-05   5.2547533e-05
 -2.0201923e-04   5.5328081e-05
  2.9139903e-05   7.6148870e-05
 -1.7417374e-03   1.5519201e-04
  3.8614997e-04   4.6463963e-05
 -7.7800802e-04   7.5317606e-05
  1.2380554e-04   6.9394526e-05
 -3.3312195e-04   1.0737147e-04
 -1.4098141e-04   6.0923936e-05
 -3.0961752e-04   6.9350244e-05
  2.4864814e-04   9.6421660e-05
  2.1376449e-04   4.6367051e-05
  3.0015301e-04   1.3762918e-04
  2.3992635e-04   1.3326736e-04
 -3.7698884e-04   8.4711079e-05
  3.3170034e-04   6.8489804e-05
 -3.4232359e-04   5.9409467e-05
 -3.7291634e-04   1.1787047e-04
  1.1433632e-04   9.3820418e-05
  1.5669053e-04   4.0902523e-05
  1.1719665e-04   1.3770808e-04
  2.3442223e-04   1.1944147e-04
 -6.9928286e-04   1.3875873e-04
 -6.9627771e-04   3.3391734e-05
  4.1128692e-04   1.6250245e-04
  5.4739526e-04   8.2643084e-05
 -4.0814315e-04   1.1874676e-04
  8.7981904e-04   1.3008776e-04
 -2.3807897e-04   2.0852573e-04
 -1.0540312e-04   1.0454561e-04
  9.0871426e-06   9.1442496e-05
  1.3377932e-05   2.0621885e-05
  1.1488417e-04   1.1342105e-04
  2.3361793e-04   5.8874073e-05
  4.9847725e-04   3.6641639e-05
 -5.3902756e-04   8.5547792e-05
 -3.7138248e-04   4.2777330e-05
  9.1767368e-05   9.9088938e-05
  4.5864400e-04   1.5109338e-04
  2.5764856e-04   1.0029378e-04
 -3.4948284e-04   7.7994235e-05
  5.7876873e-04   5.6869732e-05
  3.8783404e-04   7.1961833e-05
 -1.4652192e-03   2.0283862e-05
 -1.9263221e-04   1.5229902e-04
 -7.4641395e-04   5.2731175e-05
 -1.9721204e-04   1.3047877e-04
 -3.7166459e-04   8.9835448e-05
  2.8265480e-04   3.8066442e-05
 -7.2231087e-05   4.5721357e-05
  4.1619115e-04   9.9359488e-05
  2.2060882e-04   1.1501362e-04
  7.4356032e-04   9.8883655e-05
 -1.2260578e-04   5.8545058e-05
  1.8488620e-01   1.0945148e-05
  1.8906085e+00   2.4641804e-05
  3.6136866e-01   4.5974404e-05
 -5.4591453e-01   9.7493939e-06
  6.5963632e-01   7.8195208e-06
 -2.5842655e-01   1.8146147e-05
  7.0154512e-01   1.3707962e-04
 -1.1583498e-01   3.7034224e-05
  2.7755430e-02   4.0480798e-05
 -7.1671516e-01   3.3631976e-04
 -5.4514897e-01   6.0258080e-05
  9.2906924e-03   3.5176119e-05
  1.7449461e-01   4.2998647e-05
 -3.6626097e-02   1.6236592e-05
  1.5627493e-01   2.2685521e-05
 -4.1955876e-01   3.6350040e-05
 -1.5707652e-01   2.2623130e-05
  4.3566737e-01   1.2136819e-05
 -6.9842654e-01   9.7266802e-06
 -4.6149421e-01   1.0280278e-04
 -1.8565544e-01   1.2034589e-04
 -9.0927559e-01   1.1347696e-04
 -2.4813079e-04   7.1989089e-05
  1.3845494e-03   8.8383640e-05
 -9.1333777e-02   5.1784870e-04
  1.2286295e-02   6.9168367e-05
  2.4060844e-03   2.4020204e-05
 -2.0014936e-01   8.3667641e-05
  8.0919549e-02   7.1125221e-05
 -6.2893495e-02   2.4137636e-04
  2.6059913e-04   8.0527760e-05
  7.7161210e-05   8.5048501e-05
  1.0469518e+00   2.1079704e-05
  1.5512564e-04   6.3277454e-05
  5.1880203e-04   1.6172313e-04
  1.6989899e-03   9.4378331e-05
  6.5577129e-05   7.6608390e-05
  3.3362463e-05   5.4664801e-05
  9.8938879e-04   9.0426336e-05
 -8.1874205e-05   5.4643529e-05
 -1.8262058e-03   9.9555502e-05
  6.5883323e-05   5.7916393e-05
 -5.1097024e-05   2.6846539e-05
 -7.7117572e-04   6.3888074e-05
 -2.0747180e-05   3.5826743e-05
 -7.1786490e-04   8.9299327e-05
 -1.7236726e-04   4.2968262e-05
  2.8991021e-04   1.0210183e-04
  3.2805471e-04   1.1042571e-04
  4.8830727e-04   6.6971290e-05
  3.3162916e-05   1.0423998e-04
 -5.6626427e-04   1.0752657e-04
  2.8175392e-04   8.5333566e-05
 -4.4609060e-05   4.3227345e-05
  9.6642492e-05   4.2149364e-05
 -2.0590791e-04   6.5491287e-05
 -4.8506315e-04   9.2414019e-05
  1.9512141e-04   6.2376312e-05
  6.1318383e-04   1.4358918e-04
  2.2174443e-04   1.5141997e-04
  6.6543126e-04   1.8460624e-04
  6.3396955e-04   1.5181197e-04
 -5.0538342e-04   6.2807005e-05
 -3.4704845e-04   1.0587809e-04
 -8.3142499e-05   1.5239904e-04
 -2.2881832e-04   9.8510296e-05
  1.6521678e-04   1.5266765e-04