80
Config_type=5000 Weight=1.0 Lattice="13.793987000 0.000000000 0.000000000 -6.896993000 11.945943000 0.000000000 0.000000000 0.000000000 27.810221000" Energy=-527.252154 Virial="7.67236 1.14114 7.81610 1.14114 6.41398 -0.12301 7.81610 -0.12301 5.98280" Properties=species:S:1:pos:R:3:forces:R:3
Sc         -0.18075      1.82947     15.02682         0.908038      1.473629      0.613428
Sc         -1.72580      4.91311     15.21472        -0.727761      0.387595     -0.163559
Sc         -3.48406      8.01575     15.21301         0.324433     -0.354275     -0.214107
Sc         -5.15977     10.98395     15.11088        -0.004942     -0.578888     -0.066946
Sc          3.42739      1.91513     15.01993        -0.107892      0.817007      0.452335
Sc          1.72258      4.88436     15.07868         0.196487      0.122363      0.886339
Sc          0.00004      7.89527     15.27268        -0.115557      0.503450     -0.007650
Sc         -1.76901     11.07049     15.26817         0.322618     -0.945212     -0.436014
Sc          6.83104      2.06924     15.06166         0.994487     -0.026829      0.820706
Sc          5.16983      5.00606     15.00965        -0.035319     -0.288668      0.686423
Sc          3.49017      7.86169     15.13933        -0.297052      0.344250      0.261390
Sc          1.70830     10.95903     15.15386         0.190667      0.209891      1.066959
Sc         10.31931      1.98511     15.05837        -0.718168      0.357447      0.522469
Sc          8.61570      5.00720     15.12230         0.430586     -0.371450      0.002090
Sc          6.96875      7.96385     15.09143        -0.286336      0.227153      0.643851
Sc          5.17139     11.05850     15.13102        -0.631076     -1.280164      0.453933
Sc          1.69476      0.95553     12.58251         0.120867      0.566228     -0.231984
Sc          0.02397      4.01820     12.72667        -0.174815     -0.558434     -0.481250
Sc         -1.60324      6.99719     12.85039        -0.984982     -0.082353     -0.556184
Sc         -3.40730      9.94781     12.65419        -0.189147      0.421510      0.831834
Sc          5.28537      1.05592     12.60745        -0.786834     -0.435891     -0.025824
Sc          3.49569      3.89327     12.61271        -0.543867      0.841126     -0.581480
Sc          1.71792      7.00251     12.65995         0.499737     -0.536793      0.546296
Sc         -0.02035     10.01138     12.83502        -0.062518     -0.919169      0.175845
Sc          8.55385      1.00935     12.64141         0.664645      0.574476      0.315449
Sc          6.97041      4.01805     12.60943         0.051208      0.135547     -0.460178
Sc          5.35543      6.99906     12.66733        -1.372873     -0.359771     -0.385073
Sc          3.37522      9.94170     12.73385         0.153949     -0.444372     -0.008445
Sc         12.02409      0.87986     12.61061        -0.119504      0.739820     -0.505986
Sc         10.49109      4.03581     12.62712        -1.038175     -0.317572      0.570887
Sc          8.74593      6.99053     12.66326        -0.058668     -0.141669      0.217367
Sc          6.80026      9.93281     12.74782         0.946278     -0.166525     -1.114810
Cl         -0.07477      2.10844     10.89843         0.233547     -0.476850      0.576016
Cl         -1.69563      5.01831     11.02310         0.198870      0.236030     -0.041782
Cl         -3.31537      8.04283     11.11205        -0.186792     -0.518254     -0.613061
Cl         -5.16316     11.05886     10.94342        -0.066872     -0.667653      0.001589
Cl          3.53459      1.92686     10.91686        -0.198957      0.066109      0.125431
Cl          1.64815      4.93862     11.02530         0.336309      0.178031     -0.131186
Cl          0.07103      7.96821     11.13803        -0.561318      0.205467     -0.467756
Cl         -1.60957     10.82333     11.09435        -0.154293      0.598361     -0.447079
Cl          6.88451      2.08640     10.82872         0.255721     -0.289574      0.468695
Cl          5.20135      5.06906     10.86937        -0.072753     -0.228820      0.544538
Cl          3.40165      7.98519     11.02946         0.138343     -0.076539      0.060814
Cl          1.64599     10.99379     11.13959         0.107720     -0.377672     -0.590213
Cl         10.44630      1.84066     10.95258        -0.624381      0.510051     -0.000645
Cl          8.78414      5.01212     10.99228        -0.291679      0.030657     -0.176111
Cl          6.88478      7.87080     11.01485         0.623460      0.640254     -0.387750
Cl          5.10209     10.80321     11.05508         0.116383      0.165027     -0.390321
Cl          1.63137      1.05677     16.65906         0.181915     -0.105055      0.392609
Cl         -0.19757      3.89126     16.76597         1.071822     -0.168221      0.441546
Cl         -1.83939      7.00899     16.87618         0.278742     -0.295831      0.137895
Cl         -3.57754      9.87452     16.91015         0.178181      0.700263     -0.150165
Cl          5.18773      1.05322     16.86058        -0.316289      0.042379     -0.189005
Cl          3.54959      3.98279     16.73495        -0.351481     -0.123893     -0.102005
Cl          1.72073      7.02447     16.89339         0.230466     -0.471289     -0.180650
Cl          0.03601      9.95360     16.87533        -0.252163      0.107380     -0.093540
Cl          8.59687      1.02211     16.90187        -0.028834     -0.094004     -0.765191
Cl          6.94374      3.94008     16.77674        -0.425265      0.187373     -0.166424
Cl          5.29005      6.92619     16.78824        -0.470274      0.022678     -0.221174
Cl          3.49560     10.01275     16.80662        -0.074744     -0.295543     -0.257102
Cl         11.90782      1.08265     16.86206         0.529191     -0.451063     -0.420115
Cl         10.27996      3.94628     16.80518        -0.067550      0.063189     -0.034534
Cl          8.48958      6.90847     16.82504         0.456267      0.260452      0.085820
Cl          6.83527      9.99239     16.79184         0.221932      0.139112     -0.176204
C          6.80925     11.90285     13.75289         0.245364      0.457090      1.114859
C         12.01547      2.94785     13.94367         0.293308     -0.191052     -0.603809
C         10.31484      5.95856     13.99071         0.271786      0.337442     -0.658202
C         -5.09966      9.08378     13.90414        -0.472509     -0.748013      0.051115
C          3.45368      0.00604     13.84324         0.022949      0.182931      0.484693
C          1.78038      3.00069     13.86049        -0.482461     -0.695082     -0.246325
C         -0.11851      5.88637     13.99496         0.965158      0.344919     -0.046028
C         -1.72251      8.92638     14.05079         0.122013      0.551853     -0.292175
C          6.90729      0.03970     14.03819        -0.400732     -0.052088     -1.010192
C          5.21098      3.00040     13.75986         0.079237     -0.167038      0.440546
C          3.32640      5.87103     13.88390         1.136030      0.595910      0.236379
C          1.68647      8.88112     13.95651         0.423578      0.449564      0.054886
C          3.38134     11.91968     13.88079         0.320112      0.096866      0.071309
C          8.60813      3.06450     13.83554        -0.097846     -0.754975     -0.085331
C          6.96677      6.01640     13.86151        -0.390934     -0.066623     -0.118358
C          5.24593      8.90637     13.92868        -0.598792      0.232285     -0.054417
80
Config_type=5300 Weight=1.0 Lattice="13.793987000 0.000000000 0.000000000 -6.896993000 11.945943000 0.000000000 0.000000000 0.000000000 27.810221000" Energy=-526.604937 Virial="3.42297 -1.97118 7.11769 -1.97118 7.27540 -0.19637 7.11769 -0.19637 -5.78302" Properties=species:S:1:pos:R:3:forces:R:3
Sc          0.12249      2.09035     15.03638        -1.021282     -1.060404      0.577233
Sc         -1.61621      4.92151     15.23089        -1.205176     -0.060704     -0.990065
Sc         -3.33098      7.95194     15.31519        -0.715021      0.096455     -0.483222
Sc         -5.27856     10.96958     15.16150         0.425469      0.304502      0.524778
Sc          3.42674      2.13504     15.04689        -0.059081     -1.189397      0.442377
Sc          1.66810      4.96700     15.08799         0.537518      0.062150      0.428552
Sc          0.07210      7.94942     15.38302        -0.337984     -0.256125     -1.090447
Sc         -1.59956     11.06728     15.22974        -1.202404     -0.247622     -0.040732
Sc          6.95960      2.00801     14.98250        -0.665193      0.304269      0.348398
Sc          5.10975      4.97374     15.07102         0.578522      0.088009      0.061868
Sc          3.51789      7.88569     15.09035        -0.425728     -0.066262      0.834786
Sc          1.70587     10.76401     15.19253         0.527505      1.343595      0.196320
Sc         10.20739      1.96436     15.06006         0.663589      0.517224      0.379557
Sc          8.51226      5.00465     15.16878         0.557524     -0.090475     -0.365647
Sc          6.87278      7.96496     15.12930         0.298439     -0.238396      0.212584
Sc          5.10764     10.98871     15.10053         0.398315     -0.387215      0.133208
Sc          1.68646      0.87887     12.62779         0.749573     -0.048411      0.371350
Sc          0.01675      3.96400     12.58165        -0.132192     -0.043446      0.285977
Sc         -1.71633      6.93067     12.76404         0.120343      0.440001      0.291861
Sc         -3.48615      9.85948     12.85247         0.168679      0.835475     -0.542436
Sc          5.14901      1.02766     12.64708        -0.694943     -0.213266      0.005601
Sc          3.47181      4.04762     12.59527        -0.164744     -0.485736     -0.256022
Sc          1.66350      6.99454     12.68939         0.354174     -0.890222      0.361542
Sc          0.01244      9.93700     12.79899        -0.846476     -0.296696     -0.682616
Sc          8.67292      0.82445     12.58595        -0.543769      0.969046      0.264859
Sc          6.86560      3.99501     12.56184         0.575237      0.212515      0.089714
Sc          5.21315      6.97177     12.59618         0.370236     -0.204905      0.253171
Sc          3.46863      9.81052     12.68123        -0.161131      1.112998      0.167049
Sc         11.97538      0.97547     12.63641         0.893927      0.458986      0.209391
Sc         10.34962      4.07864     12.68422         0.057823     -0.225582      0.123412
Sc          8.73360      6.94170     12.68176        -0.586352      0.361148      0.355713
Sc          6.85925      9.90335     12.69899         0.476238      0.362250     -0.422576
Cl          0.07742      1.72382     11.03907        -0.791560      1.089562     -0.649643
Cl         -1.61435      5.05734     11.03316        -0.177479     -0.073259     -0.409524
Cl         -3.23034      7.99546     10.99312        -0.486989      0.074476      0.415127
Cl         -5.13959     10.85258     10.95684        -0.109043     -0.163554      0.535589
Cl          3.30960      2.02633     10.88138         0.463471     -0.133198      0.527623
Cl          1.88236      4.99318     10.90306        -0.627492      0.237352      0.141862
Cl          0.19075      7.99386     11.08142        -0.904184      0.194704     -0.500495
Cl         -1.83081     11.02120     11.11017         0.226545     -0.566470      0.004369
Cl          6.86466      1.89245     11.06938         0.266716      0.378672     -0.722156
Cl          5.24476      5.03700     10.88673        -0.229036      0.021541      0.025790
Cl          3.49736      8.06279     11.01896        -0.145639     -0.620514     -0.452127
Cl          1.60579     10.93833     10.94937         0.384380     -0.252377      0.116561
Cl         10.43419      2.21426     10.95746        -0.398499     -0.728131      0.026296
Cl          8.71783      5.17477     10.85472        -0.043008     -0.519015      0.469779
Cl          6.95935      7.95139     10.90578        -0.123725      0.189513      0.559722
Cl          5.11175     10.98063     10.97473        -0.153139     -0.284758      0.215802
Cl          1.75156      1.08968     16.88145        -0.400632     -0.038414     -0.571856
Cl         -0.14806      3.88920     16.89876         0.616803     -0.017535     -0.066545
Cl         -1.67774      6.92480     16.91293        -0.092144      0.019955      0.330454
Cl         -3.38197     10.12919     16.83218        -0.222343     -0.558845      0.022100
Cl          5.02226      1.10628     16.77423         0.731558     -0.081847     -0.151173
Cl          3.47237      4.00381     16.81406        -0.180149      0.153511     -0.218419
Cl          1.74008      6.81211     16.97912        -0.032379      0.320588     -0.537303
Cl          0.03306     10.00049     17.07566         0.011015     -0.093166     -0.730739
Cl          8.50347      1.09838     16.73684         0.261832     -0.503287      0.170105
Cl          6.79883      3.89552     16.72111         0.043442      0.366218      0.161812
Cl          5.18956      7.00557     16.80514        -0.183090     -0.406656     -0.027745
Cl          3.48244      9.87961     16.82945        -0.340022      0.044619     -0.160660
Cl         12.02570      0.88961     16.64462        -0.064466      0.917702      0.585025
Cl         10.24370      3.97198     16.78183         0.215914     -0.100705     -0.003719
Cl          8.58018      7.05382     16.83251         0.098939     -0.310609      0.182144
Cl          6.79060      9.91667     16.79467         0.164844      0.291742      0.123854
C         13.72099      0.00979     13.86904        -0.043539     -0.262393      0.018917
C         -1.67304      3.04500     13.79366        -0.305756     -0.268979      0.511863
C         -3.44012      6.00129     13.99955         0.030250      0.174799     -0.417981
C          8.50375      8.97403     14.03220         0.895251      0.041874     -1.032862
C          3.27088      0.05384     13.98799         1.226471     -0.287285     -0.608649
C          1.76545      3.05625     13.92965        -0.457469      0.073842     -0.699642
C         -0.07131      5.91947     13.90524         1.023706      0.248061      0.521779
C         -1.69457      8.89980     13.98295         0.093323      0.495503      0.631123
C          6.88801      0.00336     13.87949         0.127559     -0.413306      0.323210
C          5.18381      3.05174     13.71860        -0.291342     -0.139282      0.775899
C          3.39749      5.94042     13.90356         0.412983      0.405617     -0.301200
C          1.67895      8.85452     13.96195         0.362971      0.626907      0.387244
C          3.32960     11.94329     13.97699         0.255625     -0.449646     -0.930362
C          8.53091      3.09720     13.81160         0.780655     -0.761112      0.375930
C          6.93551      5.97369     13.88276        -0.643860      0.290257     -0.271655
C          5.13596      8.93096     13.92167        -0.238900     -0.086428     -0.741060
80
Config_type=5600 Weight=1.0 Lattice="13.793987000 0.000000000 0.000000000 -6.896993000 11.945943000 0.000000000 0.000000000 0.000000000 27.810221000" Energy=-527.614556 Virial="1.76922 -0.61711 6.16725 -0.61711 5.42297 -0.32298 6.16725 -0.32298 -7.01227" Properties=species:S:1:pos:R:3:forces:R:3
Sc         -0.01288      1.92723     15.28563        -0.410980      0.180734     -1.005202
Sc         -1.71152      4.91987     15.12870        -0.184898      0.358311     -0.378669
Sc         -3.33715      7.94591     15.16005        -0.167149      0.036911     -0.284687
Sc         -5.20503     10.94227     15.22003         0.394278      0.268667     -0.318548
Sc          3.45047      1.98648     15.16664         0.005579      0.120638      0.937452
Sc          1.80072      5.07106     15.08161        -0.671107     -0.813694      0.371885
Sc          0.08639      8.01355     14.94381        -0.503993     -0.372853      0.579819
Sc         -1.76188     10.93300     15.07251         0.030092      0.156133      0.415500
Sc          6.86690      2.08780     15.25243        -0.472057     -0.119450     -0.372915
Sc          5.08902      4.98927     15.10566         0.518379      0.234584      0.915825
Sc          3.44479      8.01370     15.13368         0.136254     -0.109376     -0.263682
Sc          1.62665     11.06293     15.03094         0.693310     -1.123217      0.101567
Sc         10.21272      1.95609     15.14755         0.856518      0.127978     -0.017715
Sc          8.75238      5.01355     15.13073        -0.929910     -0.281491      0.484022
Sc          6.96756      8.07527     15.20767        -0.507809     -0.817932      0.184164
Sc          5.07828     10.97688     15.15731         0.331443     -0.230572     -0.229291
Sc          1.74910      1.04720     12.74556        -0.775989     -0.789670      0.094264
Sc         -0.01528      3.87737     12.68944         0.125746      0.428845      0.294331
Sc         -1.70427      6.89827     12.57144         0.057246      0.206416      0.383905
Sc         -3.40708      9.97326     12.61624        -0.447521     -0.493173      0.327768
Sc          5.19247      0.89957     12.70763        -0.029471      1.079074     -0.158286
Sc          3.40781      3.85266     12.67495         0.430384      0.886617      0.257220
Sc          1.71065      6.90322     12.59884         0.446073      0.629164     -0.132450
Sc          0.03649      9.98672     12.53229         0.151472     -0.073419      0.146062
Sc          8.57632      1.09160     12.66321        -0.427355     -0.456955     -0.432647
Sc          6.91038      4.08141     12.72964        -0.072657     -0.711818     -0.175092
Sc          5.23814      7.06734     12.67961        -0.440108     -0.563792     -0.012635
Sc          3.49550      9.95741     12.57457        -0.214907      0.102028      0.076932
Sc         11.94090      0.97304     12.67529         1.274142     -0.010827     -0.175598
Sc         10.35547      3.89590     12.67399         0.205273      0.495664      0.028576
Sc          8.55658      6.95144     12.75853         0.734136      0.346674     -0.468734
Sc          6.96036      9.93152     12.76266        -0.472515      1.015368     -0.633527
Cl          0.13178      2.05244     11.02238        -0.380544     -0.407011     -0.216230
Cl         -1.58305      4.90376     10.98689        -0.476653      0.010093     -0.196860
Cl         -3.42773      7.82801     10.99175        -0.279897      0.521759      0.010142
Cl         -5.16845     10.92480     11.07336         0.099534      0.216548     -0.257546
Cl          3.42548      1.99236     11.01417         0.163595     -0.272048      0.007531
Cl          1.84974      5.05039     10.99509        -0.223866     -0.593482     -0.198540
Cl          0.06308      8.03654     10.90587        -0.164862     -0.326740      0.008515
Cl         -1.68304     11.00074     10.88788        -0.343889     -0.128931      0.290151
Cl          6.82789      1.93218     10.94563         0.135256      0.257450      0.482322
Cl          5.24120      4.84555     11.05604        -0.241784      0.484596     -0.062422
Cl          3.52234      7.93311     10.89433         0.002870      0.054633      0.428116
Cl          1.78722     10.97406     10.91486        -0.130416      0.067133      0.145059
Cl         10.25557      2.00203     10.95763         0.265841      0.045293     -0.033908
Cl          8.71957      5.02227     11.04889        -0.394320     -0.159428     -0.028828
Cl          6.86979      8.06029     11.01604         0.325653     -0.387263     -0.032790
Cl          5.19547     11.01110     10.89639         0.042418      0.002842      0.421353
Cl          1.62777      1.00316     16.90249         0.259745     -0.001853      0.115142
Cl         -0.15452      4.03307     16.79511         0.630667     -0.425447      0.274735
Cl         -1.74178      6.86990     16.83768         0.227321      0.440463     -0.364645
Cl         -3.31346     10.01013     16.87567        -0.354491     -0.339321     -0.297092
Cl          5.10527      1.03811     16.95632         0.194312     -0.056489     -0.582962
Cl          3.37711      4.12130     16.91305         0.086053     -0.439251     -0.514729
Cl          1.70520      6.92367     16.74364        -0.296227      0.525579     -0.002443
Cl         -0.02521      9.95408     16.59998         0.119532     -0.184442      0.616270
Cl          8.56530      0.92459     16.76890        -0.131470      0.120632      0.480209
Cl          6.98270      4.04998     16.89394        -0.340119     -0.037459     -0.398833
Cl          5.10673      6.96207     16.89564         0.323129      0.159628     -0.618174
Cl          3.35052      9.84027     16.87047         0.116510      0.385586     -0.421183
Cl         11.82854      0.79484     16.93145         0.527003      0.621819     -0.267873
Cl         10.25782      3.90654     16.83666         0.405148     -0.044577     -0.082051
Cl          8.71492      6.94313     16.76769        -0.204603      0.261335      0.276374
Cl          7.00172      9.93336     16.89152        -0.501927      0.069435      0.159796
C         -0.00851      0.02087     13.89764        -0.242549     -0.031960      0.854809
C         12.05737      2.92911     13.84731        -0.318011      0.235089      0.610610
C         -3.41176      5.92239     13.96433        -0.069845      0.342947     -0.513836
C          8.56831      9.00429     13.97265         0.698428     -0.469720     -0.073224
C         -3.53213     11.93148     14.03133         0.966699      0.050403     -0.988942
C          1.70108      2.95918     13.99262         0.308367      0.094700     -0.391357
C         -0.02925      5.96865     13.78853         0.515584      0.119565      0.420089
C         -1.73521      8.96217     13.76073         0.179179      0.093770      0.538699
C          6.88796      0.05101     13.87196        -0.339745     -0.200697     -0.139520
C          5.15386      2.98869     14.04353        -0.130090     -0.033582     -0.726451
C          3.44399      5.99418     13.90866         0.043933      0.055040     -0.178404
C          1.76660      9.03365     13.79037        -0.401558     -0.397949      0.184682
C         10.31448      0.01642     13.86414        -0.111253      0.062058      0.219703
C          8.57299      2.94787     13.91769         0.402685      0.378356      0.044373
C          6.92961      5.98101     13.90370        -0.217527      0.224285      0.011492
C          5.20938      9.04237     13.87796        -0.405719     -0.668957      0.449052
80
Config_type=5900 Weight=1.0 Lattice="13.793987000 0.000000000 0.000000000 -6.896993000 11.945943000 0.000000000 0.000000000 0.000000000 27.810221000" Energy=-527.078015 Virial="7.84347 0.22060 2.62122 0.22060 5.55478 0.33566 2.62122 0.33566 2.94060" Properties=species:S:1:pos:R:3:forces:R:3
Sc          0.00479      1.94780     15.26168        -0.123074     -0.111223     -0.726349
Sc         -1.57059      5.00840     15.11763        -0.859324      0.029253      0.193977
Sc         -3.36384      8.01895     14.97006        -0.655997     -0.688134      0.896681
Sc         -5.15487     10.92423     15.13427        -0.780695     -0.268015      0.033367
Sc          3.35479      1.97223     15.28901         0.558869      0.521577     -0.378018
Sc          1.72179      4.99857     15.14231         0.173802     -0.009416      0.359718
Sc         -0.00478      8.00676     15.00545         0.431278     -0.273670     -0.111072
Sc         -1.82055     10.83788     15.10372         0.942672      0.798162      0.021894
Sc          6.89951      1.94328     15.10334        -0.013200      0.139513      0.873245
Sc          5.23537      5.01711     15.29361        -0.328259     -0.228745     -0.394932
Sc          3.43406      7.94887     15.05090        -0.281338      0.290533      0.142907
Sc          1.73741     10.85989     14.96354        -0.616099      0.434118      0.655674
Sc         10.37334      2.07447     15.18768        -0.272788     -0.744258      0.026784
Sc          8.67723      4.91610     15.20678        -0.142831      0.549942      0.305872
Sc          6.96621      7.90232     15.11905        -0.086195      0.630669      0.350863
Sc          5.09912     10.86509     15.18674         0.729297      0.506933     -0.599830
Sc          1.79546      1.01686     12.74969        -0.818448      0.173179     -0.150536
Sc         -0.05905      3.96559     12.74337         0.582006     -0.360691     -0.744038
Sc         -1.79859      7.00291     12.46959         1.020767     -0.430221      0.541023
Sc         -3.46587     10.04830     12.64206         0.057204     -0.007866     -0.326151
Sc          5.26073      1.07037     12.78949        -1.288547     -0.036393     -1.102796
Sc          3.46309      4.07826     12.78157         0.509561     -1.305155      0.062583
Sc          1.83919      6.78561     12.53657        -0.829600      1.131511      0.308538
Sc         -0.00895      9.87961     12.43706         0.346745      0.166955      0.711434
Sc          8.55150      0.98652     12.69750         0.802868      0.094716     -0.810215
Sc          6.87459      4.00766     12.81632        -0.465816     -0.073655     -1.012741
Sc          5.24130      7.03341     12.74167        -0.168464     -0.539205     -0.936364
Sc          3.52863      9.95889     12.60824        -0.404448      0.081447      0.250699
Sc         12.11460      0.98019     12.75735         0.303488     -0.140004      0.135669
Sc         10.32141      4.05683     12.75222         0.268452     -0.942966     -0.805194
Sc          8.70444      6.87363     12.67710        -0.843416      0.559179     -0.227196
Sc          7.00807      9.91751     12.62741        -0.672187      0.214105      0.588884
Cl         -0.04417      2.01331     10.95999         0.179510     -0.014719      0.624346
Cl         -1.84687      4.96734     10.92415         0.174200     -0.098246      0.245678
Cl         -3.49194      8.12154     10.98305         0.043759     -0.504571     -0.348337
Cl         -5.23765     10.95394     10.97021         0.497797      0.373024     -0.004838
Cl          3.37371      2.07315     11.10458         0.480898     -0.395470     -0.006804
Cl          1.83868      4.75733     11.01324        -0.789650      0.589940     -0.186130
Cl          0.15625      7.78287     10.76300        -0.608006      0.300675      0.475729
Cl         -1.70812     11.06379     10.99899        -0.404128     -0.085194     -0.209542
Cl          6.80476      2.06491     11.01240         0.229326     -0.085658      0.194638
Cl          5.04826      5.08387     11.08717         0.573047     -0.121009     -0.120297
Cl          3.38270      8.06500     10.98288         0.578908     -0.430921     -0.253629
Cl          1.70062     10.95754     10.95430         0.270946      0.232597     -0.202491
Cl         10.47292      1.87957     11.14340        -0.729175      0.511728     -0.342095
Cl          8.44976      4.89197     11.02288         0.633236      0.291730      0.074891
Cl          7.02816      7.99513     10.89755        -0.371254     -0.308681      0.561895
Cl          5.25809     10.95573     11.08073        -0.135819      0.040388     -0.438065
Cl          1.62199      0.81289     16.83784         0.303843      0.461505      0.656235
Cl          0.04863      3.92467     16.83997        -0.099862      0.412663      0.260001
Cl         -1.77699      6.95875     16.67974         0.354477      0.171259      0.264180
Cl         -3.48204      9.86252     16.76902         0.190337      0.143170      0.147246
Cl          5.17506      0.95816     16.76410        -0.029913     -0.095723      0.152458
Cl          3.46365      4.06648     16.96311        -0.070237     -0.178412     -0.373444
Cl          1.74731      7.04013     16.77594        -0.287996     -0.090789     -0.163350
Cl         -0.09247      9.92540     16.83796         0.176722      0.045350     -0.660909
Cl          8.54388      1.16666     16.84494         0.094371     -0.551143     -0.374983
Cl          6.93693      4.00287     16.89900        -0.121449      0.059164     -0.228733
Cl          5.12592      7.15319     16.78819         0.048052     -0.532634      0.155666
Cl          3.33677     10.07433     16.68768        -0.131333     -0.657037      0.762528
Cl         11.88791      0.94865     16.83369         0.640070      0.079865      0.181473
Cl         10.36025      3.98236     16.96755         0.099555      0.175757     -0.656620
Cl          8.67803      7.04531     16.76259         0.018768     -0.370403     -0.019214
Cl          6.81480      9.88652     16.85224         0.216197      0.145132     -0.242727
C          0.10108      0.00654     13.92592        -0.512999     -0.127975      0.097569
C         -1.67926      2.97539     13.99630        -0.329619      0.279304     -0.136410
C         -3.37542      5.98011     13.88963        -0.426550     -0.010127     -0.497409
C          8.59544      8.92959     13.90026         0.501480     -0.059877     -0.420941
C         -3.50693     11.93827     13.99262         0.575214     -0.178348     -0.335325
C          1.74124      3.00824     14.08250        -0.278620     -0.093374     -0.463552
C          0.00958      5.98280     13.80894         0.046620     -0.312961      0.326296
C         -1.72784      8.95713     13.74147        -0.190381      0.124544      0.236285
C         -0.01154     11.92847     13.75009         0.134706      0.172564      1.095842
C          5.12200      3.04741     13.95487         0.581526     -0.323489      0.648203
C          3.47283      6.00322     13.86564        -0.226170      0.174066      0.628103
C          1.65323      8.96494     13.80049         0.267825     -0.206274      0.032466
C          3.48358     11.87621     13.95772        -0.276166      0.456488     -0.501514