 running on   52 total cores
 distrk:  each k-point on   52 cores,    1 groups
 distr:  one band on   13 cores,    4 groups
 using from now: INCAR     
 vasp.5.4.4.18Apr17-6-g9f103f2a35 (build Oct 31 2019 15:01:46) complex          
  
 POSCAR found type information on POSCAR  Sc F  C 
 POSCAR found :  3 types and      80 ions
 scaLAPACK is switched off
 LDA part: xc-table for Pade appr. of Perdew
 generate k-points for:    3    3    1
 POSCAR, INCAR and KPOINTS ok, starting setup
 FFT: planning ...
 WAVECAR not read
 entering main loop
       N       E                     dE             d eps       ncg     rms          rms(c)
DAV:   1     0.136599041392E+05    0.13660E+05   -0.27880E+05  4240   0.156E+03
DAV:   2     0.250118286744E+04   -0.11159E+05   -0.10855E+05  4632   0.533E+02
DAV:   3    -0.379688218254E+03   -0.28809E+04   -0.27658E+04  6784   0.294E+02
DAV:   4    -0.740361676020E+03   -0.36067E+03   -0.35649E+03  6056   0.139E+02
DAV:   5    -0.754839096825E+03   -0.14477E+02   -0.14418E+02  6080   0.352E+01    0.765E+01
DAV:   6    -0.599139998828E+03    0.15570E+03   -0.83912E+02  5680   0.642E+01    0.250E+01
DAV:   7    -0.599156222972E+03   -0.16224E-01   -0.53234E+01  5920   0.211E+01    0.163E+01
DAV:   8    -0.597546631103E+03    0.16096E+01   -0.10414E+01  5552   0.766E+00    0.443E+00
DAV:   9    -0.597026137942E+03    0.52049E+00   -0.28733E+00  5608   0.500E+00    0.216E+00
DAV:  10    -0.596988483656E+03    0.37654E-01   -0.23591E-01  5784   0.162E+00    0.111E+00
DAV:  11    -0.596858049601E+03    0.13043E+00   -0.16933E-01  5528   0.102E+00    0.772E-01
DAV:  12    -0.596832253168E+03    0.25796E-01   -0.49982E-02  5848   0.578E-01    0.328E-01
DAV:  13    -0.596823156328E+03    0.90968E-02   -0.36546E-02  5640   0.437E-01    0.315E-01
DAV:  14    -0.596821745468E+03    0.14109E-02   -0.18601E-02  5592   0.322E-01    0.175E-01
DAV:  15    -0.596827503498E+03   -0.57580E-02   -0.62740E-03  5656   0.197E-01    0.911E-02
DAV:  16    -0.596831591384E+03   -0.40879E-02   -0.18899E-03  5296   0.120E-01    0.768E-02
DAV:  17    -0.596836599098E+03   -0.50077E-02   -0.13996E-03  5776   0.861E-02    0.705E-02
DAV:  18    -0.596839778507E+03   -0.31794E-02   -0.69546E-04  5352   0.682E-02    0.407E-02
DAV:  19    -0.596841371929E+03   -0.15934E-02   -0.26349E-04  5728   0.389E-02    0.196E-02
DAV:  20    -0.596844710094E+03   -0.33382E-02   -0.13523E-04  4848   0.198E-02    0.186E-02
DAV:  21    -0.596846791888E+03   -0.20818E-02   -0.12300E-04  4952   0.164E-02    0.874E-03
DAV:  22    -0.596847809083E+03   -0.10172E-02   -0.74934E-05  4504   0.132E-02    0.930E-03
DAV:  23    -0.596848166247E+03   -0.35716E-03   -0.16270E-05  4688   0.996E-03    0.490E-03
DAV:  24    -0.596848412842E+03   -0.24659E-03   -0.10252E-05  4552   0.522E-03    0.235E-03
DAV:  25    -0.596848601036E+03   -0.18819E-03   -0.50247E-06  3952   0.317E-03    0.145E-03
DAV:  26    -0.596848654831E+03   -0.53796E-04   -0.95756E-07  2952   0.203E-03    0.121E-03
DAV:  27    -0.596848686624E+03   -0.31793E-04   -0.44947E-07  2720   0.173E-03    0.787E-04
DAV:  28    -0.596848704877E+03   -0.18253E-04   -0.48173E-07  2824   0.161E-03    0.719E-04
DAV:  29    -0.596848710784E+03   -0.59069E-05   -0.24757E-07  2616   0.147E-03    0.726E-04
DAV:  30    -0.596848714186E+03   -0.34019E-05   -0.17486E-07  2520   0.106E-03    0.627E-04
DAV:  31    -0.596848715567E+03   -0.13814E-05   -0.11044E-07  2520   0.971E-04    0.559E-04
DAV:  32    -0.596848716964E+03   -0.13964E-05   -0.90411E-08  2592   0.741E-04    0.565E-04
DAV:  33    -0.596848717495E+03   -0.53126E-06   -0.54854E-08  2520   0.718E-04
   1 F= -.59684872E+03 E0= -.59684872E+03  d E =-.331722E-20
