 vasp.5.4.4.18Apr17-6-g9f103f2a35 (build Oct 31 2019 15:01:46) complex          
  
 executed on             LinuxIFC date 2024.04.19  15:00:14
 running on   52 total cores
 distrk:  each k-point on   52 cores,    1 groups
 distr:  one band on NCORES_PER_BAND=  13 cores,    4 groups


--------------------------------------------------------------------------------------------------------


 INCAR:
 POTCAR:    PAW_PBE Sc_sv 07Sep2000               
 POTCAR:    PAW_PBE F 08Apr2002                   
 POTCAR:    PAW_PBE C 08Apr2002                   
 POTCAR:    PAW_PBE Sc_sv 07Sep2000               
   VRHFIN =Sc: 3p4s3d                                                           
   LEXCH  = PE                                                                  
   EATOM  =  1273.2868 eV,   93.5839 Ry                                         
                                                                                
   TITEL  = PAW_PBE Sc_sv 07Sep2000                                             
   LULTRA =        F    use ultrasoft PP ?                                      
   IUNSCR =        1    unscreen: 0-lin 1-nonlin 2-no                           
   RPACOR =    2.200    partial core radius                                     
   POMASS =   44.956; ZVAL   =   11.000    mass and valenz                      
   RCORE  =    2.500    outmost cutoff radius                                   
   RWIGS  =    2.700; RWIGS  =    1.429    wigner-seitz radius (au A)           
   ENMAX  =  222.660; ENMIN  =  166.995 eV                                      
   RCLOC  =    1.805    cutoff for local pot                                    
   LCOR   =        T    correct aug charges                                     
   LPAW   =        T    paw PP                                                  
   EAUG   =  443.063                                                            
   RMAX   =    2.551    core radius for proj-oper                               
   RAUG   =    1.300    factor for augmentation sphere                          
   RDEP   =    2.650    radius for radial grids                                 
   RDEPT  =    2.038    core radius for aug-charge                              
                                                                                
   Atomic configuration                                                         
    8 entries                                                                   
     n  l   j            E        occ.                                          
     1  0  0.50     -4394.2533   2.0000                                         
     2  0  0.50      -471.0040   2.0000                                         
     2  1  1.50      -384.9788   6.0000                                         
     3  0  0.50       -52.1410   2.0000                                         
     4  0  0.50        -3.5584   1.0000                                         
     3  1  1.50       -30.8841   6.0000                                         
     3  2  2.50        -1.3655   2.0000                                         
     4  3  2.50        -1.3606   0.0000                                         
   Description                                                                  
     l       E           TYP  RCUT    TYP  RCUT                                 
     0    -52.1409870     23  1.800                                             
     0     -3.5583698     23  2.500                                             
     1    -30.8840697     23  2.300                                             
     1      4.0817478     23  2.300                                             
     2     -1.3655397     23  2.500                                             
     2      0.3564476     23  2.500                                             
  local pseudopotential read in
  partial core-charges read in
  partial kinetic energy density read in
  atomic valenz-charges read in
  non local Contribution for L=           0  read in
    real space projection operators read in
  non local Contribution for L=           0  read in
    real space projection operators read in
  non local Contribution for L=           1  read in
    real space projection operators read in
  non local Contribution for L=           1  read in
    real space projection operators read in
  non local Contribution for L=           2  read in
    real space projection operators read in
  non local Contribution for L=           2  read in
    real space projection operators read in
    PAW grid and wavefunctions read in
 
   number of l-projection  operators is LMAX  =           6
   number of lm-projection operators is LMMAX =          18
 
 POTCAR:    PAW_PBE F 08Apr2002                   
   VRHFIN =F: s2p5                                                              
   LEXCH  = PE                                                                  
   EATOM  =   659.6475 eV,   48.4827 Ry                                         
                                                                                
   TITEL  = PAW_PBE F 08Apr2002                                                 
   LULTRA =        F    use ultrasoft PP ?                                      
   IUNSCR =        1    unscreen: 0-lin 1-nonlin 2-no                           
   RPACOR =    1.200    partial core radius                                     
   POMASS =   18.998; ZVAL   =    7.000    mass and valenz                      
   RCORE  =    1.520    outmost cutoff radius                                   
   RWIGS  =    1.500; RWIGS  =    0.794    wigner-seitz radius (au A)           
   ENMAX  =  400.000; ENMIN  =  300.000 eV                                      
   ICORE  =        2    local potential                                         
   LCOR   =        T    correct aug charges                                     
   LPAW   =        T    paw PP                                                  
   EAUG   =  613.614                                                            
   RMAX   =    1.555    core radius for proj-oper                               
   RAUG   =    1.300    factor for augmentation sphere                          
   RDEP   =    1.539    radius for radial grids                                 
   RDEPT  =    1.299    core radius for aug-charge                              
                                                                                
   Atomic configuration                                                         
    4 entries                                                                   
     n  l   j            E        occ.                                          
     1  0  0.50      -663.3661   2.0000                                         
     2  0  0.50       -29.8995   2.0000                                         
     2  1  0.50       -11.1114   5.0000                                         
     3  2  1.50       -10.8847   0.0000                                         
   Description                                                                  
     l       E           TYP  RCUT    TYP  RCUT                                 
     0    -29.8995018     23  1.200                                             
     0     -9.5240782     23  1.200                                             
     1    -11.1113914     23  1.520                                             
     1      1.3605826     23  1.520                                             
     2    -10.8846608      7  1.500                                             
  local pseudopotential read in
  partial core-charges read in
  partial kinetic energy density read in
  atomic valenz-charges read in
  non local Contribution for L=           0  read in
    real space projection operators read in
  non local Contribution for L=           0  read in
    real space projection operators read in
  non local Contribution for L=           1  read in
    real space projection operators read in
  non local Contribution for L=           1  read in
    real space projection operators read in
    PAW grid and wavefunctions read in
 
   number of l-projection  operators is LMAX  =           4
   number of lm-projection operators is LMMAX =           8
 
 POTCAR:    PAW_PBE C 08Apr2002                   
   VRHFIN =C: s2p2                                                              
   LEXCH  = PE                                                                  
   EATOM  =   147.1560 eV,   10.8157 Ry                                         
                                                                                
   TITEL  = PAW_PBE C 08Apr2002                                                 
   LULTRA =        F    use ultrasoft PP ?                                      
   IUNSCR =        1    unscreen: 0-lin 1-nonlin 2-no                           
   RPACOR =    1.200    partial core radius                                     
   POMASS =   12.011; ZVAL   =    4.000    mass and valenz                      
   RCORE  =    1.500    outmost cutoff radius                                   
   RWIGS  =    1.630; RWIGS  =    0.863    wigner-seitz radius (au A)           
   ENMAX  =  400.000; ENMIN  =  300.000 eV                                      
   ICORE  =        2    local potential                                         
   LCOR   =        T    correct aug charges                                     
   LPAW   =        T    paw PP                                                  
   EAUG   =  644.873                                                            
   DEXC   =    0.000                                                            
   RMAX   =    1.529    core radius for proj-oper                               
   RAUG   =    1.300    factor for augmentation sphere                          
   RDEP   =    1.501    radius for radial grids                                 
   RDEPT  =    1.300    core radius for aug-charge                              
                                                                                
   Atomic configuration                                                         
    4 entries                                                                   
     n  l   j            E        occ.                                          
     1  0  0.50      -273.3789   2.0000                                         
     2  0  0.50       -13.7508   2.0000                                         
     2  1  0.50        -5.2854   2.0000                                         
     3  2  1.50        -5.4423   0.0000                                         
   Description                                                                  
     l       E           TYP  RCUT    TYP  RCUT                                 
     0    -13.7508458     23  1.200                                             
     0     -8.2022199     23  1.200                                             
     1     -5.2854383     23  1.500                                             
     1     34.0145650     23  1.500                                             
     2     -5.4423304      7  1.500                                             
  local pseudopotential read in
  partial core-charges read in
  partial kinetic energy density read in
  atomic valenz-charges read in
  non local Contribution for L=           0  read in
    real space projection operators read in
  non local Contribution for L=           0  read in
    real space projection operators read in
  non local Contribution for L=           1  read in
    real space projection operators read in
  non local Contribution for L=           1  read in
    real space projection operators read in
    PAW grid and wavefunctions read in
 
   number of l-projection  operators is LMAX  =           4
   number of lm-projection operators is LMMAX =           8
 
 Optimization of the real space projectors (new method)

 maximal supplied QI-value         = 15.12
 optimisation between [QCUT,QGAM] = [ 12.55, 25.10] = [ 44.09,176.36] Ry 
 Optimized for a Real-space Cutoff    1.56 Angstroem

   l    n(q)    QCUT    max X(q) W(low)/X(q) W(high)/X(q)  e(spline) 
   0     12    12.548     2.962    0.12E-05    0.11E-06    0.46E-07
   0     12    12.548    26.414    0.30E-04    0.15E-05    0.76E-07
   1     11    12.548     3.969    0.45E-05    0.12E-05    0.60E-07
   1     11    12.548     5.137    0.15E-04    0.18E-04    0.36E-06
   2     11    12.548   143.970    0.20E-03    0.19E-03    0.76E-06
   2     11    12.548   121.201    0.20E-03    0.19E-03    0.76E-06
 Optimization of the real space projectors (new method)

 maximal supplied QI-value         = 24.76
 optimisation between [QCUT,QGAM] = [ 12.38, 25.00] = [ 42.90,175.06] Ry 
 Optimized for a Real-space Cutoff    1.16 Angstroem

   l    n(q)    QCUT    max X(q) W(low)/X(q) W(high)/X(q)  e(spline) 
   0      9    12.378    14.049    0.11E-03    0.38E-05    0.23E-06
   0      9    12.378     8.945    0.15E-03    0.56E-05    0.30E-06
   1      8    12.378     7.086    0.18E-03    0.14E-03    0.29E-06
   1      8    12.378     6.747    0.16E-03    0.13E-03    0.26E-06
 Optimization of the real space projectors (new method)

 maximal supplied QI-value         = 25.13
 optimisation between [QCUT,QGAM] = [ 12.32, 24.88] = [ 42.47,173.37] Ry 
 Optimized for a Real-space Cutoff    1.16 Angstroem

   l    n(q)    QCUT    max X(q) W(low)/X(q) W(high)/X(q)  e(spline) 
   0      9    12.315   115.676    0.19E-03    0.80E-05    0.34E-06
   0      9    12.315    87.132    0.19E-03    0.82E-05    0.34E-06
   1      8    12.315     4.429    0.18E-03    0.13E-03    0.22E-06
   1      8    12.315     2.733    0.14E-03    0.10E-03    0.18E-06
  PAW_PBE Sc_sv 07Sep2000               :
 energy of atom  1       EATOM=-1273.2868
 kinetic energy error for atom=    0.0014 (will be added to EATOM!!)
  PAW_PBE F 08Apr2002                   :
 energy of atom  2       EATOM= -659.6475
 kinetic energy error for atom=    0.0256 (will be added to EATOM!!)
  PAW_PBE C 08Apr2002                   :
 energy of atom  3       EATOM= -147.1560
 kinetic energy error for atom=    0.0057 (will be added to EATOM!!)
 
 
 POSCAR: Sc  F  C                                
  positions in cartesian coordinates
  No initial velocities read in
 exchange correlation table for  LEXCH =        8
   RHO(1)=    0.500       N(1)  =     2000
   RHO(2)=  100.500       N(2)  =     4000
 


--------------------------------------------------------------------------------------------------------


 ion  position               nearest neighbor table
   1  0.075  0.157  0.454-  61 2.05  49 2.22  65 2.25  50 2.29  66 2.31  70 2.37  29 3.07  16 3.17
                            17 3.17  18 3.19   4 3.20   6 3.27  13 3.28   2 3.33   5 3.35
   2  0.083  0.414  0.454-  62 2.18  50 2.19  66 2.22  51 2.23  71 2.23  67 2.34  30 3.09  18 3.17
                            13 3.17   6 3.17  19 3.22   3 3.32   1 3.33  14 3.34   7 3.35
   3  0.081  0.665  0.454-  63 2.19  51 2.22  72 2.24  67 2.26  68 2.27  52 2.41  19 3.13  31 3.14
                            15 3.15  20 3.19  14 3.23   7 3.25   8 3.26   4 3.29   2 3.32
   4  0.084  0.917  0.455-  65 2.16  52 2.19  69 2.26  64 2.27  68 2.28  49 2.36  20 3.08  17 3.18
                             8 3.19   1 3.20  32 3.26   5 3.27  15 3.28  16 3.29   3 3.29
   5  0.334  0.165  0.452-  49 2.08  53 2.13  54 2.15  74 2.24  69 2.28  70 2.29  21 3.17   9 3.21
                             8 3.21  22 3.21  10 3.26  17 3.26   4 3.27   6 3.29   1 3.35
   6  0.321  0.409  0.450-  50 2.17  54 2.21  55 2.24  71 2.28  70 2.36  75 2.41  18 3.12   2 3.17
                            23 3.21  22 3.22   1 3.27  10 3.29   5 3.29  11 3.32   7 3.41
   7  0.333  0.673  0.454-  56 2.06  51 2.16  71 2.25  76 2.34  72 2.34  55 2.43  19 3.06  24 3.15
                            23 3.18   8 3.24   3 3.25  12 3.25  11 3.26   2 3.35   6 3.41
   8  0.326  0.917  0.454-  52 2.10  73 2.26  72 2.26  69 2.31  53 2.32  56 2.41  20 3.08  21 3.17
                             4 3.19   9 3.20   5 3.21   7 3.24  24 3.25   3 3.26
   9  0.573  0.155  0.449-  53 2.09  74 2.22  73 2.22  57 2.33  78 2.36  58 2.36  25 3.17   8 3.20
                             5 3.21  26 3.23  12 3.26  21 3.28  13 3.33
  10  0.576  0.418  0.449-  58 2.14  59 2.24  54 2.28  75 2.30  79 2.37  74 2.41  22 3.18  11 3.20
                            26 3.21  27 3.22   5 3.26   6 3.29  15 3.34  14 3.34
  11  0.574  0.661  0.452-  59 2.15  55 2.15  60 2.17  76 2.28  75 2.30  80 2.32  23 3.09  27 3.19
                            10 3.20  28 3.22  12 3.24   7 3.26   6 3.32  16 3.37
  12  0.587  0.914  0.451-  60 2.07  57 2.13  56 2.25  76 2.27  73 2.28  77 2.44  24 3.18  25 3.20
                            16 3.21  11 3.24   7 3.25   9 3.26  28 3.29  13 3.38
  13  0.837  0.177  0.449-  62 2.20  61 2.20  57 2.20  66 2.27  78 2.28  77 2.37  30 3.12   2 3.17
                            14 3.23  25 3.24  29 3.26   1 3.28   9 3.33  12 3.38  16 3.41
  14  0.833  0.421  0.452-  62 2.17  78 2.27  79 2.28  58 2.28  67 2.28  63 2.30  15 3.12  26 3.15
                            31 3.18  30 3.21  13 3.23   3 3.23   2 3.34  10 3.34
  15  0.840  0.662  0.455-  64 2.11  63 2.16  79 2.21  68 2.25  80 2.36  59 2.46  31 3.10  14 3.12
                             3 3.15  27 3.24  32 3.24   4 3.28  10 3.34  16 3.38
  16  0.833  0.916  0.455-  60 2.15  64 2.18  61 2.26  77 2.27  65 2.31  80 2.38  28 3.07  29 3.16
                             1 3.17  12 3.21  32 3.24   4 3.29  11 3.37  15 3.38  13 3.41
  17  0.165  0.085  0.550-  36 2.05  33 2.07  37 2.18  70 2.21  69 2.24  65 2.27   1 3.17   4 3.18
                            18 3.19  21 3.23  20 3.23   5 3.26  29 3.28  32 3.32  22 3.33
  18  0.171  0.330  0.547-  38 2.14  33 2.16  34 2.24  70 2.25  66 2.37  71 2.38   6 3.12   2 3.17
                             1 3.19  17 3.19  22 3.20  23 3.23  29 3.25  30 3.34  19 3.43
  19  0.176  0.594  0.547-  35 2.15  72 2.19  34 2.23  71 2.30  39 2.32  67 2.39   7 3.06   3 3.13
                             2 3.22  23 3.24  24 3.26  20 3.28  31 3.30  18 3.43
  20  0.168  0.840  0.547-  72 2.18  69 2.21  36 2.23  68 2.23  35 2.32  40 2.36   4 3.08   8 3.08
                            21 3.16   3 3.19  17 3.23  19 3.28  32 3.29  31 3.33  24 3.41
  21  0.409  0.081  0.549-  40 2.03  37 2.05  69 2.22  74 2.29  41 2.35  73 2.45  20 3.16   8 3.17
                             5 3.17  17 3.23   9 3.28  26 3.28  24 3.30  22 3.32  25 3.33
  22  0.418  0.338  0.546-  38 2.14  75 2.16  70 2.26  37 2.28  42 2.30  74 2.44  27 3.14  23 3.18
                            10 3.18  18 3.20   5 3.21   6 3.22  26 3.23  21 3.32  17 3.33
  23  0.415  0.578  0.546-  75 2.19  43 2.27  71 2.27  39 2.30  76 2.33  38 2.37  11 3.09  22 3.18
                             7 3.18  27 3.19   6 3.21  18 3.23  19 3.24  24 3.35  28 3.38
  24  0.427  0.839  0.548-  44 2.10  40 2.18  76 2.22  73 2.26  39 2.31  72 2.44   7 3.15  12 3.18
                            25 3.18   8 3.25  19 3.26  21 3.30  28 3.34  23 3.35  20 3.41
  25  0.665  0.086  0.545-  44 2.11  45 2.23  41 2.27  77 2.28  78 2.29  73 2.32   9 3.17  24 3.18
                            12 3.20  26 3.24  13 3.24  30 3.26  29 3.30  21 3.33
  26  0.660  0.330  0.543-  74 2.21  78 2.25  79 2.26  42 2.27  46 2.31  41 2.36  14 3.15  10 3.21
                             9 3.23  22 3.23  25 3.24  27 3.27  21 3.28  31 3.36  30 3.37
  27  0.657  0.577  0.548-  43 2.13  42 2.22  80 2.22  75 2.23  79 2.29  47 2.33  22 3.14  23 3.19
                            28 3.19  11 3.19  10 3.22  15 3.24  26 3.27  32 3.35  31 3.41
  28  0.677  0.830  0.548-  48 2.11  80 2.16  43 2.19  44 2.32  76 2.33  77 2.41  16 3.07  32 3.10
                            27 3.19  11 3.22  29 3.29  12 3.29  24 3.34  23 3.38
  29  0.918  0.089  0.547-  45 2.10  77 2.13  66 2.23  48 2.28  65 2.41  33 2.56   1 3.07  16 3.16
                            30 3.17  18 3.25  13 3.26  17 3.28  28 3.29  25 3.30  32 3.37
  30  0.917  0.330  0.545-  45 2.17  66 2.19  67 2.27  46 2.29  78 2.33  34 2.34   2 3.09  13 3.12
                            29 3.17  14 3.21  25 3.26  31 3.29  18 3.34  26 3.37
  31  0.919  0.582  0.549-  46 2.18  67 2.21  47 2.24  68 2.28  35 2.35  79 2.37  15 3.10   3 3.14
                            14 3.18  30 3.29  19 3.30  32 3.31  20 3.33  26 3.36  27 3.41
  32  0.913  0.831  0.553-  48 2.15  47 2.21  36 2.30  65 2.31  68 2.35  80 2.38  28 3.10  16 3.24
                            15 3.24   4 3.26  20 3.29  31 3.31  17 3.32  27 3.35  29 3.37
  33  0.112  0.179  0.595-  17 2.07  18 2.16  29 2.56
  34  0.095  0.425  0.589-  19 2.23  18 2.24  30 2.34
  35  0.097  0.669  0.593-  19 2.15  20 2.32  31 2.35
  36  0.094  0.932  0.591-  17 2.05  20 2.23  32 2.30
  37  0.335  0.163  0.587-  21 2.05  17 2.18  22 2.28
  38  0.327  0.401  0.592-  22 2.14  18 2.14  23 2.37
  39  0.344  0.671  0.596-  23 2.30  24 2.31  19 2.32
  40  0.351  0.929  0.588-  21 2.03  24 2.18  20 2.36
  41  0.584  0.164  0.596-  25 2.27  21 2.35  26 2.36
  42  0.586  0.416  0.594-  27 2.22  26 2.27  22 2.30
  43  0.585  0.664  0.589-  27 2.13  28 2.19  23 2.27
  44  0.589  0.926  0.585-  24 2.10  25 2.11  28 2.32
  45  0.835  0.166  0.586-  29 2.10  30 2.17  25 2.23
  46  0.831  0.416  0.590-  31 2.18  30 2.29  26 2.31
  47  0.832  0.661  0.593-  32 2.21  31 2.24  27 2.33
  48  0.833  0.917  0.591-  28 2.11  32 2.15  29 2.28
  49  0.180  0.096  0.410-   5 2.08   1 2.22   4 2.36
  50  0.156  0.327  0.409-   6 2.17   2 2.19   1 2.29
  51  0.169  0.584  0.413-   7 2.16   3 2.22   2 2.23
  52  0.174  0.849  0.409-   8 2.10   4 2.19   3 2.41
  53  0.417  0.091  0.408-   9 2.09   5 2.13   8 2.32
  54  0.401  0.322  0.408-   5 2.15   6 2.21  10 2.28
  55  0.418  0.576  0.407-  11 2.15   6 2.24   7 2.43
  56  0.415  0.821  0.409-   7 2.06  12 2.25   8 2.41
  57  0.671  0.072  0.408-  12 2.13  13 2.20   9 2.33
  58  0.660  0.340  0.408-  10 2.14  14 2.28   9 2.36
  59  0.657  0.588  0.407-  11 2.15  10 2.24  15 2.46
  60  0.667  0.831  0.416-  12 2.07  16 2.15  11 2.17
  61  0.923  0.089  0.413-   1 2.05  13 2.20  16 2.26
  62  0.922  0.348  0.410-  14 2.17   2 2.18  13 2.20
  63  0.923  0.594  0.407-  15 2.16   3 2.19  14 2.30
  64  0.907  0.822  0.416-  15 2.11  16 2.18   4 2.27
  65  0.004  0.993  0.501-   4 2.16   1 2.25  17 2.27  16 2.31  32 2.31  29 2.41
  66  0.997  0.250  0.499-  30 2.19   2 2.22  29 2.23  13 2.27   1 2.31  18 2.37
  67  0.996  0.500  0.501-  31 2.21   3 2.26  30 2.27  14 2.28   2 2.34  19 2.39
  68  0.003  0.751  0.502-  20 2.23  15 2.25   3 2.27   4 2.28  31 2.28  32 2.35
  69  0.247  0.004  0.503-  20 2.21  21 2.22  17 2.24   4 2.26   5 2.28   8 2.31
  70  0.249  0.242  0.502-  17 2.21  18 2.25  22 2.26   5 2.29   6 2.36   1 2.37
  71  0.250  0.504  0.497-   2 2.23   7 2.25  23 2.27   6 2.28  19 2.30  18 2.38
  72  0.242  0.754  0.502-  20 2.18  19 2.19   3 2.24   8 2.26   7 2.34  24 2.44
  73  0.498  0.995  0.496-   9 2.22   8 2.26  24 2.26  12 2.28  25 2.32  21 2.45
  74  0.500  0.240  0.497-  26 2.21   9 2.22   5 2.24  21 2.29  10 2.41  22 2.44
  75  0.494  0.496  0.501-  22 2.16  23 2.19  27 2.23  11 2.30  10 2.30   6 2.41
  76  0.505  0.755  0.501-  24 2.22  12 2.27  11 2.28  23 2.33  28 2.33   7 2.34
  77  0.763  0.012  0.502-  29 2.13  16 2.27  25 2.28  13 2.37  28 2.41  12 2.44
  78  0.747  0.253  0.497-  26 2.25  14 2.27  13 2.28  25 2.29  30 2.33   9 2.36
  79  0.746  0.500  0.500-  15 2.21  26 2.26  14 2.28  27 2.29  31 2.37  10 2.37
  80  0.741  0.739  0.502-  28 2.16  27 2.22  11 2.32  15 2.36  16 2.38  32 2.38
 
  LATTYP: Found a hexagonal cell.
 ALAT       =    13.1286233990
 C/A-ratio  =     2.0434811347
  
  Lattice vectors:
  
 A1 = (  13.1286234000,   0.0000000000,   0.0000000000)
 A2 = (  -6.5643117000,  11.3697213800,   0.0000000000)
 A3 = (   0.0000000000,   0.0000000000,  26.8280942400)


Analysis of symmetry for initial positions (statically):
=====================================================================
 Subroutine PRICEL returns:
 Original cell was already a primitive cell.
 

 Routine SETGRP: Setting up the symmetry group for a 
 hexagonal supercell.


 Subroutine GETGRP returns: Found  1 space group operations
 (whereof  1 operations were pure point group operations)
 out of a pool of 24 trial point group operations.


The static configuration has the point symmetry C_1 .


Analysis of symmetry for dynamics (positions and initial velocities):
=====================================================================
 Subroutine PRICEL returns:
 Original cell was already a primitive cell.
 

 Routine SETGRP: Setting up the symmetry group for a 
 hexagonal supercell.


 Subroutine GETGRP returns: Found  1 space group operations
 (whereof  1 operations were pure point group operations)
 out of a pool of 24 trial point group operations.


The dynamic configuration has the point symmetry C_1 .


 Subroutine INISYM returns: Found  1 space group operations
 (whereof  1 operations are pure point group operations),
 and found     1 'primitive' translations

 
 

Automatic generation of k-mesh.
 generate k-points for:    3    3    1
Space group operators:
 irot       det(A)        alpha          n_x          n_y          n_z        tau_x        tau_y        tau_z
    1     1.000000     0.000000     1.000000     0.000000     0.000000     0.000000     0.000000     0.000000
 
 Subroutine IBZKPT returns following result:
 ===========================================
 
 Found      5 irreducible k-points:
 
 Following reciprocal coordinates:
            Coordinates               Weight
  0.000000  0.000000  0.000000      1.000000
  0.333333 -0.000000  0.000000      2.000000
  0.000000  0.333333  0.000000      2.000000
  0.333333  0.333333  0.000000      2.000000
 -0.333333  0.333333  0.000000      2.000000
 
 Following cartesian coordinates:
            Coordinates               Weight
  0.000000  0.000000  0.000000      1.000000
  0.025390  0.014659  0.000000      2.000000
  0.000000  0.029318  0.000000      2.000000
  0.025390  0.043976  0.000000      2.000000
 -0.025390  0.014659  0.000000      2.000000
 


--------------------------------------------------------------------------------------------------------




 Dimension of arrays:
   k-points           NKPTS =      5   k-points in BZ     NKDIM =      5   number of bands    NBANDS=    384
   number of dos      NEDOS =    301   number of ions     NIONS =     80
   non local maximal  LDIM  =      6   non local SUM 2l+1 LMDIM =     18
   total plane-waves  NPLWV = ******
   max r-space proj   IRMAX =  10060   max aug-charges    IRDMAX= 222480
   dimension x,y,z NGX =   108 NGY =  108 NGZ =  216
   dimension x,y,z NGXF=   216 NGYF=  216 NGZF=  432
   support grid    NGXF=   432 NGYF=  432 NGZF=  864
   ions per type =              32  32  16
   NGX,Y,Z   is equivalent  to a cutoff of  13.68, 13.68, 13.38 a.u.
   NGXF,Y,Z  is equivalent  to a cutoff of  27.35, 27.35, 26.77 a.u.

 SYSTEM =  unknown system                          
 POSCAR =  Sc  F  C                                

 Startparameter for this run:
   NWRITE =      2    write-flag & timer
   PREC   = anorma    normal or accurate (medium, high low for compatibility)
   ISTART =      0    job   : 0-new  1-cont  2-samecut
   ICHARG =      2    charge: 1-file 2-atom 10-const
   ISPIN  =      1    spin polarized calculation?
   LNONCOLLINEAR =      F non collinear calculations
   LSORBIT =      F    spin-orbit coupling
   INIWAV =      1    electr: 0-lowe 1-rand  2-diag
   LASPH  =      F    aspherical Exc in radial PAW
   METAGGA=      F    non-selfconsistent MetaGGA calc.

 Electronic Relaxation 1
   ENCUT  =  600.0 eV  44.10 Ry    6.64 a.u.  26.22 26.22 53.58*2*pi/ulx,y,z
   ENINI  =  600.0     initial cutoff
   ENAUG  =  644.9 eV  augmentation charge cutoff
   NELM   =     60;   NELMIN=  2; NELMDL= -5     # of ELM steps 
   EDIFF  = 0.1E-05   stopping-criterion for ELM
   LREAL  =      T    real-space projection
   NLSPLINE    = F    spline interpolate recip. space projectors
   LCOMPAT=      F    compatible to vasp.4.4
   GGA_COMPAT  = T    GGA compatible to vasp.4.4-vasp.4.6
   LMAXPAW     = -100 max onsite density
   LMAXMIX     =    2 max onsite mixed and CHGCAR
   VOSKOWN=      0    Vosko Wilk Nusair interpolation
   ROPT   =   -0.00025  -0.00025  -0.00025
 Ionic relaxation
   EDIFFG = -.1E-01   stopping-criterion for IOM
   NSW    =      1    number of steps for IOM
   NBLOCK =      1;   KBLOCK =      1    inner block; outer block 
   IBRION =     -1    ionic relax: 0-MD 1-quasi-New 2-CG
   NFREE  =      0    steps in history (QN), initial steepest desc. (CG)
   ISIF   =      2    stress and relaxation
   IWAVPR =     10    prediction:  0-non 1-charg 2-wave 3-comb
   ISYM   =      2    0-nonsym 1-usesym 2-fastsym
   LCORR  =      T    Harris-Foulkes like correction to forces

   POTIM  = 1.0000    time-step for ionic-motion
   TEIN   =    0.0    initial temperature
   TEBEG  =    0.0;   TEEND  =   0.0 temperature during run
   SMASS  =  -3.00    Nose mass-parameter (am)
   estimated Nose-frequenzy (Omega)   =  0.10E-29 period in steps =****** mass=  -0.394E-26a.u.
   SCALEE = 1.0000    scale energy and forces
   NPACO  =    256;   APACO  = 16.0  distance and # of slots for P.C.
   PSTRESS=    0.0 pullay stress

  Mass of Ions in am
   POMASS =  44.96 19.00 12.01
  Ionic Valenz
   ZVAL   =  11.00  7.00  4.00
  Atomic Wigner-Seitz radii
   RWIGS  =  -1.00 -1.00 -1.00
  virtual crystal weights 
   VCA    =   1.00  1.00  1.00
   NELECT =     640.0000    total number of electrons
   NUPDOWN=      -1.0000    fix difference up-down

 DOS related values:
   EMIN   =  10.00;   EMAX   =-10.00  energy-range for DOS
   EFERMI =   0.00
   ISMEAR =     0;   SIGMA  =   0.05  broadening in eV -4-tet -1-fermi 0-gaus

 Electronic relaxation 2 (details)
   IALGO  =     38    algorithm
   LDIAG  =      T    sub-space diagonalisation (order eigenvalues)
   LSUBROT=      F    optimize rotation matrix (better conditioning)
   TURBO    =      0    0=normal 1=particle mesh
   IRESTART =      0    0=no restart 2=restart with 2 vectors
   NREBOOT  =      0    no. of reboots
   NMIN     =      0    reboot dimension
   EREF     =   0.00    reference energy to select bands
   IMIX   =      4    mixing-type and parameters
     AMIX     =   0.40;   BMIX     =  1.00
     AMIX_MAG =   1.60;   BMIX_MAG =  1.00
     AMIN     =   0.10
     WC   =   100.;   INIMIX=   1;  MIXPRE=   1;  MAXMIX= -45

 Intra band minimization:
   WEIMIN = 0.0000     energy-eigenvalue tresh-hold
   EBREAK =  0.65E-09  absolut break condition
   DEPER  =   0.30     relativ break condition  

   TIME   =   0.40     timestep for ELM

  volume/ion in A,a.u.               =      50.06       337.80
  Fermi-wavevector in a.u.,A,eV,Ry     =   0.888414  1.678858 10.738790  0.789279
  Thomas-Fermi vector in A             =   2.009840
 
 Write flags
   LWAVE        =      F    write WAVECAR
   LDOWNSAMPLE  =      F    k-point downsampling of WAVECAR
   LCHARG       =      F    write CHGCAR
   LVTOT        =      F    write LOCPOT, total local potential
   LVHAR        =      F    write LOCPOT, Hartree potential only
   LELF         =      F    write electronic localiz. function (ELF)
   LORBIT       =      0    0 simple, 1 ext, 2 COOP (PROOUT), +10 PAW based schemes


 Dipole corrections
   LMONO  =      F    monopole corrections only (constant potential shift)
   LDIPOL =      F    correct potential (dipole corrections)
   IDIPOL =      0    1-x, 2-y, 3-z, 4-all directions 
   EPSILON=  1.0000000 bulk dielectric constant

 Exchange correlation treatment:
   GGA     =    --    GGA type
   LEXCH   =     8    internal setting for exchange type
   VOSKOWN=      0    Vosko Wilk Nusair interpolation
   LHFCALC =     F    Hartree Fock is set to
   LHFONE  =     F    Hartree Fock one center treatment
   AEXX    =    0.0000 exact exchange contribution

 Linear response parameters
   LEPSILON=     F    determine dielectric tensor
   LRPA    =     F    only Hartree local field effects (RPA)
   LNABLA  =     F    use nabla operator in PAW spheres
   LVEL    =     F    velocity operator in full k-point grid
   LINTERFAST=   F  fast interpolation
   KINTER  =     0    interpolate to denser k-point grid
   CSHIFT  =0.1000    complex shift for real part using Kramers Kronig
   OMEGAMAX=  -1.0    maximum frequency
   DEG_THRESHOLD= 0.2000000E-02 threshold for treating states as degnerate
   RTIME   =   -0.100 relaxation time in fs
  (WPLASMAI=    0.000 imaginary part of plasma frequency in eV, 0.658/RTIME)
   DFIELD  = 0.0000000 0.0000000 0.0000000 field for delta impulse in time
 
 Orbital magnetization related:
   ORBITALMAG=     F  switch on orbital magnetization
   LCHIMAG   =     F  perturbation theory with respect to B field
   DQ        =  0.001000  dq finite difference perturbation B field
   LLRAUG    =     F  two centre corrections for induced B field



--------------------------------------------------------------------------------------------------------


 Static calculation
 charge density and potential will be updated during run
 non-spin polarized calculation
 Variant of blocked Davidson
 Davidson routine will perform the subspace rotation
 perform sub-space diagonalisation
    after iterative eigenvector-optimisation
 modified Broyden-mixing scheme, WC =      100.0
 initial mixing is a Kerker type mixing with AMIX =  0.4000 and BMIX =      1.0000
 Hartree-type preconditioning will be used
 using additional bands           64
 real space projection scheme for non local part
 use partial core corrections
 calculate Harris-corrections to forces 
   (improved forces if not selfconsistent)
 use gradient corrections 
 use of overlap-Matrix (Vanderbilt PP)
 Gauss-broadening in eV      SIGMA  =   0.05


--------------------------------------------------------------------------------------------------------


  energy-cutoff  :      600.00
  volume of cell :     4004.60
      direct lattice vectors                 reciprocal lattice vectors
    13.128623400  0.000000000  0.000000000     0.076169448  0.043976451  0.000000000
    -6.564311700 11.369721380  0.000000000     0.000000000  0.087952903  0.000000000
     0.000000000  0.000000000 26.828094240     0.000000000  0.000000000  0.037274358

  length of vectors
    13.128623400 13.128623399 26.828094240     0.087952903  0.087952903  0.037274358


 
 k-points in units of 2pi/SCALE and weight: read from INCAR                         
   0.00000000  0.00000000  0.00000000       0.111
   0.02538982  0.01465882  0.00000000       0.222
   0.00000000  0.02931763  0.00000000       0.222
   0.02538982  0.04397645  0.00000000       0.222
  -0.02538982  0.01465882  0.00000000       0.222
 
 k-points in reciprocal lattice and weights: read from INCAR                         
   0.00000000  0.00000000  0.00000000       0.111
   0.33333333 -0.00000000  0.00000000       0.222
   0.00000000  0.33333333  0.00000000       0.222
   0.33333333  0.33333333  0.00000000       0.222
  -0.33333333  0.33333333  0.00000000       0.222
 
 position of ions in fractional coordinates (direct lattice) 
   0.07527256  0.15653373  0.45398505
   0.08269855  0.41367568  0.45411529
   0.08106394  0.66538394  0.45397421
   0.08389139  0.91746538  0.45497428
   0.33398313  0.16458317  0.45191328
   0.32140202  0.40864036  0.44982657
   0.33254770  0.67328102  0.45380007
   0.32613428  0.91654880  0.45351053
   0.57334320  0.15549977  0.44857242
   0.57636653  0.41823470  0.44867496
   0.57421445  0.66108825  0.45221818
   0.58681010  0.91391759  0.45054440
   0.83691282  0.17749984  0.44859658
   0.83260624  0.42135518  0.45155487
   0.83973648  0.66241834  0.45515094
   0.83265944  0.91621202  0.45454736
   0.16525098  0.08463723  0.55018214
   0.17095335  0.33047558  0.54722716
   0.17621816  0.59429343  0.54677590
   0.16842602  0.84032076  0.54693805
   0.40920823  0.08065547  0.54909054
   0.41809019  0.33811092  0.54628802
   0.41469339  0.57828146  0.54554039
   0.42732722  0.83917592  0.54777346
   0.66488572  0.08580256  0.54484403
   0.65965517  0.32975797  0.54347453
   0.65737025  0.57717607  0.54797179
   0.67718465  0.82978865  0.54820651
   0.91755521  0.08891134  0.54679093
   0.91664478  0.33002532  0.54517650
   0.91921438  0.58185921  0.54858884
   0.91335082  0.83071280  0.55255020
   0.11209746  0.17850738  0.59452416
   0.09478755  0.42502073  0.58878487
   0.09673393  0.66883702  0.59338239
   0.09412647  0.93213037  0.59102009
   0.33532145  0.16270419  0.58743792
   0.32734802  0.40092612  0.59166523
   0.34430610  0.67097179  0.59581726
   0.35131144  0.92918062  0.58815841
   0.58358515  0.16355722  0.59624006
   0.58596080  0.41589540  0.59421767
   0.58502703  0.66405319  0.58946930
   0.58948420  0.92618027  0.58508183
   0.83485379  0.16573486  0.58604975
   0.83103708  0.41640811  0.58988905
   0.83226237  0.66137646  0.59320227
   0.83334484  0.91727726  0.59077029
   0.17961150  0.09637674  0.41046497
   0.15643687  0.32745916  0.40899487
   0.16892440  0.58379774  0.41295090
   0.17420888  0.84909162  0.40897116
   0.41679965  0.09058638  0.40837107
   0.40145260  0.32173654  0.40763876
   0.41830130  0.57628404  0.40667716
   0.41495343  0.82066899  0.40926624
   0.67062261  0.07198640  0.40785128
   0.66029955  0.33998985  0.40816744
   0.65699522  0.58812361  0.40654456
   0.66691355  0.83148579  0.41600632
   0.92292894  0.08903279  0.41310607
   0.92208167  0.34780917  0.40997665
   0.92330140  0.59391410  0.40707328
   0.90699240  0.82245697  0.41557610
   0.00399839  0.99320368  0.50082077
   0.99654053  0.25027520  0.49924767
   0.99623607  0.50048562  0.50089142
   0.00266769  0.75051508  0.50231899
   0.24735341  0.00434146  0.50292807
   0.24938636  0.24228304  0.50230757
   0.25037669  0.50377826  0.49733350
   0.24197276  0.75448620  0.50209556
   0.49755613  0.99481853  0.49564302
   0.49994851  0.24004142  0.49697196
   0.49441082  0.49567543  0.50147522
   0.50454540  0.75466357  0.50138642
   0.76324801  0.01175848  0.50187196
   0.74673993  0.25261501  0.49673710
   0.74606239  0.49979766  0.49976420
   0.74127271  0.73903357  0.50187833
 
 position of ions in cartesian coordinates  (Angst):
  -0.03931114  1.77974494 12.17955374
  -1.62977799  4.70337724 12.18304792
  -3.30352968  7.56522996 12.17926293
  -4.92115027 10.43132572 12.20609291
   3.30436344  1.87126483 12.12397207
   1.53712340  4.64612707 12.06798951
  -0.05373300  7.65501757 12.17459098
  -1.73481793 10.42090452 12.16682313
   6.50645795  1.76798905 12.03434309
   4.82147624  4.75521197 12.03709409
   3.19905587  7.51638922 12.13215187
   1.70476891 10.39098831 12.08724770
   9.82234899  2.01812369 12.03499127
   8.16506702  4.79069101 12.11435655
   6.67626349  7.53151201 12.21083222
   4.91737091 10.41707544 12.19463930
   1.61393267  0.96230177 14.76033838
   0.07503745  3.75741529 14.68106186
  -1.58762539  6.75695069 14.66895530
  -3.30492559  9.55421294 14.67330566
   4.84289314  0.91703019 14.73105263
   3.26948317  3.84422695 14.65586635
   1.64833355  6.57489904 14.63580899
   0.10160575  9.54119643 14.69571788
   8.16579943  0.97555125 14.61712694
   6.49573019  3.74925625 14.58038581
   4.84160279  6.56233115 14.70103890
   3.44351095  9.43446572 14.70733600
  11.46259508  1.01089715 14.66935852
   9.86789505  3.75229588 14.62604645
   8.24851428  6.61557705 14.71759298
   6.53798114  9.44497312 14.82386879
   0.29990722  2.02957914 15.94995032
  -1.54553849  4.83236724 15.79597596
  -3.12047130  7.60449057 15.91931875
  -4.88304328 10.59806258 15.85594256
   3.33426797  1.84990132 15.75983976
   1.66582483  4.55841825 15.87325066
   0.11579709  7.62876236 15.98464151
  -1.48719565 10.56452478 15.77916913
   6.58802909  1.85959997 15.99598451
   4.96279164  4.72861481 15.94172764
   3.32154741  7.55009972 15.81433781
   1.65938008 10.53041165 15.69663051
   9.87254572  1.88435917 15.72259797
   8.17694021  4.73444419 15.82559893
   6.58497796  7.51966613 15.91448652
   4.91937672 10.42918684 15.84924112
   1.72540482  1.09577670 11.01199286
  -0.09574330  3.72311943 10.97255299
  -1.61448551  6.63761766 11.07868559
  -3.28657925  9.65393516 10.97191679
   4.87736849  1.02994186 10.95581765
   3.15854101  3.65805480 10.93617118
   1.70881217  6.55218895 10.91037306
   0.06064026  9.33077775 10.97983317
   8.33181054  0.81846534 10.94187259
   6.43702476  3.86558990 10.95035445
   4.76481607  6.68680159 10.90681583
   3.29752491  9.45376172 11.16065676
  11.53234747  1.01227801 11.08284852
   9.82253511  3.95449341 10.99889230
   8.22303915  6.75263780 10.92100030
   6.50869776  9.35110658 11.14911471
  -6.46720516 11.29244907 13.43606692
  11.44032088  2.84555930 13.39386341
   9.79386461  5.69038203 13.43796228
  -4.89159187  8.53314739 13.47626107
   3.21891101  0.04936124 13.49260169
   1.68367823  2.75469066 13.47595480
  -0.01985621  5.72781841 13.34250989
  -1.77591329  8.57829788 13.47026687
   0.00192813 11.31080950 13.29715761
   4.98792892  2.72920412 13.33281053
   3.23716545  5.63569157 13.45362434
   1.67013966  8.58031454 13.45124212
   9.94320932  0.13369065 13.46426820
   8.14542369  2.87216227 13.32650977
   6.51394446  5.68256016 13.40772105
   4.88064350  8.40260575 13.46443926
 


--------------------------------------------------------------------------------------------------------


 k-point  1 :   0.0000 0.0000 0.0000  plane waves:  133769
 k-point  2 :   0.3333-0.0000 0.0000  plane waves:  133588
 k-point  3 :   0.0000 0.3333 0.0000  plane waves:  133588
 k-point  4 :   0.3333 0.3333 0.0000  plane waves:  133608
 k-point  5 :  -0.3333 0.3333 0.0000  plane waves:  133588

 maximum and minimum number of plane-waves per node :     10323    10242

 maximum number of plane-waves:    133769
 maximum index in each direction: 
   IXMAX=   26   IYMAX=   26   IZMAX=   53
   IXMIN=  -26   IYMIN=  -26   IZMIN=  -53


 real space projection operators:
  total allocation   :      55717.45 KBytes
  max/ min on nodes  :       4730.20       4041.97


 parallel 3D FFT for wavefunctions:
    minimum data exchange during FFTs selected (reduces bandwidth)
 parallel 3D FFT for charge:
    minimum data exchange during FFTs selected (reduces bandwidth)


 total amount of memory used by VASP MPI-rank0   234715. kBytes
=======================================================================

   base      :      30000. kBytes
   nonlr-proj:      19447. kBytes
   fftplans  :      66973. kBytes
   grid      :      38377. kBytes
   one-center:        108. kBytes
   wavefun   :      79810. kBytes
 
     INWAV:  cpu time    0.0000: real time    0.0000
 Broyden mixing: mesh for mixing (old mesh)
   NGX = 53   NGY = 53   NGZ =107
  (NGX  =216   NGY  =216   NGZ  =432)
  gives a total of 300563 points

 initial charge density was supplied:
 charge density of overlapping atoms calculated
 number of electron     640.0000000 magnetization 
 keeping initial charge density in first step


--------------------------------------------------------------------------------------------------------


 Maximum index for non-local projection operator         1104
 Maximum index for augmentation-charges         5601 (set IRDMAX)


--------------------------------------------------------------------------------------------------------


 First call to EWALD:  gamma=   0.112
 Maximum number of real-space cells 4x 4x 2
 Maximum number of reciprocal cells 2x 2x 4

    FEWALD:  cpu time    0.0117: real time    0.0134


--------------------------------------- Iteration      1(   1)  ---------------------------------------


    POTLOK:  cpu time    0.4746: real time    0.4806
    SETDIJ:  cpu time    0.4175: real time    0.4261
     EDDAV:  cpu time   46.4872: real time   46.4963
       DOS:  cpu time    0.0013: real time    0.0013
    --------------------------------------------
      LOOP:  cpu time   47.3806: real time   47.4043

 eigenvalue-minimisations  :  4240
 total energy-change (2. order) : 0.1365990E+05  (-0.2788029E+05)
 number of electron     640.0000000 magnetization 
 augmentation part      640.0000000 magnetization 

 Free energy of the ion-electron system (eV)
  ---------------------------------------------------
  alpha Z        PSCENC =       871.83850952
  Ewald energy   TEWEN  =    287031.89467457
  -Hartree energ DENC   =   -341376.55308529
  -exchange      EXHF   =         0.00000000
  -V(xc)+E(xc)   XCENC  =      3043.33781822
  PAW double counting   =     50525.51240023   -50422.77561733
  entropy T*S    EENTRO =        -0.06380046
  eigenvalues    EBANDS =      -220.72268590
  atomic energy  EATOM  =     64207.43592568
  Solvation  Ediel_sol  =         0.00000000
  ---------------------------------------------------
  free energy    TOTEN  =     13659.90413924 eV

  energy without entropy =    13659.96793970  energy(sigma->0) =    13659.93603947


--------------------------------------------------------------------------------------------------------




--------------------------------------- Iteration      1(   2)  ---------------------------------------


     EDDAV:  cpu time   49.5030: real time   49.5210
       DOS:  cpu time    0.0013: real time    0.0013
    --------------------------------------------
      LOOP:  cpu time   49.5043: real time   49.5223

 eigenvalue-minimisations  :  4632
 total energy-change (2. order) :-0.1115872E+05  (-0.1085519E+05)
 number of electron     640.0000000 magnetization 
 augmentation part      640.0000000 magnetization 

 Free energy of the ion-electron system (eV)
  ---------------------------------------------------
  alpha Z        PSCENC =       871.83850952
  Ewald energy   TEWEN  =    287031.89467457
  -Hartree energ DENC   =   -341376.55308529
  -exchange      EXHF   =         0.00000000
  -V(xc)+E(xc)   XCENC  =      3043.33781822
  PAW double counting   =     50525.51240023   -50422.77561733
  entropy T*S    EENTRO =        -0.04827000
  eigenvalues    EBANDS =    -11379.45948816
  atomic energy  EATOM  =     64207.43592568
  Solvation  Ediel_sol  =         0.00000000
  ---------------------------------------------------
  free energy    TOTEN  =      2501.18286744 eV

  energy without entropy =     2501.23113745  energy(sigma->0) =     2501.20700244


--------------------------------------------------------------------------------------------------------




--------------------------------------- Iteration      1(   3)  ---------------------------------------


     EDDAV:  cpu time   67.6193: real time   67.6238
       DOS:  cpu time    0.0005: real time    0.0005
    --------------------------------------------
      LOOP:  cpu time   67.6198: real time   67.6243

 eigenvalue-minimisations  :  6784
 total energy-change (2. order) :-0.2880871E+04  (-0.2765784E+04)
 number of electron     640.0000000 magnetization 
 augmentation part      640.0000000 magnetization 

 Free energy of the ion-electron system (eV)
  ---------------------------------------------------
  alpha Z        PSCENC =       871.83850952
  Ewald energy   TEWEN  =    287031.89467457
  -Hartree energ DENC   =   -341376.55308529
  -exchange      EXHF   =         0.00000000
  -V(xc)+E(xc)   XCENC  =      3043.33781822
  PAW double counting   =     50525.51240023   -50422.77561733
  entropy T*S    EENTRO =        -0.00000000
  eigenvalues    EBANDS =    -14260.37884386
  atomic energy  EATOM  =     64207.43592568
  Solvation  Ediel_sol  =         0.00000000
  ---------------------------------------------------
  free energy    TOTEN  =      -379.68821825 eV

  energy without entropy =     -379.68821825  energy(sigma->0) =     -379.68821825


--------------------------------------------------------------------------------------------------------




--------------------------------------- Iteration      1(   4)  ---------------------------------------


     EDDAV:  cpu time   61.4326: real time   61.4431
       DOS:  cpu time    0.0005: real time    0.0005
    --------------------------------------------
      LOOP:  cpu time   61.4331: real time   61.4436

 eigenvalue-minimisations  :  6056
 total energy-change (2. order) :-0.3606735E+03  (-0.3564917E+03)
 number of electron     640.0000000 magnetization 
 augmentation part      640.0000000 magnetization 

 Free energy of the ion-electron system (eV)
  ---------------------------------------------------
  alpha Z        PSCENC =       871.83850952
  Ewald energy   TEWEN  =    287031.89467457
  -Hartree energ DENC   =   -341376.55308529
  -exchange      EXHF   =         0.00000000
  -V(xc)+E(xc)   XCENC  =      3043.33781822
  PAW double counting   =     50525.51240023   -50422.77561733
  entropy T*S    EENTRO =        -0.00000000
  eigenvalues    EBANDS =    -14621.05230162
  atomic energy  EATOM  =     64207.43592568
  Solvation  Ediel_sol  =         0.00000000
  ---------------------------------------------------
  free energy    TOTEN  =      -740.36167602 eV

  energy without entropy =     -740.36167602  energy(sigma->0) =     -740.36167602


--------------------------------------------------------------------------------------------------------




--------------------------------------- Iteration      1(   5)  ---------------------------------------


     EDDAV:  cpu time   61.8046: real time   61.8180
       DOS:  cpu time    0.0005: real time    0.0005
    CHARGE:  cpu time    3.6457: real time    3.6457
    MIXING:  cpu time    0.0209: real time    0.0212
    --------------------------------------------
      LOOP:  cpu time   65.4718: real time   65.4854

 eigenvalue-minimisations  :  6080
 total energy-change (2. order) :-0.1447742E+02  (-0.1441806E+02)
 number of electron     640.0000007 magnetization 
 augmentation part      134.5332262 magnetization 

 Broyden mixing:
  rms(total) = 0.76463E+01    rms(broyden)= 0.76460E+01
  rms(prec ) = 0.80525E+01
  weight for this iteration     100.00

 Free energy of the ion-electron system (eV)
  ---------------------------------------------------
  alpha Z        PSCENC =       871.83850952
  Ewald energy   TEWEN  =    287031.89467457
  -Hartree energ DENC   =   -341376.55308529
  -exchange      EXHF   =         0.00000000
  -V(xc)+E(xc)   XCENC  =      3043.33781822
  PAW double counting   =     50525.51240023   -50422.77561733
  entropy T*S    EENTRO =        -0.00000000
  eigenvalues    EBANDS =    -14635.52972243
  atomic energy  EATOM  =     64207.43592568
  Solvation  Ediel_sol  =         0.00000000
  ---------------------------------------------------
  free energy    TOTEN  =      -754.83909682 eV

  energy without entropy =     -754.83909682  energy(sigma->0) =     -754.83909682


--------------------------------------------------------------------------------------------------------




--------------------------------------- Iteration      1(   6)  ---------------------------------------


    POTLOK:  cpu time    0.3649: real time    0.3770
    SETDIJ:  cpu time    0.4192: real time    0.4191
     EDDAV:  cpu time   58.2706: real time   58.2727
       DOS:  cpu time    0.0005: real time    0.0005
    CHARGE:  cpu time    3.6420: real time    3.6420
    MIXING:  cpu time    0.0269: real time    0.0270
    --------------------------------------------
      LOOP:  cpu time   62.7241: real time   62.7383

 eigenvalue-minimisations  :  5680
 total energy-change (2. order) : 0.1556991E+03  (-0.8391229E+02)
 number of electron     640.0000007 magnetization 
 augmentation part      140.5371247 magnetization 

 Broyden mixing:
  rms(total) = 0.25004E+01    rms(broyden)= 0.24997E+01
  rms(prec ) = 0.25521E+01
  weight for this iteration     100.00

 eigenvalues of (default mixing * dielectric matrix)
  average eigenvalue GAMMA=   0.9784
  0.9784

 Free energy of the ion-electron system (eV)
  ---------------------------------------------------
  alpha Z        PSCENC =       871.83850952
  Ewald energy   TEWEN  =    287031.89467457
  -Hartree energ DENC   =   -341551.21691592
  -exchange      EXHF   =         0.00000000
  -V(xc)+E(xc)   XCENC  =      3055.63876693
  PAW double counting   =     56371.74994886   -56338.29842520
  entropy T*S    EENTRO =        -0.00000000
  eigenvalues    EBANDS =    -14248.18248326
  atomic energy  EATOM  =     64207.43592568
  Solvation  Ediel_sol  =         0.00000000
  ---------------------------------------------------
  free energy    TOTEN  =      -599.13999883 eV

  energy without entropy =     -599.13999883  energy(sigma->0) =     -599.13999883


--------------------------------------------------------------------------------------------------------




--------------------------------------- Iteration      1(   7)  ---------------------------------------


    POTLOK:  cpu time    0.3663: real time    0.3763
    SETDIJ:  cpu time    0.4178: real time    0.4177
     EDDAV:  cpu time   60.2981: real time   60.2998
       DOS:  cpu time    0.0005: real time    0.0005
    CHARGE:  cpu time    3.6299: real time    3.6299
    MIXING:  cpu time    0.0261: real time    0.0261
    --------------------------------------------
      LOOP:  cpu time   64.7387: real time   64.7504

 eigenvalue-minimisations  :  5920
 total energy-change (2. order) :-0.1622414E-01  (-0.5323410E+01)
 number of electron     640.0000007 magnetization 
 augmentation part      141.0519201 magnetization 

 Broyden mixing:
  rms(total) = 0.16310E+01    rms(broyden)= 0.16310E+01
  rms(prec ) = 0.16607E+01
  weight for this iteration     100.00

 eigenvalues of (default mixing * dielectric matrix)
  average eigenvalue GAMMA=   1.6701
  0.9625  2.3778

 Free energy of the ion-electron system (eV)
  ---------------------------------------------------
  alpha Z        PSCENC =       871.83850952
  Ewald energy   TEWEN  =    287031.89467457
  -Hartree energ DENC   =   -341697.12095237
  -exchange      EXHF   =         0.00000000
  -V(xc)+E(xc)   XCENC  =      3052.75204842
  PAW double counting   =     60086.07667692   -60059.65654336
  entropy T*S    EENTRO =        -0.00000000
  eigenvalues    EBANDS =    -14092.37656236
  atomic energy  EATOM  =     64207.43592568
  Solvation  Ediel_sol  =         0.00000000
  ---------------------------------------------------
  free energy    TOTEN  =      -599.15622297 eV

  energy without entropy =     -599.15622297  energy(sigma->0) =     -599.15622297


--------------------------------------------------------------------------------------------------------




--------------------------------------- Iteration      1(   8)  ---------------------------------------


    POTLOK:  cpu time    0.3941: real time    0.5030
    SETDIJ:  cpu time    0.4178: real time    0.4178
     EDDAV:  cpu time   57.2045: real time   57.2043
       DOS:  cpu time    0.0005: real time    0.0005
    CHARGE:  cpu time    3.5983: real time    3.5983
    MIXING:  cpu time    0.0257: real time    0.0257
    --------------------------------------------
      LOOP:  cpu time   61.6409: real time   61.7495

 eigenvalue-minimisations  :  5552
 total energy-change (2. order) : 0.1609592E+01  (-0.1041400E+01)
 number of electron     640.0000007 magnetization 
 augmentation part      141.1136671 magnetization 

 Broyden mixing:
  rms(total) = 0.44287E+00    rms(broyden)= 0.44277E+00
  rms(prec ) = 0.47815E+00
  weight for this iteration     100.00

 eigenvalues of (default mixing * dielectric matrix)
  average eigenvalue GAMMA=   1.4281
  2.4675  0.9084  0.9084

 Free energy of the ion-electron system (eV)
  ---------------------------------------------------
  alpha Z        PSCENC =       871.83850952
  Ewald energy   TEWEN  =    287031.89467457
  -Hartree energ DENC   =   -341968.07994974
  -exchange      EXHF   =         0.00000000
  -V(xc)+E(xc)   XCENC  =      3049.03946621
  PAW double counting   =     66605.36094761   -66596.63437581
  entropy T*S    EENTRO =        -0.00000000
  eigenvalues    EBANDS =    -13798.40182914
  atomic energy  EATOM  =     64207.43592568
  Solvation  Ediel_sol  =         0.00000000
  ---------------------------------------------------
  free energy    TOTEN  =      -597.54663110 eV

  energy without entropy =     -597.54663110  energy(sigma->0) =     -597.54663110


--------------------------------------------------------------------------------------------------------




--------------------------------------- Iteration      1(   9)  ---------------------------------------


    POTLOK:  cpu time    0.3629: real time    0.3735
    SETDIJ:  cpu time    0.4176: real time    0.4176
     EDDAV:  cpu time   57.6934: real time   57.6933
       DOS:  cpu time    0.0005: real time    0.0005
    CHARGE:  cpu time    3.6137: real time    3.6137
    MIXING:  cpu time    0.0288: real time    0.0288
    --------------------------------------------
      LOOP:  cpu time   62.1168: real time   62.1274

 eigenvalue-minimisations  :  5608
 total energy-change (2. order) : 0.5204932E+00  (-0.2873301E+00)
 number of electron     640.0000007 magnetization 
 augmentation part      141.5266086 magnetization 

 Broyden mixing:
  rms(total) = 0.21556E+00    rms(broyden)= 0.21556E+00
  rms(prec ) = 0.23368E+00
  weight for this iteration     100.00

 eigenvalues of (default mixing * dielectric matrix)
  average eigenvalue GAMMA=   1.2573
  2.1113  1.1412  0.8884  0.8884

 Free energy of the ion-electron system (eV)
  ---------------------------------------------------
  alpha Z        PSCENC =       871.83850952
  Ewald energy   TEWEN  =    287031.89467457
  -Hartree energ DENC   =   -342072.14992628
  -exchange      EXHF   =         0.00000000
  -V(xc)+E(xc)   XCENC  =      3051.10594930
  PAW double counting   =     66878.60174501   -66872.68550021
  entropy T*S    EENTRO =        -0.00000000
  eigenvalues    EBANDS =    -13693.06751553
  atomic energy  EATOM  =     64207.43592568
  Solvation  Ediel_sol  =         0.00000000
  ---------------------------------------------------
  free energy    TOTEN  =      -597.02613794 eV

  energy without entropy =     -597.02613794  energy(sigma->0) =     -597.02613794


--------------------------------------------------------------------------------------------------------




--------------------------------------- Iteration      1(  10)  ---------------------------------------


    POTLOK:  cpu time    0.3952: real time    0.4098
    SETDIJ:  cpu time    0.4375: real time    0.4375
     EDDAV:  cpu time   59.2373: real time   59.2375
       DOS:  cpu time    0.0005: real time    0.0005
    CHARGE:  cpu time    3.6043: real time    3.6043
    MIXING:  cpu time    0.0265: real time    0.0265
    --------------------------------------------
      LOOP:  cpu time   63.7013: real time   63.7161

 eigenvalue-minimisations  :  5784
 total energy-change (2. order) : 0.3765429E-01  (-0.2359055E-01)
 number of electron     640.0000007 magnetization 
 augmentation part      141.3459823 magnetization 

 Broyden mixing:
  rms(total) = 0.11142E+00    rms(broyden)= 0.11142E+00
  rms(prec ) = 0.13715E+00
  weight for this iteration     100.00

 eigenvalues of (default mixing * dielectric matrix)
  average eigenvalue GAMMA=   1.4513
  2.3774  2.3774  0.8978  0.8978  0.7061

 Free energy of the ion-electron system (eV)
  ---------------------------------------------------
  alpha Z        PSCENC =       871.83850952
  Ewald energy   TEWEN  =    287031.89467457
  -Hartree energ DENC   =   -342134.65962958
  -exchange      EXHF   =         0.00000000
  -V(xc)+E(xc)   XCENC  =      3052.42313677
  PAW double counting   =     66271.65530710   -66264.49418299
  entropy T*S    EENTRO =        -0.00000000
  eigenvalues    EBANDS =    -13633.08222473
  atomic energy  EATOM  =     64207.43592568
  Solvation  Ediel_sol  =         0.00000000
  ---------------------------------------------------
  free energy    TOTEN  =      -596.98848366 eV

  energy without entropy =     -596.98848366  energy(sigma->0) =     -596.98848366


--------------------------------------------------------------------------------------------------------




--------------------------------------- Iteration      1(  11)  ---------------------------------------


    POTLOK:  cpu time    0.4090: real time    0.4191
    SETDIJ:  cpu time    0.4168: real time    0.4190
     EDDAV:  cpu time   57.0316: real time   57.0317
       DOS:  cpu time    0.0005: real time    0.0005
    CHARGE:  cpu time    3.6368: real time    3.6368
    MIXING:  cpu time    0.0248: real time    0.0248
    --------------------------------------------
      LOOP:  cpu time   61.5194: real time   61.5319

 eigenvalue-minimisations  :  5528
 total energy-change (2. order) : 0.1304341E+00  (-0.1693347E-01)
 number of electron     640.0000007 magnetization 
 augmentation part      141.2329383 magnetization 

 Broyden mixing:
  rms(total) = 0.77158E-01    rms(broyden)= 0.77155E-01
  rms(prec ) = 0.91511E-01
  weight for this iteration     100.00

 eigenvalues of (default mixing * dielectric matrix)
  average eigenvalue GAMMA=   1.3856
  2.5482  2.2560  0.9079  0.9079  0.9663  0.7273

 Free energy of the ion-electron system (eV)
  ---------------------------------------------------
  alpha Z        PSCENC =       871.83850952
  Ewald energy   TEWEN  =    287031.89467457
  -Hartree energ DENC   =   -342309.18193593
  -exchange      EXHF   =         0.00000000
  -V(xc)+E(xc)   XCENC  =      3054.12771417
  PAW double counting   =     66195.90805971   -66188.83877969
  entropy T*S    EENTRO =        -0.00000000
  eigenvalues    EBANDS =    -13460.04221764
  atomic energy  EATOM  =     64207.43592568
  Solvation  Ediel_sol  =         0.00000000
  ---------------------------------------------------
  free energy    TOTEN  =      -596.85804960 eV

  energy without entropy =     -596.85804960  energy(sigma->0) =     -596.85804960


--------------------------------------------------------------------------------------------------------




--------------------------------------- Iteration      1(  12)  ---------------------------------------


    POTLOK:  cpu time    0.4072: real time    0.4287
    SETDIJ:  cpu time    0.4348: real time    0.4369
     EDDAV:  cpu time   59.9187: real time   59.9188
       DOS:  cpu time    0.0005: real time    0.0005
    CHARGE:  cpu time    3.5692: real time    3.5692
    MIXING:  cpu time    0.0269: real time    0.0269
    --------------------------------------------
      LOOP:  cpu time   64.3573: real time   64.3810

 eigenvalue-minimisations  :  5848
 total energy-change (2. order) : 0.2579643E-01  (-0.4998162E-02)
 number of electron     640.0000007 magnetization 
 augmentation part      141.3123587 magnetization 

 Broyden mixing:
  rms(total) = 0.32781E-01    rms(broyden)= 0.32779E-01
  rms(prec ) = 0.49983E-01
  weight for this iteration     100.00

 eigenvalues of (default mixing * dielectric matrix)
  average eigenvalue GAMMA=   1.4226
  2.5933  2.5933  1.1324  1.1324  0.9093  0.9093  0.6878

 Free energy of the ion-electron system (eV)
  ---------------------------------------------------
  alpha Z        PSCENC =       871.83850952
  Ewald energy   TEWEN  =    287031.89467457
  -Hartree energ DENC   =   -342361.49003117
  -exchange      EXHF   =         0.00000000
  -V(xc)+E(xc)   XCENC  =      3054.14853533
  PAW double counting   =     66360.31158270   -66353.63486849
  entropy T*S    EENTRO =        -0.00000000
  eigenvalues    EBANDS =    -13407.33658130
  atomic energy  EATOM  =     64207.43592568
  Solvation  Ediel_sol  =         0.00000000
  ---------------------------------------------------
  free energy    TOTEN  =      -596.83225317 eV

  energy without entropy =     -596.83225317  energy(sigma->0) =     -596.83225317


--------------------------------------------------------------------------------------------------------




--------------------------------------- Iteration      1(  13)  ---------------------------------------


    POTLOK:  cpu time    0.3618: real time    0.3718
    SETDIJ:  cpu time    0.4177: real time    0.4177
     EDDAV:  cpu time   57.9470: real time   57.9487
       DOS:  cpu time    0.0005: real time    0.0005
    CHARGE:  cpu time    3.5896: real time    3.5896
    MIXING:  cpu time    0.0261: real time    0.0261
    --------------------------------------------
      LOOP:  cpu time   62.3427: real time   62.3544

 eigenvalue-minimisations  :  5640
 total energy-change (2. order) : 0.9096839E-02  (-0.3654556E-02)
 number of electron     640.0000007 magnetization 
 augmentation part      141.2519113 magnetization 

 Broyden mixing:
  rms(total) = 0.31473E-01    rms(broyden)= 0.31471E-01
  rms(prec ) = 0.41923E-01
  weight for this iteration     100.00

 eigenvalues of (default mixing * dielectric matrix)
  average eigenvalue GAMMA=   1.4222
  2.9374  2.3553  1.7235  1.0077  1.0077  0.8345  0.8345  0.6769

 Free energy of the ion-electron system (eV)
  ---------------------------------------------------
  alpha Z        PSCENC =       871.83850952
  Ewald energy   TEWEN  =    287031.89467457
  -Hartree energ DENC   =   -342431.84120939
  -exchange      EXHF   =         0.00000000
  -V(xc)+E(xc)   XCENC  =      3054.35452820
  PAW double counting   =     66299.48458824   -66292.47727071
  entropy T*S    EENTRO =        -0.00000000
  eigenvalues    EBANDS =    -13337.51290245
  atomic energy  EATOM  =     64207.43592568
  Solvation  Ediel_sol  =         0.00000000
  ---------------------------------------------------
  free energy    TOTEN  =      -596.82315633 eV

  energy without entropy =     -596.82315633  energy(sigma->0) =     -596.82315633


--------------------------------------------------------------------------------------------------------




--------------------------------------- Iteration      1(  14)  ---------------------------------------


    POTLOK:  cpu time    0.3903: real time    0.3995
    SETDIJ:  cpu time    0.4174: real time    0.4174
     EDDAV:  cpu time   57.5463: real time   57.5487
       DOS:  cpu time    0.0005: real time    0.0005
    CHARGE:  cpu time    3.6084: real time    3.6084
    MIXING:  cpu time    0.0271: real time    0.0271
    --------------------------------------------
      LOOP:  cpu time   61.9900: real time   62.0015

 eigenvalue-minimisations  :  5592
 total energy-change (2. order) : 0.1410861E-02  (-0.1860083E-02)
 number of electron     640.0000007 magnetization 
 augmentation part      141.3039231 magnetization 

 Broyden mixing:
  rms(total) = 0.17513E-01    rms(broyden)= 0.17513E-01
  rms(prec ) = 0.24770E-01
  weight for this iteration     100.00

 eigenvalues of (default mixing * dielectric matrix)
  average eigenvalue GAMMA=   1.5029
  3.0712  3.0712  1.5428  1.5428  0.9792  0.9792  0.8328  0.8328  0.6741

 Free energy of the ion-electron system (eV)
  ---------------------------------------------------
  alpha Z        PSCENC =       871.83850952
  Ewald energy   TEWEN  =    287031.89467457
  -Hartree energ DENC   =   -342486.43142895
  -exchange      EXHF   =         0.00000000
  -V(xc)+E(xc)   XCENC  =      3054.40322920
  PAW double counting   =     66345.49370581   -66338.69941139
  entropy T*S    EENTRO =        -0.00000000
  eigenvalues    EBANDS =    -13282.75694991
  atomic energy  EATOM  =     64207.43592568
  Solvation  Ediel_sol  =         0.00000000
  ---------------------------------------------------
  free energy    TOTEN  =      -596.82174547 eV

  energy without entropy =     -596.82174547  energy(sigma->0) =     -596.82174547


--------------------------------------------------------------------------------------------------------




--------------------------------------- Iteration      1(  15)  ---------------------------------------


    POTLOK:  cpu time    0.3654: real time    0.3759
    SETDIJ:  cpu time    0.4172: real time    0.4172
     EDDAV:  cpu time   58.1368: real time   58.1385
       DOS:  cpu time    0.0005: real time    0.0005
    CHARGE:  cpu time    3.6356: real time    3.6356
    MIXING:  cpu time    0.0276: real time    0.0276
    --------------------------------------------
      LOOP:  cpu time   62.5831: real time   62.5953

 eigenvalue-minimisations  :  5656
 total energy-change (2. order) :-0.5758030E-02  (-0.6273990E-03)
 number of electron     640.0000007 magnetization 
 augmentation part      141.2906651 magnetization 

 Broyden mixing:
  rms(total) = 0.91124E-02    rms(broyden)= 0.91108E-02
  rms(prec ) = 0.13900E-01
  weight for this iteration     100.00

 eigenvalues of (default mixing * dielectric matrix)
  average eigenvalue GAMMA=   1.5410
  4.2632  2.6762  2.0849  1.1064  1.1064  0.9218  0.9218  0.8343  0.8343  0.6610

 Free energy of the ion-electron system (eV)
  ---------------------------------------------------
  alpha Z        PSCENC =       871.83850952
  Ewald energy   TEWEN  =    287031.89467457
  -Hartree energ DENC   =   -342536.13516993
  -exchange      EXHF   =         0.00000000
  -V(xc)+E(xc)   XCENC  =      3054.55663428
  PAW double counting   =     66284.22050183   -66277.30295237
  entropy T*S    EENTRO =        -0.00000000
  eigenvalues    EBANDS =    -13233.33562708
  atomic energy  EATOM  =     64207.43592568
  Solvation  Ediel_sol  =         0.00000000
  ---------------------------------------------------
  free energy    TOTEN  =      -596.82750350 eV

  energy without entropy =     -596.82750350  energy(sigma->0) =     -596.82750350


--------------------------------------------------------------------------------------------------------




--------------------------------------- Iteration      1(  16)  ---------------------------------------


    POTLOK:  cpu time    0.3808: real time    0.3911
    SETDIJ:  cpu time    0.4176: real time    0.4176
     EDDAV:  cpu time   55.1239: real time   55.1236
       DOS:  cpu time    0.0005: real time    0.0005
    CHARGE:  cpu time    3.6482: real time    3.6482
    MIXING:  cpu time    0.0275: real time    0.0275
    --------------------------------------------
      LOOP:  cpu time   59.5985: real time   59.6085

 eigenvalue-minimisations  :  5296
 total energy-change (2. order) :-0.4087886E-02  (-0.1889947E-03)
 number of electron     640.0000007 magnetization 
 augmentation part      141.2949953 magnetization 

 Broyden mixing:
  rms(total) = 0.76763E-02    rms(broyden)= 0.76760E-02
  rms(prec ) = 0.10328E-01
  weight for this iteration     100.00

 eigenvalues of (default mixing * dielectric matrix)
  average eigenvalue GAMMA=   1.5701
  4.6785  2.6803  2.2701  1.2911  1.2911  0.9885  0.9885  0.8616  0.8616  0.7122
  0.6472

 Free energy of the ion-electron system (eV)
  ---------------------------------------------------
  alpha Z        PSCENC =       871.83850952
  Ewald energy   TEWEN  =    287031.89467457
  -Hartree energ DENC   =   -342564.05348557
  -exchange      EXHF   =         0.00000000
  -V(xc)+E(xc)   XCENC  =      3054.60507662
  PAW double counting   =     66303.31262301   -66296.49541654
  entropy T*S    EENTRO =        -0.00000000
  eigenvalues    EBANDS =    -13205.36949868
  atomic energy  EATOM  =     64207.43592568
  Solvation  Ediel_sol  =         0.00000000
  ---------------------------------------------------
  free energy    TOTEN  =      -596.83159138 eV

  energy without entropy =     -596.83159138  energy(sigma->0) =     -596.83159138


--------------------------------------------------------------------------------------------------------




--------------------------------------- Iteration      1(  17)  ---------------------------------------


    POTLOK:  cpu time    0.3651: real time    0.3682
    SETDIJ:  cpu time    0.4180: real time    0.4180
     EDDAV:  cpu time   59.1476: real time   59.1472
       DOS:  cpu time    0.0005: real time    0.0005
    CHARGE:  cpu time    3.6680: real time    3.6679
    MIXING:  cpu time    0.0259: real time    0.0259
    --------------------------------------------
      LOOP:  cpu time   63.6250: real time   63.6277

 eigenvalue-minimisations  :  5776
 total energy-change (2. order) :-0.5007714E-02  (-0.1399597E-03)
 number of electron     640.0000007 magnetization 
 augmentation part      141.2949680 magnetization 

 Broyden mixing:
  rms(total) = 0.70473E-02    rms(broyden)= 0.70462E-02
  rms(prec ) = 0.85407E-02
  weight for this iteration     100.00

 eigenvalues of (default mixing * dielectric matrix)
  average eigenvalue GAMMA=   1.6551
  5.6869  2.9390  2.1048  2.1048  1.0275  1.0275  0.9903  0.9903  0.8421  0.8421
  0.6923  0.6135

 Free energy of the ion-electron system (eV)
  ---------------------------------------------------
  alpha Z        PSCENC =       871.83850952
  Ewald energy   TEWEN  =    287031.89467457
  -Hartree energ DENC   =   -342580.52192511
  -exchange      EXHF   =         0.00000000
  -V(xc)+E(xc)   XCENC  =      3054.63673365
  PAW double counting   =     66305.64198823   -66298.87097701
  entropy T*S    EENTRO =        -0.00000000
  eigenvalues    EBANDS =    -13188.89152863
  atomic energy  EATOM  =     64207.43592568
  Solvation  Ediel_sol  =         0.00000000
  ---------------------------------------------------
  free energy    TOTEN  =      -596.83659910 eV

  energy without entropy =     -596.83659910  energy(sigma->0) =     -596.83659910


--------------------------------------------------------------------------------------------------------




--------------------------------------- Iteration      1(  18)  ---------------------------------------


    POTLOK:  cpu time    0.3641: real time    0.3738
    SETDIJ:  cpu time    0.4211: real time    0.4211
     EDDAV:  cpu time   55.5818: real time   55.5832
       DOS:  cpu time    0.0005: real time    0.0005
    CHARGE:  cpu time    3.6499: real time    3.6499
    MIXING:  cpu time    0.0285: real time    0.0285
    --------------------------------------------
      LOOP:  cpu time   60.0459: real time   60.0570

 eigenvalue-minimisations  :  5352
 total energy-change (2. order) :-0.3179409E-02  (-0.6954613E-04)
 number of electron     640.0000007 magnetization 
 augmentation part      141.2849972 magnetization 

 Broyden mixing:
  rms(total) = 0.40668E-02    rms(broyden)= 0.40665E-02
  rms(prec ) = 0.50237E-02
  weight for this iteration     100.00

 eigenvalues of (default mixing * dielectric matrix)
  average eigenvalue GAMMA=   1.6480
  6.2675  2.8480  2.5394  1.8549  0.9993  0.9993  0.9665  0.9665  0.9137  0.9137
  0.7465  0.7465  0.6621

 Free energy of the ion-electron system (eV)
  ---------------------------------------------------
  alpha Z        PSCENC =       871.83850952
  Ewald energy   TEWEN  =    287031.89467457
  -Hartree energ DENC   =   -342593.33673098
  -exchange      EXHF   =         0.00000000
  -V(xc)+E(xc)   XCENC  =      3054.67473021
  PAW double counting   =     66292.70622496   -66285.90855428
  entropy T*S    EENTRO =        -0.00000000
  eigenvalues    EBANDS =    -13176.14455820
  atomic energy  EATOM  =     64207.43592568
  Solvation  Ediel_sol  =         0.00000000
  ---------------------------------------------------
  free energy    TOTEN  =      -596.83977851 eV

  energy without entropy =     -596.83977851  energy(sigma->0) =     -596.83977851


--------------------------------------------------------------------------------------------------------




--------------------------------------- Iteration      1(  19)  ---------------------------------------


    POTLOK:  cpu time    0.3876: real time    0.3967
    SETDIJ:  cpu time    0.4187: real time    0.4237
     EDDAV:  cpu time   58.9307: real time   58.9395
       DOS:  cpu time    0.0005: real time    0.0005
    CHARGE:  cpu time    3.6203: real time    3.6203
    MIXING:  cpu time    0.0260: real time    0.0260
    --------------------------------------------
      LOOP:  cpu time   63.3838: real time   63.4066

 eigenvalue-minimisations  :  5728
 total energy-change (2. order) :-0.1593422E-02  (-0.2634936E-04)
 number of electron     640.0000007 magnetization 
 augmentation part      141.2869859 magnetization 

 Broyden mixing:
  rms(total) = 0.19561E-02    rms(broyden)= 0.19546E-02
  rms(prec ) = 0.29936E-02
  weight for this iteration     100.00

 eigenvalues of (default mixing * dielectric matrix)
  average eigenvalue GAMMA=   1.6901
  6.7799  3.1940  2.2759  2.2759  1.1872  1.1872  0.9645  0.9645  0.9477  0.9477
  0.7998  0.7998  0.6492  0.6881

 Free energy of the ion-electron system (eV)
  ---------------------------------------------------
  alpha Z        PSCENC =       871.83850952
  Ewald energy   TEWEN  =    287031.89467457
  -Hartree energ DENC   =   -342597.36459931
  -exchange      EXHF   =         0.00000000
  -V(xc)+E(xc)   XCENC  =      3054.67501209
  PAW double counting   =     66296.65728441   -66289.87326590
  entropy T*S    EENTRO =        -0.00000000
  eigenvalues    EBANDS =    -13172.10491299
  atomic energy  EATOM  =     64207.43592568
  Solvation  Ediel_sol  =         0.00000000
  ---------------------------------------------------
  free energy    TOTEN  =      -596.84137193 eV

  energy without entropy =     -596.84137193  energy(sigma->0) =     -596.84137193


--------------------------------------------------------------------------------------------------------




--------------------------------------- Iteration      1(  20)  ---------------------------------------


    POTLOK:  cpu time    0.4187: real time    0.4310
    SETDIJ:  cpu time    0.4237: real time    0.4236
     EDDAV:  cpu time   51.3888: real time   51.3907
       DOS:  cpu time    0.0005: real time    0.0005
    CHARGE:  cpu time    3.5879: real time    3.5879
    MIXING:  cpu time    0.0272: real time    0.0272
    --------------------------------------------
      LOOP:  cpu time   55.8468: real time   55.8609

 eigenvalue-minimisations  :  4848
 total energy-change (2. order) :-0.3338165E-02  (-0.1352285E-04)
 number of electron     640.0000007 magnetization 
 augmentation part      141.2873765 magnetization 

 Broyden mixing:
  rms(total) = 0.18642E-02    rms(broyden)= 0.18634E-02
  rms(prec ) = 0.23058E-02
  weight for this iteration     100.00

 eigenvalues of (default mixing * dielectric matrix)
  average eigenvalue GAMMA=   1.7594
  7.2719  3.7644  2.4927  2.4927  1.7077  0.9600  0.9600  0.9637  0.9637  1.0003
  0.8235  0.8235  0.8198  0.6476  0.6995

 Free energy of the ion-electron system (eV)
  ---------------------------------------------------
  alpha Z        PSCENC =       871.83850952
  Ewald energy   TEWEN  =    287031.89467457
  -Hartree energ DENC   =   -342601.23394729
  -exchange      EXHF   =         0.00000000
  -V(xc)+E(xc)   XCENC  =      3054.66561498
  PAW double counting   =     66293.08206665   -66286.27852161
  entropy T*S    EENTRO =        -0.00000000
  eigenvalues    EBANDS =    -13168.24903260
  atomic energy  EATOM  =     64207.43592568
  Solvation  Ediel_sol  =         0.00000000
  ---------------------------------------------------
  free energy    TOTEN  =      -596.84471009 eV

  energy without entropy =     -596.84471009  energy(sigma->0) =     -596.84471009


--------------------------------------------------------------------------------------------------------




--------------------------------------- Iteration      1(  21)  ---------------------------------------


    POTLOK:  cpu time    0.3916: real time    0.3942
    SETDIJ:  cpu time    0.4177: real time    0.4177
     EDDAV:  cpu time   52.2520: real time   52.2538
       DOS:  cpu time    0.0005: real time    0.0005
    CHARGE:  cpu time    3.6313: real time    3.6313
    MIXING:  cpu time    0.0280: real time    0.0280
    --------------------------------------------
      LOOP:  cpu time   56.7210: real time   56.7254

 eigenvalue-minimisations  :  4952
 total energy-change (2. order) :-0.2081794E-02  (-0.1230000E-04)
 number of electron     640.0000007 magnetization 
 augmentation part      141.2883113 magnetization 

 Broyden mixing:
[...]
    -6.564311700 11.369721380  0.000000000     0.000000000  0.087952903  0.000000000
     0.000000000  0.000000000 26.828094240     0.000000000  0.000000000  0.037274358

  length of vectors
    13.128623400 13.128623399 26.828094240     0.087952903  0.087952903  0.037274358


 FORCES acting on ions
    electron-ion (+dipol)            ewald-force                    non-local-force                 convergence-correction
 -----------------------------------------------------------------------------------------------
   -.129E+02 -.609E+01 0.122E+04   0.137E+02 0.666E+01 -.121E+04   0.293E+00 0.305E+00 -.540E+01   -.222E-04 0.198E-04 -.984E-05
   0.735E+01 -.256E+02 0.120E+04   -.745E+01 0.266E+02 -.120E+04   -.142E+00 -.119E+00 -.577E+01   0.563E-05 -.404E-05 -.792E-05
   -.524E+01 -.139E+02 0.125E+04   0.543E+01 0.131E+02 -.125E+04   0.619E-01 0.847E+00 -.654E+01   0.400E-05 -.122E-04 -.203E-04
   0.396E+02 0.208E+02 0.125E+04   -.394E+02 -.212E+02 -.125E+04   -.329E+00 0.191E+00 -.677E+01   -.620E-05 -.216E-04 -.412E-04
   -.185E+02 -.109E+02 0.123E+04   0.179E+02 0.114E+02 -.123E+04   0.270E+00 -.214E+00 -.498E+01   -.440E-05 -.145E-05 -.551E-04
   0.145E+01 -.312E+02 0.132E+04   -.149E+01 0.316E+02 -.131E+04   0.381E+00 -.148E+00 -.540E+01   0.277E-05 0.240E-04 0.174E-05
   -.230E+02 0.219E+02 0.121E+04   0.230E+02 -.223E+02 -.120E+04   0.405E+00 -.257E+00 -.504E+01   0.277E-05 -.195E-04 0.172E-04
   -.686E+02 0.168E+02 0.126E+04   0.687E+02 -.171E+02 -.126E+04   0.531E+00 0.411E+00 -.645E+01   -.739E-05 -.596E-05 -.261E-04
   -.842E+02 -.324E+02 0.137E+04   0.836E+02 0.332E+02 -.136E+04   0.106E+01 0.195E+00 -.674E+01   0.469E-05 -.126E-04 -.178E-04
   -.173E+02 -.177E+02 0.134E+04   0.192E+02 0.173E+02 -.133E+04   -.114E+01 0.194E+00 -.543E+01   -.191E-04 0.291E-04 -.146E-04
   -.819E+01 -.671E+01 0.124E+04   0.893E+01 0.657E+01 -.124E+04   -.127E+00 0.449E+00 -.504E+01   -.127E-04 -.246E-04 -.110E-05
   0.285E+02 -.211E+02 0.129E+04   -.296E+02 0.216E+02 -.128E+04   0.318E+00 -.193E+00 -.551E+01   0.166E-04 -.163E-04 0.419E-05
   0.404E+02 0.884E+01 0.138E+04   -.411E+02 -.983E+01 -.137E+04   0.438E+00 0.112E+00 -.656E+01   0.138E-04 0.209E-04 -.630E-05
   0.328E+02 0.886E+01 0.129E+04   -.332E+02 -.100E+02 -.128E+04   0.148E+00 0.739E+00 -.648E+01   0.829E-05 0.205E-04 -.188E-04
   0.522E+02 0.273E+02 0.119E+04   -.535E+02 -.266E+02 -.118E+04   -.163E+00 -.296E+00 -.586E+01   0.109E-04 0.350E-05 -.170E-04
   -.136E+02 0.789E+00 0.123E+04   0.140E+02 -.130E+01 -.122E+04   -.165E-01 0.210E+00 -.634E+01   -.171E-05 -.176E-04 -.104E-04
   0.376E+02 0.133E+02 -.129E+04   -.370E+02 -.129E+02 0.128E+04   -.545E-01 -.130E+00 0.459E+01   -.178E-04 0.303E-04 0.738E-04
   0.849E+02 -.384E+02 -.123E+04   -.846E+02 0.384E+02 0.122E+04   -.770E+00 0.208E+00 0.443E+01   -.654E-05 0.206E-04 0.234E-04
   -.132E+02 0.221E+02 -.125E+04   0.119E+02 -.229E+02 0.125E+04   0.865E+00 -.190E+00 0.474E+01   0.176E-04 -.381E-05 0.169E-04
   -.293E+01 0.593E+02 -.130E+04   0.278E+01 -.603E+02 0.130E+04   0.232E+00 0.387E+00 0.687E+01   0.143E-04 -.171E-04 0.448E-04
   -.883E+02 -.446E+02 -.127E+04   0.883E+02 0.454E+02 0.126E+04   0.101E+01 0.178E+00 0.453E+01   0.246E-04 -.148E-04 0.873E-04
   -.666E+02 -.696E+01 -.122E+04   0.658E+02 0.581E+01 0.121E+04   0.105E+01 -.228E+00 0.540E+01   -.312E-05 0.464E-04 0.481E-04
   0.385E+02 -.139E+02 -.123E+04   -.391E+02 0.155E+02 0.123E+04   0.330E-01 -.690E+00 0.623E+01   0.586E-05 -.251E-04 -.118E-05
   0.151E+02 0.587E+02 -.126E+04   -.146E+02 -.585E+02 0.126E+04   -.830E+00 -.393E+00 0.540E+01   -.103E-04 -.120E-04 0.300E-04
   0.124E+02 -.441E+02 -.117E+04   -.120E+02 0.440E+02 0.117E+04   -.158E+00 0.362E+00 0.526E+01   -.117E-04 0.371E-05 0.241E-04
   -.259E+02 0.587E+01 -.116E+04   0.265E+02 -.565E+01 0.116E+04   -.102E+00 -.160E+00 0.593E+01   0.266E-05 0.739E-05 0.445E-04
   -.579E+02 0.885E+01 -.126E+04   0.591E+02 -.842E+01 0.125E+04   -.427E-01 -.293E+00 0.540E+01   -.276E-04 -.161E-04 0.216E-04
   0.524E+02 -.181E+02 -.128E+04   -.534E+02 0.176E+02 0.128E+04   -.553E+00 0.680E+00 0.585E+01   0.168E-04 -.984E-05 0.172E-04
   -.560E+02 -.137E+01 -.129E+04   0.539E+02 0.734E+00 0.128E+04   0.196E+01 0.208E-01 0.686E+01   0.164E-04 0.176E-04 0.273E-04
   0.176E+02 -.409E+02 -.125E+04   -.184E+02 0.422E+02 0.125E+04   0.937E-01 -.289E+00 0.604E+01   0.125E-04 -.953E-05 0.254E-04
   -.683E+01 -.427E+01 -.131E+04   0.661E+01 0.331E+01 0.131E+04   -.307E-01 0.608E+00 0.551E+01   -.767E-05 0.604E-05 0.200E-04
   -.227E+02 0.262E+02 -.139E+04   0.232E+02 -.269E+02 0.138E+04   0.123E+00 0.416E+00 0.615E+01   -.229E-04 -.153E-04 0.350E-04
   0.868E+02 0.114E+02 -.165E+04   -.889E+02 -.110E+02 0.167E+04   0.104E+01 -.469E+00 -.183E+02   0.321E-05 -.318E-05 -.135E-04
   0.295E+02 0.611E+01 -.155E+04   -.305E+02 -.558E+01 0.157E+04   0.836E+00 -.859E+00 -.150E+02   0.481E-05 0.240E-05 -.122E-04
   0.246E+02 -.587E+00 -.161E+04   -.257E+02 0.127E+01 0.163E+04   0.619E+00 -.578E+00 -.166E+02   0.167E-05 0.562E-05 -.181E-04
   0.113E+02 0.649E+02 -.161E+04   -.109E+02 -.670E+02 0.163E+04   -.630E+00 0.974E+00 -.157E+02   -.472E-05 -.410E-05 -.146E-04
   -.170E+02 -.400E+02 -.157E+04   0.149E+02 0.434E+02 0.158E+04   0.199E+01 -.293E+01 -.157E+02   0.346E-05 0.572E-05 0.177E-04
   0.428E+01 -.565E+02 -.162E+04   -.462E+01 0.575E+02 0.163E+04   0.360E+00 -.241E+00 -.188E+02   0.434E-05 0.581E-05 -.954E-05
   -.333E+01 0.181E+01 -.163E+04   0.382E+01 -.177E+01 0.164E+04   -.690E+00 -.121E+00 -.178E+02   -.649E-07 -.552E-05 -.182E-04
   -.125E+01 0.588E+02 -.158E+04   0.123E+01 -.627E+02 0.159E+04   -.325E+00 0.311E+01 -.163E+02   0.925E-06 0.446E-05 -.546E-05
   -.187E+02 -.249E+02 -.163E+04   0.183E+02 0.257E+02 0.164E+04   0.398E+00 -.798E+00 -.181E+02   -.885E-05 -.532E-05 -.867E-05
   -.212E+02 0.125E+02 -.162E+04   0.228E+02 -.137E+02 0.164E+04   -.179E+01 0.102E+01 -.186E+02   -.110E-04 0.492E-05 -.597E-05
   0.320E+02 -.910E+01 -.159E+04   -.345E+02 0.930E+01 0.161E+04   0.222E+01 -.142E+00 -.163E+02   0.488E-05 -.788E-05 -.175E-04
   -.390E+02 0.118E+02 -.153E+04   0.428E+02 -.123E+02 0.155E+04   -.357E+01 0.263E+00 -.151E+02   -.594E-05 -.340E-05 -.148E-04
   0.171E+02 -.136E+02 -.156E+04   -.197E+02 0.130E+02 0.158E+04   0.242E+01 0.936E+00 -.159E+02   0.790E-05 0.563E-05 -.202E-04
   -.752E+01 0.227E+02 -.157E+04   0.628E+01 -.249E+02 0.158E+04   0.138E+01 0.206E+01 -.159E+02   0.267E-05 0.160E-05 -.966E-05
   -.753E+01 0.147E+02 -.160E+04   0.645E+01 -.176E+02 0.161E+04   0.105E+01 0.325E+01 -.156E+02   -.648E-05 0.691E-05 -.198E-04
   0.302E+01 -.370E+02 -.160E+04   -.360E+01 0.408E+02 0.162E+04   0.885E+00 -.367E+01 -.165E+02   0.614E-05 -.778E-05 -.273E-04
   0.427E+02 0.430E+02 0.160E+04   -.438E+02 -.437E+02 -.161E+04   0.389E+00 -.982E-01 0.163E+02   0.435E-05 -.757E-06 0.121E-04
   0.149E+02 0.644E+01 0.160E+04   -.162E+02 -.879E+01 -.162E+04   0.154E+01 0.234E+01 0.172E+02   0.228E-05 0.704E-05 0.248E-04
   0.852E+01 -.318E+00 0.156E+04   -.878E+01 -.108E+01 -.157E+04   0.123E-01 0.153E+01 0.153E+02   -.158E-05 -.303E-05 0.147E-04
   0.139E+02 0.408E+02 0.161E+04   -.155E+02 -.431E+02 -.163E+04   0.136E+01 0.188E+01 0.171E+02   -.717E-05 -.159E-05 0.157E-04
   -.197E+02 0.353E+02 0.162E+04   0.180E+02 -.371E+02 -.164E+04   0.161E+01 0.110E+01 0.172E+02   -.469E-05 0.146E-05 0.726E-05
   -.109E+02 -.287E+02 0.161E+04   0.108E+02 0.282E+02 -.162E+04   0.414E+00 0.110E+01 0.172E+02   0.286E-05 0.640E-05 0.253E-04
   0.346E+02 -.945E+01 0.161E+04   -.372E+02 0.975E+01 -.163E+04   0.233E+01 -.269E+00 0.168E+02   0.870E-05 -.437E-05 0.374E-04
   0.179E+02 -.362E+02 0.160E+04   -.191E+02 0.397E+02 -.161E+04   0.109E+01 -.289E+01 0.161E+02   -.109E-06 -.356E-05 0.317E-04
   0.921E+01 -.217E+02 0.160E+04   -.975E+01 0.225E+02 -.162E+04   0.391E+00 -.343E+00 0.149E+02   0.222E-05 0.593E-05 0.317E-04
   -.370E+02 0.121E+02 0.158E+04   0.388E+02 -.142E+02 -.160E+04   -.145E+01 0.200E+01 0.137E+02   -.822E-05 0.106E-04 0.145E-04
   -.503E+02 -.207E+02 0.160E+04   0.537E+02 0.234E+02 -.162E+04   -.318E+01 -.315E+01 0.165E+02   -.806E-05 -.889E-05 0.344E-04
   -.306E+02 0.400E+01 0.153E+04   0.329E+02 -.594E+01 -.154E+04   -.196E+01 0.187E+01 0.147E+02   0.147E-05 -.924E-05 0.347E-04
   0.212E+02 0.361E+02 0.157E+04   -.236E+02 -.376E+02 -.159E+04   0.209E+01 0.987E+00 0.151E+02   -.278E-05 0.506E-05 0.292E-04
   0.127E+02 -.499E+01 0.160E+04   -.124E+02 0.720E+01 -.161E+04   -.210E+00 -.265E+01 0.160E+02   0.468E-05 -.204E-05 0.187E-04
   -.566E+00 0.609E+01 0.163E+04   0.122E+01 -.662E+01 -.165E+04   -.677E+00 0.276E+00 0.186E+02   -.162E-05 0.133E-06 0.204E-04
   0.156E+01 -.173E+02 0.153E+04   -.140E+01 0.176E+02 -.154E+04   0.452E-01 0.329E+00 0.144E+02   0.387E-05 -.142E-05 0.262E-04
   0.223E+02 0.973E+01 -.179E+02   -.221E+02 -.992E+01 0.179E+02   -.161E+01 0.823E+00 0.221E+00   -.353E-05 -.140E-05 0.710E-05
   -.795E+01 -.212E+01 -.220E+01   0.785E+01 0.219E+01 0.222E+01   0.959E+00 -.293E-01 0.143E+00   -.602E-06 0.240E-05 0.801E-05
   -.813E+01 0.444E+01 -.196E+02   0.807E+01 -.462E+01 0.198E+02   0.549E+00 0.356E+00 -.567E+00   0.437E-05 0.492E-06 0.371E-05
   0.105E+02 0.386E+01 -.331E+02   -.105E+02 -.387E+01 0.332E+02   -.441E+00 -.648E-02 -.782E-01   -.147E-05 -.289E-05 0.209E-05
   -.352E+01 0.251E+01 -.135E+02   0.328E+01 -.240E+01 0.136E+02   0.111E+01 -.886E+00 -.101E+01   -.777E-07 -.642E-05 0.594E-05
   0.406E+01 -.102E+02 -.170E+01   -.388E+01 0.998E+01 0.188E+01   -.902E+00 0.159E+01 -.113E+01   -.620E-05 0.989E-05 0.900E-05
   -.136E+00 -.199E+01 0.150E+02   -.146E-01 0.216E+01 -.151E+02   0.798E+00 -.580E+00 0.717E+00   0.324E-05 0.234E-05 0.994E-05
   -.201E+02 -.113E+01 -.215E+02   0.197E+02 0.114E+01 0.218E+02   0.183E+01 -.551E-01 -.114E+01   0.267E-05 -.669E-05 0.103E-04
   -.379E+01 -.488E+01 0.423E+02   0.372E+01 0.465E+01 -.424E+02   0.268E+00 0.467E+00 0.483E+00   0.522E-05 -.750E-06 0.106E-04
   -.864E+01 -.197E+02 0.215E+02   0.883E+01 0.195E+02 -.215E+02   -.949E+00 0.128E+01 0.370E+00   -.245E-05 0.617E-05 0.974E-05
   -.249E+01 -.165E+01 0.632E+01   0.247E+01 0.167E+01 -.632E+01   -.310E-01 -.490E-01 -.900E+00   -.124E-05 0.358E-05 0.127E-04
   0.366E+00 0.472E+01 -.226E+02   -.268E+00 -.458E+01 0.229E+02   -.279E+00 -.103E+01 -.619E+00   0.271E-06 -.737E-05 0.617E-05
   0.217E+02 0.885E+01 -.764E+01   -.216E+02 -.855E+01 0.784E+01   -.450E+00 -.139E+01 -.114E+01   0.271E-05 -.722E-06 0.923E-05
   0.818E+01 0.148E+01 0.324E+02   -.848E+01 -.141E+01 -.324E+02   0.866E+00 -.330E+00 -.194E+00   0.543E-05 -.230E-05 0.110E-04
   0.277E+01 0.441E+01 -.295E+01   -.283E+01 -.444E+01 0.316E+01   0.151E+00 -.133E+00 -.607E+00   -.330E-05 0.584E-05 0.649E-05
   -.224E+02 0.263E+01 0.408E+01   0.223E+02 -.308E+01 -.436E+01   0.658E+00 0.160E+01 0.413E+00   -.259E-05 -.265E-05 0.881E-05
 -----------------------------------------------------------------------------------------------
   -.173E+02 -.104E+02 0.194E+02   0.000E+00 -.149E-12 0.236E-11   0.173E+02 0.104E+02 -.194E+02   0.704E-06 -.254E-05 0.627E-03
 
 
 POSITION                                       TOTAL-FORCE (eV/Angst)
 -----------------------------------------------------------------------------------
     -0.03931      1.77974     12.17955         1.081757      0.874553      0.288621
     -1.62978      4.70338     12.18305        -0.248317      0.882693     -0.254956
     -3.30353      7.56523     12.17926         0.257089      0.108551      0.026123
     -4.92115     10.43133     12.20609        -0.102431     -0.198100     -0.181644
      3.30436      1.87126     12.12397        -0.370555      0.318251      0.693129
      1.53712      4.64613     12.06799         0.344145      0.271215      0.383687
     -0.05373      7.65502     12.17459         0.343769     -0.650038      0.061506
     -1.73482     10.42090     12.16682         0.630981      0.130311      0.151739
      6.50646      1.76799     12.03434         0.452689      1.031207      0.689697
      4.82148      4.75521     12.03709         0.842949     -0.273444      0.430422
      3.19906      7.51639     12.13215         0.615455      0.305128      0.242635
      1.70477     10.39099     12.08725        -0.771746      0.290179      1.072642
      9.82235      2.01812     12.03499        -0.276923     -0.881435      0.937030
      8.16507      4.79069     12.11436        -0.267217     -0.451600      0.288577
      6.67626      7.53151     12.21083        -1.436602      0.378469      0.113733
      4.91737     10.41708     12.19464         0.346589     -0.297606      0.533047
      1.61393      0.96230     14.76034         0.545864      0.289137     -0.580959
      0.07504      3.75742     14.68106        -0.485381      0.217079      0.156663
     -1.58763      6.75695     14.66896        -0.440773     -0.988055      1.022289
     -3.30493      9.55421     14.67331         0.074153     -0.648872      0.961956
      4.84289      0.91703     14.73105         1.026527      0.920687     -0.757914
      3.26948      3.84423     14.65587         0.266900     -1.387772      0.227809
      1.64833      6.57490     14.63581        -0.580456      0.867201      0.597949
      0.10161      9.54120     14.69572        -0.339052     -0.242567     -0.080569
      8.16580      0.97555     14.61713         0.205535      0.283369     -0.142921
      6.49573      3.74926     14.58039         0.520658      0.062822      0.833057
      4.84160      6.56233     14.70104         1.180177      0.129245      0.015680
      3.44351      9.43447     14.70734        -1.613453      0.146781     -0.319556
     11.46260      1.01090     14.66936        -0.108580     -0.619472      0.036663
      9.86790      3.75230     14.62605        -0.701727      1.025659      0.588050
      8.24851      6.61558     14.71759        -0.250706     -0.352847      0.576844
      6.53798      9.44497     14.82387         0.624873     -0.345426     -0.908963
      0.29991      2.02958     15.94995        -1.068903     -0.046881      0.006272
     -1.54554      4.83237     15.79598        -0.148114     -0.334553     -0.232240
     -3.12047      7.60449     15.91932        -0.488738      0.106386     -0.391605
     -4.88304     10.59806     15.85594        -0.250244     -1.120323      0.613741
      3.33427      1.84990     15.75984        -0.160314      0.417792      0.687998
      1.66582      4.55842     15.87325         0.019702      0.722540     -0.229535
      0.11580      7.62876     15.98464        -0.201727     -0.088413     -1.056381
     -1.48720     10.56452     15.77917        -0.348141     -0.792685      0.610257
      6.58803      1.85960     15.99598         0.007045      0.028710     -1.234688
      4.96279      4.72861     15.94173        -0.279128     -0.151480     -0.813169
      3.32155      7.55010     15.81434        -0.295912      0.050279      0.286082
      1.65938     10.53041     15.69663         0.138385     -0.263012      0.672418
      9.87255      1.88436     15.72260        -0.215577      0.283785      0.632321
      8.17694      4.73444     15.82560         0.140338     -0.112904     -0.333272
      6.58498      7.51967     15.91449        -0.039056      0.276212     -0.282126
      4.91938     10.42919     15.84924         0.298475      0.125365      0.307067
      1.72540      1.09578     11.01199        -0.723354     -0.764376     -0.187842
     -0.09574      3.72312     10.97255         0.214043     -0.004302      0.174166
     -1.61449      6.63762     11.07869        -0.248128      0.132293     -0.296623
     -3.28658      9.65394     10.97192        -0.167115     -0.444735     -0.042114
      4.87737      1.02994     10.95582        -0.048778     -0.681339     -0.389854
      3.15854      3.65805     10.93617         0.239819      0.627425      0.137531
      1.70881      6.55219     10.91037        -0.233994      0.035289      0.413656
      0.06064      9.33078     10.97983        -0.131715      0.615987     -0.217663
      8.33181      0.81847     10.94187        -0.148613      0.451685     -0.260081
      6.43702      3.86559     10.95035         0.300799     -0.068868     -0.165332
      4.76482      6.68680     10.90682         0.256255     -0.437388      0.442591
      3.29752      9.45376     11.16066         0.359706     -0.072907     -1.038489
     11.53235      1.01228     11.08285        -0.321621     -0.547534     -0.808693
      9.82254      3.95449     10.99889         0.093524     -0.439796     -0.354168
      8.22304      6.75264     10.92100        -0.018886     -0.252702      0.333495
      6.50870      9.35111     11.14911         0.205674      0.592777     -0.590464
     -6.46721     11.29245     13.43607        -1.379611      0.634312      0.248295
     11.44032      2.84556     13.39386         0.856536      0.046604      0.164385
      9.79386      5.69038     13.43796         0.489632      0.176297     -0.341060
     -4.89159      8.53315     13.47626        -0.391006     -0.020050      0.045599
      3.21891      0.04936     13.49260         0.874576     -0.775584     -0.936740
      1.68368      2.75469     13.47595        -0.714896      1.340403     -0.950542
     -0.01986      5.72782     13.34251         0.647417     -0.413754      0.564614
     -1.77591      8.57830     13.47027         1.434479     -0.038136     -0.874769
      0.00193     11.31081     13.29716         0.203791      0.232914      0.300266
      4.98793      2.72920     13.33281        -0.760732      1.054758      0.329155
      3.23717      5.63569     13.45362        -0.047370     -0.025891     -0.893176
      1.67014      8.58031     13.45124        -0.180656     -0.882020     -0.377457
      9.94321      0.13369     13.46427        -0.408894     -1.100341     -0.940275
      8.14542      2.87216     13.32651         0.574192     -0.265354     -0.163105
      6.51394      5.68256     13.40772         0.096115     -0.155602     -0.398514
      4.88064      8.40261     13.46444         0.604530      1.153814      0.128005
 -----------------------------------------------------------------------------------
    total drift:                                0.002989      0.004185      0.005324


--------------------------------------------------------------------------------------------------------



  FREE ENERGIE OF THE ION-ELECTRON SYSTEM (eV)
  ---------------------------------------------------
  free  energy   TOTEN  =      -596.84871750 eV

  energy  without entropy=     -596.84871750  energy(sigma->0) =     -596.84871750
 


--------------------------------------------------------------------------------------------------------


    POTLOK:  cpu time    0.7871: real time    0.7871


--------------------------------------------------------------------------------------------------------


     LOOP+:  cpu time 1851.2643: real time 1851.7671
    4ORBIT:  cpu time    0.0000: real time    0.0000

 total amount of memory used by VASP MPI-rank0   234715. kBytes
=======================================================================

   base      :      30000. kBytes
   nonlr-proj:      19447. kBytes
   fftplans  :      66973. kBytes
   grid      :      38377. kBytes
   one-center:        108. kBytes
   wavefun   :      79810. kBytes
 
  
  
 General timing and accounting informations for this job:
 ========================================================
  
                  Total CPU time used (sec):     1882.734
                            User time (sec):     1873.594
                          System time (sec):        9.140
                         Elapsed time (sec):     1883.359
  
                   Maximum memory used (kb):      426316.
                   Average memory used (kb):           0.
  
                          Minor page faults:       322148
                          Major page faults:            0
                 Voluntary context switches:         2139
