 running on   52 total cores
 distrk:  each k-point on   52 cores,    1 groups
 distr:  one band on   13 cores,    4 groups
 using from now: INCAR     
 vasp.5.4.4.18Apr17-6-g9f103f2a35 (build Oct 31 2019 15:01:46) complex          
  
 POSCAR found type information on POSCAR  Ca Si O 
 POSCAR found :  3 types and     135 ions
 scaLAPACK is switched off
 LDA part: xc-table for Pade appr. of Perdew
 generate k-points for:    2    2    2
 POSCAR, INCAR and KPOINTS ok, starting setup
 FFT: planning ...
 WAVECAR not read
 entering main loop
       N       E                     dE             d eps       ncg     rms          rms(c)
DAV:   1     0.929733441458E+04    0.92973E+04   -0.46239E+05  8320   0.174E+03
DAV:   2     0.315648367821E+02   -0.92658E+04   -0.89831E+04 10248   0.453E+02
DAV:   3    -0.101289326190E+04   -0.10445E+04   -0.10374E+04 10272   0.154E+02
DAV:   4    -0.106081871533E+04   -0.47925E+02   -0.47733E+02 11360   0.320E+01
DAV:   5    -0.106694317515E+04   -0.61245E+01   -0.61215E+01 14544   0.704E+00    0.866E+01
DAV:   6    -0.894560929204E+03    0.17238E+03   -0.82363E+02 10320   0.433E+01    0.385E+01
DAV:   7    -0.896810201936E+03   -0.22493E+01   -0.92635E+01 11008   0.159E+01    0.211E+01
DAV:   8    -0.892008527029E+03    0.48017E+01   -0.16924E+01 12376   0.884E+00    0.138E+01
DAV:   9    -0.892441392515E+03   -0.43287E+00   -0.59677E+00 11232   0.506E+00    0.101E+01
DAV:  10    -0.892311641852E+03    0.12975E+00   -0.28195E+00 11432   0.312E+00    0.693E+00
DAV:  11    -0.891338440869E+03    0.97320E+00   -0.19229E+00 11952   0.255E+00    0.442E+00
DAV:  12    -0.891577249462E+03   -0.23881E+00   -0.10184E+00 10600   0.178E+00    0.100E+01
DAV:  13    -0.891302455237E+03    0.27479E+00   -0.35468E-01 10600   0.102E+00    0.601E+00
DAV:  14    -0.891097450034E+03    0.20501E+00   -0.83094E-01 11568   0.831E-01    0.175E+00
DAV:  15    -0.891161809321E+03   -0.64359E-01   -0.41716E-01  9248   0.670E-01    0.283E+00
DAV:  16    -0.891173826091E+03   -0.12017E-01   -0.40018E-01 10552   0.596E-01    0.379E+00
DAV:  17    -0.891139606466E+03    0.34220E-01   -0.37080E-02 10584   0.354E-01    0.139E+00
DAV:  18    -0.891143191048E+03   -0.35846E-02   -0.29555E-02  9808   0.253E-01    0.108E+00
DAV:  19    -0.891143241069E+03   -0.50021E-04   -0.14506E-02 10272   0.147E-01    0.712E-01
DAV:  20    -0.891146418705E+03   -0.31776E-02   -0.22551E-02 10312   0.126E-01    0.102E+00
DAV:  21    -0.891146311359E+03    0.10735E-03   -0.11348E-02 10728   0.956E-02    0.722E-01
DAV:  22    -0.891147617486E+03   -0.13061E-02   -0.10832E-02 11048   0.102E-01    0.918E-01
DAV:  23    -0.891146267793E+03    0.13497E-02   -0.14504E-02 10808   0.835E-02    0.547E-01
DAV:  24    -0.891145861749E+03    0.40604E-03   -0.33357E-03  9424   0.437E-02    0.135E-01
DAV:  25    -0.891146030646E+03   -0.16890E-03   -0.35835E-04 10144   0.256E-02    0.218E-01
DAV:  26    -0.891145937502E+03    0.93145E-04   -0.35335E-04  9808   0.225E-02    0.736E-02
DAV:  27    -0.891145948165E+03   -0.10664E-04   -0.56020E-05  9072   0.113E-02    0.350E-02
DAV:  28    -0.891145947164E+03    0.10016E-05   -0.27169E-05 10344   0.593E-03    0.232E-02
DAV:  29    -0.891145947179E+03   -0.15018E-07   -0.42074E-06  7472   0.303E-03
   1 F= -.89114595E+03 E0= -.89111780E+03  d E =-.562957E-01
