 vasp.5.4.4.18Apr17-6-g9f103f2a35 (build Oct 31 2019 15:01:46) complex          
  
 executed on             LinuxIFC date 2024.04.29  10:09:24
 running on   52 total cores
 distrk:  each k-point on   52 cores,    1 groups
 distr:  one band on NCORES_PER_BAND=  13 cores,    4 groups


--------------------------------------------------------------------------------------------------------


 INCAR:
 POTCAR:    PAW_PBE Ca_sv 06Sep2000               
 POTCAR:    PAW_PBE Si 05Jan2001                  
 POTCAR:    PAW_PBE O 08Apr2002                   
 POTCAR:    PAW_PBE Ca_sv 06Sep2000               
   SHA256 =  a47365830e737f14e0e6c5cf1ed81b94e081eecf0a33df105380881bc9da05d5 Ca
   COPYR  = (c) Copyright 06Sep2000 Georg Kresse                                
   COPYR  = This file is part of the software VASP. Any use, copying, and all ot
   COPYR  = If you do not have a valid VASP license, you may not use, copy or di
   VRHFIN =Ca: 3s3p4s                                                           
   LEXCH  = PE                                                                  
   EATOM  =  1006.0909 eV,   73.9456 Ry                                         
                                                                                
   TITEL  = PAW_PBE Ca_sv 06Sep2000                                             
   LULTRA =        F    use ultrasoft PP ?                                      
   IUNSCR =        1    unscreen: 0-lin 1-nonlin 2-no                           
   RPACOR =    2.000    partial core radius                                     
   POMASS =   40.078; ZVAL   =   10.000    mass and valenz                      
   RCORE  =    2.300    outmost cutoff radius                                   
   RWIGS  =    2.500; RWIGS  =    1.323    wigner-seitz radius (au A)           
   ENMAX  =  266.622; ENMIN  =  199.967 eV                                      
   RCLOC  =    1.808    cutoff for local pot                                    
   LCOR   =        T    correct aug charges                                     
   LPAW   =        T    paw PP                                                  
   EAUG   =  420.852                                                            
   RMAX   =    2.359    core radius for proj-oper                               
   RAUG   =    1.300    factor for augmentation sphere                          
   RDEP   =    2.392    radius for radial grids                                 
   RDEPT  =    1.987    core radius for aug-charge                              
                                                                                
   Atomic configuration                                                         
    7 entries                                                                   
     n  l   j            E        occ.                                          
     1  0  0.50     -3949.1705   2.0000                                         
     2  0  0.50      -414.3434   2.0000                                         
     2  1  1.50      -334.7047   6.0000                                         
     3  0  0.50       -47.0896   2.0000                                         
     4  0  0.50        -3.7663   2.0000                                         
     3  1  1.50       -28.0061   6.0000                                         
     3  2  1.50        -4.0817   0.0000                                         
   Description                                                                  
     l       E           TYP  RCUT    TYP  RCUT                                 
     0    -47.0896403     23  2.300                                             
     0     -3.7663320     23  2.300                                             
     1    -28.0060855     23  2.300                                             
     1      6.8029130     23  2.300                                             
     2     -4.0817478     23  2.300                                             
     2      0.4464412     23  2.300                                             
  local pseudopotential read in
  partial core-charges read in
  partial kinetic energy density read in
  atomic valenz-charges read in
  non local Contribution for L=           0  read in
    real space projection operators read in
  non local Contribution for L=           0  read in
    real space projection operators read in
  non local Contribution for L=           1  read in
    real space projection operators read in
  non local Contribution for L=           1  read in
    real space projection operators read in
  non local Contribution for L=           2  read in
    real space projection operators read in
  non local Contribution for L=           2  read in
    real space projection operators read in
    PAW grid and wavefunctions read in
 
   number of l-projection  operators is LMAX  =           6
   number of lm-projection operators is LMMAX =          18
 
 POTCAR:    PAW_PBE Si 05Jan2001                  
   SHA256 =  79d9987ad8750f624c4d6acb2a16d13abf6a777132adc04dc6c8399be72b42bb Si
   COPYR  = (c) Copyright 05Jan2001 Georg Kresse                                
   COPYR  = This file is part of the software VASP. Any use, copying, and all ot
   COPYR  = If you do not have a valid VASP license, you may not use, copy or di
   VRHFIN =Si: s2p2                                                             
   LEXCH  = PE                                                                  
   EATOM  =   103.0669 eV,    7.5752 Ry                                         
                                                                                
   TITEL  = PAW_PBE Si 05Jan2001                                                
   LULTRA =        F    use ultrasoft PP ?                                      
   IUNSCR =        1    unscreen: 0-lin 1-nonlin 2-no                           
   RPACOR =    1.500    partial core radius                                     
   POMASS =   28.085; ZVAL   =    4.000    mass and valenz                      
   RCORE  =    1.900    outmost cutoff radius                                   
   RWIGS  =    2.480; RWIGS  =    1.312    wigner-seitz radius (au A)           
   ENMAX  =  245.345; ENMIN  =  184.009 eV                                      
   ICORE  =        2    local potential                                         
   LCOR   =        T    correct aug charges                                     
   LPAW   =        T    paw PP                                                  
   EAUG   =  322.069                                                            
   DEXC   =    0.000                                                            
   RMAX   =    1.950    core radius for proj-oper                               
   RAUG   =    1.300    factor for augmentation sphere                          
   RDEP   =    1.993    radius for radial grids                                 
   RDEPT  =    1.837    core radius for aug-charge                              
                                                                                
   Atomic configuration                                                         
    6 entries                                                                   
     n  l   j            E        occ.                                          
     1  0  0.50     -1785.8828   2.0000                                         
     2  0  0.50      -139.4969   2.0000                                         
     2  1  1.50       -95.5546   6.0000                                         
     3  0  0.50       -10.8127   2.0000                                         
     3  1  0.50        -4.0811   2.0000                                         
     3  2  1.50        -4.0817   0.0000                                         
   Description                                                                  
     l       E           TYP  RCUT    TYP  RCUT                                 
     0    -10.8127223     23  1.900                                             
     0     -7.6451159     23  1.900                                             
     1     -4.0811372     23  1.900                                             
     1      2.4879257     23  1.900                                             
     2     -4.0817478      7  1.900                                             
  local pseudopotential read in
  partial core-charges read in
  partial kinetic energy density read in
  atomic valenz-charges read in
  non local Contribution for L=           0  read in
    real space projection operators read in
  non local Contribution for L=           0  read in
    real space projection operators read in
  non local Contribution for L=           1  read in
    real space projection operators read in
  non local Contribution for L=           1  read in
    real space projection operators read in
    PAW grid and wavefunctions read in
 
   number of l-projection  operators is LMAX  =           4
   number of lm-projection operators is LMMAX =           8
 
 POTCAR:    PAW_PBE O 08Apr2002                   
   SHA256 =  818f92134a0a090dccd8ba1447fa70422a3b330e708bb4f08108d8ae51209ddf O/
   COPYR  = (c) Copyright 08Apr2002 Georg Kresse                                
   COPYR  = This file is part of the software VASP. Any use, copying, and all ot
   COPYR  = If you do not have a valid VASP license, you may not use, copy or di
   VRHFIN =O: s2p4                                                              
   LEXCH  = PE                                                                  
   EATOM  =   432.3788 eV,   31.7789 Ry                                         
                                                                                
   TITEL  = PAW_PBE O 08Apr2002                                                 
   LULTRA =        F    use ultrasoft PP ?                                      
   IUNSCR =        1    unscreen: 0-lin 1-nonlin 2-no                           
   RPACOR =    1.200    partial core radius                                     
   POMASS =   16.000; ZVAL   =    6.000    mass and valenz                      
   RCORE  =    1.520    outmost cutoff radius                                   
   RWIGS  =    1.550; RWIGS  =    0.820    wigner-seitz radius (au A)           
   ENMAX  =  400.000; ENMIN  =  300.000 eV                                      
   ICORE  =        2    local potential                                         
   LCOR   =        T    correct aug charges                                     
   LPAW   =        T    paw PP                                                  
   EAUG   =  605.392                                                            
   DEXC   =    0.000                                                            
   RMAX   =    1.553    core radius for proj-oper                               
   RAUG   =    1.300    factor for augmentation sphere                          
   RDEP   =    1.550    radius for radial grids                                 
   RDEPT  =    1.329    core radius for aug-charge                              
                                                                                
   Atomic configuration                                                         
    4 entries                                                                   
     n  l   j            E        occ.                                          
     1  0  0.50      -514.6923   2.0000                                         
     2  0  0.50       -23.9615   2.0000                                         
     2  1  0.50        -9.0305   4.0000                                         
     3  2  1.50        -9.5241   0.0000                                         
   Description                                                                  
     l       E           TYP  RCUT    TYP  RCUT                                 
     0    -23.9615318     23  1.200                                             
     0     -9.5240782     23  1.200                                             
     1     -9.0304911     23  1.520                                             
     1      8.1634956     23  1.520                                             
     2     -9.5240782      7  1.500                                             
  local pseudopotential read in
  partial core-charges read in
  partial kinetic energy density read in
  kinetic energy density of atom read in
  atomic valenz-charges read in
  non local Contribution for L=           0  read in
    real space projection operators read in
  non local Contribution for L=           0  read in
    real space projection operators read in
  non local Contribution for L=           1  read in
    real space projection operators read in
  non local Contribution for L=           1  read in
    real space projection operators read in
    PAW grid and wavefunctions read in
 
   number of l-projection  operators is LMAX  =           4
   number of lm-projection operators is LMMAX =           8
 
 Optimization of the real space projectors (new method)

 maximal supplied QI-value         = 16.25
 optimisation between [QCUT,QGAM] = [ 12.51, 25.03] = [ 43.85,175.40] Ry 
 Optimized for a Real-space Cutoff    1.47 Angstroem

   l    n(q)    QCUT    max X(q) W(low)/X(q) W(high)/X(q)  e(spline) 
   0     11    12.514    11.817    0.25E-04    0.32E-05    0.87E-07
   0     11    12.514     8.461    0.39E-04    0.59E-05    0.18E-06
   1     11    12.514     3.957    0.97E-05    0.57E-05    0.28E-07
   1     11    12.514     4.314    0.42E-04    0.14E-04    0.23E-06
   2     10    12.514    14.565    0.79E-04    0.50E-03    0.16E-05
   2     10    12.514    14.552    0.75E-04    0.48E-03    0.15E-05
 Optimization of the real space projectors (new method)

 maximal supplied QI-value         = 19.84
 optimisation between [QCUT,QGAM] = [ 12.50, 25.00] = [ 43.76,175.03] Ry 
 Optimized for a Real-space Cutoff    1.16 Angstroem

   l    n(q)    QCUT    max X(q) W(low)/X(q) W(high)/X(q)  e(spline) 
   0      9    12.501   159.560    0.10E-03    0.83E-04    0.71E-07
   0      9    12.501   115.863    0.99E-04    0.81E-04    0.70E-07
   1      8    12.501    88.339    0.20E-03    0.25E-03    0.76E-07
   1      8    12.501    48.592    0.20E-03    0.24E-03    0.75E-07
 Optimization of the real space projectors (new method)

 maximal supplied QI-value         = 24.76
 optimisation between [QCUT,QGAM] = [ 12.38, 25.00] = [ 42.90,175.06] Ry 
 Optimized for a Real-space Cutoff    1.16 Angstroem

   l    n(q)    QCUT    max X(q) W(low)/X(q) W(high)/X(q)  e(spline) 
   0      9    12.378    20.381    0.16E-03    0.67E-05    0.31E-06
   0      9    12.378    15.268    0.17E-03    0.81E-05    0.33E-06
   1      8    12.378     5.964    0.20E-03    0.16E-03    0.30E-06
   1      8    12.378     5.382    0.18E-03    0.14E-03    0.26E-06
  PAW_PBE Ca_sv 06Sep2000               :
 energy of atom  1       EATOM=-1006.0909
 kinetic energy error for atom=    0.0012 (will be added to EATOM!!)
  PAW_PBE Si 05Jan2001                  :
 energy of atom  2       EATOM= -103.0669
 kinetic energy error for atom=    0.0003 (will be added to EATOM!!)
  PAW_PBE O 08Apr2002                   :
 energy of atom  3       EATOM= -432.3788
 kinetic energy error for atom=    0.0168 (will be added to EATOM!!)
 
 
 POSCAR: Ca Si  O                                
  positions in direct lattice
  No initial velocities read in
 exchange correlation table for  LEXCH =        8
   RHO(1)=    0.500       N(1)  =     2000
   RHO(2)=  100.500       N(2)  =     4000
 


--------------------------------------------------------------------------------------------------------


 ion  position               nearest neighbor table
   1  0.813  0.766  0.832-  64 1.97 129 2.34  52 2.91
   2  0.909  0.327  0.138- 135 2.13 108 2.27  62 2.45 122 2.45  16 2.95
   3  0.558  0.783  0.612- 104 2.07  69 2.44 129 2.51  35 3.12
   4  0.889  0.950  0.072- 112 2.36  60 2.52  33 3.10
   5  0.248  0.263  0.464- 117 2.13  89 2.18 106 2.24  36 3.09  48 3.15
   6  0.863  0.430  0.849- 103 1.89 100 2.17  98 2.43  29 2.73  19 3.14
   7  0.611  0.960  0.387-  78 1.95  92 2.31  90 2.53  14 3.11  51 3.16
   8  0.545  0.521  0.758-  74 2.09  69 2.41  76 2.50  44 2.94
   9  0.058  0.897  0.354- 111 1.96  70 2.08  95 2.14  36 2.94  34 3.05
  10  0.757  0.355  0.552- 114 2.00 109 2.04  47 3.03
  11  0.302  0.760  0.725- 104 2.26  76 2.36  30 3.11
  12  0.279  0.498  0.781-  76 2.34  80 2.41  21 3.06
  13  0.248  0.591  0.121-  71 2.38 131 2.55
  14  0.780  0.109  0.325-  57 2.07 122 2.52   7 3.11
  15  0.396  0.082  0.299-  78 2.21  63 2.31 110 2.35  68 2.35
  16  0.119  0.280  0.086- 132 2.11 102 2.12   2 2.95  20 3.13
  17  0.040  0.942  0.652-  96 2.08  75 2.22
  18  0.749  0.596  0.419- 126 2.08  65 2.13  93 2.15 109 2.48  42 2.79
  19  0.934  0.505  0.638-  88 1.82  93 2.12  44 2.71   6 3.14
  20  0.303  0.291  0.941-  80 2.11 132 2.31 123 2.41  16 3.13
  21  0.327  0.535  0.559- 105 2.07  76 2.25 134 2.34  94 2.41  12 3.06
  22  0.620  0.031  0.753-  91 2.27 124 2.39  52 3.13  47 3.16
  23  0.994  0.270  0.396- 106 1.97  61 2.08  36 2.82
  24  0.566  0.986  0.084-  81 2.19 125 2.34  78 2.47  79 2.54  32 3.09
  25  0.493  0.309  0.351- 120 2.22  63 2.33 110 2.36 117 2.54 116 2.55  54 2.69
  26  0.520  0.496  0.167- 120 1.91  82 2.32 116 2.34  49 3.13
  27  0.294  0.084  0.704- 127 1.90  83 2.34 123 2.34
  28  0.500  0.765  0.147- 118 1.61  77 1.63  82 1.64  79 1.86  41 2.70
  29  0.056  0.370  0.818- 103 1.64  88 1.73  80 1.85 101 1.90  40 2.67   6 2.73
  30  0.492  0.816  0.848- 104 1.57 125 1.71  72 1.93  11 3.11
  31  0.979  0.508  0.305- 135 1.56  65 1.58  61 1.65  66 1.71 133 1.99  43 2.33  42 2.95
  32  0.340  0.942  0.115- 128 1.62  68 1.68  79 1.69  56 1.76 131 2.37  41 2.80  24 3.09
  33  0.756  0.130  0.011-  62 1.55  86 1.64  60 1.70  81 1.74   4 3.10
  34  0.847  0.823  0.407- 111 1.61  67 1.65  90 1.77  97 1.80  51 2.61   9 3.05
  35  0.385  0.793  0.454-  92 1.58  87 1.62  59 1.67 105 1.90  41 2.62  45 2.63   3 3.12
  36  0.122  0.108  0.346-  73 1.59 106 1.65  70 1.70  95 1.93  23 2.82   9 2.94   5 3.09
  37  0.916  0.608  0.067- 119 1.55  98 1.61 133 1.70 121 2.00  55 2.41  42 2.58  50 2.71
  38  0.708  0.383  0.281- 116 1.68 122 1.71 109 1.81 108 1.95 126 2.07  42 3.03
  39  0.140  0.854  0.959- 112 1.55  85 1.81 107 1.94 128 2.00  50 3.13
  40  0.115  0.179  0.843- 132 1.65  83 1.69 101 1.69 123 1.90  29 2.67
  41  0.336  0.793  0.264- 131 1.57  87 1.58 118 1.71  68 1.79  35 2.62  28 2.70  32 2.80
  42  0.792  0.584  0.214- 126 1.71  55 1.81 108 1.93 133 2.06  65 2.40  37 2.58  18 2.79  31 2.95
                            38 3.03  51 3.11
  43  0.125  0.503  0.402-  66 1.48 134 1.57  61 1.77  89 2.24  31 2.33
  44  0.745  0.569  0.678-  93 1.66  64 1.71 100 1.72  69 1.84  19 2.71   8 2.94
  45  0.256  0.941  0.481-  75 1.53 113 1.55  70 1.85  59 1.89  87 2.18  35 2.63
  46  0.490  0.134  0.550- 124 1.51  63 1.66 130 1.80 127 1.98  48 2.41
  47  0.766  0.132  0.595-  57 1.66 114 1.67  91 1.96 124 2.53  10 3.03  52 3.15  22 3.16
  48  0.434  0.296  0.608- 117 1.43 130 1.52  94 1.52 127 1.77  46 2.41   5 3.15
  49  0.445  0.606  0.973-  74 1.53  72 1.54  71 1.62  82 1.86  26 3.13
  50  0.069  0.632  0.934-  58 1.51 121 1.69 107 1.76 119 1.96  37 2.71  39 3.13
  51  0.730  0.806  0.251-  84 1.66  90 1.66  67 1.90  77 1.95  55 2.36  34 2.61  42 3.11   7 3.16

  52  0.802  0.909  0.667- 129 1.58  96 1.65  91 1.68  97 1.91   1 2.91  22 3.13  47 3.15
  53  0.607  0.277  0.882-  99 1.58 115 1.66  86 1.77
  54  0.327  0.353  0.245- 110 1.48 120 1.58 102 1.70  89 1.95  25 2.69
  55  0.762  0.683  0.127-  42 1.81  51 2.36  37 2.41
  56  0.338  0.074  0.107-  32 1.76
  57  0.750  0.096  0.477-  47 1.66  14 2.07
  58  0.076  0.613  0.822-  50 1.51
  59  0.336  0.850  0.555-  35 1.67  45 1.89
  60  0.771  0.024  0.943-  33 1.70   4 2.52
  61  0.019  0.424  0.388-  31 1.65  43 1.77  23 2.08
  62  0.857  0.172  0.054-  33 1.55   2 2.45
  63  0.492  0.151  0.427-  46 1.66  15 2.31  25 2.33
  64  0.823  0.650  0.741-  44 1.71   1 1.97
  65  0.895  0.570  0.362-  31 1.58  18 2.13  42 2.40
  66  0.088  0.573  0.324-  43 1.48  31 1.71
  67  0.867  0.798  0.288-  34 1.65  51 1.90
  68  0.336  0.926  0.241-  32 1.68  41 1.79  15 2.35
  69  0.625  0.613  0.624-  44 1.84   8 2.41   3 2.44
  70  0.173  0.998  0.385-  36 1.70  45 1.85   9 2.08
  71  0.357  0.526  0.996-  49 1.62  13 2.38
  72  0.428  0.709  0.923-  49 1.54  30 1.93
  73  0.140  0.179  0.252-  36 1.59
  74  0.530  0.566  0.907-  49 1.53   8 2.09
  75  0.179  0.963  0.563-  45 1.53  17 2.22
  76  0.389  0.608  0.698-  21 2.25  12 2.34  11 2.36   8 2.50
  77  0.622  0.770  0.158-  28 1.63  51 1.95
  78  0.532  0.991  0.267-   7 1.95  15 2.21  24 2.47
  79  0.425  0.858  0.073-  32 1.69  28 1.86  24 2.54
  80  0.186  0.367  0.865-  29 1.85  20 2.11  12 2.41
  81  0.686  0.094  0.116-  33 1.74  24 2.19
  82  0.487  0.653  0.099-  28 1.64  49 1.86  26 2.32
  83  0.129  0.081  0.764-  40 1.69  27 2.34
  84  0.739  0.922  0.206-  51 1.66
  85  0.222  0.909  0.864-  39 1.81
  86  0.667  0.173  0.937-  33 1.64  53 1.77
  87  0.302  0.828  0.372-  41 1.58  35 1.62  45 2.18
  88  0.005  0.411  0.707-  29 1.73  19 1.82
  89  0.236  0.385  0.356-  54 1.95   5 2.18  43 2.24
  90  0.720  0.804  0.375-  51 1.66  34 1.77   7 2.53
  91  0.782  0.030  0.700-  52 1.68  47 1.96  22 2.27
  92  0.485  0.857  0.446-  35 1.58   7 2.31
  93  0.804  0.564  0.568-  44 1.66  19 2.12  18 2.15
  94  0.390  0.393  0.652-  48 1.52  21 2.41
  95  0.996  0.042  0.324-  36 1.93   9 2.14
  96  0.909  0.907  0.730-  52 1.65  17 2.08
  97  0.815  0.874  0.528-  34 1.80  52 1.91
  98  0.850  0.555  0.981-  37 1.61   6 2.43
  99  0.646  0.387  0.904-  53 1.58
 100  0.744  0.457  0.741-  44 1.72   6 2.17
 101  0.003  0.239  0.840-  40 1.69  29 1.90
 102  0.241  0.360  0.152-  54 1.70  16 2.12
 103  0.991  0.420  0.910-  29 1.64   6 1.89
 104  0.465  0.806  0.734-  30 1.57   3 2.07  11 2.26
 105  0.365  0.652  0.464-  35 1.90  21 2.07
 106  0.103  0.181  0.444-  36 1.65  23 1.97   5 2.24
 107  0.155  0.714  0.992-  50 1.76  39 1.94
 108  0.791  0.444  0.177-  42 1.93  38 1.95   2 2.27
 109  0.725  0.411  0.413-  38 1.81  10 2.04  18 2.48
 110  0.359  0.247  0.253-  54 1.48  15 2.35  25 2.36
 111  0.964  0.817  0.435-  34 1.61   9 1.96
 112  0.046  0.891  0.016-  39 1.55   4 2.36
 113  0.359  0.995  0.472-  45 1.55
 114  0.835  0.236  0.601-  47 1.67  10 2.00
 115  0.510  0.208  0.842-  53 1.66
 116  0.611  0.351  0.207-  38 1.68  26 2.34  25 2.55
 117  0.390  0.319  0.513-  48 1.43   5 2.13  25 2.54
 118  0.455  0.744  0.257-  28 1.61  41 1.71
 119  0.957  0.697  0.003-  37 1.55  50 1.96
 120  0.427  0.417  0.242-  54 1.58  26 1.91  25 2.22
 121  0.051  0.553  0.032-  50 1.69  37 2.00
 122  0.800  0.292  0.282-  38 1.71   2 2.45  14 2.52
 123  0.235  0.228  0.785-  40 1.90  27 2.34  20 2.41
 124  0.583  0.080  0.585-  46 1.51  22 2.39  47 2.53
 125  0.541  0.898  0.934-  30 1.71  24 2.34
 126  0.695  0.538  0.285-  42 1.71  38 2.07  18 2.08
 127  0.378  0.179  0.638-  48 1.77  27 1.90  46 1.98
 128  0.259  0.882  0.046-  32 1.62  39 2.00
 129  0.720  0.830  0.697-  52 1.58   1 2.34   3 2.51
 130  0.538  0.252  0.595-  48 1.52  46 1.80
 131  0.303  0.772  0.153-  41 1.57  32 2.37  13 2.55
 132  0.159  0.196  0.958-  40 1.65  16 2.11  20 2.31
 133  0.944  0.599  0.192-  37 1.70  31 1.99  42 2.06
 134  0.158  0.539  0.509-  43 1.57  21 2.34
 135  0.999  0.418  0.232-  31 1.56   2 2.13
 

IMPORTANT INFORMATION: All symmetrisations will be switched off!
NOSYMM: (Re-)initialisation of all symmetry stuff for point group C_1.

 
 

Automatic generation of k-mesh.
 generate k-points for:    2    2    2
Space group operators:
 irot       det(A)        alpha          n_x          n_y          n_z        tau_x        tau_y        tau_z
    1     1.000000     0.000001     1.000000     0.000000     0.000000     0.000000     0.000000     0.000000
 
 Subroutine IBZKPT returns following result:
 ===========================================
 
 Found      8 irreducible k-points:
 
 Following reciprocal coordinates:
            Coordinates               Weight
  0.000000  0.000000  0.000000      1.000000
  0.500000  0.000000  0.000000      1.000000
  0.000000  0.500000  0.000000      1.000000
  0.500000  0.500000  0.000000      1.000000
  0.000000  0.000000  0.500000      1.000000
  0.500000  0.000000  0.500000      1.000000
  0.000000  0.500000  0.500000      1.000000
  0.500000  0.500000  0.500000      1.000000
 
 Following cartesian coordinates:
            Coordinates               Weight
  0.000000  0.000000  0.000000      1.000000
  0.037563  0.000000  0.000000      1.000000
  0.000000  0.037563  0.000000      1.000000
  0.037563  0.037563  0.000000      1.000000
  0.000000  0.000000  0.037563      1.000000
  0.037563  0.000000  0.037563      1.000000
  0.000000  0.037563  0.037563      1.000000
  0.037563  0.037563  0.037563      1.000000
 


--------------------------------------------------------------------------------------------------------




 Dimension of arrays:
   k-points           NKPTS =      8   k-points in BZ     NKDIM =      8   number of bands    NBANDS=    520
   number of dos      NEDOS =    301   number of ions     NIONS =    135
   non local maximal  LDIM  =      6   non local SUM 2l+1 LMDIM =     18
   total plane-waves  NPLWV = ******
   max r-space proj   IRMAX =   7167   max aug-charges    IRDMAX= 204049
   dimension x,y,z NGX =   108 NGY =  108 NGZ =  108
   dimension x,y,z NGXF=   216 NGYF=  216 NGZF=  216
   support grid    NGXF=   432 NGYF=  432 NGZF=  432
   ions per type =              27  27  81
   NGX,Y,Z   is equivalent  to a cutoff of  13.49, 13.49, 13.49 a.u.
   NGXF,Y,Z  is equivalent  to a cutoff of  26.98, 26.98, 26.98 a.u.

 SYSTEM =  unknown system                          
 POSCAR =  Ca Si  O                                

 Startparameter for this run:
   NWRITE =      2    write-flag & timer
   PREC   = a         normal or accurate (medium, high low for compatibility)
   ISTART =      0    job   : 0-new  1-cont  2-samecut
   ICHARG =      2    charge: 1-file 2-atom 10-const
   ISPIN  =      1    spin polarized calculation?
   LNONCOLLINEAR =      F non collinear calculations
   LSORBIT =      F    spin-orbit coupling
   INIWAV =      1    electr: 0-lowe 1-rand  2-diag
   LASPH  =      F    aspherical Exc in radial PAW
   METAGGA=      F    non-selfconsistent MetaGGA calc.

 Electronic Relaxation 1
   ENCUT  =  600.0 eV  44.10 Ry    6.64 a.u.  26.59 26.59 26.59*2*pi/ulx,y,z
   ENINI  =  600.0     initial cutoff
   ENAUG  =  605.4 eV  augmentation charge cutoff
   NELM   =     60;   NELMIN=  2; NELMDL= -5     # of ELM steps 
   EDIFF  = 0.1E-05   stopping-criterion for ELM
   LREAL  =      T    real-space projection
   NLSPLINE    = F    spline interpolate recip. space projectors
   LCOMPAT=      F    compatible to vasp.4.4
   GGA_COMPAT  = T    GGA compatible to vasp.4.4-vasp.4.6
   LMAXPAW     = -100 max onsite density
   LMAXMIX     =    2 max onsite mixed and CHGCAR
   VOSKOWN=      0    Vosko Wilk Nusair interpolation
   ROPT   =   -0.00025  -0.00025  -0.00025
 Ionic relaxation
   EDIFFG = -.1E-01   stopping-criterion for IOM
   NSW    =      1    number of steps for IOM
   NBLOCK =      1;   KBLOCK =      1    inner block; outer block 
   IBRION =     -1    ionic relax: 0-MD 1-quasi-New 2-CG
   NFREE  =      0    steps in history (QN), initial steepest desc. (CG)
   ISIF   =      2    stress and relaxation
   IWAVPR =     10    prediction:  0-non 1-charg 2-wave 3-comb
   ISYM   =      0    0-nonsym 1-usesym 2-fastsym
   LCORR  =      T    Harris-Foulkes like correction to forces

   POTIM  = 1.0000    time-step for ionic-motion
   TEIN   =    0.0    initial temperature
   TEBEG  =    0.0;   TEEND  =   0.0 temperature during run
   SMASS  =  -3.00    Nose mass-parameter (am)
   estimated Nose-frequenzy (Omega)   =  0.10E-29 period in steps =****** mass=  -0.405E-26a.u.
   SCALEE = 1.0000    scale energy and forces
   NPACO  =    256;   APACO  = 16.0  distance and # of slots for P.C.
   PSTRESS=    0.0 pullay stress

  Mass of Ions in am
   POMASS =  40.08 28.09 16.00
  Ionic Valenz
   ZVAL   =  10.00  4.00  6.00
  Atomic Wigner-Seitz radii
   RWIGS  =  -1.00 -1.00 -1.00
  virtual crystal weights 
   VCA    =   1.00  1.00  1.00
   NELECT =     864.0000    total number of electrons
   NUPDOWN=      -1.0000    fix difference up-down

 DOS related values:
   EMIN   =  10.00;   EMAX   =-10.00  energy-range for DOS
   EFERMI =   0.00
   ISMEAR =     0;   SIGMA  =   0.05  broadening in eV -4-tet -1-fermi 0-gaus

 Electronic relaxation 2 (details)
   IALGO  =     38    algorithm
   LDIAG  =      T    sub-space diagonalisation (order eigenvalues)
   LSUBROT=      F    optimize rotation matrix (better conditioning)
   TURBO    =      0    0=normal 1=particle mesh
   IRESTART =      0    0=no restart 2=restart with 2 vectors
   NREBOOT  =      0    no. of reboots
   NMIN     =      0    reboot dimension
   EREF     =   0.00    reference energy to select bands
   IMIX   =      4    mixing-type and parameters
     AMIX     =   0.40;   BMIX     =  1.00
     AMIX_MAG =   1.60;   BMIX_MAG =  1.00
     AMIN     =   0.10
     WC   =   100.;   INIMIX=   1;  MIXPRE=   1;  MAXMIX= -45

 Intra band minimization:
   WEIMIN = 0.0000     energy-eigenvalue tresh-hold
   EBREAK =  0.48E-09  absolut break condition
   DEPER  =   0.30     relativ break condition  

   TIME   =   0.40     timestep for ELM

  volume/ion in A,a.u.               =      17.47       117.89
  Fermi-wavevector in a.u.,A,eV,Ry     =   1.171397  2.213620 18.669524  1.372171
  Thomas-Fermi vector in A             =   2.307841
 
 Write flags
   LWAVE        =      F    write WAVECAR
   LDOWNSAMPLE  =      F    k-point downsampling of WAVECAR
   LCHARG       =      F    write CHGCAR
   LVTOT        =      F    write LOCPOT, total local potential
   LVHAR        =      F    write LOCPOT, Hartree potential only
   LELF         =      F    write electronic localiz. function (ELF)
   LORBIT       =      0    0 simple, 1 ext, 2 COOP (PROOUT), +10 PAW based schemes


 Dipole corrections
   LMONO  =      F    monopole corrections only (constant potential shift)
   LDIPOL =      F    correct potential (dipole corrections)
   IDIPOL =      0    1-x, 2-y, 3-z, 4-all directions 
   EPSILON=  1.0000000 bulk dielectric constant

 Exchange correlation treatment:
   GGA     =    --    GGA type
   LEXCH   =     8    internal setting for exchange type
   VOSKOWN=      0    Vosko Wilk Nusair interpolation
   LHFCALC =     F    Hartree Fock is set to
   LHFONE  =     F    Hartree Fock one center treatment
   AEXX    =    0.0000 exact exchange contribution

 Linear response parameters
   LEPSILON=     F    determine dielectric tensor
   LRPA    =     F    only Hartree local field effects (RPA)
   LNABLA  =     F    use nabla operator in PAW spheres
   LVEL    =     F    velocity operator in full k-point grid
   LINTERFAST=   F  fast interpolation
   KINTER  =     0    interpolate to denser k-point grid
   CSHIFT  =0.1000    complex shift for real part using Kramers Kronig
   OMEGAMAX=  -1.0    maximum frequency
   DEG_THRESHOLD= 0.2000000E-02 threshold for treating states as degnerate
   RTIME   =   -0.100 relaxation time in fs
  (WPLASMAI=    0.000 imaginary part of plasma frequency in eV, 0.658/RTIME)
   DFIELD  = 0.0000000 0.0000000 0.0000000 field for delta impulse in time
 
 Orbital magnetization related:
   ORBITALMAG=     F  switch on orbital magnetization
   LCHIMAG   =     F  perturbation theory with respect to B field
   DQ        =  0.001000  dq finite difference perturbation B field
   LLRAUG    =     F  two centre corrections for induced B field



--------------------------------------------------------------------------------------------------------


 Static calculation
 charge density and potential will be updated during run
 non-spin polarized calculation
 Variant of blocked Davidson
 Davidson routine will perform the subspace rotation
 perform sub-space diagonalisation
    after iterative eigenvector-optimisation
 modified Broyden-mixing scheme, WC =      100.0
 initial mixing is a Kerker type mixing with AMIX =  0.4000 and BMIX =      1.0000
 Hartree-type preconditioning will be used
 using additional bands           88
 real space projection scheme for non local part
 use partial core corrections
 calculate Harris-corrections to forces 
   (improved forces if not selfconsistent)
 use gradient corrections 
 use of overlap-Matrix (Vanderbilt PP)
 Gauss-broadening in eV      SIGMA  =   0.05


--------------------------------------------------------------------------------------------------------


  energy-cutoff  :      600.00
  volume of cell :     2358.44
      direct lattice vectors                 reciprocal lattice vectors
    13.310935620  0.000000000  0.000000000     0.075126199  0.000000000  0.000000000
     0.000000000 13.310935620  0.000000000     0.000000000  0.075126199  0.000000000
     0.000000000  0.000000000 13.310935620     0.000000000  0.000000000  0.075126199

  length of vectors
    13.310935620 13.310935620 13.310935620     0.075126199  0.075126199  0.075126199


 
 k-points in units of 2pi/SCALE and weight: read from INCAR                         
   0.00000000  0.00000000  0.00000000       0.125
   0.03756310  0.00000000  0.00000000       0.125
   0.00000000  0.03756310  0.00000000       0.125
   0.03756310  0.03756310  0.00000000       0.125
   0.00000000  0.00000000  0.03756310       0.125
   0.03756310  0.00000000  0.03756310       0.125
   0.00000000  0.03756310  0.03756310       0.125
   0.03756310  0.03756310  0.03756310       0.125
 
 k-points in reciprocal lattice and weights: read from INCAR                         
   0.00000000  0.00000000  0.00000000       0.125
   0.50000000  0.00000000  0.00000000       0.125
   0.00000000  0.50000000  0.00000000       0.125
   0.50000000  0.50000000  0.00000000       0.125
   0.00000000  0.00000000  0.50000000       0.125
   0.50000000  0.00000000  0.50000000       0.125
   0.00000000  0.50000000  0.50000000       0.125
   0.50000000  0.50000000  0.50000000       0.125
 
 position of ions in fractional coordinates (direct lattice) 
   0.81319406  0.76568198  0.83173680
   0.90889726  0.32663459  0.13772464
   0.55806244  0.78263362  0.61160837
   0.88893775  0.94962880  0.07249686
   0.24837499  0.26349531  0.46446262
   0.86252443  0.42963536  0.84949231
   0.61071484  0.95989051  0.38657956
   0.54484846  0.52070680  0.75758021
   0.05802290  0.89706101  0.35436053
   0.75741685  0.35488249  0.55171683
   0.30164233  0.75969671  0.72493220
   0.27915591  0.49792678  0.78053612
   0.24808637  0.59116845  0.12149682
   0.77967934  0.10891345  0.32521793
   0.39645852  0.08152313  0.29944843
   0.11922046  0.27998273  0.08632282
   0.03988907  0.94189195  0.65234079
   0.74857629  0.59592860  0.41931730
   0.93404247  0.50547566  0.63826147
   0.30313128  0.29104412  0.94070312
   0.32687150  0.53471180  0.55857322
   0.61986596  0.03096781  0.75326028
   0.99442478  0.26980702  0.39587726
   0.56631811  0.98569677  0.08428639
   0.49289525  0.30919599  0.35143373
   0.51974879  0.49550448  0.16665098
   0.29435245  0.08395280  0.70441801
   0.50028413  0.76540160  0.14714525
   0.05593079  0.36951281  0.81842388
   0.49180701  0.81577269  0.84841009
   0.97904526  0.50771724  0.30522051
   0.34027812  0.94163894  0.11525489
   0.75575923  0.13030391  0.01144335
   0.84722911  0.82333187  0.40672641
   0.38485168  0.79313844  0.45439194
   0.12247214  0.10811896  0.34624381
   0.91591101  0.60849434  0.06715084
   0.70830480  0.38252005  0.28085389
   0.14028782  0.85441709  0.95852210
   0.11482433  0.17909712  0.84343908
   0.33622468  0.79319606  0.26379081
   0.79203257  0.58374543  0.21449495
   0.12483689  0.50303711  0.40199731
   0.74502944  0.56947184  0.67752589
   0.25647494  0.94123574  0.48105232
   0.49039037  0.13425253  0.55024992
   0.76585877  0.13181984  0.59546152
   0.43364305  0.29628732  0.60849829
   0.44503615  0.60632613  0.97311387
   0.06877330  0.63195698  0.93433108
   0.72962393  0.80602023  0.25093305
   0.80214675  0.90938059  0.66701591
   0.60654072  0.27698005  0.88180630
   0.32682659  0.35324508  0.24539605
   0.76191221  0.68329182  0.12671171
   0.33782358  0.07391108  0.10702548
   0.75026083  0.09594061  0.47722216
   0.07638674  0.61307810  0.82246449
   0.33586203  0.84983612  0.55502126
   0.77149880  0.02369828  0.94335818
   0.01935401  0.42399080  0.38758656
   0.85657139  0.17154524  0.05356132
   0.49174012  0.15144997  0.42670436
   0.82328104  0.64959423  0.74098046
   0.89541218  0.56987244  0.36151410
   0.08802303  0.57342229  0.32397310
   0.86744938  0.79762788  0.28751190
   0.33619196  0.92602213  0.24066111
   0.62536122  0.61261987  0.62414347
   0.17309408  0.99772176  0.38490412
   0.35671155  0.52566786  0.99551834
   0.42787705  0.70907648  0.92254141
   0.14039248  0.17936237  0.25205231
   0.52997322  0.56574699  0.90728075
   0.17936510  0.96313288  0.56334688
   0.38923180  0.60757678  0.69762419
   0.62220647  0.76971213  0.15796577
   0.53237874  0.99144286  0.26671378
   0.42535009  0.85775151  0.07342043
   0.18635972  0.36746705  0.86548087
   0.68638558  0.09365104  0.11637497
   0.48683234  0.65271703  0.09850170
   0.12928997  0.08067414  0.76432769
   0.73866561  0.92157650  0.20566780
   0.22164454  0.90897596  0.86429413
   0.66736274  0.17293038  0.93733820
   0.30213297  0.82784347  0.37215672
   0.00461004  0.41079112  0.70669059
   0.23618467  0.38546748  0.35590344
   0.71978321  0.80443073  0.37531787
   0.78165834  0.02958823  0.70027829
   0.48501429  0.85665586  0.44604378
   0.80425186  0.56432426  0.56788414
   0.39033155  0.39307380  0.65183407
   0.99580732  0.04193891  0.32390002
   0.90898905  0.90658498  0.72988075
   0.81495737  0.87359984  0.52830648
   0.84993483  0.55543844  0.98120287
   0.64610509  0.38676023  0.90428752
   0.74403673  0.45659262  0.74079681
   0.00264911  0.23910576  0.84017293
   0.24063916  0.36022843  0.15163319
   0.99055198  0.41952916  0.90986804
   0.46471113  0.80620284  0.73404775
   0.36543917  0.65193735  0.46429835
   0.10298483  0.18135125  0.44416135
   0.15509426  0.71360165  0.99195173
   0.79124023  0.44376613  0.17726372
   0.72524432  0.41134091  0.41267250
   0.35916801  0.24749654  0.25308071
   0.96440686  0.81685115  0.43529719
   0.04610791  0.89118520  0.01588179
   0.35934466  0.99456639  0.47177992
   0.83504507  0.23627490  0.60147173
   0.51034019  0.20845268  0.84176726
   0.61133194  0.35062110  0.20671835
   0.39045918  0.31900179  0.51252513
   0.45461670  0.74375492  0.25738702
   0.95669242  0.69727925  0.00346517
   0.42707365  0.41667291  0.24230254
   0.05114694  0.55338944  0.03217927
   0.79950518  0.29238782  0.28217448
   0.23513289  0.22831623  0.78507997
   0.58316681  0.07953161  0.58468126
   0.54142437  0.89838797  0.93378042
   0.69459631  0.53768507  0.28456658
   0.37816037  0.17869173  0.63770497
   0.25947204  0.88197396  0.04592886
   0.71973118  0.82982696  0.69721681
   0.53792903  0.25233547  0.59549138
   0.30300473  0.77193348  0.15271052
   0.15865542  0.19617913  0.95807767
   0.94428838  0.59867827  0.19156067
   0.15823616  0.53884160  0.50889269
   0.99938218  0.41814321  0.23227298
 
 position of ions in cartesian coordinates  (Angst):
  10.82437375 10.19194355 11.07119499
  12.09827286  4.34781194  1.83324379
   7.42833316 10.41758577  8.14107961
  11.83259321 12.64044778  0.96500100
   3.30610351  3.50736915  6.18243198
  11.48100717  5.71884867 11.30753744
   8.12918594 12.77704084  5.14573570
   7.25244282  6.93109470 10.08410135
   0.77233910 11.94072134  4.71687018
  10.08192696  4.72381801  7.34386726
   4.01514158 10.11227401  9.64952583
   3.71582632  6.62787136 10.38966610
   3.30226165  7.86900524  1.61723637
  10.37826155  1.44973996  4.32895491
   5.27723384  1.08514918  3.98593873
   1.58693593  3.72683215  1.14903755
   0.53096086 12.53746310  8.68326621
   9.96425083  7.93236728  5.58150556
  12.43297922  6.72835400  8.49585728
   4.03496094  3.87406953 12.52163869
   4.35096545  7.11751438  7.43513219
   8.25099590  0.41221051 10.02659913
  13.23672420  3.59138383  5.26949672
   7.53822389 13.12054619  1.12193070
   6.56089694  4.11568797  4.67791170
   6.91834273  6.59562821  2.21828052
   3.91810645  1.11749028  9.37646274
   6.65924986 10.18821145  1.95864094
   0.74449108  4.91856129 10.89398751
   6.54641141 10.85869773 11.29313206
  13.03200836  6.75819154  4.06277056
   4.52942015 12.53409527  1.53415048
  10.05986247  1.73446695  0.15232166
  11.27741220 10.95931757  5.41390903
   5.12273590 10.55741465  6.04838180
   1.63021872  1.43916447  4.60882902
  12.19163251  8.09962901  0.89384049
   9.42819960  5.09169980  3.73842811
   1.86736219 11.37309092 12.75882590
   1.52841928  2.38395029 11.22696331
   4.47546504 10.55818170  3.51130243
  10.54269450  7.77019782  2.85512847
   1.66169581  6.69589457  5.35096032
   9.91703896  7.58020299  9.01850355
   3.41392138 12.52872830  6.40325643
   6.52755465  1.78702678  7.32434122
  10.19429674  1.75464543  7.92614990
   5.77219470  3.94386138  8.09968153
   5.92384757  8.07076804 12.95305612
   0.91543697  8.41193874 12.43682079
   9.71197716 10.72888339  3.34015368
  10.67732372 12.10470655  8.87860583
   8.07362443  3.68686366 11.73766693
   4.35036768  4.70202255  3.26645107
  10.14176438  9.09525339  1.68665135
   4.49674798  0.98382557  1.42460925
   9.98667367  1.27705933  6.35227351
   1.01677893  8.16064310 10.94777192
   4.47063782 11.31211388  7.38785222
  10.26937087  0.31544630 12.55698004
   0.25761993  5.64371420  5.15913971
  11.40176669  2.28342759  0.71295127
   6.54552111  2.01594079  5.67983428
  10.95864093  8.64670691  9.86314315
  11.91877392  7.58553541  4.81209092
   1.17166893  7.63278722  4.31238511
  11.54656287 10.61717338  3.82705233
   4.47502954 12.32622090  3.20342448
   8.32414297  8.15454361  8.30793359
   2.30404421 13.28061010  5.12343396
   4.74816446  6.99713109 13.25128057
   5.69544389  9.43847136 12.27988933
   1.86875527  2.38748090  3.35505202
   7.05443940  7.53062170 12.07675561
   2.38751727 12.82019982  7.49867408
   5.18103938  8.08741546  9.28603064
   8.28215032 10.24558856  2.10267224
   7.08645916 13.19703210  3.55020995
   5.66180764 11.41747519  0.97729460
   2.48062225  4.89133027 11.52036019
   9.13643433  1.24658293  1.54905977
   6.48019390  8.68827435  1.31114976
   1.72097044  1.07384822 10.17391668
   9.83233038 12.26704549  2.73763090
   2.95029621 12.09932045 11.50456348
   8.88322253  2.30186518 12.47684838
   4.02167247 11.01937118  4.95375418
   0.06136399  5.46801420  9.40671299
   3.14383888  5.13093283  4.73740778
   9.58098803 10.70772561  4.99583206
  10.40460378  0.39384709  9.32135926
   6.45599404 11.40289095  5.93726008
  10.70534470  7.51168385  7.55906919
   5.19567819  5.23218000  8.67652131
  13.25512717  0.55824619  4.31141227
  12.09949467 12.06749433  9.71539569
  10.84784509 11.62843122  7.03225349
  11.31342774  7.39340526 13.06072819
   8.60026326  5.14814056 12.03691300
   9.90382496  6.07767499  9.86069868
   0.03526214  3.18272137 11.18348784
   3.20313238  4.79497741  2.01837957
  13.18517369  5.58432564 12.11119494
   6.18573997 10.73131407  9.77086238
   4.86433732  8.67789614  6.18024548
   1.37082447  2.41395477  5.91220308
   2.06444968  9.49870565 13.20380561
  10.53214771  5.90694238  2.35954601
   9.65368046  5.47533239  5.49305704
   4.78086221  3.29441056  3.36874102
  12.83715764 10.87305308  5.79421293
   0.61373939 11.86250882  0.21140150
   4.78321363 13.23860916  6.27983211
  11.11523120  3.14504002  8.00615145
   6.79310535  2.77470019 11.20470984
   8.13740016  4.66709489  2.75161464
   5.19737699  4.24621233  6.82218896
   6.05137356  9.90007381  3.42606204
  12.73447125  9.28143916  0.04612465
   5.68474987  5.54630626  3.22527355
   0.68081361  7.36613127  0.42833619
  10.64216200  3.89195540  3.75600634
   3.12983875  3.03910269 10.45014898
   7.76249583  1.05864019  7.78265458
   7.20686496 11.95838437 12.42949111
   9.24572683  7.15709135  3.78784739
   5.03366833  2.37855411  8.48844974
   3.45381559 11.73989854  0.61135611
   9.58029539 11.04577319  9.28060808
   7.16033871  3.35882118  7.92654741
   4.03327651 10.27515681  2.03271991
   2.11185210  2.61132771 12.75291014
  12.56936185  7.96896797  2.54985175
   2.10627138  7.17248585  6.77383784
  13.30271182  5.56587735  3.09177069
 


--------------------------------------------------------------------------------------------------------


 k-point  1 :   0.0000 0.0000 0.0000  plane waves:   78805
 k-point  2 :   0.5000 0.0000 0.0000  plane waves:   78774
 k-point  3 :   0.0000 0.5000 0.0000  plane waves:   78774
 k-point  4 :   0.5000 0.5000 0.0000  plane waves:   78724
 k-point  5 :   0.0000 0.0000 0.5000  plane waves:   78774
 k-point  6 :   0.5000 0.0000 0.5000  plane waves:   78724
 k-point  7 :   0.0000 0.5000 0.5000  plane waves:   78724
 k-point  8 :   0.5000 0.5000 0.5000  plane waves:   78792

 maximum and minimum number of plane-waves per node :      6096     6000

 maximum number of plane-waves:     78805
 maximum index in each direction: 
   IXMAX=   26   IYMAX=   26   IZMAX=   26
   IXMIN=  -27   IYMIN=  -27   IZMIN=  -27


 real space projection operators:
  total allocation   :      49146.39 KBytes
  max/ min on nodes  :       4139.78       3560.23


 parallel 3D FFT for wavefunctions:
    minimum data exchange during FFTs selected (reduces bandwidth)
 parallel 3D FFT for charge:
    minimum data exchange during FFTs selected (reduces bandwidth)


 total amount of memory used by VASP MPI-rank0   207755. kBytes
=======================================================================

   base      :      30000. kBytes
   nonlr-proj:      21521. kBytes
   fftplans  :      33581. kBytes
   grid      :      19248. kBytes
   one-center:        171. kBytes
   wavefun   :     103234. kBytes
 
     INWAV:  cpu time    0.0000: real time    0.0000
 Broyden mixing: mesh for mixing (old mesh)
   NGX = 53   NGY = 53   NGZ = 53
  (NGX  =216   NGY  =216   NGZ  =216)
  gives a total of 148877 points

 initial charge density was supplied:
 charge density of overlapping atoms calculated
 number of electron     864.0000000 magnetization 
 keeping initial charge density in first step


--------------------------------------------------------------------------------------------------------


 Maximum index for non-local projection operator          838
 Maximum index for augmentation-charges         7613 (set IRDMAX)


--------------------------------------------------------------------------------------------------------


 First call to EWALD:  gamma=   0.133
 Maximum number of real-space cells 3x 3x 3
 Maximum number of reciprocal cells 3x 3x 3

    FEWALD:  cpu time    0.0043: real time    0.0043


--------------------------------------- Iteration      1(   1)  ---------------------------------------


    POTLOK:  cpu time    0.2056: real time    0.2127
    SETDIJ:  cpu time    0.4267: real time    0.4288
     EDDAV:  cpu time   48.1270: real time   48.1283
       DOS:  cpu time    0.0023: real time    0.0023
    --------------------------------------------
      LOOP:  cpu time   48.7615: real time   48.7720

 eigenvalue-minimisations  :  8320
 total energy-change (2. order) : 0.9297334E+04  (-0.4623873E+05)
 number of electron     864.0000000 magnetization 
 augmentation part      864.0000000 magnetization 

 Free energy of the ion-electron system (eV)
  ---------------------------------------------------
  alpha Z        PSCENC =      2026.14881195
  Ewald energy   TEWEN  =    -35644.19244608
  -Hartree energ DENC   =    -25023.05631188
  -exchange      EXHF   =         0.00000000
  -V(xc)+E(xc)   XCENC  =      3131.06292713
  PAW double counting   =     50594.51003143   -49994.65612350
  entropy T*S    EENTRO =        -0.03938039
  eigenvalues    EBANDS =      -760.98332792
  atomic energy  EATOM  =     64968.54023382
  Solvation  Ediel_sol  =         0.00000000
  ---------------------------------------------------
  free energy    TOTEN  =      9297.33441458 eV

  energy without entropy =     9297.37379496  energy(sigma->0) =     9297.35410477


--------------------------------------------------------------------------------------------------------




--------------------------------------- Iteration      1(   2)  ---------------------------------------


     EDDAV:  cpu time   56.3947: real time   56.4208
       DOS:  cpu time    0.0009: real time    0.0009
    --------------------------------------------
      LOOP:  cpu time   56.3956: real time   56.4217

 eigenvalue-minimisations  : 10248
 total energy-change (2. order) :-0.9265770E+04  (-0.8983116E+04)
 number of electron     864.0000000 magnetization 
 augmentation part      864.0000000 magnetization 

 Free energy of the ion-electron system (eV)
  ---------------------------------------------------
  alpha Z        PSCENC =      2026.14881195
  Ewald energy   TEWEN  =    -35644.19244608
  -Hartree energ DENC   =    -25023.05631188
  -exchange      EXHF   =         0.00000000
  -V(xc)+E(xc)   XCENC  =      3131.06292713
  PAW double counting   =     50594.51003143   -49994.65612350
  entropy T*S    EENTRO =        -0.00000000
  eigenvalues    EBANDS =    -10026.79228610
  atomic energy  EATOM  =     64968.54023382
  Solvation  Ediel_sol  =         0.00000000
  ---------------------------------------------------
  free energy    TOTEN  =        31.56483678 eV

  energy without entropy =       31.56483678  energy(sigma->0) =       31.56483678


--------------------------------------------------------------------------------------------------------




--------------------------------------- Iteration      1(   3)  ---------------------------------------


     EDDAV:  cpu time   56.9193: real time   56.9452
       DOS:  cpu time    0.0009: real time    0.0009
    --------------------------------------------
      LOOP:  cpu time   56.9202: real time   56.9461

 eigenvalue-minimisations  : 10272
 total energy-change (2. order) :-0.1044458E+04  (-0.1037412E+04)
 number of electron     864.0000000 magnetization 
 augmentation part      864.0000000 magnetization 

 Free energy of the ion-electron system (eV)
  ---------------------------------------------------
  alpha Z        PSCENC =      2026.14881195
  Ewald energy   TEWEN  =    -35644.19244608
  -Hartree energ DENC   =    -25023.05631188
  -exchange      EXHF   =         0.00000000
  -V(xc)+E(xc)   XCENC  =      3131.06292713
  PAW double counting   =     50594.51003143   -49994.65612350
  entropy T*S    EENTRO =        -0.00000000
  eigenvalues    EBANDS =    -11071.25038478
  atomic energy  EATOM  =     64968.54023382
  Solvation  Ediel_sol  =         0.00000000
  ---------------------------------------------------
  free energy    TOTEN  =     -1012.89326190 eV

  energy without entropy =    -1012.89326190  energy(sigma->0) =    -1012.89326190


--------------------------------------------------------------------------------------------------------




--------------------------------------- Iteration      1(   4)  ---------------------------------------


     EDDAV:  cpu time   61.6427: real time   61.6582
       DOS:  cpu time    0.0009: real time    0.0009
    --------------------------------------------
      LOOP:  cpu time   61.6436: real time   61.6590

 eigenvalue-minimisations  : 11360
 total energy-change (2. order) :-0.4792545E+02  (-0.4773263E+02)
 number of electron     864.0000000 magnetization 
 augmentation part      864.0000000 magnetization 

 Free energy of the ion-electron system (eV)
  ---------------------------------------------------
  alpha Z        PSCENC =      2026.14881195
  Ewald energy   TEWEN  =    -35644.19244608
  -Hartree energ DENC   =    -25023.05631188
  -exchange      EXHF   =         0.00000000
  -V(xc)+E(xc)   XCENC  =      3131.06292713
  PAW double counting   =     50594.51003143   -49994.65612350
  entropy T*S    EENTRO =        -0.00000000
  eigenvalues    EBANDS =    -11119.17583821
  atomic energy  EATOM  =     64968.54023382
  Solvation  Ediel_sol  =         0.00000000
  ---------------------------------------------------
  free energy    TOTEN  =     -1060.81871533 eV

  energy without entropy =    -1060.81871533  energy(sigma->0) =    -1060.81871533


--------------------------------------------------------------------------------------------------------




--------------------------------------- Iteration      1(   5)  ---------------------------------------


     EDDAV:  cpu time   75.3788: real time   75.3958
       DOS:  cpu time    0.0009: real time    0.0009
    CHARGE:  cpu time    2.2212: real time    2.2212
    MIXING:  cpu time    0.0069: real time    0.0071
    --------------------------------------------
      LOOP:  cpu time   77.6077: real time   77.6250

 eigenvalue-minimisations  : 14544
 total energy-change (2. order) :-0.6124460E+01  (-0.6121454E+01)
 number of electron     864.0000007 magnetization 
 augmentation part      134.0124744 magnetization 

 Broyden mixing:
  rms(total) = 0.86578E+01    rms(broyden)= 0.86570E+01
  rms(prec ) = 0.10178E+02
  weight for this iteration     100.00

 Free energy of the ion-electron system (eV)
  ---------------------------------------------------
  alpha Z        PSCENC =      2026.14881195
  Ewald energy   TEWEN  =    -35644.19244608
  -Hartree energ DENC   =    -25023.05631188
  -exchange      EXHF   =         0.00000000
  -V(xc)+E(xc)   XCENC  =      3131.06292713
  PAW double counting   =     50594.51003143   -49994.65612350
  entropy T*S    EENTRO =        -0.00000000
  eigenvalues    EBANDS =    -11125.30029802
  atomic energy  EATOM  =     64968.54023382
  Solvation  Ediel_sol  =         0.00000000
  ---------------------------------------------------
  free energy    TOTEN  =     -1066.94317515 eV

  energy without entropy =    -1066.94317515  energy(sigma->0) =    -1066.94317515


--------------------------------------------------------------------------------------------------------




--------------------------------------- Iteration      1(   6)  ---------------------------------------


    POTLOK:  cpu time    0.1964: real time    0.2191
    SETDIJ:  cpu time    0.4059: real time    0.4077
     EDDAV:  cpu time   56.6181: real time   56.6208
       DOS:  cpu time    0.0018: real time    0.0018
    CHARGE:  cpu time    2.2043: real time    2.2043
    MIXING:  cpu time    0.0083: real time    0.0085
    --------------------------------------------
      LOOP:  cpu time   59.4349: real time   59.4621

 eigenvalue-minimisations  : 10320
 total energy-change (2. order) : 0.1723822E+03  (-0.8236328E+02)
 number of electron     864.0000007 magnetization 
 augmentation part      118.5024220 magnetization 

 Broyden mixing:
  rms(total) = 0.38499E+01    rms(broyden)= 0.38483E+01
  rms(prec ) = 0.41793E+01
  weight for this iteration     100.00

 eigenvalues of (default mixing * dielectric matrix)
  average eigenvalue GAMMA=   0.9258
  0.9258

 Free energy of the ion-electron system (eV)
  ---------------------------------------------------
  alpha Z        PSCENC =      2026.14881195
  Ewald energy   TEWEN  =    -35644.19244608
  -Hartree energ DENC   =    -26682.47390173
  -exchange      EXHF   =         0.00000000
  -V(xc)+E(xc)   XCENC  =      3233.71191047
  PAW double counting   =     64508.27941067   -64051.83154198
  entropy T*S    EENTRO =        -0.00000226
  eigenvalues    EBANDS =     -9252.74340407
  atomic energy  EATOM  =     64968.54023382
  Solvation  Ediel_sol  =         0.00000000
  ---------------------------------------------------
  free energy    TOTEN  =      -894.56092920 eV

  energy without entropy =     -894.56092695  energy(sigma->0) =     -894.56092808


--------------------------------------------------------------------------------------------------------




--------------------------------------- Iteration      1(   7)  ---------------------------------------


    POTLOK:  cpu time    0.2016: real time    0.2158
    SETDIJ:  cpu time    0.4130: real time    0.4130
     EDDAV:  cpu time   59.9045: real time   59.9045
       DOS:  cpu time    0.0024: real time    0.0024
    CHARGE:  cpu time    2.2099: real time    2.2099
    MIXING:  cpu time    0.0078: real time    0.0078
    --------------------------------------------
      LOOP:  cpu time   62.7392: real time   62.7534

 eigenvalue-minimisations  : 11008
 total energy-change (2. order) :-0.2249273E+01  (-0.9263545E+01)
 number of electron     864.0000007 magnetization 
 augmentation part      118.6621792 magnetization 

 Broyden mixing:
  rms(total) = 0.21062E+01    rms(broyden)= 0.21060E+01
  rms(prec ) = 0.24083E+01
  weight for this iteration     100.00

 eigenvalues of (default mixing * dielectric matrix)
  average eigenvalue GAMMA=   1.0320
  1.0320  1.0320

 Free energy of the ion-electron system (eV)
  ---------------------------------------------------
  alpha Z        PSCENC =      2026.14881195
  Ewald energy   TEWEN  =    -35644.19244608
  -Hartree energ DENC   =    -26735.76178207
  -exchange      EXHF   =         0.00000000
  -V(xc)+E(xc)   XCENC  =      3232.84215650
  PAW double counting   =     74894.43089020   -74487.64266790
  entropy T*S    EENTRO =        -0.01223590
  eigenvalues    EBANDS =     -9151.16316246
  atomic energy  EATOM  =     64968.54023382
  Solvation  Ediel_sol  =         0.00000000
  ---------------------------------------------------
  free energy    TOTEN  =      -896.81020194 eV

  energy without entropy =     -896.79796603  energy(sigma->0) =     -896.80408398


--------------------------------------------------------------------------------------------------------




--------------------------------------- Iteration      1(   8)  ---------------------------------------


    POTLOK:  cpu time    0.2080: real time    0.2354
    SETDIJ:  cpu time    0.4371: real time    0.4372
     EDDAV:  cpu time   65.7192: real time   65.7204
       DOS:  cpu time    0.0024: real time    0.0024
    CHARGE:  cpu time    2.2545: real time    2.2545
    MIXING:  cpu time    0.0089: real time    0.0089
    --------------------------------------------
      LOOP:  cpu time   68.6301: real time   68.6588

 eigenvalue-minimisations  : 12376
 total energy-change (2. order) : 0.4801675E+01  (-0.1692393E+01)
 number of electron     864.0000006 magnetization 
 augmentation part      118.1029581 magnetization 

 Broyden mixing:
  rms(total) = 0.13828E+01    rms(broyden)= 0.13825E+01
  rms(prec ) = 0.16787E+01
  weight for this iteration     100.00

 eigenvalues of (default mixing * dielectric matrix)
  average eigenvalue GAMMA=   1.0924
  1.6530  1.0690  0.5553

 Free energy of the ion-electron system (eV)
  ---------------------------------------------------
  alpha Z        PSCENC =      2026.14881195
  Ewald energy   TEWEN  =    -35644.19244608
  -Hartree energ DENC   =    -26798.71628491
  -exchange      EXHF   =         0.00000000
  -V(xc)+E(xc)   XCENC  =      3233.82104093
  PAW double counting   =     80410.57840252   -80035.10258878
  entropy T*S    EENTRO =        -0.00047427
  eigenvalues    EBANDS =     -9053.08522222
  atomic energy  EATOM  =     64968.54023382
  Solvation  Ediel_sol  =         0.00000000
  ---------------------------------------------------
  free energy    TOTEN  =      -892.00852703 eV

  energy without entropy =     -892.00805276  energy(sigma->0) =     -892.00828989


--------------------------------------------------------------------------------------------------------




--------------------------------------- Iteration      1(   9)  ---------------------------------------


    POTLOK:  cpu time    0.1915: real time    0.2081
    SETDIJ:  cpu time    0.3915: real time    0.3915
     EDDAV:  cpu time   60.6247: real time   60.6274
       DOS:  cpu time    0.0026: real time    0.0026
    CHARGE:  cpu time    2.2241: real time    2.2241
    MIXING:  cpu time    0.0085: real time    0.0085
    --------------------------------------------
      LOOP:  cpu time   63.4429: real time   63.4623

 eigenvalue-minimisations  : 11232
 total energy-change (2. order) :-0.4328655E+00  (-0.5967680E+00)
 number of electron     864.0000007 magnetization 
 augmentation part      118.1941339 magnetization 

 Broyden mixing:
  rms(total) = 0.10126E+01    rms(broyden)= 0.10118E+01
  rms(prec ) = 0.13930E+01
  weight for this iteration     100.00

 eigenvalues of (default mixing * dielectric matrix)
  average eigenvalue GAMMA=   1.0085
  1.9390  1.0002  0.7107  0.3840

 Free energy of the ion-electron system (eV)
  ---------------------------------------------------
  alpha Z        PSCENC =      2026.14881195
  Ewald energy   TEWEN  =    -35644.19244608
  -Hartree energ DENC   =    -26873.08534892
  -exchange      EXHF   =         0.00000000
  -V(xc)+E(xc)   XCENC  =      3235.97122694
  PAW double counting   =     86123.38528886   -85775.64102864
  entropy T*S    EENTRO =        -0.02061457
  eigenvalues    EBANDS =     -8953.54751586
  atomic energy  EATOM  =     64968.54023382
  Solvation  Ediel_sol  =         0.00000000
  ---------------------------------------------------
  free energy    TOTEN  =      -892.44139252 eV

  energy without entropy =     -892.42077794  energy(sigma->0) =     -892.43108523


--------------------------------------------------------------------------------------------------------




--------------------------------------- Iteration      1(  10)  ---------------------------------------


    POTLOK:  cpu time    0.2077: real time    0.2316
    SETDIJ:  cpu time    0.3968: real time    0.3968
     EDDAV:  cpu time   62.0076: real time   62.0096
       DOS:  cpu time    0.0024: real time    0.0024
    CHARGE:  cpu time    2.2112: real time    2.2112
    MIXING:  cpu time    0.0091: real time    0.0091
    --------------------------------------------
      LOOP:  cpu time   64.8347: real time   64.8607

 eigenvalue-minimisations  : 11432
 total energy-change (2. order) : 0.1297507E+00  (-0.2819535E+00)
 number of electron     864.0000007 magnetization 
 augmentation part      118.3537433 magnetization 

 Broyden mixing:
  rms(total) = 0.69291E+00    rms(broyden)= 0.69233E+00
  rms(prec ) = 0.93520E+00
  weight for this iteration     100.00

 eigenvalues of (default mixing * dielectric matrix)
  average eigenvalue GAMMA=   0.9476
  2.1803  0.9170  0.9170  0.3940  0.3298

 Free energy of the ion-electron system (eV)
  ---------------------------------------------------
  alpha Z        PSCENC =      2026.14881195
  Ewald energy   TEWEN  =    -35644.19244608
  -Hartree energ DENC   =    -26905.17011250
  -exchange      EXHF   =         0.00000000
  -V(xc)+E(xc)   XCENC  =      3237.43321785
  PAW double counting   =     87539.73845373   -87197.97691082
  entropy T*S    EENTRO =        -0.02598933
  eigenvalues    EBANDS =     -8916.80690047
  atomic energy  EATOM  =     64968.54023382
  Solvation  Ediel_sol  =         0.00000000
  ---------------------------------------------------
  free energy    TOTEN  =      -892.31164185 eV

  energy without entropy =     -892.28565252  energy(sigma->0) =     -892.29864719


--------------------------------------------------------------------------------------------------------




--------------------------------------- Iteration      1(  11)  ---------------------------------------


    POTLOK:  cpu time    0.1996: real time    0.2161
    SETDIJ:  cpu time    0.4035: real time    0.4035
     EDDAV:  cpu time   63.4920: real time   63.4931
       DOS:  cpu time    0.0025: real time    0.0025
    CHARGE:  cpu time    2.2163: real time    2.2163
    MIXING:  cpu time    0.0109: real time    0.0109
    --------------------------------------------
      LOOP:  cpu time   66.3247: real time   66.3423

 eigenvalue-minimisations  : 11952
 total energy-change (2. order) : 0.9732010E+00  (-0.1922939E+00)
 number of electron     864.0000007 magnetization 
 augmentation part      118.1579241 magnetization 

 Broyden mixing:
  rms(total) = 0.44211E+00    rms(broyden)= 0.44206E+00
  rms(prec ) = 0.63260E+00
  weight for this iteration     100.00

 eigenvalues of (default mixing * dielectric matrix)
  average eigenvalue GAMMA=   0.9314
  2.2580  0.9166  0.9166  0.5613  0.5613  0.3745

 Free energy of the ion-electron system (eV)
  ---------------------------------------------------
  alpha Z        PSCENC =      2026.14881195
  Ewald energy   TEWEN  =    -35644.19244608
  -Hartree energ DENC   =    -26947.00584862
  -exchange      EXHF   =         0.00000000
  -V(xc)+E(xc)   XCENC  =      3239.34623151
  PAW double counting   =     88838.56198227   -88502.19752675
  entropy T*S    EENTRO =        -0.01224048
  eigenvalues    EBANDS =     -8870.52763850
  atomic energy  EATOM  =     64968.54023382
  Solvation  Ediel_sol  =         0.00000000
  ---------------------------------------------------
  free energy    TOTEN  =      -891.33844087 eV

  energy without entropy =     -891.32620039  energy(sigma->0) =     -891.33232063


--------------------------------------------------------------------------------------------------------




--------------------------------------- Iteration      1(  12)  ---------------------------------------


    POTLOK:  cpu time    0.1796: real time    0.1983
    SETDIJ:  cpu time    0.3928: real time    0.3928
     EDDAV:  cpu time   57.5596: real time   57.5625
       DOS:  cpu time    0.0025: real time    0.0024
    CHARGE:  cpu time    2.2310: real time    2.2310
    MIXING:  cpu time    0.0089: real time    0.0089
    --------------------------------------------
      LOOP:  cpu time   60.3744: real time   60.3960

 eigenvalue-minimisations  : 10600
 total energy-change (2. order) :-0.2388086E+00  (-0.1018384E+00)
 number of electron     864.0000007 magnetization 
 augmentation part      117.7418950 magnetization 

 Broyden mixing:
  rms(total) = 0.10037E+01    rms(broyden)= 0.10032E+01
  rms(prec ) = 0.13960E+01
  weight for this iteration     100.00

 eigenvalues of (default mixing * dielectric matrix)
  average eigenvalue GAMMA=   0.8388
  2.2807  1.0115  0.7414  0.7414  0.6095  0.3825  0.1045

 Free energy of the ion-electron system (eV)
  ---------------------------------------------------
  alpha Z        PSCENC =      2026.14881195
  Ewald energy   TEWEN  =    -35644.19244608
  -Hartree energ DENC   =    -26966.72867415
  -exchange      EXHF   =         0.00000000
  -V(xc)+E(xc)   XCENC  =      3240.15933348
  PAW double counting   =     89158.59399261   -88823.27577449
  entropy T*S    EENTRO =        -0.00152927
  eigenvalues    EBANDS =     -8850.82119733
  atomic energy  EATOM  =     64968.54023382
  Solvation  Ediel_sol  =         0.00000000
  ---------------------------------------------------
  free energy    TOTEN  =      -891.57724946 eV

  energy without entropy =     -891.57572019  energy(sigma->0) =     -891.57648483


--------------------------------------------------------------------------------------------------------




--------------------------------------- Iteration      1(  13)  ---------------------------------------


    POTLOK:  cpu time    0.1753: real time    0.1948
    SETDIJ:  cpu time    0.3837: real time    0.3837
     EDDAV:  cpu time   57.5830: real time   57.5857
       DOS:  cpu time    0.0027: real time    0.0027
    CHARGE:  cpu time    2.2116: real time    2.2116
    MIXING:  cpu time    0.0090: real time    0.0090
    --------------------------------------------
      LOOP:  cpu time   60.3653: real time   60.3875

 eigenvalue-minimisations  : 10600
 total energy-change (2. order) : 0.2747942E+00  (-0.3546835E-01)
 number of electron     864.0000006 magnetization 
 augmentation part      117.7303808 magnetization 

 Broyden mixing:
  rms(total) = 0.60076E+00    rms(broyden)= 0.59981E+00
  rms(prec ) = 0.84422E+00
  weight for this iteration     100.00

 eigenvalues of (default mixing * dielectric matrix)
  average eigenvalue GAMMA=   0.7720
  2.2900  1.0077  0.8306  0.8306  0.3879  0.3879  0.3328  0.1088

 Free energy of the ion-electron system (eV)
  ---------------------------------------------------
  alpha Z        PSCENC =      2026.14881195
  Ewald energy   TEWEN  =    -35644.19244608
  -Hartree energ DENC   =    -26971.75241993
  -exchange      EXHF   =         0.00000000
  -V(xc)+E(xc)   XCENC  =      3240.31493502
  PAW double counting   =     89181.23840694   -88845.82662354
  entropy T*S    EENTRO =        -0.04530581
  eigenvalues    EBANDS =     -8845.72804762
  atomic energy  EATOM  =     64968.54023382
  Solvation  Ediel_sol  =         0.00000000
  ---------------------------------------------------
  free energy    TOTEN  =      -891.30245524 eV

  energy without entropy =     -891.25714943  energy(sigma->0) =     -891.27980233


--------------------------------------------------------------------------------------------------------




--------------------------------------- Iteration      1(  14)  ---------------------------------------


    POTLOK:  cpu time    0.1766: real time    0.2019
    SETDIJ:  cpu time    0.3885: real time    0.3885
     EDDAV:  cpu time   61.7181: real time   61.7211
       DOS:  cpu time    0.0026: real time    0.0025
    CHARGE:  cpu time    2.2309: real time    2.2309
    MIXING:  cpu time    0.0106: real time    0.0106
    --------------------------------------------
      LOOP:  cpu time   64.5273: real time   64.5555

 eigenvalue-minimisations  : 11568
 total energy-change (2. order) : 0.2050052E+00  (-0.8309413E-01)
 number of electron     864.0000007 magnetization 
 augmentation part      117.9403684 magnetization 

 Broyden mixing:
  rms(total) = 0.17482E+00    rms(broyden)= 0.17414E+00
  rms(prec ) = 0.24093E+00
  weight for this iteration     100.00

 eigenvalues of (default mixing * dielectric matrix)
  average eigenvalue GAMMA=   0.8046
  2.3220  1.3189  0.9602  0.6493  0.6493  0.6754  0.3295  0.2191  0.1173

 Free energy of the ion-electron system (eV)
  ---------------------------------------------------
  alpha Z        PSCENC =      2026.14881195
  Ewald energy   TEWEN  =    -35644.19244608
  -Hartree energ DENC   =    -26973.28083340
  -exchange      EXHF   =         0.00000000
  -V(xc)+E(xc)   XCENC  =      3240.36571222
  PAW double counting   =     89191.53547242   -88856.15860985
  entropy T*S    EENTRO =        -0.04671684
  eigenvalues    EBANDS =     -8844.00907428
  atomic energy  EATOM  =     64968.54023382
  Solvation  Ediel_sol  =         0.00000000
  ---------------------------------------------------
  free energy    TOTEN  =      -891.09745003 eV

  energy without entropy =     -891.05073320  energy(sigma->0) =     -891.07409162


--------------------------------------------------------------------------------------------------------




--------------------------------------- Iteration      1(  15)  ---------------------------------------


    POTLOK:  cpu time    0.2012: real time    0.2190
    SETDIJ:  cpu time    0.4065: real time    0.4065
     EDDAV:  cpu time   52.0208: real time   52.0218
       DOS:  cpu time    0.0032: real time    0.0032
    CHARGE:  cpu time    2.2117: real time    2.2118
    MIXING:  cpu time    0.0101: real time    0.0100
    --------------------------------------------
      LOOP:  cpu time   54.8535: real time   54.8723

 eigenvalue-minimisations  :  9248
 total energy-change (2. order) :-0.6435929E-01  (-0.4171634E-01)
 number of electron     864.0000007 magnetization 
 augmentation part      117.9613749 magnetization 

 Broyden mixing:
  rms(total) = 0.28291E+00    rms(broyden)= 0.28279E+00
  rms(prec ) = 0.40943E+00
  weight for this iteration     100.00

 eigenvalues of (default mixing * dielectric matrix)
  average eigenvalue GAMMA=   0.8546
  2.3323  1.9785  0.8782  0.8782  0.7957  0.5149  0.5149  0.2912  0.2437  0.1181

 Free energy of the ion-electron system (eV)
  ---------------------------------------------------
  alpha Z        PSCENC =      2026.14881195
  Ewald energy   TEWEN  =    -35644.19244608
  -Hartree energ DENC   =    -26985.48271732
  -exchange      EXHF   =         0.00000000
  -V(xc)+E(xc)   XCENC  =      3240.77791410
  PAW double counting   =     89150.64287735   -88814.59787734
  entropy T*S    EENTRO =        -0.03759508
  eigenvalues    EBANDS =     -8832.96101073
  atomic energy  EATOM  =     64968.54023382
  Solvation  Ediel_sol  =         0.00000000
  ---------------------------------------------------
  free energy    TOTEN  =      -891.16180932 eV

  energy without entropy =     -891.12421424  energy(sigma->0) =     -891.14301178


--------------------------------------------------------------------------------------------------------




--------------------------------------- Iteration      1(  16)  ---------------------------------------


    POTLOK:  cpu time    0.2008: real time    0.2137
    SETDIJ:  cpu time    0.4057: real time    0.4057
     EDDAV:  cpu time   57.4222: real time   57.4232
       DOS:  cpu time    0.0025: real time    0.0025
    CHARGE:  cpu time    2.1993: real time    2.1994
    MIXING:  cpu time    0.0090: real time    0.0090
    --------------------------------------------
      LOOP:  cpu time   60.2395: real time   60.2535

 eigenvalue-minimisations  : 10552
 total energy-change (2. order) :-0.1201677E-01  (-0.4001751E-01)
 number of electron     864.0000006 magnetization 
 augmentation part      117.8094749 magnetization 

 Broyden mixing:
  rms(total) = 0.37876E+00    rms(broyden)= 0.37843E+00
  rms(prec ) = 0.51338E+00
  weight for this iteration     100.00

 eigenvalues of (default mixing * dielectric matrix)
  average eigenvalue GAMMA=   0.8045
  2.3807  1.8902  0.8163  0.8163  0.7945  0.7945  0.3958  0.3958  0.2397  0.2067
  0.1186

 Free energy of the ion-electron system (eV)
  ---------------------------------------------------
  alpha Z        PSCENC =      2026.14881195
  Ewald energy   TEWEN  =    -35644.19244608
  -Hartree energ DENC   =    -26994.25301925
  -exchange      EXHF   =         0.00000000
  -V(xc)+E(xc)   XCENC  =      3241.03792540
  PAW double counting   =     89067.40977478   -88730.60506086
  entropy T*S    EENTRO =        -0.04163161
  eigenvalues    EBANDS =     -8825.21841425
  atomic energy  EATOM  =     64968.54023382
  Solvation  Ediel_sol  =         0.00000000
  ---------------------------------------------------
  free energy    TOTEN  =      -891.17382609 eV

  energy without entropy =     -891.13219448  energy(sigma->0) =     -891.15301029


--------------------------------------------------------------------------------------------------------




--------------------------------------- Iteration      1(  17)  ---------------------------------------


    POTLOK:  cpu time    0.2224: real time    0.2521
    SETDIJ:  cpu time    0.4375: real time    0.4376
     EDDAV:  cpu time   57.7820: real time   57.7839
       DOS:  cpu time    0.0022: real time    0.0022
    CHARGE:  cpu time    2.2111: real time    2.2111
    MIXING:  cpu time    0.0092: real time    0.0092
    --------------------------------------------
      LOOP:  cpu time   60.6642: real time   60.6961

 eigenvalue-minimisations  : 10584
 total energy-change (2. order) : 0.3421962E-01  (-0.3708003E-02)
 number of electron     864.0000007 magnetization 
 augmentation part      117.9382882 magnetization 

 Broyden mixing:
  rms(total) = 0.13898E+00    rms(broyden)= 0.13858E+00
  rms(prec ) = 0.20889E+00
  weight for this iteration     100.00

 eigenvalues of (default mixing * dielectric matrix)
  average eigenvalue GAMMA=   0.8160
  2.3079  2.1799  0.8861  0.8861  0.8193  0.8193  0.5105  0.5105  0.3512  0.2014
  0.2014  0.1184

 Free energy of the ion-electron system (eV)
  ---------------------------------------------------
  alpha Z        PSCENC =      2026.14881195
  Ewald energy   TEWEN  =    -35644.19244608
  -Hartree energ DENC   =    -26994.67711857
  -exchange      EXHF   =         0.00000000
  -V(xc)+E(xc)   XCENC  =      3241.04223800
  PAW double counting   =     89068.35596462   -88731.56008393
  entropy T*S    EENTRO =        -0.04061499
  eigenvalues    EBANDS =     -8824.75659130
  atomic energy  EATOM  =     64968.54023382
  Solvation  Ediel_sol  =         0.00000000
  ---------------------------------------------------
  free energy    TOTEN  =      -891.13960647 eV

  energy without entropy =     -891.09899148  energy(sigma->0) =     -891.11929897


--------------------------------------------------------------------------------------------------------




--------------------------------------- Iteration      1(  18)  ---------------------------------------


    POTLOK:  cpu time    0.1744: real time    0.1990
    SETDIJ:  cpu time    0.3890: real time    0.3890
     EDDAV:  cpu time   54.2757: real time   54.2802
       DOS:  cpu time    0.0024: real time    0.0024
    CHARGE:  cpu time    2.2083: real time    2.2083
    MIXING:  cpu time    0.0098: real time    0.0098
    --------------------------------------------
      LOOP:  cpu time   57.0596: real time   57.0888

 eigenvalue-minimisations  :  9808
 total energy-change (2. order) :-0.3584582E-02  (-0.2955461E-02)
 number of electron     864.0000007 magnetization 
 augmentation part      117.8410535 magnetization 

 Broyden mixing:
  rms(total) = 0.10765E+00    rms(broyden)= 0.10756E+00
  rms(prec ) = 0.14892E+00
  weight for this iteration     100.00

 eigenvalues of (default mixing * dielectric matrix)
  average eigenvalue GAMMA=   0.8148
  2.2761  2.2761  0.9733  0.9733  0.8699  0.8699  0.5048  0.5048  0.4805  0.3500
  0.1184  0.1974  0.1974

 Free energy of the ion-electron system (eV)
  ---------------------------------------------------
  alpha Z        PSCENC =      2026.14881195
  Ewald energy   TEWEN  =    -35644.19244608
  -Hartree energ DENC   =    -26998.48883603
  -exchange      EXHF   =         0.00000000
  -V(xc)+E(xc)   XCENC  =      3241.14811591
  PAW double counting   =     89026.95674990   -88689.90084104
  entropy T*S    EENTRO =        -0.05346721
  eigenvalues    EBANDS =     -8821.30151227
  atomic energy  EATOM  =     64968.54023382
  Solvation  Ediel_sol  =         0.00000000
  ---------------------------------------------------
  free energy    TOTEN  =      -891.14319105 eV

  energy without entropy =     -891.08972383  energy(sigma->0) =     -891.11645744


--------------------------------------------------------------------------------------------------------




--------------------------------------- Iteration      1(  19)  ---------------------------------------


    POTLOK:  cpu time    0.2178: real time    0.2298
    SETDIJ:  cpu time    0.4057: real time    0.4057
     EDDAV:  cpu time   56.6946: real time   56.6957
       DOS:  cpu time    0.0024: real time    0.0024
    CHARGE:  cpu time    2.1948: real time    2.1949
    MIXING:  cpu time    0.0097: real time    0.0097
    --------------------------------------------
      LOOP:  cpu time   59.5251: real time   59.5382

 eigenvalue-minimisations  : 10272
 total energy-change (2. order) :-0.5002150E-04  (-0.1450627E-02)
 number of electron     864.0000007 magnetization 
 augmentation part      117.8653141 magnetization 

 Broyden mixing:
  rms(total) = 0.71166E-01    rms(broyden)= 0.71126E-01
  rms(prec ) = 0.97072E-01
  weight for this iteration     100.00

 eigenvalues of (default mixing * dielectric matrix)
  average eigenvalue GAMMA=   0.8321
  2.3787  2.3043  1.0566  1.0566  0.8554  0.8554  0.8162  0.5257  0.5257  0.4006
[...]
   -.137E+03 0.138E+03 0.786E+02   0.135E+03 -.139E+03 -.936E+02   0.554E+01 -.321E+01 0.199E+02   -.251E-02 0.433E-02 -.296E-02
   0.209E+02 -.154E+03 0.369E+01   -.259E+02 0.152E+03 -.683E-01   0.525E+01 0.330E+01 -.414E+01   0.207E-03 0.156E-02 -.101E-02
   0.640E+02 0.585E+02 -.112E+03   -.845E+02 -.606E+02 0.133E+03   0.188E+02 0.112E+01 -.196E+02   0.174E-05 -.139E-02 0.440E-03
   -.135E+03 -.129E+03 -.112E+03   0.142E+03 0.144E+03 0.132E+03   -.841E+01 -.132E+02 -.234E+02   -.157E-02 0.294E-03 -.442E-02
   -.111E+03 0.815E+02 -.574E+02   0.130E+03 -.624E+02 0.531E+02   -.163E+02 -.208E+02 0.486E+01   -.299E-02 -.157E-02 -.122E-02
   -.561E+02 -.857E+02 0.746E+01   0.653E+02 0.902E+02 -.275E+02   -.970E+01 -.602E+01 0.205E+02   0.128E-02 0.168E-02 -.620E-03
   -.118E+01 -.564E+02 -.154E+03   -.114E+02 0.809E+02 0.162E+03   0.119E+02 -.195E+02 -.116E+01   0.261E-02 0.369E-02 -.355E-02
   0.133E+03 -.172E+02 0.959E+02   -.147E+03 0.142E+02 -.100E+03   0.145E+02 0.517E+01 0.479E+01   0.332E-02 -.220E-02 0.215E-03
   -.131E+03 -.561E+01 -.151E+03   0.149E+03 0.845E+01 0.170E+03   -.198E+02 -.496E+01 -.187E+02   0.165E-02 -.340E-02 -.224E-02
   -.727E+02 -.241E+02 -.736E+02   0.704E+02 0.249E+02 0.757E+02   0.153E+01 0.124E+00 -.129E+01   0.155E-02 -.138E-02 -.330E-04
   0.177E+03 -.260E+01 0.826E+02   -.193E+03 -.618E+01 -.102E+03   0.150E+02 0.710E+01 0.203E+02   -.186E-03 0.168E-02 0.296E-03
   -.118E+01 0.961E+01 -.809E+02   0.130E+02 0.235E+02 0.898E+02   -.126E+02 -.344E+02 -.973E+01   -.471E-03 0.247E-02 -.101E-03
   0.960E+02 0.130E+03 -.528E+02   -.101E+03 -.150E+03 0.664E+02   0.368E+01 0.226E+02 -.172E+02   -.116E-03 0.160E-02 -.713E-03
   0.189E+03 0.183E+03 0.501E+02   -.219E+03 -.187E+03 -.467E+02   0.329E+02 0.506E+01 -.493E+01   -.435E-02 0.100E-03 0.624E-03
   -.314E+02 -.642E+02 0.958E+02   0.175E+02 0.662E+02 -.107E+03   0.158E+02 -.489E+00 0.115E+02   0.931E-03 -.401E-04 0.311E-02
   -.524E+02 0.400E+02 -.922E+02   0.477E+02 -.268E+02 0.119E+03   0.879E+01 -.144E+02 -.266E+02   -.290E-02 0.393E-02 0.121E-02
   0.117E+02 -.106E+03 -.706E+02   -.192E+02 0.104E+03 0.444E+02   0.684E+01 0.327E+01 0.271E+02   -.324E-02 -.482E-03 0.134E-02
   0.359E+01 0.557E+02 0.811E+02   -.558E+01 -.685E+02 -.849E+02   0.336E+01 0.176E+02 0.290E+01   -.202E-02 0.200E-02 -.231E-02
   0.743E+02 0.694E+02 -.242E+03   -.775E+02 -.633E+02 0.265E+03   0.516E+01 -.731E+01 -.218E+02   0.659E-03 -.110E-02 -.287E-02
   -.225E+02 -.757E+02 0.503E+02   0.360E+02 0.759E+02 -.342E+02   -.140E+02 0.983E+00 -.188E+02   0.773E-02 0.113E-01 0.419E-02
   0.799E+02 0.282E+02 0.206E+03   -.779E+02 -.356E+02 -.219E+03   -.185E+01 0.969E+01 0.137E+02   0.144E-03 0.237E-02 0.102E-02
   0.924E+02 0.492E+02 -.591E+02   -.890E+02 -.446E+02 0.694E+02   -.530E+01 -.519E+01 -.125E+02   0.800E-04 0.149E-02 0.369E-04
   -.276E+01 0.938E+02 0.178E+03   0.856E+01 -.130E+03 -.184E+03   -.328E+01 0.303E+02 0.830E+01   -.136E-02 -.270E-02 -.139E-02
   -.120E+03 0.117E+03 -.181E+03   0.142E+03 -.125E+03 0.191E+03   -.233E+02 0.670E+01 -.793E+01   0.306E-02 -.206E-02 0.949E-03
   0.541E+02 -.114E+03 0.135E+02   -.764E+02 0.122E+03 0.377E+01   0.203E+02 -.670E+01 -.174E+02   0.143E-01 -.325E-02 0.119E-02
   -.187E+02 -.868E+02 -.111E+03   0.504E+02 0.971E+02 0.109E+03   -.304E+02 -.575E+01 0.676E+00   -.112E-02 -.263E-02 -.249E-02
   -.177E+03 0.898E+02 -.154E+03   0.196E+03 -.752E+02 0.160E+03   -.186E+02 -.180E+02 -.603E+01   -.289E-02 -.127E-02 -.106E-02
   0.696E+02 0.370E+02 -.559E+02   -.913E+02 -.534E+02 0.481E+02   0.226E+02 0.185E+02 0.771E+01   0.106E-02 -.143E-02 0.523E-03
   0.238E+02 0.143E+03 0.196E+03   -.374E+02 -.155E+03 -.216E+03   0.142E+02 0.127E+02 0.234E+02   -.215E-02 0.286E-02 0.103E-02
   0.239E+01 -.146E+03 0.476E+02   -.153E+02 0.159E+03 -.791E+02   0.905E+01 -.109E+02 0.184E+02   0.578E-03 0.972E-03 -.338E-02
   -.535E+02 0.175E+03 -.146E+03   0.671E+02 -.190E+03 0.170E+03   -.153E+02 0.163E+02 -.222E+02   -.873E-02 0.130E-02 -.463E-02
   0.282E+02 -.255E+03 0.771E+02   -.245E+02 0.285E+03 -.864E+02   -.228E+01 -.250E+02 0.598E+01   0.391E-02 0.137E-02 0.657E-03
   0.398E+02 -.108E+03 0.165E+02   -.213E+02 0.119E+03 -.160E+02   -.207E+02 -.101E+02 0.151E+01   -.129E-02 0.150E-02 0.336E-03
   -.103E+03 0.578E+02 -.265E+02   0.106E+03 -.785E+02 0.427E+02   -.194E+01 0.204E+02 -.164E+02   0.170E-02 0.467E-02 0.218E-02
   -.213E+01 0.158E+03 -.296E+01   0.155E+02 -.168E+03 0.235E+01   -.133E+02 0.832E+01 0.131E+01   0.979E-03 0.246E-02 0.193E-02
   -.274E+02 0.119E+02 0.715E+02   0.364E+02 -.333E+01 -.793E+02   -.972E+01 -.994E+01 0.773E+01   0.135E-02 -.558E-02 -.782E-03
   -.893E+02 0.754E+02 -.114E+03   0.119E+03 -.898E+02 0.118E+03   -.262E+02 0.936E+01 -.111E+01   0.163E-02 0.192E-03 -.446E-03
   -.676E+02 -.722E+02 0.111E+03   0.750E+02 0.844E+02 -.941E+02   -.835E+01 -.144E+02 -.221E+02   -.863E-02 -.279E-02 0.192E-02
   0.204E+03 -.544E+02 0.389E+02   -.222E+03 0.496E+02 -.313E+02   0.174E+02 0.703E+01 -.898E+01   -.411E-03 0.132E-02 0.109E-03
   0.206E+02 0.214E+02 -.133E+03   -.323E+02 -.257E+02 0.142E+03   0.157E+02 0.600E+01 -.125E+02   0.533E-02 -.270E-02 -.568E-02
   0.183E+03 -.103E+03 0.142E+03   -.189E+03 0.882E+02 -.153E+03   0.173E+01 0.162E+02 0.873E+01   0.274E-02 -.161E-02 0.501E-02
   0.391E+02 0.199E+02 -.668E+02   -.582E+02 -.430E+02 0.709E+02   0.167E+02 0.234E+02 -.309E+01   0.368E-03 -.111E-02 -.140E-02
   -.233E+03 -.101E+03 -.142E+03   0.272E+03 0.998E+02 0.144E+03   -.339E+02 -.182E+00 -.219E+01   0.183E-02 -.104E-02 -.135E-02
   0.216E+03 0.117E+03 0.385E+02   -.225E+03 -.119E+03 -.707E+02   0.572E+01 -.335E+01 0.334E+02   -.901E-02 0.159E-01 -.971E-02
   0.307E+02 0.253E+03 -.551E+02   -.229E+02 -.257E+03 0.741E+02   -.817E+01 0.310E+01 -.186E+02   0.465E-03 -.739E-02 0.113E-01
   -.109E+03 -.165E+03 0.268E+02   0.124E+03 0.173E+03 -.124E+02   -.174E+02 -.832E+01 -.154E+02   0.194E-02 0.157E-02 0.127E-02
   0.644E+02 -.128E+03 -.157E+03   -.594E+02 0.141E+03 0.185E+03   -.457E+01 -.132E+02 -.274E+02   -.488E-03 0.453E-02 -.124E-02
   -.114E+03 0.575E+02 0.113E+03   0.124E+03 -.755E+02 -.128E+03   -.979E+01 0.153E+02 0.112E+02   0.140E-02 0.187E-02 0.130E-02
 -----------------------------------------------------------------------------------------------
   0.114E+03 0.115E+03 -.103E+03   0.369E-12 0.696E-12 0.114E-12   -.114E+03 -.115E+03 0.103E+03   -.498E-01 0.160E-01 -.404E-02
 
 
 POSITION                                       TOTAL-FORCE (eV/Angst)
 -----------------------------------------------------------------------------------
     10.82437     10.19194     11.07119         0.749944      0.882659      1.788907
     12.09827      4.34781      1.83324        -2.996951      0.433336      0.077137
      7.42833     10.41759      8.14108         1.577639     -1.327949     -2.039376
     11.83259     12.64045      0.96500        -0.406536      0.493626     -0.531621
      3.30610      3.50737      6.18243         0.228783      0.034465     -0.213189
     11.48101      5.71885     11.30754        -4.585268      0.956763      1.470596
      8.12919     12.77704      5.14574        -0.872228     -0.557319      1.254397
      7.25244      6.93109     10.08410        -0.432951     -0.340004     -0.591899
      0.77234     11.94072      4.71687        -0.016301     -0.528983     -2.631116
     10.08193      4.72382      7.34387        -2.076892      2.154492      0.526742
      4.01514     10.11227      9.64953        -0.039095      0.062921     -0.345700
      3.71583      6.62787     10.38967         0.080083     -0.556917      0.824708
      3.30226      7.86901      1.61724        -1.174121      0.638762     -1.202937
     10.37826      1.44974      4.32895         0.727426      0.930883     -3.246586
      5.27723      1.08515      3.98594        -0.179705     -1.267674     -0.824446
      1.58694      3.72683      1.14904         0.353936     -0.312577      1.435123
      0.53096     12.53746      8.68327         1.591076      1.384089      0.513520
      9.96425      7.93237      5.58151        -0.749082     -0.096780      2.262050
     12.43298      6.72835      8.49586         0.202754      5.143683     -3.032594
      4.03496      3.87407     12.52164         0.120708     -1.567484     -0.488968
      4.35097      7.11751      7.43513         0.669538     -0.358496     -1.100375
      8.25100      0.41221     10.02660         0.039777      1.037276      1.431166
     13.23672      3.59138      5.26950        -2.679556      0.573924     -1.688732
      7.53822     13.12055      1.12193         0.885618      0.649574      1.536964
      6.56090      4.11569      4.67791         1.088674     -0.907042      0.704490
      6.91834      6.59563      2.21828         3.811035      1.542311     -1.909098
      3.91811      1.11749      9.37646        -4.185156     -2.687451      2.939678
      6.65925     10.18821      1.95864        -0.448720      0.971559     -1.606469
      0.74449      4.91856     10.89399         0.397028     -1.421689      2.544810
      6.54641     10.85870     11.29313         0.157039     -0.679744      7.569499
     13.03201      6.75819      4.06277        -0.683278      2.048437     -3.832859
      4.52942     12.53410      1.53415        -1.841926      3.112193     -0.159085
     10.05986      1.73447      0.15232        -2.600839     -4.293519      1.574522
     11.27741     10.95932      5.41391         0.954382      0.890859      2.687031
      5.12274     10.55741      6.04838         0.850681     -4.409800      3.553185
      1.63022      1.43916      4.60883        -3.970263     -2.704055     -0.979473
     12.19163      8.09963      0.89384         1.723348     -2.737747     -1.094942
      9.42820      5.09170      3.73843         3.948507      0.951272     -1.671870
      1.86736     11.37309     12.75883         7.026441     -0.246885      1.179292
      1.52842      2.38395     11.22696         3.217247     -1.002009     -2.150641
      4.47547     10.55818      3.51130         2.361152      3.457602     -3.903548
     10.54269      7.77020      2.85513         0.313500     -2.912632     -3.311603
      1.66170      6.69589      5.35096         3.343012     -6.437249      4.275570
      9.91704      7.58020      9.01850        -1.126827      2.190169     -1.095615
      3.41392     12.52873      6.40326         1.966078      0.959892     -0.881515
      6.52755      1.78703      7.32434        -2.619542      3.802237     -3.002556
     10.19430      1.75465      7.92615         0.259166     -0.222557     -0.571114
      5.77219      3.94386      8.09968        -1.134850     -1.683784      7.351542
      5.92385      8.07077     12.95306         0.553429     -0.431529      3.158162
      0.91544      8.41194     12.43682        -1.343916      1.689679      8.035254
      9.71198     10.72888      3.34015         1.360541      1.266584     -5.655611
     10.67732     12.10471      8.87861         3.009790     -0.386988     -3.012859
      8.07362      3.68686     11.73767        -0.092492     -3.829836      1.828238
      4.35037      4.70202      3.26645        -8.257662      4.258145     -1.813650
     10.14176      9.09525      1.68665         2.697324     -2.875622      3.804452
      4.49675      0.98383      1.42461         1.494661     -3.783246     -0.054846
      9.98667      1.27706      6.35227         0.468515     -0.013739      1.910571
      1.01678      8.16064     10.94777         0.846762     -0.452005     -3.661585
      4.47064     11.31211      7.38785        -2.307459     -2.699801      1.188261
     10.26937      0.31545     12.55698         0.933049     -0.801403      1.052663
      0.25762      5.64371      5.15914         2.631533      0.755739      6.596972
     11.40177      2.28343      0.71295         2.742887      1.971516      0.706268
      6.54552      2.01594      5.67983        -0.218046     -0.050172      1.247876
     10.95864      8.64671      9.86314        -1.210486     -3.302337     -1.516395
     11.91877      7.58554      4.81209        -2.528407      0.521263      0.450187
      1.17167      7.63279      4.31239        -0.450783      4.475220     -4.646921
     11.54656     10.61717      3.82705        -1.397966     -0.175294     -1.558307
      4.47503     12.32622      3.20342         0.065693     -0.770737     -1.092438
      8.32414      8.15454      8.30793         1.802414     -0.584772      2.614024
      2.30404     13.28061      5.12343         2.644152      1.033063     -0.197513
      4.74816      6.99713     13.25128        -0.720883      0.315736      0.424936
      5.69544      9.43847     12.27989        -0.870664      7.407592     -4.317130
      1.86876      2.38748      3.35505         0.007568     -0.033567     -0.000686
      7.05444      7.53062     12.07676         2.595801     -2.120916     -1.015939
      2.38752     12.82020      7.49867        -2.849165     -0.312405      3.175562
      5.18104      8.08742      9.28603        -1.989466     -0.058439      1.094685
      8.28215     10.24559      2.10267        -0.141455      1.987344      2.015949
      7.08646     13.19703      3.55021        -0.139838      0.823429     -1.657051
      5.66181     11.41748      0.97729         5.190579     -0.745473      1.985704
      2.48062      4.89133     11.52036        -3.196447      3.705104     -1.816521
      9.13643      1.24658      1.54906         1.035542      0.975089     -1.338113
      6.48019      8.68827      1.31115        -1.210433     -2.015578     -2.574303
      1.72097      1.07385     10.17392        -1.585636      0.085942      0.712182
      9.83233     12.26705      2.73763         0.464766     -0.773672      0.912354
      2.95030     12.09932     11.50456        -2.645993     -2.851937      0.300943
      8.88322      2.30187     12.47685        -1.157998      3.826982     -2.116850
      4.02167     11.01937      4.95375        -3.114137     -1.106945      2.465775
      0.06136      5.46801      9.40671         4.157507     -4.806555      4.903804
      3.14384      5.13093      4.73741         0.241493      1.719795     -0.523850
      9.58099     10.70773      4.99583        -1.664122     -0.972856      1.790669
     10.40460      0.39385      9.32136        -1.294177      2.046339     -3.122358
      6.45599     11.40289      5.93726         2.679553     -1.775195      0.557010
     10.70534      7.51168      7.55907        -0.481368     -1.531512      0.470061
      5.19568      5.23218      8.67652        -0.681587      4.909624      6.532730
     13.25513      0.55825      4.31141         0.998770      2.132541      0.362719
     12.09949     12.06749      9.71540        -1.595575     -2.120450     -0.300790
     10.84785     11.62843      7.03225        -0.790773      0.937671      0.888255
     11.31343      7.39341     13.06073        -1.209413     -1.673412      0.511544
      8.60026      5.14814     12.03691        -0.797019     -1.279104     -0.901187
      9.90382      6.07767      9.86070        -0.855651      2.320377     -3.562314
      0.03526      3.18272     11.18349         2.809980      1.485146     -1.478141
      3.20313      4.79498      2.01838         1.943659      1.488004     -0.065625
     13.18517      5.58433     12.11119         4.125392     -1.264190      0.216668
      6.18574     10.73131      9.77086        -0.631333      1.242442      0.915045
      4.86434      8.67790      6.18025         1.377681      4.811346     -0.819841
      1.37082      2.41395      5.91220         1.992161     -1.284869      1.347627
      2.06445      9.49871     13.20381        -0.487241      1.284571     -2.622444
     10.53215      5.90694      2.35955         0.148364      2.265640      0.787389
      9.65368      5.47533      5.49306        -1.919379     -0.563482     -2.298255
      4.78086      3.29441      3.36874         2.514486     -6.282841      2.702327
     12.83716     10.87305      5.79421        -0.582386     -1.303910      2.452496
      0.61374     11.86251      0.21140        -1.971185      1.175562     -0.080064
      4.78321     13.23861      6.27983         1.296707      4.567990     -1.245497
     11.11523      3.14504      8.00615         0.328592     -3.416436      0.508712
      6.79311      2.77470     11.20471         0.915061      2.135118     -0.161492
      8.13740      4.66709      2.75161         0.515747      0.746829      3.128743
      5.19738      4.24621      6.82219        -3.833345      1.358664    -13.153981
      6.05137      9.90007      3.42606        -1.676240      0.741928      2.625413
     12.73447      9.28144      0.04612         1.411791      4.836665     -3.302704
      5.68475      5.54631      3.22527        -2.218249      1.058919      2.013145
      0.68081      7.36613      0.42834         1.188634     -0.266303     -0.200295
     10.64216      3.89196      3.75601         0.040943     -2.069878      0.706491
      3.12984      3.03910     10.45015        -0.731829     -1.349120     -0.079516
      7.76250      1.05864      7.78265         3.162137     -5.020740      3.317900
      7.20686     11.95838     12.42949        -0.888334     -2.231423     -4.980050
      9.24573      7.15709      3.78785        -1.193840      2.216892     -1.325147
      5.03367      2.37855      8.48845         4.016813      1.724314     -3.579304
      3.45382     11.73990      0.61136        -3.653766      1.098189     -1.863702
      9.58030     11.04577      9.28061        -2.285936      0.325459      1.022640
      7.16034      3.35882      7.92655         5.008230     -0.905335     -0.114686
      4.03328     10.27516      2.03272        -3.199997     -5.327951      1.114398
      2.11185      2.61133     12.75291        -0.321004     -0.949481      0.394045
     12.56936      7.96897      2.54985        -3.208255      0.030888     -0.955105
      2.10627      7.17249      6.77384         0.443184     -0.522252      0.964599
     13.30271      5.56588      3.09177        -0.085040     -2.708270     -4.525384
 -----------------------------------------------------------------------------------
    total drift:                                0.000155     -0.003662      0.016833


--------------------------------------------------------------------------------------------------------



  FREE ENERGIE OF THE ION-ELECTRON SYSTEM (eV)
  ---------------------------------------------------
  free  energy   TOTEN  =      -891.14594718 eV

  energy  without entropy=     -891.08965149  energy(sigma->0) =     -891.11779934
 


--------------------------------------------------------------------------------------------------------


    POTLOK:  cpu time    0.5396: real time    0.5396


--------------------------------------------------------------------------------------------------------


     LOOP+:  cpu time 1795.3889: real time 1796.0458
    4ORBIT:  cpu time    0.0000: real time    0.0000

 total amount of memory used by VASP MPI-rank0   207755. kBytes
=======================================================================

   base      :      30000. kBytes
   nonlr-proj:      21521. kBytes
   fftplans  :      33581. kBytes
   grid      :      19248. kBytes
   one-center:        171. kBytes
   wavefun   :     103234. kBytes
 
  
  
 General timing and accounting informations for this job:
 ========================================================
  
                  Total CPU time used (sec):     1827.538
                            User time (sec):     1822.367
                          System time (sec):        5.170
                         Elapsed time (sec):     1828.336
  
                   Maximum memory used (kb):      366924.
                   Average memory used (kb):           0.
  
                          Minor page faults:       309751
                          Major page faults:            0
                 Voluntary context switches:         2794
