 vasp.5.4.4.18Apr17-6-g9f103f2a35 (build Mar 16 2023 09:39:13) complex          
  
 executed on             LinuxIFC date 2024.04.29  19:34:04
 running on   48 total cores
 distrk:  each k-point on   48 cores,    1 groups
 distr:  one band on NCORES_PER_BAND=  12 cores,    4 groups


--------------------------------------------------------------------------------------------------------


 INCAR:
 POTCAR:    PAW_PBE Ca_sv 06Sep2000               
 POTCAR:    PAW_PBE Si 05Jan2001                  
 POTCAR:    PAW_PBE O 08Apr2002                   
 POTCAR:    PAW_PBE Ca_sv 06Sep2000               
   SHA256 =  a47365830e737f14e0e6c5cf1ed81b94e081eecf0a33df105380881bc9da05d5 Ca
   COPYR  = (c) Copyright 06Sep2000 Georg Kresse                                
   COPYR  = This file is part of the software VASP. Any use, copying, and all ot
   COPYR  = If you do not have a valid VASP license, you may not use, copy or di
   VRHFIN =Ca: 3s3p4s                                                           
   LEXCH  = PE                                                                  
   EATOM  =  1006.0909 eV,   73.9456 Ry                                         
                                                                                
   TITEL  = PAW_PBE Ca_sv 06Sep2000                                             
   LULTRA =        F    use ultrasoft PP ?                                      
   IUNSCR =        1    unscreen: 0-lin 1-nonlin 2-no                           
   RPACOR =    2.000    partial core radius                                     
   POMASS =   40.078; ZVAL   =   10.000    mass and valenz                      
   RCORE  =    2.300    outmost cutoff radius                                   
   RWIGS  =    2.500; RWIGS  =    1.323    wigner-seitz radius (au A)           
   ENMAX  =  266.622; ENMIN  =  199.967 eV                                      
   RCLOC  =    1.808    cutoff for local pot                                    
   LCOR   =        T    correct aug charges                                     
   LPAW   =        T    paw PP                                                  
   EAUG   =  420.852                                                            
   RMAX   =    2.359    core radius for proj-oper                               
   RAUG   =    1.300    factor for augmentation sphere                          
   RDEP   =    2.392    radius for radial grids                                 
   RDEPT  =    1.987    core radius for aug-charge                              
                                                                                
   Atomic configuration                                                         
    7 entries                                                                   
     n  l   j            E        occ.                                          
     1  0  0.50     -3949.1705   2.0000                                         
     2  0  0.50      -414.3434   2.0000                                         
     2  1  1.50      -334.7047   6.0000                                         
     3  0  0.50       -47.0896   2.0000                                         
     4  0  0.50        -3.7663   2.0000                                         
     3  1  1.50       -28.0061   6.0000                                         
     3  2  1.50        -4.0817   0.0000                                         
   Description                                                                  
     l       E           TYP  RCUT    TYP  RCUT                                 
     0    -47.0896403     23  2.300                                             
     0     -3.7663320     23  2.300                                             
     1    -28.0060855     23  2.300                                             
     1      6.8029130     23  2.300                                             
     2     -4.0817478     23  2.300                                             
     2      0.4464412     23  2.300                                             
  local pseudopotential read in
  partial core-charges read in
  partial kinetic energy density read in
  atomic valenz-charges read in
  non local Contribution for L=           0  read in
    real space projection operators read in
  non local Contribution for L=           0  read in
    real space projection operators read in
  non local Contribution for L=           1  read in
    real space projection operators read in
  non local Contribution for L=           1  read in
    real space projection operators read in
  non local Contribution for L=           2  read in
    real space projection operators read in
  non local Contribution for L=           2  read in
    real space projection operators read in
    PAW grid and wavefunctions read in
 
   number of l-projection  operators is LMAX  =           6
   number of lm-projection operators is LMMAX =          18
 
 POTCAR:    PAW_PBE Si 05Jan2001                  
   SHA256 =  79d9987ad8750f624c4d6acb2a16d13abf6a777132adc04dc6c8399be72b42bb Si
   COPYR  = (c) Copyright 05Jan2001 Georg Kresse                                
   COPYR  = This file is part of the software VASP. Any use, copying, and all ot
   COPYR  = If you do not have a valid VASP license, you may not use, copy or di
   VRHFIN =Si: s2p2                                                             
   LEXCH  = PE                                                                  
   EATOM  =   103.0669 eV,    7.5752 Ry                                         
                                                                                
   TITEL  = PAW_PBE Si 05Jan2001                                                
   LULTRA =        F    use ultrasoft PP ?                                      
   IUNSCR =        1    unscreen: 0-lin 1-nonlin 2-no                           
   RPACOR =    1.500    partial core radius                                     
   POMASS =   28.085; ZVAL   =    4.000    mass and valenz                      
   RCORE  =    1.900    outmost cutoff radius                                   
   RWIGS  =    2.480; RWIGS  =    1.312    wigner-seitz radius (au A)           
   ENMAX  =  245.345; ENMIN  =  184.009 eV                                      
   ICORE  =        2    local potential                                         
   LCOR   =        T    correct aug charges                                     
   LPAW   =        T    paw PP                                                  
   EAUG   =  322.069                                                            
   DEXC   =    0.000                                                            
   RMAX   =    1.950    core radius for proj-oper                               
   RAUG   =    1.300    factor for augmentation sphere                          
   RDEP   =    1.993    radius for radial grids                                 
   RDEPT  =    1.837    core radius for aug-charge                              
                                                                                
   Atomic configuration                                                         
    6 entries                                                                   
     n  l   j            E        occ.                                          
     1  0  0.50     -1785.8828   2.0000                                         
     2  0  0.50      -139.4969   2.0000                                         
     2  1  1.50       -95.5546   6.0000                                         
     3  0  0.50       -10.8127   2.0000                                         
     3  1  0.50        -4.0811   2.0000                                         
     3  2  1.50        -4.0817   0.0000                                         
   Description                                                                  
     l       E           TYP  RCUT    TYP  RCUT                                 
     0    -10.8127223     23  1.900                                             
     0     -7.6451159     23  1.900                                             
     1     -4.0811372     23  1.900                                             
     1      2.4879257     23  1.900                                             
     2     -4.0817478      7  1.900                                             
  local pseudopotential read in
  partial core-charges read in
  partial kinetic energy density read in
  atomic valenz-charges read in
  non local Contribution for L=           0  read in
    real space projection operators read in
  non local Contribution for L=           0  read in
    real space projection operators read in
  non local Contribution for L=           1  read in
    real space projection operators read in
  non local Contribution for L=           1  read in
    real space projection operators read in
    PAW grid and wavefunctions read in
 
   number of l-projection  operators is LMAX  =           4
   number of lm-projection operators is LMMAX =           8
 
 POTCAR:    PAW_PBE O 08Apr2002                   
   SHA256 =  818f92134a0a090dccd8ba1447fa70422a3b330e708bb4f08108d8ae51209ddf O/
   COPYR  = (c) Copyright 08Apr2002 Georg Kresse                                
   COPYR  = This file is part of the software VASP. Any use, copying, and all ot
   COPYR  = If you do not have a valid VASP license, you may not use, copy or di
   VRHFIN =O: s2p4                                                              
   LEXCH  = PE                                                                  
   EATOM  =   432.3788 eV,   31.7789 Ry                                         
                                                                                
   TITEL  = PAW_PBE O 08Apr2002                                                 
   LULTRA =        F    use ultrasoft PP ?                                      
   IUNSCR =        1    unscreen: 0-lin 1-nonlin 2-no                           
   RPACOR =    1.200    partial core radius                                     
   POMASS =   16.000; ZVAL   =    6.000    mass and valenz                      
   RCORE  =    1.520    outmost cutoff radius                                   
   RWIGS  =    1.550; RWIGS  =    0.820    wigner-seitz radius (au A)           
   ENMAX  =  400.000; ENMIN  =  300.000 eV                                      
   ICORE  =        2    local potential                                         
   LCOR   =        T    correct aug charges                                     
   LPAW   =        T    paw PP                                                  
   EAUG   =  605.392                                                            
   DEXC   =    0.000                                                            
   RMAX   =    1.553    core radius for proj-oper                               
   RAUG   =    1.300    factor for augmentation sphere                          
   RDEP   =    1.550    radius for radial grids                                 
   RDEPT  =    1.329    core radius for aug-charge                              
                                                                                
   Atomic configuration                                                         
    4 entries                                                                   
     n  l   j            E        occ.                                          
     1  0  0.50      -514.6923   2.0000                                         
     2  0  0.50       -23.9615   2.0000                                         
     2  1  0.50        -9.0305   4.0000                                         
     3  2  1.50        -9.5241   0.0000                                         
   Description                                                                  
     l       E           TYP  RCUT    TYP  RCUT                                 
     0    -23.9615318     23  1.200                                             
     0     -9.5240782     23  1.200                                             
     1     -9.0304911     23  1.520                                             
     1      8.1634956     23  1.520                                             
     2     -9.5240782      7  1.500                                             
  local pseudopotential read in
  partial core-charges read in
  partial kinetic energy density read in
  kinetic energy density of atom read in
  atomic valenz-charges read in
  non local Contribution for L=           0  read in
    real space projection operators read in
  non local Contribution for L=           0  read in
    real space projection operators read in
  non local Contribution for L=           1  read in
    real space projection operators read in
  non local Contribution for L=           1  read in
    real space projection operators read in
    PAW grid and wavefunctions read in
 
   number of l-projection  operators is LMAX  =           4
   number of lm-projection operators is LMMAX =           8
 
 Optimization of the real space projectors (new method)

 maximal supplied QI-value         = 16.25
 optimisation between [QCUT,QGAM] = [ 12.51, 25.03] = [ 43.85,175.40] Ry 
 Optimized for a Real-space Cutoff    1.47 Angstroem

   l    n(q)    QCUT    max X(q) W(low)/X(q) W(high)/X(q)  e(spline) 
   0     11    12.514    11.817    0.25E-04    0.32E-05    0.87E-07
   0     11    12.514     8.461    0.39E-04    0.59E-05    0.18E-06
   1     11    12.514     3.957    0.97E-05    0.57E-05    0.28E-07
   1     11    12.514     4.314    0.42E-04    0.14E-04    0.23E-06
   2     10    12.514    14.565    0.79E-04    0.50E-03    0.16E-05
   2     10    12.514    14.552    0.75E-04    0.48E-03    0.15E-05
 Optimization of the real space projectors (new method)

 maximal supplied QI-value         = 19.84
 optimisation between [QCUT,QGAM] = [ 12.50, 25.00] = [ 43.76,175.03] Ry 
 Optimized for a Real-space Cutoff    1.16 Angstroem

   l    n(q)    QCUT    max X(q) W(low)/X(q) W(high)/X(q)  e(spline) 
   0      9    12.501   159.560    0.10E-03    0.83E-04    0.71E-07
   0      9    12.501   115.863    0.99E-04    0.81E-04    0.70E-07
   1      8    12.501    88.339    0.20E-03    0.25E-03    0.76E-07
   1      8    12.501    48.592    0.20E-03    0.24E-03    0.75E-07
 Optimization of the real space projectors (new method)

 maximal supplied QI-value         = 24.76
 optimisation between [QCUT,QGAM] = [ 12.38, 25.00] = [ 42.90,175.06] Ry 
 Optimized for a Real-space Cutoff    1.16 Angstroem

   l    n(q)    QCUT    max X(q) W(low)/X(q) W(high)/X(q)  e(spline) 
   0      9    12.378    20.381    0.16E-03    0.67E-05    0.31E-06
   0      9    12.378    15.268    0.17E-03    0.81E-05    0.33E-06
   1      8    12.378     5.964    0.20E-03    0.16E-03    0.30E-06
   1      8    12.378     5.382    0.18E-03    0.14E-03    0.26E-06
  PAW_PBE Ca_sv 06Sep2000               :
 energy of atom  1       EATOM=-1006.0909
 kinetic energy error for atom=    0.0012 (will be added to EATOM!!)
  PAW_PBE Si 05Jan2001                  :
 energy of atom  2       EATOM= -103.0669
 kinetic energy error for atom=    0.0003 (will be added to EATOM!!)
  PAW_PBE O 08Apr2002                   :
 energy of atom  3       EATOM= -432.3788
 kinetic energy error for atom=    0.0168 (will be added to EATOM!!)
 
 
 POSCAR: Ca Si  O                                
  positions in direct lattice
  No initial velocities read in
 exchange correlation table for  LEXCH =        8
   RHO(1)=    0.500       N(1)  =     2000
   RHO(2)=  100.500       N(2)  =     4000
 


--------------------------------------------------------------------------------------------------------


 ion  position               nearest neighbor table
   1  0.595  0.549  0.659- 109 2.09 118 2.12  59 2.18 102 2.20  77 2.56   5 3.08   6 3.16
   2  0.186  0.854  0.514-  74 2.15 115 2.33  88 2.40 103 2.47  53 3.14
   3  0.581  0.340  0.924- 125 2.32  97 2.32  59 2.34  82 2.35  70 2.36  71 2.53  38 2.70   9 3.07
                            17 3.16
   4  0.438  0.507  0.141-  66 2.18  68 2.22  61 2.28  58 2.30  82 2.41  45 2.85  42 3.02
   5  0.589  0.285  0.634-  96 2.23  70 2.32  80 2.33  91 2.38  71 2.39  38 2.91  40 2.94  54 3.06
                             1 3.08
   6  0.387  0.721  0.692-  88 2.19 116 2.41 109 2.41 131 2.42  31 2.86  41 2.96   1 3.16
   7  0.120  0.563  0.091-  58 2.04  63 2.19  98 2.25 110 2.27  61 2.48  25 2.78  49 2.95  32 3.04
                            28 3.11
   8  0.086  0.342  0.812-  57 2.01  98 2.17 130 2.18 108 2.42  56 2.52  49 2.87  12 3.06  41 3.13

   9  0.741  0.549  0.944- 106 2.21  59 2.23  82 2.24  77 2.35 101 2.41  62 2.55  37 2.81  52 2.91
                            38 3.07   3 3.07  13 3.10
  10  0.707  0.835  0.739- 112 2.10  77 2.18 127 2.25  81 2.41  75 2.41 109 2.44 129 2.47  36 2.94
                            52 3.10
  11  0.193  0.047  0.258-  72 2.03 122 2.23  55 2.31  35 3.05  27 3.10
  12  0.996  0.328  0.565-  56 2.14  64 2.20  87 2.22  85 2.51  79 2.56   8 3.06  50 3.13
  13  0.766  0.804  0.016-  76 2.08 112 2.14 101 2.16 129 2.37 106 2.50  52 2.78  48 3.04   9 3.10

  14  0.801  0.861  0.418- 126 2.20 113 2.42 123 2.48  44 3.05
  15  0.652  0.679  0.271- 123 1.83  66 2.13  60 2.27  62 2.45  37 2.86  29 2.91  42 3.01
  16  0.042  0.594  0.430-  64 1.93  99 2.09 121 2.15 115 2.23  29 2.70
  17  0.779  0.170  0.001-  67 2.19  73 2.21 124 2.27 128 2.43  38 3.03  47 3.11   3 3.16
  18  0.248  0.247  0.053- 108 2.04 134 2.26  97 2.39 130 2.48  72 2.54  47 3.10
  19  0.820  0.122  0.674-  71 2.23  90 2.25  87 2.28  80 2.44 127 2.48  38 2.88  40 2.99  44 3.16

  20  0.454  0.959  0.342-  83 2.33 122 2.40 103 2.43  31 2.93  48 3.09
  21  0.328  0.627  0.418-  89 1.98 102 2.27 116 2.42  66 2.50  42 3.04  24 3.06  35 3.13
  22  0.943  0.235  0.303-  85 2.22  55 2.32  95 2.37  44 2.89
  23  0.403  0.890  0.080- 117 2.03  83 2.22 107 2.29  92 2.42  35 3.06  39 3.13
  24  0.310  0.394  0.539-  91 2.07  86 2.26  57 2.30 119 2.34  79 2.35  54 2.85  41 2.95  21 3.06
                            34 3.12
  25  0.958  0.388  0.073-  98 2.02 124 2.13  95 2.19 133 2.26 110 2.39 108 2.57   7 2.78  37 3.08

  26  0.668  0.206  0.339- 120 1.99  96 2.35  80 2.40 126 2.44 128 2.44  43 2.98  51 3.15
  27  0.951  0.948  0.202- 104 2.00  76 2.22  67 2.25 113 2.25  65 2.42  47 2.96  11 3.10
  28  0.126  0.816  0.005-  92 1.52  63 1.64  65 1.65  93 1.70  35 2.87  33 2.95   7 3.11
  29  0.899  0.641  0.254-  99 1.57 110 1.64 104 1.75  62 1.84  16 2.70  15 2.91  37 3.03
  30  0.508  0.152  0.118- 107 1.57  97 1.73 120 1.73 128 1.79  73 2.22  51 2.80  48 2.98
  31  0.544  0.807  0.523- 109 1.51 116 1.57 123 1.77  75 1.78  40 2.84   6 2.86  20 2.93
  32  0.169  0.396  0.287-  95 1.52  79 1.54  61 1.73 134 2.11   7 3.04
  33  0.263  0.935  0.829-  88 1.67 100 1.69  92 1.74 132 1.78  28 2.95  53 3.00
  34  0.342  0.127  0.538-  78 1.58 119 1.63  74 1.72 122 1.90  86 2.04  53 2.80  51 2.95  24 3.12

  35  0.215  0.787  0.233- 103 1.48 117 1.66 121 1.69  65 1.76  28 2.87  11 3.05  23 3.06  21 3.13

  36  0.938  0.788  0.649-  81 1.69 115 1.72  94 1.74 127 1.80  46 2.78  50 2.89  10 2.94
  37  0.725  0.466  0.170-  62 1.51  82 1.55  60 1.77 133 1.79   9 2.81  15 2.86  29 3.03  25 3.08

  38  0.774  0.333  0.796-  87 1.62  71 1.66  59 1.71 124 1.84  69 2.39   3 2.70  19 2.88   5 2.91
                            17 3.03   9 3.07
  39  0.548  0.004  0.884-  73 1.61 114 1.66 132 1.80 129 1.84  23 3.13
  40  0.592  0.037  0.589-  75 1.53  80 1.54  78 1.67 114 1.85  31 2.84   5 2.94  19 2.99
  41  0.190  0.559  0.690-  84 1.62 131 1.63  89 1.72  57 1.73  24 2.95   6 2.96  49 3.01   8 3.13

  42  0.536  0.475  0.379-  66 1.57  68 1.69 102 1.82  96 1.87  60 1.91  43 2.50  15 3.01   4 3.02
                            21 3.04
  43  0.735  0.430  0.446-  85 1.61 118 1.61  96 1.62  60 1.78  42 2.50  26 2.98  50 3.14
  44  0.977  0.050  0.465- 111 1.62 113 1.62  90 1.64  55 1.72  22 2.89  53 2.91  14 3.05  19 3.16

  45  0.355  0.570  0.919-  58 1.60 125 1.64 131 1.67 105 1.75   4 2.85  52 2.95
  46  0.951  0.940  0.832- 112 1.65 135 1.70  94 1.75  93 1.79  36 2.78  47 2.90
  47  0.035  0.093  0.010-  72 1.58  67 1.69 108 1.72 135 1.83  93 2.44  46 2.90  27 2.96  18 3.10
                            17 3.11
  48  0.675  0.973  0.194-  83 1.50  76 1.57 128 1.69 126 1.72  30 2.98  13 3.04  20 3.09
  49  0.002  0.567  0.867-  98 1.53  84 1.75 106 1.77  69 1.80  63 2.24   8 2.87   7 2.95  50 2.99
                            41 3.01
  50  0.867  0.549  0.648-  64 1.63  69 1.67  81 1.74 118 1.84  36 2.89  49 2.99  12 3.13  43 3.14

  51  0.399  0.235  0.316- 134 1.61 120 1.74 122 1.75  86 1.76  68 2.08  30 2.80  34 2.95  26 3.15

  52  0.559  0.721  0.930- 101 1.58  77 1.60 129 1.64 105 1.80  13 2.78   9 2.91  45 2.95  10 3.10

  53  0.137  0.079  0.656- 111 1.54  56 1.62 100 1.69  74 1.72 119 2.45  34 2.80  44 2.91  33 3.00
                             2 3.14
  54  0.357  0.292  0.757- 130 1.56  70 1.80  91 1.80 119 1.82  24 2.85   5 3.06
  55  0.082  0.132  0.400-  44 1.72  11 2.31  22 2.32
  56  0.047  0.185  0.669-  53 1.62  12 2.14   8 2.52
  57  0.171  0.412  0.678-  41 1.73   8 2.01  24 2.30
  58  0.279  0.529  0.026-  45 1.60   7 2.04   4 2.30
  59  0.684  0.449  0.790-  38 1.71   1 2.18   9 2.23   3 2.34
  60  0.686  0.492  0.315-  37 1.77  43 1.78  42 1.91  15 2.27
  61  0.265  0.496  0.233-  32 1.73   4 2.28   7 2.48
  62  0.794  0.575  0.155-  37 1.51  29 1.84  15 2.45   9 2.55
  63  0.128  0.687  0.949-  28 1.64   7 2.19  49 2.24
  64  0.964  0.515  0.554-  50 1.63  16 1.93  12 2.20
  65  0.096  0.811  0.144-  28 1.65  35 1.76  27 2.42
  66  0.502  0.580  0.302-  42 1.57  15 2.13   4 2.18  21 2.50
  67  0.926  0.113  0.104-  47 1.69  17 2.19  27 2.25
  68  0.490  0.383  0.277-  42 1.69  51 2.08   4 2.22
  69  0.903  0.491  0.775-  50 1.67  49 1.80  38 2.39
  70  0.488  0.217  0.791-  54 1.80   5 2.32   3 2.36
  71  0.698  0.212  0.792-  38 1.66  19 2.23   5 2.39   3 2.53
  72  0.140  0.062  0.092-  47 1.58  11 2.03  18 2.54
  73  0.606  0.101  0.963-  39 1.61  17 2.21  30 2.22
  74  0.239  0.024  0.563-  34 1.72  53 1.72   2 2.15
  75  0.642  0.918  0.561-  40 1.53  31 1.78  10 2.41
  76  0.782  0.953  0.114-  48 1.57  13 2.08  27 2.22
  77  0.643  0.683  0.828-  52 1.60  10 2.18   9 2.35   1 2.56
  78  0.450  0.054  0.574-  34 1.58  40 1.67
  79  0.150  0.384  0.417-  32 1.54  24 2.35  12 2.56
  80  0.665  0.131  0.532-  40 1.54   5 2.33  26 2.40  19 2.44
  81  0.827  0.693  0.649-  36 1.69  50 1.74  10 2.41
  82  0.630  0.463  0.077-  37 1.55   9 2.24   3 2.35   4 2.41
  83  0.563  0.909  0.182-  48 1.50  23 2.22  20 2.33
  84  0.074  0.614  0.743-  41 1.62  49 1.75
  85  0.833  0.334  0.423-  43 1.61  22 2.22  12 2.51
  86  0.428  0.259  0.462-  51 1.76  34 2.04  24 2.26
  87  0.841  0.317  0.674-  38 1.62  12 2.22  19 2.28
  88  0.270  0.868  0.702-  33 1.67   6 2.19   2 2.40
  89  0.232  0.611  0.558-  41 1.72  21 1.98
  90  0.851  0.110  0.483-  44 1.64  19 2.25
  91  0.427  0.402  0.674-  54 1.80  24 2.07   5 2.38
  92  0.229  0.884  0.966-  28 1.52  33 1.74  23 2.42
  93  0.005  0.890  0.967-  28 1.70  46 1.79  47 2.44
  94  0.028  0.834  0.759-  36 1.74  46 1.75
  95  0.086  0.339  0.203-  32 1.52  25 2.19  22 2.37
  96  0.615  0.360  0.460-  43 1.62  42 1.87   5 2.23  26 2.35
  97  0.451  0.277  0.062-  30 1.73   3 2.32  18 2.39
  98  0.041  0.467  0.943-  49 1.53  25 2.02   8 2.17   7 2.25
  99  0.870  0.618  0.384-  29 1.57  16 2.09
 100  0.182  0.050  0.791-  33 1.69  53 1.69
 101  0.624  0.688  0.044-  52 1.58  13 2.16   9 2.41
 102  0.483  0.549  0.507-  42 1.82   1 2.20  21 2.27
 103  0.285  0.837  0.327-  35 1.48  20 2.43   2 2.47
 104  0.902  0.783  0.206-  29 1.75  27 2.00
 105  0.405  0.712  0.926-  45 1.75  52 1.80
 106  0.898  0.655  0.935-  49 1.77   9 2.21  13 2.50
 107  0.391  0.084  0.111-  30 1.57  23 2.29
 108  0.086  0.230  0.987-  47 1.72  18 2.04   8 2.42  25 2.57
 109  0.580  0.723  0.615-  31 1.51   1 2.09   6 2.41  10 2.44
 110  0.978  0.529  0.221-  29 1.64   7 2.27  25 2.39
 111  0.042  0.021  0.585-  53 1.54  44 1.62
 112  0.820  0.896  0.866-  46 1.65  10 2.10  13 2.14
 113  0.995  0.933  0.390-  44 1.62  27 2.25  14 2.42
 114  0.586  0.023  0.747-  39 1.66  40 1.85
 115  0.010  0.758  0.523-  36 1.72  16 2.23   2 2.33
 116  0.410  0.799  0.502-  31 1.57   6 2.41  21 2.42
 117  0.309  0.752  0.132-  35 1.66  23 2.03
 118  0.742  0.501  0.564-  43 1.61  50 1.84   1 2.12
 119  0.294  0.218  0.634-  34 1.63  54 1.82  24 2.34  53 2.45
 120  0.520  0.161  0.266-  30 1.73  51 1.74  26 1.99
 121  0.142  0.682  0.302-  35 1.69  16 2.15
 122  0.327  0.117  0.376-  51 1.75  34 1.90  11 2.23  20 2.40
 123  0.610  0.773  0.390-  31 1.77  15 1.83  14 2.48
 124  0.857  0.335  0.930-  38 1.84  25 2.13  17 2.27
 125  0.479  0.508  0.890-  45 1.64   3 2.32
 126  0.700  0.999  0.337-  48 1.72  14 2.20  26 2.44
 127  0.850  0.914  0.637-  36 1.80  10 2.25  19 2.48
 128  0.651  0.110  0.154-  48 1.69  30 1.79  17 2.43  26 2.44
 129  0.595  0.857  0.919-  52 1.64  39 1.84  13 2.37  10 2.47
 130  0.267  0.319  0.853-  54 1.56   8 2.18  18 2.48
 131  0.283  0.573  0.795-  41 1.63  45 1.67   6 2.42
 132  0.393  0.999  0.880-  33 1.78  39 1.80
 133  0.794  0.329  0.159-  37 1.79  25 2.26
 134  0.285  0.265  0.243-  51 1.61  32 2.11  18 2.26
 135  0.969  0.081  0.868-  46 1.70  47 1.83
 

IMPORTANT INFORMATION: All symmetrisations will be switched off!
NOSYMM: (Re-)initialisation of all symmetry stuff for point group C_1.

 
 

Automatic generation of k-mesh.
 generate k-points for:    2    2    2
Space group operators:
 irot       det(A)        alpha          n_x          n_y          n_z        tau_x        tau_y        tau_z
    1     1.000000     0.000001     1.000000     0.000000     0.000000     0.000000     0.000000     0.000000
 
 Subroutine IBZKPT returns following result:
 ===========================================
 
 Found      8 irreducible k-points:
 
 Following reciprocal coordinates:
            Coordinates               Weight
  0.000000  0.000000  0.000000      1.000000
  0.500000  0.000000  0.000000      1.000000
  0.000000  0.500000  0.000000      1.000000
  0.500000  0.500000  0.000000      1.000000
  0.000000  0.000000  0.500000      1.000000
  0.500000  0.000000  0.500000      1.000000
  0.000000  0.500000  0.500000      1.000000
  0.500000  0.500000  0.500000      1.000000
 
 Following cartesian coordinates:
            Coordinates               Weight
  0.000000  0.000000  0.000000      1.000000
  0.042999  0.000000  0.000000      1.000000
  0.000000  0.042999  0.000000      1.000000
  0.042999  0.042999  0.000000      1.000000
  0.000000  0.000000  0.042999      1.000000
  0.042999  0.000000  0.042999      1.000000
  0.000000  0.042999  0.042999      1.000000
  0.042999  0.042999  0.042999      1.000000
 


--------------------------------------------------------------------------------------------------------




 Dimension of arrays:
   k-points           NKPTS =      8   k-points in BZ     NKDIM =      8   number of bands    NBANDS=    520
   number of dos      NEDOS =    301   number of ions     NIONS =    135
   non local maximal  LDIM  =      6   non local SUM 2l+1 LMDIM =     18
   total plane-waves  NPLWV = 884736
   max r-space proj   IRMAX =   7548   max aug-charges    IRDMAX= 214954
   dimension x,y,z NGX =    96 NGY =   96 NGZ =   96
   dimension x,y,z NGXF=   192 NGYF=  192 NGZF=  192
   support grid    NGXF=   384 NGYF=  384 NGZF=  384
   ions per type =              27  27  81
   NGX,Y,Z   is equivalent  to a cutoff of  13.72, 13.72, 13.72 a.u.
   NGXF,Y,Z  is equivalent  to a cutoff of  27.45, 27.45, 27.45 a.u.

 SYSTEM =  unknown system                          
 POSCAR =  Ca Si  O                                

 Startparameter for this run:
   NWRITE =      2    write-flag & timer
   PREC   = a         normal or accurate (medium, high low for compatibility)
   ISTART =      0    job   : 0-new  1-cont  2-samecut
   ICHARG =      2    charge: 1-file 2-atom 10-const
   ISPIN  =      1    spin polarized calculation?
   LNONCOLLINEAR =      F non collinear calculations
   LSORBIT =      F    spin-orbit coupling
   INIWAV =      1    electr: 0-lowe 1-rand  2-diag
   LASPH  =      F    aspherical Exc in radial PAW
   METAGGA=      F    non-selfconsistent MetaGGA calc.

 Electronic Relaxation 1
   ENCUT  =  600.0 eV  44.10 Ry    6.64 a.u.  23.22 23.22 23.22*2*pi/ulx,y,z
   ENINI  =  600.0     initial cutoff
   ENAUG  =  605.4 eV  augmentation charge cutoff
   NELM   =     60;   NELMIN=  2; NELMDL= -5     # of ELM steps 
   EDIFF  = 0.1E-05   stopping-criterion for ELM
   LREAL  =      T    real-space projection
   NLSPLINE    = F    spline interpolate recip. space projectors
   LCOMPAT=      F    compatible to vasp.4.4
   GGA_COMPAT  = T    GGA compatible to vasp.4.4-vasp.4.6
   LMAXPAW     = -100 max onsite density
   LMAXMIX     =    2 max onsite mixed and CHGCAR
   VOSKOWN=      0    Vosko Wilk Nusair interpolation
   ROPT   =   -0.00025  -0.00025  -0.00025
 Ionic relaxation
   EDIFFG = -.1E-01   stopping-criterion for IOM
   NSW    =      1    number of steps for IOM
   NBLOCK =      1;   KBLOCK =      1    inner block; outer block 
   IBRION =     -1    ionic relax: 0-MD 1-quasi-New 2-CG
   NFREE  =      0    steps in history (QN), initial steepest desc. (CG)
   ISIF   =      2    stress and relaxation
   IWAVPR =     10    prediction:  0-non 1-charg 2-wave 3-comb
   ISYM   =      0    0-nonsym 1-usesym 2-fastsym
   LCORR  =      T    Harris-Foulkes like correction to forces

   POTIM  = 1.0000    time-step for ionic-motion
   TEIN   =    0.0    initial temperature
   TEBEG  =    0.0;   TEEND  =   0.0 temperature during run
   SMASS  =  -3.00    Nose mass-parameter (am)
   estimated Nose-frequenzy (Omega)   =  0.10E-29 period in steps =****** mass=  -0.309E-26a.u.
   SCALEE = 1.0000    scale energy and forces
   NPACO  =    256;   APACO  = 16.0  distance and # of slots for P.C.
   PSTRESS=    0.0 pullay stress

  Mass of Ions in am
   POMASS =  40.08 28.09 16.00
  Ionic Valenz
   ZVAL   =  10.00  4.00  6.00
  Atomic Wigner-Seitz radii
   RWIGS  =  -1.00 -1.00 -1.00
  virtual crystal weights 
   VCA    =   1.00  1.00  1.00
   NELECT =     864.0000    total number of electrons
   NUPDOWN=      -1.0000    fix difference up-down

 DOS related values:
   EMIN   =  10.00;   EMAX   =-10.00  energy-range for DOS
   EFERMI =   0.00
   ISMEAR =     0;   SIGMA  =   0.05  broadening in eV -4-tet -1-fermi 0-gaus

 Electronic relaxation 2 (details)
   IALGO  =     38    algorithm
   LDIAG  =      T    sub-space diagonalisation (order eigenvalues)
   LSUBROT=      F    optimize rotation matrix (better conditioning)
   TURBO    =      0    0=normal 1=particle mesh
   IRESTART =      0    0=no restart 2=restart with 2 vectors
   NREBOOT  =      0    no. of reboots
   NMIN     =      0    reboot dimension
   EREF     =   0.00    reference energy to select bands
   IMIX   =      4    mixing-type and parameters
     AMIX     =   0.40;   BMIX     =  1.00
     AMIX_MAG =   1.60;   BMIX_MAG =  1.00
     AMIN     =   0.10
     WC   =   100.;   INIMIX=   1;  MIXPRE=   1;  MAXMIX= -45

 Intra band minimization:
   WEIMIN = 0.0000     energy-eigenvalue tresh-hold
   EBREAK =  0.48E-09  absolut break condition
   DEPER  =   0.30     relativ break condition  

   TIME   =   0.40     timestep for ELM

  volume/ion in A,a.u.               =      11.65        78.60
  Fermi-wavevector in a.u.,A,eV,Ry     =   1.340915  2.533962 24.463997  1.798053
  Thomas-Fermi vector in A             =   2.469190
 
 Write flags
   LWAVE        =      F    write WAVECAR
   LDOWNSAMPLE  =      F    k-point downsampling of WAVECAR
   LCHARG       =      F    write CHGCAR
   LVTOT        =      F    write LOCPOT, total local potential
   LVHAR        =      F    write LOCPOT, Hartree potential only
   LELF         =      F    write electronic localiz. function (ELF)
   LORBIT       =      0    0 simple, 1 ext, 2 COOP (PROOUT), +10 PAW based schemes


 Dipole corrections
   LMONO  =      F    monopole corrections only (constant potential shift)
   LDIPOL =      F    correct potential (dipole corrections)
   IDIPOL =      0    1-x, 2-y, 3-z, 4-all directions 
   EPSILON=  1.0000000 bulk dielectric constant

 Exchange correlation treatment:
   GGA     =    --    GGA type
   LEXCH   =     8    internal setting for exchange type
   VOSKOWN=      0    Vosko Wilk Nusair interpolation
   LHFCALC =     F    Hartree Fock is set to
   LHFONE  =     F    Hartree Fock one center treatment
   AEXX    =    0.0000 exact exchange contribution

 Linear response parameters
   LEPSILON=     F    determine dielectric tensor
   LRPA    =     F    only Hartree local field effects (RPA)
   LNABLA  =     F    use nabla operator in PAW spheres
   LVEL    =     F    velocity operator in full k-point grid
   LINTERFAST=   F  fast interpolation
   KINTER  =     0    interpolate to denser k-point grid
   CSHIFT  =0.1000    complex shift for real part using Kramers Kronig
   OMEGAMAX=  -1.0    maximum frequency
   DEG_THRESHOLD= 0.2000000E-02 threshold for treating states as degnerate
   RTIME   =   -0.100 relaxation time in fs
  (WPLASMAI=    0.000 imaginary part of plasma frequency in eV, 0.658/RTIME)
   DFIELD  = 0.0000000 0.0000000 0.0000000 field for delta impulse in time
 
 Orbital magnetization related:
   ORBITALMAG=     F  switch on orbital magnetization
   LCHIMAG   =     F  perturbation theory with respect to B field
   DQ        =  0.001000  dq finite difference perturbation B field
   LLRAUG    =     F  two centre corrections for induced B field



--------------------------------------------------------------------------------------------------------


 Static calculation
 charge density and potential will be updated during run
 non-spin polarized calculation
 Variant of blocked Davidson
 Davidson routine will perform the subspace rotation
 perform sub-space diagonalisation
    after iterative eigenvector-optimisation
 modified Broyden-mixing scheme, WC =      100.0
 initial mixing is a Kerker type mixing with AMIX =  0.4000 and BMIX =      1.0000
 Hartree-type preconditioning will be used
 using additional bands           88
 real space projection scheme for non local part
 use partial core corrections
 calculate Harris-corrections to forces 
   (improved forces if not selfconsistent)
 use gradient corrections 
 use of overlap-Matrix (Vanderbilt PP)
 Gauss-broadening in eV      SIGMA  =   0.05


--------------------------------------------------------------------------------------------------------


  energy-cutoff  :      600.00
  volume of cell :     1572.30
      direct lattice vectors                 reciprocal lattice vectors
    11.628173330  0.000000000  0.000000000     0.085998030  0.000000000  0.000000000
     0.000000000 11.628173330  0.000000000     0.000000000  0.085998030  0.000000000
     0.000000000  0.000000000 11.628173330     0.000000000  0.000000000  0.085998030

  length of vectors
    11.628173330 11.628173330 11.628173330     0.085998030  0.085998030  0.085998030


 
 k-points in units of 2pi/SCALE and weight: read from INCAR                         
   0.00000000  0.00000000  0.00000000       0.125
   0.04299902  0.00000000  0.00000000       0.125
   0.00000000  0.04299902  0.00000000       0.125
   0.04299902  0.04299902  0.00000000       0.125
   0.00000000  0.00000000  0.04299902       0.125
   0.04299902  0.00000000  0.04299902       0.125
   0.00000000  0.04299902  0.04299902       0.125
   0.04299902  0.04299902  0.04299902       0.125
 
 k-points in reciprocal lattice and weights: read from INCAR                         
   0.00000000  0.00000000  0.00000000       0.125
   0.50000000  0.00000000  0.00000000       0.125
   0.00000000  0.50000000  0.00000000       0.125
   0.50000000  0.50000000  0.00000000       0.125
   0.00000000  0.00000000  0.50000000       0.125
   0.50000000  0.00000000  0.50000000       0.125
   0.00000000  0.50000000  0.50000000       0.125
   0.50000000  0.50000000  0.50000000       0.125
 
 position of ions in fractional coordinates (direct lattice) 
   0.59487603  0.54909461  0.65943848
   0.18610240  0.85395412  0.51397718
   0.58076427  0.33965813  0.92381451
   0.43768447  0.50705232  0.14104152
   0.58931072  0.28545385  0.63410701
   0.38705748  0.72070046  0.69200112
   0.11996173  0.56317306  0.09134643
   0.08617719  0.34224168  0.81183427
   0.74057744  0.54879137  0.94370736
   0.70651034  0.83488620  0.73943522
   0.19262250  0.04743738  0.25804440
   0.99614680  0.32806043  0.56490419
   0.76611812  0.80401460  0.01637079
   0.80126876  0.86143783  0.41780010
   0.65212418  0.67929142  0.27071973
   0.04204474  0.59386381  0.43018761
   0.77931919  0.17039408  0.00050921
   0.24808394  0.24722368  0.05253341
   0.81964532  0.12236422  0.67375948
   0.45449158  0.95860691  0.34225324
   0.32752967  0.62738967  0.41811929
   0.94254297  0.23541202  0.30302559
   0.40299133  0.88986926  0.08034709
   0.31047171  0.39400389  0.53920019
   0.95848707  0.38775126  0.07327120
   0.66784572  0.20625657  0.33945138
   0.95115036  0.94837674  0.20247139
   0.12551444  0.81639593  0.00528443
   0.89905529  0.64112212  0.25382097
   0.50776863  0.15182754  0.11754365
   0.54350235  0.80675003  0.52258323
   0.16851217  0.39635884  0.28680243
   0.26309994  0.93512471  0.82879487
   0.34193136  0.12711245  0.53829511
   0.21493567  0.78686905  0.23330461
   0.93782224  0.78761917  0.64908763
   0.72487127  0.46642430  0.17036981
   0.77423631  0.33260223  0.79611809
   0.54778009  0.00363648  0.88389821
   0.59213484  0.03657090  0.58938734
   0.19045926  0.55883994  0.69020099
   0.53614119  0.47454111  0.37945796
   0.73535630  0.42961589  0.44552946
   0.97729970  0.04967763  0.46478962
   0.35523136  0.56969000  0.91852302
   0.95081304  0.94046127  0.83209842
   0.03502893  0.09279035  0.01034542
   0.67487193  0.97266374  0.19407683
   0.00150701  0.56706597  0.86713113
   0.86695355  0.54903822  0.64843536
   0.39924074  0.23461648  0.31554316
   0.55924752  0.72070038  0.93012210
   0.13698968  0.07892899  0.65565273
   0.35674028  0.29150616  0.75679462
   0.08233711  0.13179660  0.39977060
   0.04688669  0.18457945  0.66903056
   0.17072273  0.41192867  0.67778966
   0.27904120  0.52893625  0.02568047
   0.68443728  0.44916373  0.79023243
   0.68561643  0.49237202  0.31475019
   0.26476277  0.49622787  0.23263782
   0.79388401  0.57548453  0.15496940
   0.12750345  0.68689997  0.94907444
   0.96429278  0.51451977  0.55392176
   0.09553429  0.81102341  0.14362339
   0.50169859  0.57957214  0.30160656
   0.92596109  0.11289974  0.10411852
   0.49049674  0.38293454  0.27651493
   0.90343573  0.49065326  0.77484476
   0.48818106  0.21696718  0.79135359
   0.69793519  0.21207993  0.79192763
   0.13965449  0.06174417  0.09197969
   0.60626469  0.10081178  0.96264804
   0.23910825  0.02361365  0.56347232
   0.64209454  0.91779108  0.56093756
   0.78221723  0.95317826  0.11381588
   0.64267556  0.68274535  0.82764108
   0.45009099  0.05358860  0.57397450
   0.14987132  0.38416677  0.41713884
   0.66537737  0.13098822  0.53197389
   0.82717344  0.69292374  0.64912588
   0.63008312  0.46281810  0.07657554
   0.56337755  0.90926624  0.18170844
   0.07390158  0.61353545  0.74348213
   0.83275291  0.33431891  0.42340548
   0.42775631  0.25936976  0.46217576
   0.84059644  0.31726617  0.67449727
   0.26996517  0.86801985  0.70230700
   0.23163611  0.61081999  0.55777453
   0.85140727  0.10987352  0.48323947
   0.42661691  0.40245168  0.67393943
   0.22945037  0.88449461  0.96595518
   0.00522281  0.88961273  0.96675542
   0.02807240  0.83356429  0.75945519
   0.08622545  0.33900405  0.20257783
   0.61547877  0.36003294  0.45953751
   0.45097992  0.27721607  0.06194776
   0.04099104  0.46730817  0.94277930
   0.86972821  0.61841219  0.38386945
   0.18244825  0.04960858  0.79087771
   0.62395801  0.68754449  0.04443638
   0.48287334  0.54900665  0.50653714
   0.28501619  0.83694545  0.32716354
   0.90239349  0.78331704  0.20569072
   0.40513144  0.71175628  0.92569360
   0.89822728  0.65529461  0.93528280
   0.39079200  0.08414368  0.11075532
   0.08640038  0.22960839  0.98656406
   0.57958407  0.72293399  0.61517068
   0.97800760  0.52879009  0.22121605
   0.04172339  0.02067496  0.58466395
   0.82000331  0.89610878  0.86618849
   0.99481547  0.93320305  0.39045875
   0.58617042  0.02331432  0.74749392
   0.01038557  0.75822336  0.52323354
   0.41044173  0.79924859  0.50207915
   0.30922732  0.75217878  0.13200655
   0.74216970  0.50123357  0.56385476
   0.29363572  0.21756130  0.63358745
   0.52000302  0.16118716  0.26575277
   0.14200996  0.68176373  0.30233007
   0.32664329  0.11746039  0.37610962
   0.60959174  0.77315465  0.38981958
   0.85737593  0.33468926  0.93029926
   0.47935475  0.50809009  0.89022270
   0.69967072  0.99926437  0.33714924
   0.85048846  0.91432207  0.63675736
   0.65107484  0.11011419  0.15405743
   0.59492861  0.85672917  0.91864630
   0.26739008  0.31894362  0.85303933
   0.28258541  0.57291235  0.79455825
   0.39306759  0.99851768  0.87986745
   0.79417531  0.32923712  0.15938487
   0.28523447  0.26517318  0.24252791
   0.96895545  0.08132808  0.86828009
 
 position of ions in cartesian coordinates  (Angst):
   6.91732158  6.38496735  7.66806493
   2.16403092  9.92992648  5.97661573
   6.75322756  3.94960363 10.74227520
   5.08947093  5.89609224  1.64005522
   6.85260722  3.31930684  7.37350622
   4.50077147  8.38042984  8.04670891
   1.39493580  6.54867401  1.06219208
   1.00208327  3.97964557  9.44014955
   8.61156288  6.38144119 10.97359271
   8.21542465  9.70820145  8.59828096
   2.23984787  0.55161013  3.00058506
  11.58336768  3.81474349  6.56880386
   8.90855430  9.34922117  0.19036234
   9.31729208 10.01694842  4.85825202
   7.58301294  7.89891832  3.14797589
   0.48890350  6.90555129  5.00229606
   9.06205860  1.98137195  0.00592121
   2.88476302  2.87475976  0.61086763
   9.53097789  1.42287232  7.83459200
   5.28490691 11.14684729  3.97977994
   3.80857173  7.29539585  4.86196356
  10.96005307  2.73741183  3.52363414
   4.68605305 10.34755405  0.93428987
   3.61021883  4.58154548  6.26991325
  11.14545384  4.50883889  0.85201016
   7.76582582  2.39838715  3.94719947
  11.06014125 11.02788911  2.35437246
   1.45950369  9.49319333  0.06144832
  10.45437071  7.45507909  2.95147427
   5.90442164  1.76547699  1.36681794
   6.31993955  9.38102914  6.07668836
   1.95948872  4.60892927  3.33498832
   3.05937176 10.87379226  9.63737037
   3.97603711  1.47808558  6.25938888
   2.49930920  9.14984971  2.71290643
  10.90515960  9.15857227  7.54770348
   8.42892882  5.42366257  1.98108968
   9.00295400  3.86755643  9.25739912
   6.36968181  0.04228557 10.27812155
   6.88544654  0.42525280  6.85349820
   2.21469332  6.49828773  8.02577672
   6.23434269  5.51804629  4.41240293
   8.55085055  4.99564805  5.18069382
  11.36421035  0.57766006  5.40465430
   4.13069185  6.62445405 10.68074486
  11.05621884 10.93584663  9.67578470
   0.40732251  1.07898227  0.12029837
   7.84752782 11.31030257  2.25675898
   0.01752373  6.59394143 10.08315107
  10.08108612  6.38431161  7.54011881
   4.64244048  2.72816112  3.66919057
   6.50302706  8.38042892 10.81562094
   1.59293977  0.91779995  7.62404356
   4.14823786  3.38968416  8.80013899
   0.95743014  1.53255368  4.64860183
   0.54520661  2.14632188  7.77960328
   1.98519352  4.78997796  7.88145568
   3.24473939  6.15056240  0.29861700
   7.95875532  5.22295372  9.18895964
   7.97246669  5.72538716  3.65996978
   3.07870733  5.77022364  2.70515288
   9.23142087  6.69183391  1.80201108
   1.48263217  7.98739194 11.03600211
  11.21296354  5.98292510  6.44109821
   1.11088930  9.43072084  1.67007764
   5.83383814  6.73936526  3.50713341
  10.76723606  1.31281777  1.21070819
   5.70358108  4.45282915  3.21536355
  10.50530727  5.70540115  9.01002919
   5.67665397  2.52293200  9.20199669
   8.11571138  2.46610221  9.20867179
   1.62392660  0.71797189  1.06955581
   7.04975093  1.17225689 11.19383821
   2.78039222  0.27458357  6.55215379
   7.46638661 10.67223376  6.52267916
   9.09575758 11.08372206  1.32347075
   7.47314284  7.93908126  9.62395389
   5.23373603  0.62313750  6.67427502
   1.74272972  4.46715780  4.85056278
   7.73712344  1.52315374  6.18588462
   9.61851614  8.05743735  7.54814820
   7.32671577  5.38172909  0.89043370
   6.55105175 10.57310549  2.11293726
   0.85934037  7.13429656  8.64533906
   9.68339514  3.88751821  4.92343230
   4.97402453  3.01599653  5.37425983
   9.77460110  3.68922598  7.84317115
   3.13920181 10.09348524  8.16654754
   2.69350482  7.10272069  6.48589887
   9.90031135  1.27762835  5.61919231
   4.96077542  4.67977790  7.83668454
   2.66808871 10.28505669 11.23229423
   0.06073175 10.34457104 11.24159958
   0.32643074  9.69283010  8.83107659
   1.00264449  3.94199788  2.35561016
   7.15689381  4.18652538  5.34358186
   5.24407270  3.22351648  0.72033927
   0.47665095  5.43394035 10.96280117
  10.11335034  7.19100417  4.46370047
   2.12153985  0.57685718  9.19646314
   7.25549193  7.99488648  0.51671394
   5.61493489  6.38394444  5.89010163
   3.31421762  9.73214679  3.80431432
  10.49318790  9.10854634  2.39180731
   4.71093866  8.27642538 10.76412560
  10.44474253  7.61987930 10.87563054
   4.54419710  0.97843727  1.28788209
   1.00467865  2.66992620 11.47193790
   6.73950398  8.40640174  7.15331127
  11.37244185  6.14886280  2.57233853
   0.48516679  0.24041197  6.79857380
   9.53514066 10.42010819 10.07218992
  11.56788667 10.85144681  4.54032202
   6.81609128  0.27110290  8.69198885
   0.12076519  8.81675265  6.08425024
   4.77268760  9.29380109  5.83826338
   3.59574882  8.74646527  1.53499501
   8.63007797  5.82843087  6.55660084
   3.41444705  2.52984051  7.36746470
   6.04668526  1.87431218  3.09021924
   1.65131641  7.92766679  3.51554646
   3.79826475  1.36584982  4.37346790
   7.08843842  8.99037632  4.53288959
   9.96971592  3.89182477 10.81768106
   5.57402011  5.90815964 10.35166388
   8.13589239 11.61961932  3.92042985
   9.88962726 10.63189550  7.40432499
   7.57081114  1.28042689  1.79140646
   6.91793301  9.96219529 10.68217843
   3.10925820  3.70873166  9.91928918
   3.28595212  6.66192406  9.23926100
   4.57065809 11.61093662 10.23125125
   9.23480817  3.82842631  1.85335484
   3.31675585  3.08347966  2.82015662
  11.26718194  0.94569701 10.09651140
 


--------------------------------------------------------------------------------------------------------


 k-point  1 :   0.0000 0.0000 0.0000  plane waves:   52515
 k-point  2 :   0.5000 0.0000 0.0000  plane waves:   52518
 k-point  3 :   0.0000 0.5000 0.0000  plane waves:   52518
 k-point  4 :   0.5000 0.5000 0.0000  plane waves:   52456
 k-point  5 :   0.0000 0.0000 0.5000  plane waves:   52518
 k-point  6 :   0.5000 0.0000 0.5000  plane waves:   52456
 k-point  7 :   0.0000 0.5000 0.5000  plane waves:   52456
 k-point  8 :   0.5000 0.5000 0.5000  plane waves:   52568

 maximum and minimum number of plane-waves per node :      4420     4326

 maximum number of plane-waves:     52568
 maximum index in each direction: 
   IXMAX=   23   IYMAX=   23   IZMAX=   23
   IXMIN=  -23   IYMIN=  -23   IZMIN=  -23


 real space projection operators:
  total allocation   :      51770.12 KBytes
  max/ min on nodes  :       4365.91       4214.89


 parallel 3D FFT for wavefunctions:
    minimum data exchange during FFTs selected (reduces bandwidth)
 parallel 3D FFT for charge:
    minimum data exchange during FFTs selected (reduces bandwidth)


 total amount of memory used by VASP MPI-rank0   164794. kBytes
=======================================================================

   base      :      30000. kBytes
   nonlr-proj:      22683. kBytes
   fftplans  :      23775. kBytes
   grid      :      12472. kBytes
   one-center:        186. kBytes
   wavefun   :      75678. kBytes
 
     INWAV:  cpu time    0.0000: real time    0.0003
 Broyden mixing: mesh for mixing (old mesh)
   NGX = 47   NGY = 47   NGZ = 47
  (NGX  =192   NGY  =192   NGZ  =192)
  gives a total of 103823 points

 initial charge density was supplied:
 charge density of overlapping atoms calculated
 number of electron     864.0000000 magnetization 
 keeping initial charge density in first step


--------------------------------------------------------------------------------------------------------


 Maximum index for non-local projection operator          683
 Maximum index for augmentation-charges         4884 (set IRDMAX)


--------------------------------------------------------------------------------------------------------


 First call to EWALD:  gamma=   0.152
 Maximum number of real-space cells 3x 3x 3
 Maximum number of reciprocal cells 3x 3x 3

    FEWALD:  cpu time    0.0049: real time    0.0049


--------------------------------------- Iteration      1(   1)  ---------------------------------------


    POTLOK:  cpu time    0.1102: real time    0.1118
    SETDIJ:  cpu time    0.3041: real time    0.3051
     EDDAV:  cpu time   33.8097: real time   33.9927
       DOS:  cpu time    0.0023: real time    0.0023
    --------------------------------------------
      LOOP:  cpu time   34.2264: real time   34.4120

 eigenvalue-minimisations  :  8320
 total energy-change (2. order) : 0.9708736E+04  (-0.4836375E+05)
 number of electron     864.0000000 magnetization 
 augmentation part      864.0000000 magnetization 

 Free energy of the ion-electron system (eV)
  ---------------------------------------------------
  alpha Z        PSCENC =      3039.22321400
  Ewald energy   TEWEN  =    -49345.84897088
  -Hartree energ DENC   =    -15397.97135603
  -exchange      EXHF   =         0.00000000
  -V(xc)+E(xc)   XCENC  =      3189.99284825
  PAW double counting   =     50594.51003143   -49994.65612350
  entropy T*S    EENTRO =        -0.03966688
  eigenvalues    EBANDS =      2654.98624104
  atomic energy  EATOM  =     64968.54023382
  Solvation  Ediel_sol  =         0.00000000
  ---------------------------------------------------
  free energy    TOTEN  =      9708.73645126 eV

  energy without entropy =     9708.77611814  energy(sigma->0) =     9708.75628470


--------------------------------------------------------------------------------------------------------




--------------------------------------- Iteration      1(   2)  ---------------------------------------


     EDDAV:  cpu time   38.0453: real time   38.2374
       DOS:  cpu time    0.0010: real time    0.0010
    --------------------------------------------
      LOOP:  cpu time   38.0463: real time   38.2384

 eigenvalue-minimisations  :  9688
 total energy-change (2. order) :-0.9679591E+04  (-0.9374613E+04)
 number of electron     864.0000000 magnetization 
 augmentation part      864.0000000 magnetization 

 Free energy of the ion-electron system (eV)
  ---------------------------------------------------
  alpha Z        PSCENC =      3039.22321400
  Ewald energy   TEWEN  =    -49345.84897088
  -Hartree energ DENC   =    -15397.97135603
  -exchange      EXHF   =         0.00000000
  -V(xc)+E(xc)   XCENC  =      3189.99284825
  PAW double counting   =     50594.51003143   -49994.65612350
  entropy T*S    EENTRO =        -0.00000000
  eigenvalues    EBANDS =     -7024.64434427
  atomic energy  EATOM  =     64968.54023382
  Solvation  Ediel_sol  =         0.00000000
  ---------------------------------------------------
  free energy    TOTEN  =        29.14553283 eV

  energy without entropy =       29.14553283  energy(sigma->0) =       29.14553283


--------------------------------------------------------------------------------------------------------




--------------------------------------- Iteration      1(   3)  ---------------------------------------


     EDDAV:  cpu time   39.9740: real time   40.1850
       DOS:  cpu time    0.0009: real time    0.0009
    --------------------------------------------
      LOOP:  cpu time   39.9750: real time   40.1860

 eigenvalue-minimisations  : 10272
 total energy-change (2. order) :-0.1050522E+04  (-0.1043485E+04)
 number of electron     864.0000000 magnetization 
 augmentation part      864.0000000 magnetization 

 Free energy of the ion-electron system (eV)
  ---------------------------------------------------
  alpha Z        PSCENC =      3039.22321400
  Ewald energy   TEWEN  =    -49345.84897088
  -Hartree energ DENC   =    -15397.97135603
  -exchange      EXHF   =         0.00000000
  -V(xc)+E(xc)   XCENC  =      3189.99284825
  PAW double counting   =     50594.51003143   -49994.65612350
  entropy T*S    EENTRO =        -0.00000000
  eigenvalues    EBANDS =     -8075.16672425
  atomic energy  EATOM  =     64968.54023382
  Solvation  Ediel_sol  =         0.00000000
  ---------------------------------------------------
  free energy    TOTEN  =     -1021.37684715 eV

  energy without entropy =    -1021.37684715  energy(sigma->0) =    -1021.37684715


--------------------------------------------------------------------------------------------------------




--------------------------------------- Iteration      1(   4)  ---------------------------------------


     EDDAV:  cpu time   42.9156: real time   43.1161
       DOS:  cpu time    0.0010: real time    0.0010
    --------------------------------------------
      LOOP:  cpu time   42.9165: real time   43.1170

 eigenvalue-minimisations  : 11360
 total energy-change (2. order) :-0.5008296E+02  (-0.4989429E+02)
 number of electron     864.0000000 magnetization 
 augmentation part      864.0000000 magnetization 

 Free energy of the ion-electron system (eV)
  ---------------------------------------------------
  alpha Z        PSCENC =      3039.22321400
  Ewald energy   TEWEN  =    -49345.84897088
  -Hartree energ DENC   =    -15397.97135603
  -exchange      EXHF   =         0.00000000
  -V(xc)+E(xc)   XCENC  =      3189.99284825
  PAW double counting   =     50594.51003143   -49994.65612350
  entropy T*S    EENTRO =        -0.00000000
  eigenvalues    EBANDS =     -8125.24968726
  atomic energy  EATOM  =     64968.54023382
  Solvation  Ediel_sol  =         0.00000000
  ---------------------------------------------------
  free energy    TOTEN  =     -1071.45981017 eV

  energy without entropy =    -1071.45981017  energy(sigma->0) =    -1071.45981017


--------------------------------------------------------------------------------------------------------




--------------------------------------- Iteration      1(   5)  ---------------------------------------


     EDDAV:  cpu time   52.3369: real time   52.5991
       DOS:  cpu time    0.0009: real time    0.0009
    CHARGE:  cpu time    1.2524: real time    1.2575
    MIXING:  cpu time    0.0054: real time    0.0054
    --------------------------------------------
      LOOP:  cpu time   53.5956: real time   53.8629

 eigenvalue-minimisations  : 14416
 total energy-change (2. order) :-0.5040270E+01  (-0.5037868E+01)
 number of electron     864.0000007 magnetization 
 augmentation part      133.3501758 magnetization 

 Broyden mixing:
  rms(total) = 0.84195E+01    rms(broyden)= 0.84189E+01
  rms(prec ) = 0.10008E+02
  weight for this iteration     100.00

 Free energy of the ion-electron system (eV)
  ---------------------------------------------------
  alpha Z        PSCENC =      3039.22321400
  Ewald energy   TEWEN  =    -49345.84897088
  -Hartree energ DENC   =    -15397.97135603
  -exchange      EXHF   =         0.00000000
  -V(xc)+E(xc)   XCENC  =      3189.99284825
  PAW double counting   =     50594.51003143   -49994.65612350
  entropy T*S    EENTRO =        -0.00000000
  eigenvalues    EBANDS =     -8130.28995726
  atomic energy  EATOM  =     64968.54023382
  Solvation  Ediel_sol  =         0.00000000
  ---------------------------------------------------
  free energy    TOTEN  =     -1076.50008016 eV

  energy without entropy =    -1076.50008016  energy(sigma->0) =    -1076.50008016


--------------------------------------------------------------------------------------------------------




--------------------------------------- Iteration      1(   6)  ---------------------------------------


    POTLOK:  cpu time    0.1044: real time    0.1141
    SETDIJ:  cpu time    0.3001: real time    0.3010
     EDDAV:  cpu time   38.6711: real time   38.8614
       DOS:  cpu time    0.0010: real time    0.0010
    CHARGE:  cpu time    1.2512: real time    1.2568
    MIXING:  cpu time    0.0043: real time    0.0044
    --------------------------------------------
      LOOP:  cpu time   40.3321: real time   40.5386

 eigenvalue-minimisations  :  9848
 total energy-change (2. order) : 0.1396992E+03  (-0.6491890E+02)
 number of electron     864.0000007 magnetization 
 augmentation part      120.4983910 magnetization 

 Broyden mixing:
  rms(total) = 0.35893E+01    rms(broyden)= 0.35883E+01
  rms(prec ) = 0.37897E+01
  weight for this iteration     100.00

 eigenvalues of (default mixing * dielectric matrix)
  average eigenvalue GAMMA=   1.0383
  1.0383

 Free energy of the ion-electron system (eV)
  ---------------------------------------------------
  alpha Z        PSCENC =      3039.22321400
  Ewald energy   TEWEN  =    -49345.84897088
  -Hartree energ DENC   =    -16692.92448894
  -exchange      EXHF   =         0.00000000
  -V(xc)+E(xc)   XCENC  =      3278.45693917
  PAW double counting   =     65706.36124664   -65245.53085333
  entropy T*S    EENTRO =        -0.00000000
  eigenvalues    EBANDS =     -6645.07820465
  atomic energy  EATOM  =     64968.54023382
  Solvation  Ediel_sol  =         0.00000000
  ---------------------------------------------------
  free energy    TOTEN  =      -936.80088416 eV

  energy without entropy =     -936.80088416  energy(sigma->0) =     -936.80088416


--------------------------------------------------------------------------------------------------------




--------------------------------------- Iteration      1(   7)  ---------------------------------------


    POTLOK:  cpu time    0.1053: real time    0.1130
    SETDIJ:  cpu time    0.3004: real time    0.3012
     EDDAV:  cpu time   42.3693: real time   42.5749
       DOS:  cpu time    0.0010: real time    0.0010
    CHARGE:  cpu time    1.2473: real time    1.2521
    MIXING:  cpu time    0.0053: real time    0.0053
    --------------------------------------------
      LOOP:  cpu time   44.0285: real time   44.2475

 eigenvalue-minimisations  : 11112
 total energy-change (2. order) :-0.2340608E+01  (-0.6570382E+01)
 number of electron     864.0000007 magnetization 
 augmentation part      119.2145222 magnetization 

 Broyden mixing:
  rms(total) = 0.17470E+01    rms(broyden)= 0.17470E+01
  rms(prec ) = 0.19056E+01
  weight for this iteration     100.00

 eigenvalues of (default mixing * dielectric matrix)
  average eigenvalue GAMMA=   1.2321
  1.2321  1.2321

 Free energy of the ion-electron system (eV)
  ---------------------------------------------------
  alpha Z        PSCENC =      3039.22321400
  Ewald energy   TEWEN  =    -49345.84897088
  -Hartree energ DENC   =    -16758.65875179
  -exchange      EXHF   =         0.00000000
  -V(xc)+E(xc)   XCENC  =      3282.32841227
  PAW double counting   =     79088.20348361   -78684.06897906
  entropy T*S    EENTRO =        -0.00000000
  eigenvalues    EBANDS =     -6528.86013446
  atomic energy  EATOM  =     64968.54023382
  Solvation  Ediel_sol  =         0.00000000
  ---------------------------------------------------
  free energy    TOTEN  =      -939.14149248 eV

  energy without entropy =     -939.14149248  energy(sigma->0) =     -939.14149248


--------------------------------------------------------------------------------------------------------




--------------------------------------- Iteration      1(   8)  ---------------------------------------


    POTLOK:  cpu time    0.1043: real time    0.1120
    SETDIJ:  cpu time    0.2998: real time    0.3007
     EDDAV:  cpu time   40.4425: real time   40.6319
       DOS:  cpu time    0.0010: real time    0.0010
    CHARGE:  cpu time    1.2487: real time    1.2534
    MIXING:  cpu time    0.0044: real time    0.0044
    --------------------------------------------
      LOOP:  cpu time   42.1007: real time   42.3034

 eigenvalue-minimisations  : 10576
 total energy-change (2. order) : 0.9988381E+00  (-0.9808480E+00)
 number of electron     864.0000007 magnetization 
 augmentation part      119.5500427 magnetization 

 Broyden mixing:
  rms(total) = 0.72289E+00    rms(broyden)= 0.72281E+00
  rms(prec ) = 0.83384E+00
  weight for this iteration     100.00

 eigenvalues of (default mixing * dielectric matrix)
  average eigenvalue GAMMA=   1.3610
  2.1497  0.9666  0.9666

 Free energy of the ion-electron system (eV)
  ---------------------------------------------------
  alpha Z        PSCENC =      3039.22321400
  Ewald energy   TEWEN  =    -49345.84897088
  -Hartree energ DENC   =    -16741.76550109
  -exchange      EXHF   =         0.00000000
  -V(xc)+E(xc)   XCENC  =      3280.79814878
  PAW double counting   =     86841.28169072   -86474.64402575
  entropy T*S    EENTRO =        -0.00000000
  eigenvalues    EBANDS =     -6505.72744398
  atomic energy  EATOM  =     64968.54023382
  Solvation  Ediel_sol  =         0.00000000
  ---------------------------------------------------
  free energy    TOTEN  =      -938.14265436 eV

  energy without entropy =     -938.14265436  energy(sigma->0) =     -938.14265436


--------------------------------------------------------------------------------------------------------




--------------------------------------- Iteration      1(   9)  ---------------------------------------


    POTLOK:  cpu time    0.1044: real time    0.1128
    SETDIJ:  cpu time    0.2982: real time    0.3015
     EDDAV:  cpu time   40.0287: real time   40.2646
       DOS:  cpu time    0.0010: real time    0.0010
    CHARGE:  cpu time    1.2496: real time    1.2543
    MIXING:  cpu time    0.0038: real time    0.0038
    --------------------------------------------
      LOOP:  cpu time   41.6856: real time   41.9380

 eigenvalue-minimisations  : 10296
 total energy-change (2. order) : 0.2440295E+00  (-0.1964623E+00)
 number of electron     864.0000007 magnetization 
 augmentation part      118.9754711 magnetization 

 Broyden mixing:
  rms(total) = 0.20365E+00    rms(broyden)= 0.20364E+00
  rms(prec ) = 0.24500E+00
  weight for this iteration     100.00

 eigenvalues of (default mixing * dielectric matrix)
  average eigenvalue GAMMA=   1.3743
  2.3456  1.2481  0.9517  0.9517

 Free energy of the ion-electron system (eV)
  ---------------------------------------------------
  alpha Z        PSCENC =      3039.22321400
  Ewald energy   TEWEN  =    -49345.84897088
  -Hartree energ DENC   =    -16814.51575843
  -exchange      EXHF   =         0.00000000
  -V(xc)+E(xc)   XCENC  =      3285.79484371
  PAW double counting   =     92977.63396342   -92635.39230265
  entropy T*S    EENTRO =        -0.00000000
  eigenvalues    EBANDS =     -6413.33384789
  atomic energy  EATOM  =     64968.54023382
  Solvation  Ediel_sol  =         0.00000000
  ---------------------------------------------------
  free energy    TOTEN  =      -937.89862490 eV

  energy without entropy =     -937.89862490  energy(sigma->0) =     -937.89862490


--------------------------------------------------------------------------------------------------------




--------------------------------------- Iteration      1(  10)  ---------------------------------------


    POTLOK:  cpu time    0.1050: real time    0.1120
    SETDIJ:  cpu time    0.3000: real time    0.3019
     EDDAV:  cpu time   43.4888: real time   43.6885
       DOS:  cpu time    0.0010: real time    0.0010
    CHARGE:  cpu time    1.2452: real time    1.2499
    MIXING:  cpu time    0.0050: real time    0.0050
    --------------------------------------------
      LOOP:  cpu time   45.1451: real time   45.3584

 eigenvalue-minimisations  : 11536
 total energy-change (2. order) :-0.8617937E-01  (-0.1071894E+00)
 number of electron     864.0000007 magnetization 
 augmentation part      118.8214654 magnetization 

 Broyden mixing:
  rms(total) = 0.14596E+00    rms(broyden)= 0.14593E+00
  rms(prec ) = 0.16730E+00
  weight for this iteration     100.00

 eigenvalues of (default mixing * dielectric matrix)
  average eigenvalue GAMMA=   1.3008
  2.4411  1.1796  1.1796  0.8517  0.8517

 Free energy of the ion-electron system (eV)
  ---------------------------------------------------
  alpha Z        PSCENC =      3039.22321400
  Ewald energy   TEWEN  =    -49345.84897088
  -Hartree energ DENC   =    -16828.20968587
  -exchange      EXHF   =         0.00000000
  -V(xc)+E(xc)   XCENC  =      3286.67126547
  PAW double counting   =     93947.58150106   -93607.93212822
  entropy T*S    EENTRO =        -0.00000000
  eigenvalues    EBANDS =     -6398.01023365
  atomic energy  EATOM  =     64968.54023382
  Solvation  Ediel_sol  =         0.00000000
  ---------------------------------------------------
  free energy    TOTEN  =      -937.98480427 eV

  energy without entropy =     -937.98480427  energy(sigma->0) =     -937.98480427


--------------------------------------------------------------------------------------------------------




--------------------------------------- Iteration      1(  11)  ---------------------------------------


    POTLOK:  cpu time    0.1034: real time    0.1119
    SETDIJ:  cpu time    0.2983: real time    0.3013
     EDDAV:  cpu time   43.6480: real time   43.8670
       DOS:  cpu time    0.0010: real time    0.0010
    CHARGE:  cpu time    1.2525: real time    1.2583
    MIXING:  cpu time    0.0061: real time    0.0061
    --------------------------------------------
      LOOP:  cpu time   45.3094: real time   45.5456

 eigenvalue-minimisations  : 11552
 total energy-change (2. order) : 0.7024409E-04  (-0.1537787E-01)
 number of electron     864.0000007 magnetization 
 augmentation part      118.8088438 magnetization 

 Broyden mixing:
  rms(total) = 0.74098E-01    rms(broyden)= 0.74092E-01
  rms(prec ) = 0.84282E-01
  weight for this iteration     100.00

 eigenvalues of (default mixing * dielectric matrix)
  average eigenvalue GAMMA=   1.3793
  2.4647  1.9363  1.0032  1.0032  0.9343  0.9343

 Free energy of the ion-electron system (eV)
  ---------------------------------------------------
  alpha Z        PSCENC =      3039.22321400
  Ewald energy   TEWEN  =    -49345.84897088
  -Hartree energ DENC   =    -16835.36243113
  -exchange      EXHF   =         0.00000000
  -V(xc)+E(xc)   XCENC  =      3287.10614215
  PAW double counting   =     93902.94147015   -93562.76596717
  entropy T*S    EENTRO =        -0.00000000
  eigenvalues    EBANDS =     -6391.81842497
  atomic energy  EATOM  =     64968.54023382
  Solvation  Ediel_sol  =         0.00000000
  ---------------------------------------------------
  free energy    TOTEN  =      -937.98473402 eV

  energy without entropy =     -937.98473402  energy(sigma->0) =     -937.98473402


--------------------------------------------------------------------------------------------------------




--------------------------------------- Iteration      1(  12)  ---------------------------------------


    POTLOK:  cpu time    0.1053: real time    0.1131
    SETDIJ:  cpu time    0.2999: real time    0.3009
     EDDAV:  cpu time   39.5906: real time   39.7720
       DOS:  cpu time    0.0010: real time    0.0010
    CHARGE:  cpu time    1.2636: real time    1.2688
    MIXING:  cpu time    0.0060: real time    0.0060
    --------------------------------------------
      LOOP:  cpu time   41.2664: real time   41.4617

 eigenvalue-minimisations  : 10248
 total energy-change (2. order) :-0.4867022E-02  (-0.3653678E-02)
 number of electron     864.0000007 magnetization 
 augmentation part      118.8124928 magnetization 

 Broyden mixing:
  rms(total) = 0.23253E-01    rms(broyden)= 0.23246E-01
  rms(prec ) = 0.29468E-01
  weight for this iteration     100.00

 eigenvalues of (default mixing * dielectric matrix)
  average eigenvalue GAMMA=   1.4026
  2.5787  2.4837  0.9572  1.0112  1.0112  0.8879  0.8879

 Free energy of the ion-electron system (eV)
  ---------------------------------------------------
  alpha Z        PSCENC =      3039.22321400
  Ewald energy   TEWEN  =    -49345.84897088
  -Hartree energ DENC   =    -16837.75976990
  -exchange      EXHF   =         0.00000000
  -V(xc)+E(xc)   XCENC  =      3287.18093676
  PAW double counting   =     93666.57393721   -93324.74100876
  entropy T*S    EENTRO =        -0.00000000
  eigenvalues    EBANDS =     -6391.15817330
  atomic energy  EATOM  =     64968.54023382
  Solvation  Ediel_sol  =         0.00000000
  ---------------------------------------------------
  free energy    TOTEN  =      -937.98960105 eV

  energy without entropy =     -937.98960105  energy(sigma->0) =     -937.98960105


--------------------------------------------------------------------------------------------------------




--------------------------------------- Iteration      1(  13)  ---------------------------------------


    POTLOK:  cpu time    0.1051: real time    0.1119
    SETDIJ:  cpu time    0.3001: real time    0.3033
     EDDAV:  cpu time   45.1561: real time   45.3639
       DOS:  cpu time    0.0010: real time    0.0010
    CHARGE:  cpu time    1.2521: real time    1.2569
    MIXING:  cpu time    0.0068: real time    0.0068
    --------------------------------------------
      LOOP:  cpu time   46.8212: real time   47.0438

 eigenvalue-minimisations  : 12096
 total energy-change (2. order) :-0.1492505E-02  (-0.8957282E-03)
 number of electron     864.0000007 magnetization 
 augmentation part      118.8253209 magnetization 

 Broyden mixing:
  rms(total) = 0.14111E-01    rms(broyden)= 0.14109E-01
  rms(prec ) = 0.17683E-01
  weight for this iteration     100.00

 eigenvalues of (default mixing * dielectric matrix)
  average eigenvalue GAMMA=   1.3603
  2.6811  2.4927  0.9173  0.9173  1.0306  1.0306  0.9063  0.9063

 Free energy of the ion-electron system (eV)
  ---------------------------------------------------
  alpha Z        PSCENC =      3039.22321400
  Ewald energy   TEWEN  =    -49345.84897088
  -Hartree energ DENC   =    -16839.23173632
  -exchange      EXHF   =         0.00000000
  -V(xc)+E(xc)   XCENC  =      3287.22506598
  PAW double counting   =     93519.71947775   -93176.93542545
  entropy T*S    EENTRO =        -0.00000000
  eigenvalues    EBANDS =     -6390.68295245
  atomic energy  EATOM  =     64968.54023382
  Solvation  Ediel_sol  =         0.00000000
  ---------------------------------------------------
  free energy    TOTEN  =      -937.99109355 eV

  energy without entropy =     -937.99109355  energy(sigma->0) =     -937.99109355


--------------------------------------------------------------------------------------------------------




--------------------------------------- Iteration      1(  14)  ---------------------------------------


    POTLOK:  cpu time    0.1047: real time    0.1103
    SETDIJ:  cpu time    0.2980: real time    0.3014
     EDDAV:  cpu time   40.5412: real time   40.7317
       DOS:  cpu time    0.0010: real time    0.0010
    CHARGE:  cpu time    1.2499: real time    1.2547
    MIXING:  cpu time    0.0066: real time    0.0066
    --------------------------------------------
      LOOP:  cpu time   42.2013: real time   42.4058

 eigenvalue-minimisations  : 10512
 total energy-change (2. order) :-0.1084310E-03  (-0.3752729E-03)
 number of electron     864.0000007 magnetization 
 augmentation part      118.8200092 magnetization 

 Broyden mixing:
  rms(total) = 0.97042E-02    rms(broyden)= 0.97032E-02
  rms(prec ) = 0.11511E-01
  weight for this iteration     100.00

 eigenvalues of (default mixing * dielectric matrix)
  average eigenvalue GAMMA=   1.3055
  2.7687  2.4833  1.0320  1.0373  1.0373  0.8941  0.8941  0.8014  0.8014

 Free energy of the ion-electron system (eV)
  ---------------------------------------------------
  alpha Z        PSCENC =      3039.22321400
  Ewald energy   TEWEN  =    -49345.84897088
  -Hartree energ DENC   =    -16840.19903219
  -exchange      EXHF   =         0.00000000
  -V(xc)+E(xc)   XCENC  =      3287.27562469
  PAW double counting   =     93514.29621160   -93171.41388188
  entropy T*S    EENTRO =        -0.00000000
  eigenvalues    EBANDS =     -6389.86460116
  atomic energy  EATOM  =     64968.54023382
  Solvation  Ediel_sol  =         0.00000000
  ---------------------------------------------------
  free energy    TOTEN  =      -937.99120198 eV

  energy without entropy =     -937.99120198  energy(sigma->0) =     -937.99120198


--------------------------------------------------------------------------------------------------------




--------------------------------------- Iteration      1(  15)  ---------------------------------------


    POTLOK:  cpu time    0.1281: real time    0.1368
    SETDIJ:  cpu time    0.3025: real time    0.3033
     EDDAV:  cpu time   40.7118: real time   40.9420
       DOS:  cpu time    0.0009: real time    0.0009
    CHARGE:  cpu time    1.2546: real time    1.2594
    MIXING:  cpu time    0.0055: real time    0.0055
    --------------------------------------------
      LOOP:  cpu time   42.4034: real time   42.6480

 eigenvalue-minimisations  : 10592
 total energy-change (2. order) :-0.4759975E-05  (-0.6729844E-04)
 number of electron     864.0000007 magnetization 
 augmentation part      118.8245654 magnetization 

 Broyden mixing:
  rms(total) = 0.62372E-02    rms(broyden)= 0.62368E-02
  rms(prec ) = 0.75041E-02
  weight for this iteration     100.00

 eigenvalues of (default mixing * dielectric matrix)
  average eigenvalue GAMMA=   1.4048
  2.8862  2.3497  2.3497  0.9208  1.0046  1.0046  0.8713  0.8713  0.8948  0.8948

 Free energy of the ion-electron system (eV)
  ---------------------------------------------------
  alpha Z        PSCENC =      3039.22321400
  Ewald energy   TEWEN  =    -49345.84897088
  -Hartree energ DENC   =    -16840.23220870
  -exchange      EXHF   =         0.00000000
  -V(xc)+E(xc)   XCENC  =      3287.27084000
  PAW double counting   =     93515.16867952   -93172.25988850
  entropy T*S    EENTRO =        -0.00000000
  eigenvalues    EBANDS =     -6389.85310600
  atomic energy  EATOM  =     64968.54023382
  Solvation  Ediel_sol  =         0.00000000
  ---------------------------------------------------
  free energy    TOTEN  =      -937.99120674 eV

  energy without entropy =     -937.99120674  energy(sigma->0) =     -937.99120674


--------------------------------------------------------------------------------------------------------




--------------------------------------- Iteration      1(  16)  ---------------------------------------


    POTLOK:  cpu time    0.1040: real time    0.1121
    SETDIJ:  cpu time    0.2996: real time    0.3012
     EDDAV:  cpu time   38.2353: real time   38.4265
       DOS:  cpu time    0.0009: real time    0.0009
    CHARGE:  cpu time    1.2549: real time    1.2596
    MIXING:  cpu time    0.0065: real time    0.0065
    --------------------------------------------
      LOOP:  cpu time   39.9012: real time   40.1069

 eigenvalue-minimisations  :  9816
 total energy-change (2. order) : 0.2112941E-04  (-0.3586868E-04)
 number of electron     864.0000007 magnetization 
 augmentation part      118.8194937 magnetization 

 Broyden mixing:
  rms(total) = 0.18397E-02    rms(broyden)= 0.18382E-02
  rms(prec ) = 0.25382E-02
  weight for this iteration     100.00

 eigenvalues of (default mixing * dielectric matrix)
  average eigenvalue GAMMA=   1.3948
  3.0420  2.4297  2.4297  1.0500  0.9459  0.9566  0.9566  0.8966  0.8966  0.8694
  0.8694

 Free energy of the ion-electron system (eV)
  ---------------------------------------------------
  alpha Z        PSCENC =      3039.22321400
  Ewald energy   TEWEN  =    -49345.84897088
  -Hartree energ DENC   =    -16841.03137101
  -exchange      EXHF   =         0.00000000
  -V(xc)+E(xc)   XCENC  =      3287.31490580
  PAW double counting   =     93546.94151279   -93204.13930428
  entropy T*S    EENTRO =        -0.00000000
  eigenvalues    EBANDS =     -6388.99140586
  atomic energy  EATOM  =     64968.54023382
  Solvation  Ediel_sol  =         0.00000000
  ---------------------------------------------------
  free energy    TOTEN  =      -937.99118561 eV

  energy without entropy =     -937.99118561  energy(sigma->0) =     -937.99118561


--------------------------------------------------------------------------------------------------------




--------------------------------------- Iteration      1(  17)  ---------------------------------------


    POTLOK:  cpu time    0.1041: real time    0.1105
    SETDIJ:  cpu time    0.2998: real time    0.3008
     EDDAV:  cpu time   43.1318: real time   43.3416
       DOS:  cpu time    0.0010: real time    0.0010
    CHARGE:  cpu time    1.2544: real time    1.2590
    MIXING:  cpu time    0.0071: real time    0.0072
    --------------------------------------------
      LOOP:  cpu time   44.7982: real time   45.0200

 eigenvalue-minimisations  : 11360
 total energy-change (2. order) :-0.4587433E-05  (-0.1575734E-04)
 number of electron     864.0000007 magnetization 
 augmentation part      118.8219309 magnetization 

 Broyden mixing:
  rms(total) = 0.15715E-02    rms(broyden)= 0.15707E-02
  rms(prec ) = 0.18869E-02
  weight for this iteration     100.00

 eigenvalues of (default mixing * dielectric matrix)
  average eigenvalue GAMMA=   1.3483
  3.1745  2.3944  2.3944  1.0841  0.9889  1.0151  1.0151  0.9202  0.9202  0.8382
  0.8382  0.5969

 Free energy of the ion-electron system (eV)
  ---------------------------------------------------
  alpha Z        PSCENC =      3039.22321400
  Ewald energy   TEWEN  =    -49345.84897088
  -Hartree energ DENC   =    -16840.91607697
  -exchange      EXHF   =         0.00000000
  -V(xc)+E(xc)   XCENC  =      3287.30481934
  PAW double counting   =     93544.81585171   -93201.99850788
  entropy T*S    EENTRO =        -0.00000000
  eigenvalues    EBANDS =     -6389.11175335
  atomic energy  EATOM  =     64968.54023382
  Solvation  Ediel_sol  =         0.00000000
  ---------------------------------------------------
  free energy    TOTEN  =      -937.99119020 eV

  energy without entropy =     -937.99119020  energy(sigma->0) =     -937.99119020


--------------------------------------------------------------------------------------------------------




--------------------------------------- Iteration      1(  18)  ---------------------------------------


    POTLOK:  cpu time    0.1067: real time    0.1119
    SETDIJ:  cpu time    0.2997: real time    0.3008
     EDDAV:  cpu time   40.1647: real time   40.3566
       DOS:  cpu time    0.0009: real time    0.0009
    CHARGE:  cpu time    1.2508: real time    1.2551
    MIXING:  cpu time    0.0069: real time    0.0069
    --------------------------------------------
      LOOP:  cpu time   41.8297: real time   42.0322

 eigenvalue-minimisations  : 10400
 total energy-change (2. order) : 0.6511837E-06  (-0.4548010E-05)
 number of electron     864.0000007 magnetization 
 augmentation part      118.8225672 magnetization 

 Broyden mixing:
  rms(total) = 0.86055E-03    rms(broyden)= 0.85903E-03
  rms(prec ) = 0.10349E-02
  weight for this iteration     100.00

 eigenvalues of (default mixing * dielectric matrix)
  average eigenvalue GAMMA=   1.3627
  3.3943  2.4700  2.3812  1.3308  1.0230  1.0230  0.9240  0.8364  0.8364  0.9237
  0.9237  0.8244  0.8244

 Free energy of the ion-electron system (eV)
[...]
   -.586E+01 0.934E+00 -.546E+02   0.420E+01 -.497E+01 0.328E+02   0.229E+01 0.297E+01 0.247E+02   0.128E-02 0.159E-03 -.868E-03
   0.531E+02 -.543E+02 -.563E+02   -.530E+02 0.607E+02 0.410E+02   -.165E+01 -.678E+01 0.203E+02   0.171E-02 0.136E-02 -.752E-03
   -.278E+01 0.315E+01 0.667E+02   -.254E+02 0.767E+01 -.654E+02   0.315E+02 -.113E+02 -.286E+01   0.854E-03 -.249E-02 0.648E-03
   0.945E+01 -.605E+02 -.975E+02   -.788E+00 0.762E+02 0.937E+02   -.905E+01 -.173E+02 0.586E+01   -.336E-03 -.127E-02 -.291E-03
   -.465E+02 -.518E+02 0.650E+02   0.692E+02 0.632E+02 -.547E+02   -.185E+02 -.787E+01 -.145E+02   0.492E-03 -.456E-03 0.101E-02
   -.157E+02 -.220E+01 0.122E+02   -.548E+00 0.215E+01 -.295E+01   0.172E+02 0.161E+01 -.920E+01   0.320E-04 0.120E-03 -.179E-04
   -.118E+03 0.216E+02 -.695E+01   0.145E+03 -.334E+02 0.155E+02   -.298E+02 0.129E+02 -.972E+01   0.647E-03 0.848E-03 -.423E-03
   -.210E+02 0.680E+02 -.192E+02   0.529E+01 -.837E+02 -.132E+01   0.134E+02 0.139E+02 0.188E+02   0.822E-03 -.361E-04 0.260E-03
   0.346E+02 0.253E+02 -.441E+01   -.533E+02 -.477E+02 0.120E+02   0.179E+02 0.244E+02 -.813E+01   -.645E-03 -.113E-02 0.779E-03
   0.422E+02 -.314E+02 0.605E+02   -.533E+02 0.483E+02 -.670E+02   0.140E+02 -.180E+02 0.704E+01   -.167E-03 -.163E-02 -.761E-03
   -.908E+02 -.140E+02 0.173E+02   0.101E+03 -.909E+01 -.239E+01   -.767E+01 0.226E+02 -.147E+02   -.741E-03 0.398E-03 -.387E-03
   0.908E+02 -.428E+02 -.628E+02   -.999E+02 0.361E+02 0.939E+02   0.582E+01 0.845E+01 -.310E+02   0.986E-03 0.222E-02 -.112E-02
   -.492E+02 -.297E+02 -.905E+02   0.424E+02 0.491E+02 0.109E+03   0.700E+01 -.205E+02 -.185E+02   0.438E-03 -.137E-03 -.643E-03
   0.120E+03 -.136E+02 -.123E+03   -.110E+03 0.367E+01 0.150E+03   -.112E+02 0.922E+01 -.243E+02   -.679E-05 0.224E-02 -.173E-02
   0.310E+02 -.353E+02 -.134E+02   -.345E+02 0.451E+02 0.258E+02   0.375E+01 -.126E+02 -.148E+02   -.484E-03 0.173E-02 0.565E-03
   -.402E+02 -.450E+02 -.196E+02   0.611E+02 0.533E+02 0.454E+02   -.178E+02 -.226E+01 -.209E+02   0.135E-03 -.320E-03 -.394E-03
   0.960E+01 0.580E+02 -.749E+01   -.624E+01 -.434E+02 -.111E+01   -.626E+01 -.206E+02 0.105E+02   0.257E-03 0.234E-02 0.165E-03
   0.616E+02 -.870E+02 0.929E+01   -.774E+02 0.105E+03 -.591E+01   0.183E+02 -.178E+02 -.408E+01   0.119E-03 0.126E-02 -.420E-03
   -.664E+02 -.102E+03 -.398E+01   0.593E+02 0.118E+03 0.130E+02   0.866E+01 -.179E+02 -.104E+02   -.891E-03 0.852E-03 -.317E-03
   0.946E+02 0.500E+02 0.819E+02   -.121E+03 -.585E+02 -.867E+02   0.251E+02 0.528E+01 0.545E+01   0.135E-02 -.990E-03 -.462E-03
   -.113E+02 0.385E+02 0.600E+02   0.146E+02 -.224E+02 -.638E+02   -.607E+01 -.168E+02 0.231E+01   0.956E-03 -.161E-02 -.283E-03
   -.626E+01 -.333E+02 -.105E+02   0.191E+02 0.136E+02 0.304E+02   -.126E+02 0.188E+02 -.164E+02   -.114E-02 0.204E-02 -.385E-03
   -.201E+02 0.223E+02 -.533E+02   0.302E+02 -.438E+02 0.519E+02   -.893E+01 0.224E+02 0.152E+01   0.431E-03 0.162E-02 -.586E-03
   0.116E+02 0.868E+02 -.490E+02   -.237E+02 -.104E+03 0.541E+02   0.948E+01 0.120E+02 -.610E+01   0.649E-03 -.744E-05 -.761E-03
   -.289E+02 -.826E+02 -.828E+01   0.111E+02 0.784E+02 0.165E+02   0.190E+02 0.611E+01 -.945E+01   -.752E-03 -.248E-03 -.604E-03
   -.554E+02 0.686E+02 0.197E+02   0.627E+02 -.933E+02 -.286E+02   -.842E+01 0.245E+02 0.788E+01   -.522E-03 0.118E-02 0.556E-03
   0.769E+02 0.308E+02 -.211E+02   -.745E+02 -.232E+02 0.160E+02   -.117E+01 -.926E+01 0.313E+01   -.615E-03 -.132E-02 0.296E-04
   -.142E+02 -.356E+02 -.996E+01   0.208E+02 0.334E+02 -.102E+02   -.766E+01 0.322E+01 0.240E+02   0.633E-03 0.185E-02 0.297E-03
   0.594E+02 -.731E+02 0.359E+01   -.880E+02 0.721E+02 -.106E+02   0.271E+02 0.234E+01 0.726E+01   0.765E-03 0.589E-03 0.425E-03
   -.620E+02 0.815E+02 0.726E+01   0.756E+02 -.956E+02 -.247E+02   -.151E+02 0.134E+02 0.192E+02   0.323E-03 0.262E-02 0.444E-03
   -.443E+02 -.700E+02 0.354E+02   0.364E+02 0.773E+02 -.232E+02   0.977E+01 -.606E+01 -.114E+02   -.202E-02 0.603E-03 0.974E-03
   0.579E+02 0.728E+02 -.809E+02   -.745E+02 -.642E+02 0.880E+02   0.163E+02 -.820E+01 -.545E+01   0.863E-03 -.791E-03 0.133E-03
   0.608E+02 0.244E+02 -.201E+01   -.469E+02 -.337E+02 0.885E+01   -.201E+02 0.101E+02 -.555E+01   0.372E-03 -.163E-02 -.802E-04
   -.176E+01 -.214E+02 0.608E+01   -.102E+02 0.604E+01 -.376E+00   0.137E+02 0.169E+02 -.588E+01   0.118E-02 0.194E-02 0.168E-03
   0.665E+02 0.550E+02 -.304E+02   -.786E+02 -.627E+02 0.267E+02   0.127E+02 0.489E+01 0.585E+01   0.369E-03 -.158E-02 -.414E-03
   0.361E+02 -.493E+02 -.328E+02   -.339E+02 0.478E+02 0.228E+02   -.430E+01 0.602E+01 0.164E+02   -.134E-03 0.697E-03 -.504E-03
   -.112E+02 0.500E+02 0.284E+02   0.228E+02 -.489E+02 -.184E+02   -.154E+02 -.138E+01 -.139E+02   -.241E-03 -.105E-02 0.112E-03
   0.533E+02 0.639E+01 0.125E+02   -.318E+02 -.169E+02 -.211E+02   -.225E+02 0.111E+02 0.976E+01   -.557E-03 0.703E-03 -.247E-03
   -.212E+02 0.669E+01 -.343E+02   0.237E+02 -.883E-03 0.557E+02   -.250E+01 -.749E+01 -.236E+02   -.485E-03 -.135E-02 -.124E-03
   -.491E+02 -.291E+02 0.222E+02   0.416E+02 0.453E+02 -.275E+02   0.916E+01 -.184E+02 0.548E+01   -.118E-02 0.664E-04 -.644E-04
   -.487E+02 -.393E+02 0.449E+02   0.619E+02 0.529E+02 -.475E+02   -.128E+02 -.123E+02 0.123E+01   -.688E-03 -.241E-02 0.167E-03
   0.112E+03 -.110E+03 -.440E+01   -.994E+02 0.117E+03 0.651E+01   -.149E+02 -.226E+01 -.238E+01   0.372E-03 -.802E-03 -.319E-03
   -.693E+02 0.483E+02 -.831E+02   0.527E+02 -.407E+02 0.106E+03   0.170E+02 -.812E+01 -.221E+02   0.100E-02 -.135E-02 -.153E-02
   -.722E+01 -.330E+02 -.279E+02   0.101E+02 0.314E+02 0.308E+02   -.211E+01 0.283E+01 -.385E+01   0.923E-03 0.111E-02 -.384E-03
   0.397E+02 -.448E+02 0.453E+02   -.445E+02 0.602E+02 -.396E+02   0.617E+01 -.171E+02 -.607E+01   0.412E-03 -.204E-03 -.174E-03
   0.379E+02 0.726E+02 -.541E+02   -.336E+02 -.904E+02 0.514E+02   -.571E+01 0.202E+02 0.435E+01   0.354E-03 -.856E-03 -.114E-02
   0.494E+02 -.231E+02 0.765E-01   -.674E+02 0.249E+02 -.145E+02   0.173E+02 -.676E+00 0.150E+02   0.113E-02 -.198E-02 -.412E-03
   -.158E+02 -.267E+02 0.458E+02   0.148E+02 0.527E+02 -.560E+02   0.446E+00 -.276E+02 0.103E+02   0.701E-04 -.554E-03 -.305E-03
 -----------------------------------------------------------------------------------------------
   -.548E+02 -.554E+02 0.483E+02   0.359E-12 0.234E-12 0.220E-12   0.548E+02 0.555E+02 -.483E+02   0.147E-02 -.118E-02 -.208E-02
 
 
 POSITION                                       TOTAL-FORCE (eV/Angst)
 -----------------------------------------------------------------------------------
      6.91732      6.38497      7.66806        -1.910120     -0.295747      1.952640
      2.16403      9.92993      5.97662        -1.139776     -0.827311     -0.082783
      6.75323      3.94960     10.74228        -3.089045     -0.794115      0.350098
      5.08947      5.89609      1.64006        -0.586624     -0.874805     -0.633214
      6.85261      3.31931      7.37351        -1.133303     -0.256132      1.032918
      4.50077      8.38043      8.04671        -0.175769     -0.035661      0.443645
      1.39494      6.54867      1.06219         0.904392      1.835985      2.036936
      1.00208      3.97965      9.44015        -1.290659     -3.724813      1.894804
      8.61156      6.38144     10.97359         0.472978      0.833671     -0.953266
      8.21542      9.70820      8.59828        -1.006703     -0.009224     -0.826539
      2.23985      0.55161      3.00059         0.509932      1.277528      1.957275
     11.58337      3.81474      6.56880         0.577879     -0.073058     -1.335405
      8.90855      9.34922      0.19036         3.009357     -0.642309     -0.076907
      9.31729     10.01695      4.85825         0.705463     -0.163432      1.233124
      7.58301      7.89892      3.14798         0.414504     -1.229112     -4.660774
      0.48890      6.90555      5.00230         2.846175      0.644590     -1.306010
      9.06206      1.98137      0.00592         0.249174     -0.951309      0.727040
      2.88476      2.87476      0.61087         2.117149      0.071946     -0.259708
      9.53098      1.42287      7.83459         1.391849     -0.670679     -0.437229
      5.28491     11.14685      3.97978         0.423318      0.019303     -0.036104
      3.80857      7.29540      4.86196         1.895266      0.977663     -4.552746
     10.96005      2.73741      3.52363         0.298989      0.445274     -1.040512
      4.68605     10.34755      0.93429         0.445871      0.715479     -2.221680
      3.61022      4.58155      6.26991        -0.525146      0.242561     -1.167274
     11.14545      4.50884      0.85201        -0.907440     -2.267501      1.608116
      7.76583      2.39839      3.94720         2.777679     -0.408202      0.970970
     11.06014     11.02789      2.35437         0.722711      0.724297     -0.934665
      1.45950      9.49319      0.06145        -5.627953     -4.206562     -0.492937
     10.45437      7.45508      2.95147         0.905904      0.506679     -4.027769
      5.90442      1.76548      1.36682         1.285837      2.463051     -1.178794
      6.31994      9.38103      6.07669         3.645219     -0.481546     -5.234633
      1.95949      4.60893      3.33499         6.651209      1.377368     -2.367476
      3.05937     10.87379      9.63737         1.873733      1.686752     -0.255509
      3.97604      1.47809      6.25939        -1.052158      1.017270     -4.034013
      2.49931      9.14985      2.71291        -4.629032     -8.007542     -5.460495
     10.90516      9.15857      7.54770         1.872407      2.916855     -2.954361
      8.42893      5.42366      1.98109        -0.081611     -8.223470      1.965300
      9.00295      3.86756      9.25740         2.819600      1.063557      0.886071
      6.36968      0.04229     10.27812        -2.280533      0.577975     -2.285690
      6.88545      0.42525      6.85350        -3.868518      2.339862      4.536651
      2.21469      6.49829      8.02578        -1.218261     -2.928952     -0.718336
      6.23434      5.51805      4.41240        -2.095822     -1.671891      0.913267
      8.55085      4.99565      5.18069         3.784557     -0.845152     -0.990192
     11.36421      0.57766      5.40465         2.086047      0.944307     -0.589200
      4.13069      6.62445     10.68074         0.454793     -0.403829     -1.021382
     11.05622     10.93585      9.67578        -0.242413     -3.102998      3.563542
      0.40732      1.07898      0.12030        -1.127865      4.696411     -0.978562
      7.84753     11.31030      2.25676         3.624227      5.499473      2.405011
      0.01752      6.59394     10.08315        -3.334221      7.635862     -1.358092
     10.08109      6.38431      7.54012         0.606662     -0.706666     -2.216312
      4.64244      2.72816      3.66919         1.496874      1.264631      2.029433
      6.50303      8.38043     10.81562        -2.818536     -1.420608     -0.824287
      1.59294      0.91780      7.62404         1.777491      2.336581      2.031795
      4.14824      3.38968      8.80014         5.304846     -0.425659     -0.972898
      0.95743      1.53255      4.64860        -2.354040      0.490879     -0.428901
      0.54521      2.14632      7.77960         1.259113      2.674837      1.663374
      1.98519      4.78998      7.88146         0.806838      3.996504     -2.641991
      3.24474      6.15056      0.29862         2.786644     -0.626867     -2.184444
      7.95876      5.22295      9.18896         1.057942     -3.005118      0.247408
      7.97247      5.72539      3.65997         0.817658     -1.454021      1.975821
      3.07871      5.77022      2.70515        -2.685204     -1.889114      2.776647
      9.23142      6.69183      1.80201         2.410918      4.941368     -0.235176
      1.48263      7.98739     11.03600        -0.623120      0.828093      0.252864
     11.21296      5.98293      6.44110        -2.405575     -1.326322      4.178328
      1.11089      9.43072      1.67008         2.383462      1.848592      1.044925
      5.83384      6.73937      3.50713        -1.417056      3.753855     -1.387673
     10.76724      1.31282      1.21071         1.069656      0.374640     -0.340811
      5.70358      4.45283      3.21536        -0.919893     -2.611173      2.417072
     10.50531      5.70540      9.01003        -0.029234      1.801450     -0.330876
      5.67665      2.52293      9.20200        -4.223040      2.309399     -1.085604
      8.11571      2.46610      9.20867         1.394027      1.649491      1.412289
      1.62393      0.71797      1.06956         0.876981     -2.113736      0.051648
      7.04975      1.17226     11.19384        -2.365264     -1.408361     -0.160042
      2.78039      0.27458      6.55215         1.150488      3.235344      0.047930
      7.46639     10.67223      6.52268        -1.320703     -3.943627     -1.949442
      9.09576     11.08372      1.32347         0.035176     -0.785938      0.304908
      7.47314      7.93908      9.62395        -0.332881     -1.824439     -0.655784
      5.23374      0.62314      6.67428         3.333771     -1.849818     -0.312925
      1.74273      4.46716      4.85056        -0.954333      0.620861      2.591915
      7.73712      1.52315      6.18588        -1.020991      1.895946      1.129425
      9.61852      8.05744      7.54815         1.347248     -1.857553      1.157637
      7.32672      5.38173      0.89043        -1.419084     -0.543820     -0.382023
      6.55105     10.57311      2.11294        -4.547173     -3.556012     -0.262608
      0.85934      7.13430      8.64534        -0.939962     -0.058086      0.808641
      9.68340      3.88752      4.92343        -0.064310      0.942908     -0.422854
      4.97402      3.01600      5.37426        -0.796807     -0.489594     -0.146415
      9.77460      3.68923      7.84317         0.022006     -0.263713     -0.254300
      3.13920     10.09349      8.16655         0.642049     -1.060736      2.928586
      2.69350      7.10272      6.48590        -1.454880     -0.448869      4.900086
      9.90031      1.27763      5.61919         3.258305     -0.471563     -1.577614
      4.96078      4.67978      7.83668        -0.389745     -1.616259      2.057244
      2.66809     10.28506     11.23229         4.262559      3.529896     -4.336604
      0.06073     10.34457     11.24160         0.995046      1.561225      0.043112
      0.32643      9.69283      8.83108        -2.268490      1.190353     -1.164376
      1.00264      3.94200      2.35561        -2.331780     -1.753957     -1.782325
      7.15689      4.18653      5.34358        -0.725902      1.963657     -0.556453
      5.24407      3.22352      0.72034         2.828472     -1.007802      0.557525
      0.47665      5.43394     10.96280         2.589033     -0.460959      0.226064
     10.11335      7.19100      4.46370        -3.311729      1.778629      0.051589
      2.12154      0.57686      9.19646         0.222389     -1.125392     -0.170609
      7.25549      7.99489      0.51671        -1.119929     -0.699801      2.061231
      5.61493      6.38394      5.89010         0.213795     -2.687916     -2.331484
      3.31422      9.73215      3.80431         3.148109      5.966397      4.870942
     10.49319      9.10855      2.39181        -2.887169     -5.979623      1.936757
      4.71094      8.27643     10.76413         2.523921      0.401738     -0.696307
     10.44474      7.61988     10.87563         1.598956     -1.991552     -1.321167
      4.54420      0.97844      1.28788        -1.631062     -3.291929      0.678139
      1.00468      2.66993     11.47194        -2.782889     -0.754432     -1.477672
      6.73950      8.40640      7.15331         0.224725     -0.882675      3.525002
     11.37244      6.14886      2.57234         1.121968      0.921879      0.119844
      0.48517      0.24041      6.79857        -2.631354     -5.427127     -1.010068
      9.53514     10.42011     10.07219         1.170215      1.910578     -1.218716
     11.56789     10.85145      4.54032        -1.141069     -0.155983     -1.101994
      6.81609      0.27110      8.69199         1.252611     -1.668274     -1.990985
      0.12077      8.81675      6.08425        -1.054363      0.967354      3.839023
      4.77269      9.29380      5.83826        -1.513311      1.368762      0.294890
      3.59575      8.74647      1.53500        -1.476021     -0.644045      1.757635
      8.63008      5.82843      6.55660         1.817524      1.186287      0.900846
      3.41445      2.52984      7.36746        -0.327866      0.335231      1.635424
      6.04669      1.87431      3.09022        -6.220330      0.783650      1.294534
      1.65132      7.92767      3.51555         1.789585      1.594601     -0.174202
      3.79826      1.36585      4.37347         0.591789     -2.727837      2.096983
      7.08844      8.99038      4.53289        -2.048981      4.519895      6.373550
      9.96972      3.89182     10.81768        -3.775286     -0.231521     -3.881197
      5.57402      5.90816     10.35166        -0.992437      0.580778      1.075643
      8.13589     11.61962      3.92043        -0.015365     -0.805343     -2.138241
      9.88963     10.63190      7.40432         1.689915     -2.159554      0.218681
      7.57081      1.28043      1.79141         0.361201      1.235241     -1.291374
      6.91793      9.96220     10.68218        -2.175562      5.136309     -0.268876
      3.10926      3.70873      9.91929         0.350480     -0.495857      1.039210
      3.28595      6.66192      9.23926         0.767901      1.166781     -0.962634
      4.57066     11.61094     10.23125         1.319571     -1.733023     -0.321873
      9.23481      3.82843      1.85335        -1.417457      2.429382      1.698597
      3.31676      3.08348      2.82016        -0.705536      1.111076      0.549693
     11.26718      0.94570     10.09651        -0.485445     -1.581174      0.112093
 -----------------------------------------------------------------------------------
    total drift:                                0.005729      0.017377     -0.005959


--------------------------------------------------------------------------------------------------------



  FREE ENERGIE OF THE ION-ELECTRON SYSTEM (eV)
  ---------------------------------------------------
  free  energy   TOTEN  =      -937.99118874 eV

  energy  without entropy=     -937.99118874  energy(sigma->0) =     -937.99118874
 


--------------------------------------------------------------------------------------------------------


    POTLOK:  cpu time    0.4039: real time    0.4049


--------------------------------------------------------------------------------------------------------


     LOOP+:  cpu time  843.6947: real time  847.9675
    4ORBIT:  cpu time    0.0000: real time    0.0000

 total amount of memory used by VASP MPI-rank0   164794. kBytes
=======================================================================

   base      :      30000. kBytes
   nonlr-proj:      22683. kBytes
   fftplans  :      23775. kBytes
   grid      :      12472. kBytes
   one-center:        186. kBytes
   wavefun   :      75678. kBytes
 
  
  
 General timing and accounting informations for this job:
 ========================================================
  
                  Total CPU time used (sec):      862.508
                            User time (sec):      859.803
                          System time (sec):        2.705
                         Elapsed time (sec):      867.033
  
                   Maximum memory used (kb):      298152.
                   Average memory used (kb):           0.
  
                          Minor page faults:        93709
                          Major page faults:            0
                 Voluntary context switches:          377
