 vasp.5.4.4.18Apr17-6-g9f103f2a35 (build Mar 16 2023 09:39:13) complex          
  
 executed on             LinuxIFC date 2024.04.29  21:20:21
 running on   48 total cores
 distrk:  each k-point on   48 cores,    1 groups
 distr:  one band on NCORES_PER_BAND=  12 cores,    4 groups


--------------------------------------------------------------------------------------------------------


 INCAR:
 POTCAR:    PAW_PBE Ca_sv 06Sep2000               
 POTCAR:    PAW_PBE Si 05Jan2001                  
 POTCAR:    PAW_PBE O 08Apr2002                   
 POTCAR:    PAW_PBE Ca_sv 06Sep2000               
   SHA256 =  a47365830e737f14e0e6c5cf1ed81b94e081eecf0a33df105380881bc9da05d5 Ca
   COPYR  = (c) Copyright 06Sep2000 Georg Kresse                                
   COPYR  = This file is part of the software VASP. Any use, copying, and all ot
   COPYR  = If you do not have a valid VASP license, you may not use, copy or di
   VRHFIN =Ca: 3s3p4s                                                           
   LEXCH  = PE                                                                  
   EATOM  =  1006.0909 eV,   73.9456 Ry                                         
                                                                                
   TITEL  = PAW_PBE Ca_sv 06Sep2000                                             
   LULTRA =        F    use ultrasoft PP ?                                      
   IUNSCR =        1    unscreen: 0-lin 1-nonlin 2-no                           
   RPACOR =    2.000    partial core radius                                     
   POMASS =   40.078; ZVAL   =   10.000    mass and valenz                      
   RCORE  =    2.300    outmost cutoff radius                                   
   RWIGS  =    2.500; RWIGS  =    1.323    wigner-seitz radius (au A)           
   ENMAX  =  266.622; ENMIN  =  199.967 eV                                      
   RCLOC  =    1.808    cutoff for local pot                                    
   LCOR   =        T    correct aug charges                                     
   LPAW   =        T    paw PP                                                  
   EAUG   =  420.852                                                            
   RMAX   =    2.359    core radius for proj-oper                               
   RAUG   =    1.300    factor for augmentation sphere                          
   RDEP   =    2.392    radius for radial grids                                 
   RDEPT  =    1.987    core radius for aug-charge                              
                                                                                
   Atomic configuration                                                         
    7 entries                                                                   
     n  l   j            E        occ.                                          
     1  0  0.50     -3949.1705   2.0000                                         
     2  0  0.50      -414.3434   2.0000                                         
     2  1  1.50      -334.7047   6.0000                                         
     3  0  0.50       -47.0896   2.0000                                         
     4  0  0.50        -3.7663   2.0000                                         
     3  1  1.50       -28.0061   6.0000                                         
     3  2  1.50        -4.0817   0.0000                                         
   Description                                                                  
     l       E           TYP  RCUT    TYP  RCUT                                 
     0    -47.0896403     23  2.300                                             
     0     -3.7663320     23  2.300                                             
     1    -28.0060855     23  2.300                                             
     1      6.8029130     23  2.300                                             
     2     -4.0817478     23  2.300                                             
     2      0.4464412     23  2.300                                             
  local pseudopotential read in
  partial core-charges read in
  partial kinetic energy density read in
  atomic valenz-charges read in
  non local Contribution for L=           0  read in
    real space projection operators read in
  non local Contribution for L=           0  read in
    real space projection operators read in
  non local Contribution for L=           1  read in
    real space projection operators read in
  non local Contribution for L=           1  read in
    real space projection operators read in
  non local Contribution for L=           2  read in
    real space projection operators read in
  non local Contribution for L=           2  read in
    real space projection operators read in
    PAW grid and wavefunctions read in
 
   number of l-projection  operators is LMAX  =           6
   number of lm-projection operators is LMMAX =          18
 
 POTCAR:    PAW_PBE Si 05Jan2001                  
   SHA256 =  79d9987ad8750f624c4d6acb2a16d13abf6a777132adc04dc6c8399be72b42bb Si
   COPYR  = (c) Copyright 05Jan2001 Georg Kresse                                
   COPYR  = This file is part of the software VASP. Any use, copying, and all ot
   COPYR  = If you do not have a valid VASP license, you may not use, copy or di
   VRHFIN =Si: s2p2                                                             
   LEXCH  = PE                                                                  
   EATOM  =   103.0669 eV,    7.5752 Ry                                         
                                                                                
   TITEL  = PAW_PBE Si 05Jan2001                                                
   LULTRA =        F    use ultrasoft PP ?                                      
   IUNSCR =        1    unscreen: 0-lin 1-nonlin 2-no                           
   RPACOR =    1.500    partial core radius                                     
   POMASS =   28.085; ZVAL   =    4.000    mass and valenz                      
   RCORE  =    1.900    outmost cutoff radius                                   
   RWIGS  =    2.480; RWIGS  =    1.312    wigner-seitz radius (au A)           
   ENMAX  =  245.345; ENMIN  =  184.009 eV                                      
   ICORE  =        2    local potential                                         
   LCOR   =        T    correct aug charges                                     
   LPAW   =        T    paw PP                                                  
   EAUG   =  322.069                                                            
   DEXC   =    0.000                                                            
   RMAX   =    1.950    core radius for proj-oper                               
   RAUG   =    1.300    factor for augmentation sphere                          
   RDEP   =    1.993    radius for radial grids                                 
   RDEPT  =    1.837    core radius for aug-charge                              
                                                                                
   Atomic configuration                                                         
    6 entries                                                                   
     n  l   j            E        occ.                                          
     1  0  0.50     -1785.8828   2.0000                                         
     2  0  0.50      -139.4969   2.0000                                         
     2  1  1.50       -95.5546   6.0000                                         
     3  0  0.50       -10.8127   2.0000                                         
     3  1  0.50        -4.0811   2.0000                                         
     3  2  1.50        -4.0817   0.0000                                         
   Description                                                                  
     l       E           TYP  RCUT    TYP  RCUT                                 
     0    -10.8127223     23  1.900                                             
     0     -7.6451159     23  1.900                                             
     1     -4.0811372     23  1.900                                             
     1      2.4879257     23  1.900                                             
     2     -4.0817478      7  1.900                                             
  local pseudopotential read in
  partial core-charges read in
  partial kinetic energy density read in
  atomic valenz-charges read in
  non local Contribution for L=           0  read in
    real space projection operators read in
  non local Contribution for L=           0  read in
    real space projection operators read in
  non local Contribution for L=           1  read in
    real space projection operators read in
  non local Contribution for L=           1  read in
    real space projection operators read in
    PAW grid and wavefunctions read in
 
   number of l-projection  operators is LMAX  =           4
   number of lm-projection operators is LMMAX =           8
 
 POTCAR:    PAW_PBE O 08Apr2002                   
   SHA256 =  818f92134a0a090dccd8ba1447fa70422a3b330e708bb4f08108d8ae51209ddf O/
   COPYR  = (c) Copyright 08Apr2002 Georg Kresse                                
   COPYR  = This file is part of the software VASP. Any use, copying, and all ot
   COPYR  = If you do not have a valid VASP license, you may not use, copy or di
   VRHFIN =O: s2p4                                                              
   LEXCH  = PE                                                                  
   EATOM  =   432.3788 eV,   31.7789 Ry                                         
                                                                                
   TITEL  = PAW_PBE O 08Apr2002                                                 
   LULTRA =        F    use ultrasoft PP ?                                      
   IUNSCR =        1    unscreen: 0-lin 1-nonlin 2-no                           
   RPACOR =    1.200    partial core radius                                     
   POMASS =   16.000; ZVAL   =    6.000    mass and valenz                      
   RCORE  =    1.520    outmost cutoff radius                                   
   RWIGS  =    1.550; RWIGS  =    0.820    wigner-seitz radius (au A)           
   ENMAX  =  400.000; ENMIN  =  300.000 eV                                      
   ICORE  =        2    local potential                                         
   LCOR   =        T    correct aug charges                                     
   LPAW   =        T    paw PP                                                  
   EAUG   =  605.392                                                            
   DEXC   =    0.000                                                            
   RMAX   =    1.553    core radius for proj-oper                               
   RAUG   =    1.300    factor for augmentation sphere                          
   RDEP   =    1.550    radius for radial grids                                 
   RDEPT  =    1.329    core radius for aug-charge                              
                                                                                
   Atomic configuration                                                         
    4 entries                                                                   
     n  l   j            E        occ.                                          
     1  0  0.50      -514.6923   2.0000                                         
     2  0  0.50       -23.9615   2.0000                                         
     2  1  0.50        -9.0305   4.0000                                         
     3  2  1.50        -9.5241   0.0000                                         
   Description                                                                  
     l       E           TYP  RCUT    TYP  RCUT                                 
     0    -23.9615318     23  1.200                                             
     0     -9.5240782     23  1.200                                             
     1     -9.0304911     23  1.520                                             
     1      8.1634956     23  1.520                                             
     2     -9.5240782      7  1.500                                             
  local pseudopotential read in
  partial core-charges read in
  partial kinetic energy density read in
  kinetic energy density of atom read in
  atomic valenz-charges read in
  non local Contribution for L=           0  read in
    real space projection operators read in
  non local Contribution for L=           0  read in
    real space projection operators read in
  non local Contribution for L=           1  read in
    real space projection operators read in
  non local Contribution for L=           1  read in
    real space projection operators read in
    PAW grid and wavefunctions read in
 
   number of l-projection  operators is LMAX  =           4
   number of lm-projection operators is LMMAX =           8
 
 Optimization of the real space projectors (new method)

 maximal supplied QI-value         = 16.25
 optimisation between [QCUT,QGAM] = [ 12.51, 25.03] = [ 43.85,175.40] Ry 
 Optimized for a Real-space Cutoff    1.47 Angstroem

   l    n(q)    QCUT    max X(q) W(low)/X(q) W(high)/X(q)  e(spline) 
   0     11    12.514    11.817    0.25E-04    0.32E-05    0.87E-07
   0     11    12.514     8.461    0.39E-04    0.59E-05    0.18E-06
   1     11    12.514     3.957    0.97E-05    0.57E-05    0.28E-07
   1     11    12.514     4.314    0.42E-04    0.14E-04    0.23E-06
   2     10    12.514    14.565    0.79E-04    0.50E-03    0.16E-05
   2     10    12.514    14.552    0.75E-04    0.48E-03    0.15E-05
 Optimization of the real space projectors (new method)

 maximal supplied QI-value         = 19.84
 optimisation between [QCUT,QGAM] = [ 12.50, 25.00] = [ 43.76,175.03] Ry 
 Optimized for a Real-space Cutoff    1.16 Angstroem

   l    n(q)    QCUT    max X(q) W(low)/X(q) W(high)/X(q)  e(spline) 
   0      9    12.501   159.560    0.10E-03    0.83E-04    0.71E-07
   0      9    12.501   115.863    0.99E-04    0.81E-04    0.70E-07
   1      8    12.501    88.339    0.20E-03    0.25E-03    0.76E-07
   1      8    12.501    48.592    0.20E-03    0.24E-03    0.75E-07
 Optimization of the real space projectors (new method)

 maximal supplied QI-value         = 24.76
 optimisation between [QCUT,QGAM] = [ 12.38, 25.00] = [ 42.90,175.06] Ry 
 Optimized for a Real-space Cutoff    1.16 Angstroem

   l    n(q)    QCUT    max X(q) W(low)/X(q) W(high)/X(q)  e(spline) 
   0      9    12.378    20.381    0.16E-03    0.67E-05    0.31E-06
   0      9    12.378    15.268    0.17E-03    0.81E-05    0.33E-06
   1      8    12.378     5.964    0.20E-03    0.16E-03    0.30E-06
   1      8    12.378     5.382    0.18E-03    0.14E-03    0.26E-06
  PAW_PBE Ca_sv 06Sep2000               :
 energy of atom  1       EATOM=-1006.0909
 kinetic energy error for atom=    0.0012 (will be added to EATOM!!)
  PAW_PBE Si 05Jan2001                  :
 energy of atom  2       EATOM= -103.0669
 kinetic energy error for atom=    0.0003 (will be added to EATOM!!)
  PAW_PBE O 08Apr2002                   :
 energy of atom  3       EATOM= -432.3788
 kinetic energy error for atom=    0.0168 (will be added to EATOM!!)
 
 
 POSCAR: Ca Si  O                                
  positions in direct lattice
  No initial velocities read in
 exchange correlation table for  LEXCH =        8
   RHO(1)=    0.500       N(1)  =     2000
   RHO(2)=  100.500       N(2)  =     4000
 


--------------------------------------------------------------------------------------------------------


 ion  position               nearest neighbor table
   1  0.504  0.945  0.610- 118 2.10  66 2.20  58 2.21  86 2.49  94 2.52  13 2.90  54 3.03  36 3.08
                            33 3.12
   2  0.143  0.587  0.577-  68 2.04  99 2.25  76 2.32  74 2.44  57 2.55  29 3.02  47 3.02  30 3.09
                            50 3.14
   3  0.725  0.032  0.367- 118 2.09  98 2.27  94 2.35 111 2.46  71 2.51  54 2.67  51 2.78  13 2.91
                            46 3.00
   4  0.676  0.419  0.058-  89 2.34 109 2.39 127 2.51  48 2.75  46 3.00  53 3.00  12 3.07
   5  0.905  0.804  0.487- 101 2.07  75 2.12  79 2.44  94 2.45  99 2.47  83 2.50  82 2.55  54 2.94
                            47 2.94  39 2.95  31 3.00  50 3.05  51 3.07
   6  0.389  0.354  0.680- 129 1.95 133 2.02  76 2.29 134 2.39  97 2.52  11 2.94  53 3.12  29 3.13

   7  0.836  0.926  0.946- 112 2.24  55 2.30 128 2.34 102 2.43  59 2.45  37 2.74  35 2.91  33 2.99
                            32 3.16
   8  0.931  0.496  0.815-  72 2.19  68 2.20  62 2.36 122 2.40  56 2.41  50 2.97  40 3.14  29 3.15

   9  0.223  0.550  0.906-  91 2.01  62 2.13  97 2.20 110 2.34 107 2.38 122 2.55  23 3.09  27 3.09

  10  0.810  0.593  0.254-  88 2.24  87 2.32 126 2.33  75 2.38 100 2.43  89 2.52  40 2.98  51 3.02
                            47 3.11
  11  0.584  0.191  0.752- 129 2.07 130 2.13  67 2.20  71 2.43 133 2.51  58 2.52  41 2.93   6 2.94
                            13 3.01  42 3.01  38 3.02
  12  0.518  0.271  0.230-  70 2.17  96 2.22  92 2.26  89 2.43  64 2.54  46 2.96  13 3.05   4 3.07
                            43 3.08  18 3.15  48 3.16
  13  0.537  0.172  0.486-  71 2.03 118 2.06  96 2.20  70 2.21 134 2.24  58 2.25   1 2.90   3 2.91
                            36 2.97  11 3.01  12 3.05  18 3.17
  14  0.029  0.713  0.043-  59 2.18 110 2.43  78 2.43 107 2.52 126 2.52  40 2.97  49 3.11
  15  0.016  0.396  0.351-  87 2.18  88 2.24 124 2.30 114 2.47 116 2.52  85 2.54 117 2.54  99 2.55
                            40 3.01  47 3.10  46 3.12
  16  0.969  0.132  0.154- 108 2.28  98 2.35  65 2.39  73 2.44 125 2.46  46 2.82  17 2.88  32 2.96
                            34 3.15
  17  0.102  0.928  0.242-  59 2.07  78 2.30  98 2.33  73 2.37 131 2.40 123 2.43  77 2.51  16 2.88
                            34 2.94  45 2.98  51 3.03  47 3.06  49 3.14
  18  0.593  0.447  0.439-  89 2.04 134 2.12 133 2.33  96 2.42  52 2.72  48 2.95  12 3.15  13 3.17

  19  0.494  0.643  0.898-  90 2.16 132 2.24 109 2.30 103 2.41  84 2.45  66 2.49  97 2.57  30 2.97
                            37 3.05
  20  0.025  0.041  0.681-  93 2.32  69 2.35  79 2.37 111 2.40 102 2.42 115 2.48  44 2.81  34 2.85
                            54 3.00  32 3.10  31 3.16
  21  0.835  0.285  0.593- 116 2.18 115 2.22 124 2.48  50 2.91
  22  0.705  0.738  0.717-  90 2.26 101 2.36  84 2.45  66 2.50 112 2.51  79 2.55  37 2.97  33 3.14
                            39 3.15
  23  0.243  0.482  0.174- 121 2.32 119 2.36  61 2.36  64 2.41  85 2.52  52 2.98   9 3.09  40 3.15

  24  0.383  0.707  0.384-  95 1.91 105 2.15  61 2.37  74 2.37 121 2.39  86 2.56  57 2.56  52 2.79
                            30 3.00  36 3.05  39 3.07  28 3.08  48 3.09
  25  0.283  0.822  0.788- 107 2.18  93 2.23  57 2.30  66 2.44  30 2.83
  26  0.557  0.827  0.146-  95 2.22 103 2.35 104 2.36 109 2.49 128 2.52  49 3.01  35 3.13  48 3.13
                            33 3.16
  27  0.138  0.293  0.965-  91 2.10  85 2.12 122 2.13  62 2.38 108 2.42  40 2.94  32 3.01   9 3.09

  28  0.192  0.865  0.508- 123 1.55  77 1.65  63 1.68  83 1.89  93 2.06  57 2.07  44 3.04  24 3.08

  29  0.109  0.333  0.666-  76 1.54 122 1.55  69 1.73 116 1.85  68 2.34   2 3.02   6 3.13   8 3.15

  30  0.405  0.649  0.646-  97 1.63  57 1.65  90 1.72  74 1.93  86 2.09  25 2.83  19 2.97  24 3.00
                             2 3.09
  31  0.989  0.765  0.740- 101 1.66 110 1.68  83 1.72  79 1.96 112 2.20 102 2.40   5 3.00  20 3.16

  32  0.102  0.025  0.949- 102 1.55 108 1.59  73 1.60 120 1.71  45 2.80  16 2.96  27 3.01  20 3.10
                             7 3.16
  33  0.574  0.927  0.880- 104 1.62  81 1.69  67 1.81 103 1.84  66 1.91   7 2.99  35 3.07  41 3.10
                             1 3.12  22 3.14  26 3.16
  34  0.012  0.090  0.430- 111 1.65  65 1.70  77 1.72  98 1.98 114 1.98 116 2.32  20 2.85  17 2.94
                            16 3.15
  35  0.676  0.075  0.089-  92 1.54 128 1.63 104 1.68  55 1.71 125 1.81   7 2.91  33 3.07  46 3.10
                            26 3.13
  36  0.417  0.977  0.349-  95 1.60  63 1.70  70 1.76 131 1.80 118 1.81  13 2.97  43 2.99  24 3.05
                             1 3.08
  37  0.752  0.696  0.976- 112 1.62 100 1.62 103 1.68  84 1.78 126 2.18 109 2.27   7 2.74  22 2.97
                            19 3.05
  38  0.815  0.233  0.888- 115 1.66  55 1.71 130 1.72  72 1.77 108 2.48  11 3.02
  39  0.650  0.749  0.439-  82 1.59 135 1.71 105 1.71  86 1.72  94 1.97   5 2.95  24 3.07  22 3.15

  40  0.973  0.457  0.091-  62 1.57 126 1.68  85 1.76  87 1.94  72 2.14  88 2.31  27 2.94  14 2.97
                            10 2.98  15 3.01   8 3.14  23 3.15
  41  0.363  0.109  0.868- 106 1.64  81 1.66 129 1.69 120 1.71  53 2.84  45 2.85  44 2.85  11 2.93
                            33 3.10
  42  0.652  0.453  0.749-  56 1.59 130 1.79 133 1.79 132 2.03  84 2.07  90 2.24  11 3.01
  43  0.273  0.203  0.340- 113 1.79  60 1.80  70 1.81 117 1.92  65 2.00 131 2.30  36 2.99  45 3.00
                            12 3.08  52 3.12
  44  0.265  0.098  0.632-  58 1.59  93 1.63  69 1.67 113 1.72  20 2.81  41 2.85  28 3.04
  45  0.292  0.064  0.110-  73 1.52 106 1.53 131 1.62  60 1.88  80 1.92  32 2.80  41 2.85  17 2.98
                            43 3.00
  46  0.783  0.271  0.256- 125 1.49  88 1.56  96 1.77 114 1.93  16 2.82  12 2.96   3 3.00   4 3.00
                            35 3.10  15 3.12
  47  0.069  0.669  0.329-  99 1.72 123 1.76  87 1.81 121 1.87  75 1.98  78 2.16   5 2.94   2 3.02
                            17 3.06  15 3.10  10 3.11
  48  0.529  0.553  0.205-  61 1.63  89 1.65 109 1.74  64 1.97 105 2.01 119 2.11   4 2.75  18 2.95
                            24 3.09  26 3.13  12 3.16
  49  0.295  0.771  0.107-  80 1.55  78 1.58 107 1.68 119 1.74  26 3.01  14 3.11  17 3.14
  50  0.865  0.544  0.561- 124 1.57  68 1.62  56 1.75 101 1.99  99 2.02  82 2.02  21 2.91   8 2.97
                             5 3.05   2 3.14
  51  0.838  0.861  0.225-  75 1.64 135 1.76 128 1.77 100 1.89  59 1.99  98 2.01   3 2.78  10 3.02
                            17 3.03   5 3.07
  52  0.350  0.461  0.419-  74 1.45 117 1.65 134 1.71  61 1.72 121 2.17  18 2.72  24 2.79  23 2.98
                            43 3.12
  53  0.440  0.336  0.955- 127 1.50  91 1.71 132 1.74 129 1.95  64 1.98  41 2.84   4 3.00   6 3.12

  54  0.770  0.000  0.601-  71 1.57  94 1.62 111 1.80  79 1.96  67 2.27   3 2.67   5 2.94  20 3.00
                             1 3.03
  55  0.751  0.114  0.961-  35 1.71  38 1.71   7 2.30
  56  0.766  0.497  0.675-  42 1.59  50 1.75   8 2.41
  57  0.305  0.747  0.597-  30 1.65  28 2.07  25 2.30   2 2.55  24 2.56
  58  0.407  0.117  0.631-  44 1.59   1 2.21  13 2.25  11 2.52
  59  0.975  0.888  0.112-  51 1.99  17 2.07  14 2.18   7 2.45
  60  0.291  0.218  0.179-  43 1.80  45 1.88
  61  0.416  0.518  0.292-  48 1.63  52 1.72  23 2.36  24 2.37
  62  0.059  0.491  0.984-  40 1.57   9 2.13   8 2.36  27 2.38
  63  0.310  0.940  0.451-  28 1.68  36 1.70
  64  0.442  0.441  0.099-  48 1.97  53 1.98  23 2.41  12 2.54
  65  0.103  0.146  0.321-  34 1.70  43 2.00  16 2.39
  66  0.502  0.822  0.765-  33 1.91   1 2.20  25 2.44  19 2.49  22 2.50
  67  0.666  0.012  0.776-  33 1.81  11 2.20  54 2.27
  68  0.988  0.500  0.625-  50 1.62   2 2.04   8 2.20  29 2.34
  69  0.170  0.193  0.697-  44 1.67  29 1.73  20 2.35
  70  0.420  0.134  0.330-  36 1.76  43 1.81  12 2.17  13 2.21
  71  0.683  0.109  0.576-  54 1.57  13 2.03  11 2.43   3 2.51
  72  0.907  0.351  0.945-  38 1.77  40 2.14   8 2.19
  73  0.159  0.052  0.078-  45 1.52  32 1.60  17 2.37  16 2.44
  74  0.350  0.546  0.518-  52 1.45  30 1.93  24 2.37   2 2.44
  75  0.924  0.768  0.300-  51 1.64  47 1.98   5 2.12  10 2.38
  76  0.208  0.389  0.587-  29 1.54   6 2.29   2 2.32
  77  0.082  0.956  0.465-  28 1.65  34 1.72  17 2.51
  78  0.184  0.744  0.193-  49 1.58  47 2.16  17 2.30  14 2.43
  79  0.875  0.888  0.687-  54 1.96  31 1.96  20 2.37   5 2.44  22 2.55
  80  0.343  0.901  0.089-  49 1.55  45 1.92
  81  0.444  0.989  0.832-  41 1.66  33 1.69
  82  0.742  0.644  0.473-  39 1.59  50 2.02   5 2.55
  83  0.082  0.811  0.625-  31 1.72  28 1.89   5 2.50
  84  0.704  0.583  0.873-  37 1.78  42 2.07  22 2.45  19 2.45
  85  0.070  0.341  0.137-  40 1.76  27 2.12  23 2.52  15 2.54
  86  0.542  0.733  0.548-  39 1.72  30 2.09   1 2.49  24 2.56
  87  0.013  0.551  0.232-  47 1.81  40 1.94  15 2.18  10 2.32
  88  0.846  0.395  0.243-  46 1.56  15 2.24  10 2.24  40 2.31
  89  0.628  0.457  0.259-  48 1.65  18 2.04   4 2.34  12 2.43  10 2.52
  90  0.541  0.617  0.712-  30 1.72  19 2.16  42 2.24  22 2.26
  91  0.297  0.393  0.953-  53 1.71   9 2.01  27 2.10
  92  0.582  0.082  0.191-  35 1.54  12 2.26
  93  0.217  0.963  0.663-  44 1.63  28 2.06  25 2.23  20 2.32
  94  0.707  0.893  0.525-  54 1.62  39 1.97   3 2.35   5 2.45   1 2.52
  95  0.420  0.846  0.290-  36 1.60  24 1.91  26 2.22
  96  0.667  0.257  0.363-  46 1.77  13 2.20  12 2.22  18 2.42
  97  0.339  0.565  0.746-  30 1.63   9 2.20   6 2.52  19 2.57
  98  0.918  0.999  0.310-  34 1.98  51 2.01   3 2.27  17 2.33  16 2.35
  99  0.991  0.603  0.445-  47 1.72  50 2.02   2 2.25   5 2.47  15 2.55
 100  0.802  0.750  0.103-  37 1.62  51 1.89  10 2.43
 101  0.899  0.700  0.641-  31 1.66  50 1.99   5 2.07  22 2.36
 102  0.039  0.931  0.868-  32 1.55  31 2.40  20 2.42   7 2.43
 103  0.639  0.794  0.954-  37 1.68  33 1.84  26 2.35  19 2.41
 104  0.579  0.989  0.012-  33 1.62  35 1.68  26 2.36
 105  0.566  0.661  0.345-  39 1.71  48 2.01  24 2.15
 106  0.382  0.105  0.015-  45 1.53  41 1.64
 107  0.238  0.755  0.967-  49 1.68  25 2.18   9 2.38  14 2.52
 108  0.999  0.125  0.951-  32 1.59  16 2.28  27 2.42  38 2.48
 109  0.594  0.616  0.077-  48 1.74  37 2.27  19 2.30   4 2.39  26 2.49
 110  0.074  0.679  0.832-  31 1.68   9 2.34  14 2.43
 111  0.894  0.048  0.509-  34 1.65  54 1.80  20 2.40   3 2.46
 112  0.857  0.735  0.884-  37 1.62  31 2.20   7 2.24  22 2.51
 113  0.247  0.136  0.483-  44 1.72  43 1.79
 114  0.895  0.211  0.376-  46 1.93  34 1.98  15 2.47
 115  0.868  0.179  0.759-  38 1.66  21 2.22  20 2.48
 116  0.023  0.268  0.538-  29 1.85  21 2.18  34 2.32  15 2.52
 117  0.240  0.368  0.381-  52 1.65  43 1.92  15 2.54
 118  0.553  0.994  0.435-  36 1.81  13 2.06   3 2.09   1 2.10
 119  0.377  0.641  0.131-  49 1.74  48 2.11  23 2.36
 120  0.218  0.061  0.855-  32 1.71  41 1.71
 121  0.211  0.582  0.355-  47 1.87  52 2.17  23 2.32  24 2.39
 122  0.113  0.381  0.797-  29 1.55  27 2.13   8 2.40   9 2.55
 123  0.144  0.787  0.403-  28 1.55  47 1.76  17 2.43
 124  0.845  0.457  0.451-  50 1.57  15 2.30  21 2.48
 125  0.760  0.204  0.142-  46 1.49  35 1.81  16 2.46
 126  0.865  0.557  0.056-  40 1.68  37 2.18  10 2.33  14 2.52
 127  0.546  0.254  0.976-  53 1.50   4 2.51
 128  0.745  0.953  0.133-  35 1.63  51 1.77   7 2.34  26 2.52
 129  0.414  0.240  0.810-  41 1.69   6 1.95  53 1.95  11 2.07
 130  0.705  0.321  0.824-  38 1.72  42 1.79  11 2.13
 131  0.297  0.020  0.248-  45 1.62  36 1.80  43 2.30  17 2.40
 132  0.525  0.445  0.880-  53 1.74  42 2.03  19 2.24
 133  0.563  0.383  0.636-  42 1.79   6 2.02  18 2.33  11 2.51
 134  0.436  0.345  0.470-  52 1.71  18 2.12  13 2.24   6 2.39
 135  0.722  0.803  0.314-  39 1.71  51 1.76
 

IMPORTANT INFORMATION: All symmetrisations will be switched off!
NOSYMM: (Re-)initialisation of all symmetry stuff for point group C_1.

 
 

Automatic generation of k-mesh.
 generate k-points for:    2    2    2
Space group operators:
 irot       det(A)        alpha          n_x          n_y          n_z        tau_x        tau_y        tau_z
    1     1.000000     0.000000     1.000000     0.000000     0.000000     0.000000     0.000000     0.000000
 
 Subroutine IBZKPT returns following result:
 ===========================================
 
 Found      8 irreducible k-points:
 
 Following reciprocal coordinates:
            Coordinates               Weight
  0.000000  0.000000  0.000000      1.000000
  0.500000  0.000000  0.000000      1.000000
  0.000000  0.500000  0.000000      1.000000
  0.500000  0.500000  0.000000      1.000000
  0.000000  0.000000  0.500000      1.000000
  0.500000  0.000000  0.500000      1.000000
  0.000000  0.500000  0.500000      1.000000
  0.500000  0.500000  0.500000      1.000000
 
 Following cartesian coordinates:
            Coordinates               Weight
  0.000000  0.000000  0.000000      1.000000
  0.044956  0.000000  0.000000      1.000000
  0.000000  0.044956  0.000000      1.000000
  0.044956  0.044956  0.000000      1.000000
  0.000000  0.000000  0.044956      1.000000
  0.044956  0.000000  0.044956      1.000000
  0.000000  0.044956  0.044956      1.000000
  0.044956  0.044956  0.044956      1.000000
 


--------------------------------------------------------------------------------------------------------




 Dimension of arrays:
   k-points           NKPTS =      8   k-points in BZ     NKDIM =      8   number of bands    NBANDS=    520
   number of dos      NEDOS =    301   number of ions     NIONS =    135
   non local maximal  LDIM  =      6   non local SUM 2l+1 LMDIM =     18
   total plane-waves  NPLWV = 729000
   max r-space proj   IRMAX =   7111   max aug-charges    IRDMAX= 202431
   dimension x,y,z NGX =    90 NGY =   90 NGZ =   90
   dimension x,y,z NGXF=   180 NGYF=  180 NGZF=  180
   support grid    NGXF=   360 NGYF=  360 NGZF=  360
   ions per type =              27  27  81
   NGX,Y,Z   is equivalent  to a cutoff of  13.45, 13.45, 13.45 a.u.
   NGXF,Y,Z  is equivalent  to a cutoff of  26.91, 26.91, 26.91 a.u.

 SYSTEM =  unknown system                          
 POSCAR =  Ca Si  O                                

 Startparameter for this run:
   NWRITE =      2    write-flag & timer
   PREC   = a         normal or accurate (medium, high low for compatibility)
   ISTART =      0    job   : 0-new  1-cont  2-samecut
   ICHARG =      2    charge: 1-file 2-atom 10-const
   ISPIN  =      1    spin polarized calculation?
   LNONCOLLINEAR =      F non collinear calculations
   LSORBIT =      F    spin-orbit coupling
   INIWAV =      1    electr: 0-lowe 1-rand  2-diag
   LASPH  =      F    aspherical Exc in radial PAW
   METAGGA=      F    non-selfconsistent MetaGGA calc.

 Electronic Relaxation 1
   ENCUT  =  600.0 eV  44.10 Ry    6.64 a.u.  22.21 22.21 22.21*2*pi/ulx,y,z
   ENINI  =  600.0     initial cutoff
   ENAUG  =  605.4 eV  augmentation charge cutoff
   NELM   =     60;   NELMIN=  2; NELMDL= -5     # of ELM steps 
   EDIFF  = 0.1E-05   stopping-criterion for ELM
   LREAL  =      T    real-space projection
   NLSPLINE    = F    spline interpolate recip. space projectors
   LCOMPAT=      F    compatible to vasp.4.4
   GGA_COMPAT  = T    GGA compatible to vasp.4.4-vasp.4.6
   LMAXPAW     = -100 max onsite density
   LMAXMIX     =    2 max onsite mixed and CHGCAR
   VOSKOWN=      0    Vosko Wilk Nusair interpolation
   ROPT   =   -0.00025  -0.00025  -0.00025
 Ionic relaxation
   EDIFFG = -.1E-01   stopping-criterion for IOM
   NSW    =      1    number of steps for IOM
   NBLOCK =      1;   KBLOCK =      1    inner block; outer block 
   IBRION =     -1    ionic relax: 0-MD 1-quasi-New 2-CG
   NFREE  =      0    steps in history (QN), initial steepest desc. (CG)
   ISIF   =      2    stress and relaxation
   IWAVPR =     10    prediction:  0-non 1-charg 2-wave 3-comb
   ISYM   =      0    0-nonsym 1-usesym 2-fastsym
   LCORR  =      T    Harris-Foulkes like correction to forces

   POTIM  = 1.0000    time-step for ionic-motion
   TEIN   =    0.0    initial temperature
   TEBEG  =    0.0;   TEEND  =   0.0 temperature during run
   SMASS  =  -3.00    Nose mass-parameter (am)
   estimated Nose-frequenzy (Omega)   =  0.10E-29 period in steps =****** mass=  -0.283E-26a.u.
   SCALEE = 1.0000    scale energy and forces
   NPACO  =    256;   APACO  = 16.0  distance and # of slots for P.C.
   PSTRESS=    0.0 pullay stress

  Mass of Ions in am
   POMASS =  40.08 28.09 16.00
  Ionic Valenz
   ZVAL   =  10.00  4.00  6.00
  Atomic Wigner-Seitz radii
   RWIGS  =  -1.00 -1.00 -1.00
  virtual crystal weights 
   VCA    =   1.00  1.00  1.00
   NELECT =     864.0000    total number of electrons
   NUPDOWN=      -1.0000    fix difference up-down

 DOS related values:
   EMIN   =  10.00;   EMAX   =-10.00  energy-range for DOS
   EFERMI =   0.00
   ISMEAR =     0;   SIGMA  =   0.05  broadening in eV -4-tet -1-fermi 0-gaus

 Electronic relaxation 2 (details)
   IALGO  =     38    algorithm
   LDIAG  =      T    sub-space diagonalisation (order eigenvalues)
   LSUBROT=      F    optimize rotation matrix (better conditioning)
   TURBO    =      0    0=normal 1=particle mesh
   IRESTART =      0    0=no restart 2=restart with 2 vectors
   NREBOOT  =      0    no. of reboots
   NMIN     =      0    reboot dimension
   EREF     =   0.00    reference energy to select bands
   IMIX   =      4    mixing-type and parameters
     AMIX     =   0.40;   BMIX     =  1.00
     AMIX_MAG =   1.60;   BMIX_MAG =  1.00
     AMIN     =   0.10
     WC   =   100.;   INIMIX=   1;  MIXPRE=   1;  MAXMIX= -45

 Intra band minimization:
   WEIMIN = 0.0000     energy-eigenvalue tresh-hold
   EBREAK =  0.48E-09  absolut break condition
   DEPER  =   0.30     relativ break condition  

   TIME   =   0.40     timestep for ELM

  volume/ion in A,a.u.               =      10.19        68.77
  Fermi-wavevector in a.u.,A,eV,Ry     =   1.401948  2.649298 26.741681  1.965458
  Thomas-Fermi vector in A             =   2.524759
 
 Write flags
   LWAVE        =      F    write WAVECAR
   LDOWNSAMPLE  =      F    k-point downsampling of WAVECAR
   LCHARG       =      F    write CHGCAR
   LVTOT        =      F    write LOCPOT, total local potential
   LVHAR        =      F    write LOCPOT, Hartree potential only
   LELF         =      F    write electronic localiz. function (ELF)
   LORBIT       =      0    0 simple, 1 ext, 2 COOP (PROOUT), +10 PAW based schemes


 Dipole corrections
   LMONO  =      F    monopole corrections only (constant potential shift)
   LDIPOL =      F    correct potential (dipole corrections)
   IDIPOL =      0    1-x, 2-y, 3-z, 4-all directions 
   EPSILON=  1.0000000 bulk dielectric constant

 Exchange correlation treatment:
   GGA     =    --    GGA type
   LEXCH   =     8    internal setting for exchange type
   VOSKOWN=      0    Vosko Wilk Nusair interpolation
   LHFCALC =     F    Hartree Fock is set to
   LHFONE  =     F    Hartree Fock one center treatment
   AEXX    =    0.0000 exact exchange contribution

 Linear response parameters
   LEPSILON=     F    determine dielectric tensor
   LRPA    =     F    only Hartree local field effects (RPA)
   LNABLA  =     F    use nabla operator in PAW spheres
   LVEL    =     F    velocity operator in full k-point grid
   LINTERFAST=   F  fast interpolation
   KINTER  =     0    interpolate to denser k-point grid
   CSHIFT  =0.1000    complex shift for real part using Kramers Kronig
   OMEGAMAX=  -1.0    maximum frequency
   DEG_THRESHOLD= 0.2000000E-02 threshold for treating states as degnerate
   RTIME   =   -0.100 relaxation time in fs
  (WPLASMAI=    0.000 imaginary part of plasma frequency in eV, 0.658/RTIME)
   DFIELD  = 0.0000000 0.0000000 0.0000000 field for delta impulse in time
 
 Orbital magnetization related:
   ORBITALMAG=     F  switch on orbital magnetization
   LCHIMAG   =     F  perturbation theory with respect to B field
   DQ        =  0.001000  dq finite difference perturbation B field
   LLRAUG    =     F  two centre corrections for induced B field



--------------------------------------------------------------------------------------------------------


 Static calculation
 charge density and potential will be updated during run
 non-spin polarized calculation
 Variant of blocked Davidson
 Davidson routine will perform the subspace rotation
 perform sub-space diagonalisation
    after iterative eigenvector-optimisation
 modified Broyden-mixing scheme, WC =      100.0
 initial mixing is a Kerker type mixing with AMIX =  0.4000 and BMIX =      1.0000
 Hartree-type preconditioning will be used
 using additional bands           88
 real space projection scheme for non local part
 use partial core corrections
 calculate Harris-corrections to forces 
   (improved forces if not selfconsistent)
 use gradient corrections 
 use of overlap-Matrix (Vanderbilt PP)
 Gauss-broadening in eV      SIGMA  =   0.05


--------------------------------------------------------------------------------------------------------


  energy-cutoff  :      600.00
  volume of cell :     1375.76
      direct lattice vectors                 reciprocal lattice vectors
    11.121947680  0.000000000  0.000000000     0.089912309  0.000000000  0.000000000
     0.000000000 11.121947680  0.000000000     0.000000000  0.089912309  0.000000000
     0.000000000  0.000000000 11.121947680     0.000000000  0.000000000  0.089912309

  length of vectors
    11.121947680 11.121947680 11.121947680     0.089912309  0.089912309  0.089912309


 
 k-points in units of 2pi/SCALE and weight: read from INCAR                         
   0.00000000  0.00000000  0.00000000       0.125
   0.04495615  0.00000000  0.00000000       0.125
   0.00000000  0.04495615  0.00000000       0.125
   0.04495615  0.04495615  0.00000000       0.125
   0.00000000  0.00000000  0.04495615       0.125
   0.04495615  0.00000000  0.04495615       0.125
   0.00000000  0.04495615  0.04495615       0.125
   0.04495615  0.04495615  0.04495615       0.125
 
 k-points in reciprocal lattice and weights: read from INCAR                         
   0.00000000  0.00000000  0.00000000       0.125
   0.50000000  0.00000000  0.00000000       0.125
   0.00000000  0.50000000  0.00000000       0.125
   0.50000000  0.50000000  0.00000000       0.125
   0.00000000  0.00000000  0.50000000       0.125
   0.50000000  0.00000000  0.50000000       0.125
   0.00000000  0.50000000  0.50000000       0.125
   0.50000000  0.50000000  0.50000000       0.125
 
 position of ions in fractional coordinates (direct lattice) 
   0.50387716  0.94473691  0.60963415
   0.14266404  0.58684527  0.57732541
   0.72465247  0.03228842  0.36749847
   0.67560141  0.41875015  0.05811685
   0.90527117  0.80395949  0.48673970
   0.38925659  0.35430993  0.67958378
   0.83559296  0.92574383  0.94573796
   0.93145895  0.49606397  0.81478610
   0.22285732  0.55032861  0.90620282
   0.80983298  0.59269313  0.25410650
   0.58418652  0.19079944  0.75169557
   0.51827046  0.27064654  0.23036800
   0.53710477  0.17150516  0.48579275
   0.02877544  0.71344522  0.04282972
   0.01551103  0.39592524  0.35140292
   0.96936509  0.13151414  0.15353910
   0.10214066  0.92773978  0.24170592
   0.59336151  0.44735575  0.43894328
   0.49401082  0.64288643  0.89836137
   0.02453286  0.04055881  0.68121100
   0.83510627  0.28537907  0.59318224
   0.70494361  0.73764914  0.71669734
   0.24253527  0.48218061  0.17443068
   0.38294469  0.70735872  0.38380313
   0.28337369  0.82192844  0.78845408
   0.55699123  0.82667660  0.14551194
   0.13750672  0.29291543  0.96512356
   0.19199643  0.86535595  0.50792201
   0.10870444  0.33278332  0.66571164
   0.40479285  0.64910055  0.64638222
   0.98909326  0.76493771  0.74005001
   0.10163975  0.02545783  0.94870751
   0.57445524  0.92701693  0.88012065
   0.01239635  0.08958745  0.43033892
   0.67627258  0.07495242  0.08925792
   0.41676971  0.97695081  0.34868403
   0.75209843  0.69564864  0.97614429
   0.81514409  0.23329575  0.88795897
   0.65000611  0.74908673  0.43881508
   0.97328585  0.45667312  0.09109173
   0.36313396  0.10906771  0.86843539
   0.65159316  0.45315605  0.74934835
   0.27257289  0.20337390  0.33965467
   0.26524101  0.09785043  0.63180647
   0.29156479  0.06373419  0.10992042
   0.78348341  0.27056912  0.25608300
   0.06874999  0.66882166  0.32897841
   0.52873964  0.55319256  0.20467719
   0.29481363  0.77108711  0.10674715
   0.86451928  0.54351445  0.56078957
   0.83821624  0.86125118  0.22473185
   0.34986040  0.46104143  0.41875895
   0.44037808  0.33643215  0.95468123
   0.77025822  0.00010043  0.60063328
   0.75081230  0.11403649  0.96085917
   0.76604969  0.49702739  0.67497596
   0.30521787  0.74712814  0.59714547
   0.40682244  0.11691273  0.63096328
   0.97485081  0.88829423  0.11228809
   0.29121137  0.21804961  0.17928442
   0.41613246  0.51826676  0.29175398
   0.05863623  0.49053745  0.98408826
   0.31029246  0.94015341  0.45139071
   0.44194486  0.44146340  0.09881262
   0.10317789  0.14554537  0.32095658
   0.50193670  0.82216683  0.76511740
   0.66605374  0.01234866  0.77600975
   0.98786779  0.50021685  0.62547594
   0.16986944  0.19328359  0.69745297
   0.41986703  0.13417731  0.32957806
   0.68347860  0.10913457  0.57556624
   0.90694258  0.35062659  0.94467743
   0.15935254  0.05159300  0.07766889
   0.34958682  0.54576269  0.51842252
   0.92351642  0.76808525  0.30029375
   0.20846187  0.38887830  0.58717897
   0.08202781  0.95586708  0.46485164
   0.18439257  0.74404196  0.19260317
   0.87495830  0.88847245  0.68710235
   0.34327863  0.90060812  0.08913749
   0.44440568  0.98891029  0.83184444
   0.74163223  0.64411685  0.47265347
   0.08177751  0.81068567  0.62533905
   0.70417510  0.58275495  0.87271835
   0.07006577  0.34072093  0.13700271
   0.54172816  0.73271749  0.54787282
   0.01346889  0.55098137  0.23197931
   0.84592579  0.39503847  0.24335657
   0.62781780  0.45723525  0.25903623
   0.54102521  0.61709254  0.71163824
   0.29736315  0.39285140  0.95308430
   0.58197573  0.08152455  0.19057085
   0.21677498  0.96279189  0.66295501
   0.70749611  0.89250707  0.52504381
   0.42007735  0.84629013  0.28959858
   0.66663412  0.25667037  0.36291305
   0.33862173  0.56468860  0.74633929
   0.91781539  0.99886326  0.31027831
   0.99090957  0.60328699  0.44513771
   0.80150268  0.74958454  0.10262304
   0.89895376  0.69990290  0.64072859
   0.03949669  0.93073977  0.86806250
   0.63924481  0.79385129  0.95373296
   0.57911877  0.98942454  0.01162883
   0.56618392  0.66067675  0.34505768
   0.38229415  0.10492148  0.01464025
   0.23849778  0.75477251  0.96719540
   0.99941122  0.12544362  0.95107366
   0.59409760  0.61638937  0.07738522
   0.07361169  0.67944336  0.83216144
   0.89407203  0.04833359  0.50897874
   0.85696776  0.73498985  0.88371901
   0.24741360  0.13618405  0.48343035
   0.89497585  0.21136818  0.37550692
   0.86845642  0.17911338  0.75936183
   0.02290848  0.26824905  0.53816861
   0.24046009  0.36825165  0.38066138
   0.55345473  0.99411643  0.43464965
   0.37743735  0.64067816  0.13132440
   0.21757535  0.06110813  0.85494968
   0.21062555  0.58184396  0.35530015
   0.11333149  0.38066536  0.79681074
   0.14442253  0.78663110  0.40323093
   0.84511290  0.45715249  0.45114409
   0.76028343  0.20364742  0.14231154
   0.86543958  0.55650832  0.05577383
   0.54558907  0.25440308  0.97550367
   0.74510537  0.95315686  0.13339417
   0.41415184  0.24035513  0.81025919
   0.70463232  0.32137088  0.82423681
   0.29743754  0.01956116  0.24824766
   0.52539100  0.44500638  0.88033579
   0.56277121  0.38264509  0.63559959
   0.43590598  0.34507899  0.47028051
   0.72169103  0.80333607  0.31414028
 
 position of ions in cartesian coordinates  (Angst):
   5.60409539 10.50731447  6.78031909
   1.58670195  6.52686236  6.42098299
   8.05954689  0.35911013  4.08729873
   7.51400348  4.65731728  0.64637257
  10.06837862  8.94159539  5.41349349
   4.32929148  3.94061650  7.55829519
   9.29342113 10.29607446 10.51844813
  10.35963772  5.51719754  9.06200842
   2.47860747  6.12072601 10.07874038
   9.00692002  6.59190195  2.82615915
   6.49729193  2.12206137  8.36031878
   5.76417695  3.01011668  2.56214082
   5.97365112  1.90747147  5.40296155
   0.32003895  7.93490044  0.47634988
   0.17251281  4.40345979  3.90828488
  10.78122780  1.46269337  1.70765380
   1.13600305 10.31827325  2.68824056
   6.59933562  4.97546725  4.88190417
   5.49436250  7.15014922  9.99152811
   0.27285319  0.45109292  7.57639311
   9.28800822  3.17397108  6.59734186
   7.84034596  8.20409513  7.97107030
   2.69746458  5.36278756  1.94000894
   4.25909081  7.86720665  4.26863832
   3.15166737  9.14144516  8.76914502
   6.19482735  9.19425385  1.61837614
   1.52934249  3.25779007 10.73405373
   2.13537428  9.62444358  5.64908199
   1.20900511  3.70119868  7.40401002
   4.50208490  7.21926241  7.18902918
  11.00064350  8.50759718  8.23079750
   1.13043203  0.28314067 10.55147524
   6.38906108 10.31023382  9.78865586
   0.13787151  0.99638694  4.78620691
   7.52146822  0.83361685  0.99272190
   4.63529088 10.86559574  3.87804556
   8.36479937  7.73696781 10.85662576
   9.06598987  2.59470310  9.87583323
   7.22933397  8.33130346  4.88047835
  10.82483427  5.07909453  1.01311744
   4.03875695  1.21304541  9.65869301
   7.24698504  5.03997785  8.33421318
   3.03154144  2.26191390  3.77762147
   2.94999662  1.08828734  7.02691854
   3.24276833  0.70884828  1.22252917
   8.71386144  3.00925558  2.84814169
   0.76463382  7.43859946  3.65888065
   5.88061461  6.15257871  2.27640905
   3.27890179  8.57599054  1.18723625
   9.61513825  6.04493933  6.23707230
   9.32259722  9.57879061  2.49945591
   3.89112911  5.12767863  4.65741517
   4.89786195  3.74178078 10.61791469
   8.56677166  0.00111697  6.68021186
   8.35049511  1.26830787 10.68662537
   8.51996454  5.52791259  7.50704735
   3.39461714  8.30952004  6.64142068
   4.52465793  1.30029727  7.01754057
  10.84223973  9.87956190  1.24886221
   3.23883765  2.42513636  1.99399192
   4.62820350  5.76413576  3.24487249
   0.65214904  5.45573190 10.94497812
   3.45105655 10.45633706  5.02034383
   4.91528763  4.90993286  1.09898884
   1.14753910  1.61874799  3.56966229
   5.58251376  9.14409644  8.50959574
   7.40781483  0.13734118  8.63073987
  10.98701392  5.56338558  6.95651073
   1.88927905  2.14968997  7.75703540
   4.66973914  1.49231301  3.66554992
   7.60161327  1.21378896  6.40141758
  10.08696791  3.89965061 10.50665294
   1.77231066  0.57381469  0.86382933
   3.88808628  6.06994413  5.76586809
  10.27130130  8.54260399  3.33985137
   2.31850198  4.32508410  6.53057378
   0.91230902 10.63110360  5.17005557
   2.05080452  8.27519577  2.14212233
   9.73124048  9.88154406  7.64191644
   3.81792692 10.01651636  0.99138249
   4.94265670 10.99860847  9.25173037
   8.24839481  7.16383391  5.25682713
   0.90952518  9.01640362  6.95498818
   7.83179864  6.48137011  9.70632785
   0.77926788  3.78948038  1.52373692
   6.02507221  8.14924564  6.09341286
   0.14980033  6.12798594  2.58006175
   9.40834243  4.39359724  2.70659905
   6.98255675  5.08534652  2.88098743
   6.01725411  6.86327090  7.91480329
   3.30725742  4.36927271 10.60015374
   6.47270360  0.90671175  2.11951906
   2.41096000 10.70812108  7.37335098
   7.86873477  9.92641698  5.83950982
   4.67207833  9.41239454  3.22090021
   7.41426982  2.85467448  4.03629996
   3.76613312  6.28043706  8.30074657
  10.20789470 11.10930496  3.45089910
  11.02084442  6.70972629  4.95079833
   8.91427089  8.33684000  1.14136805
   9.99811671  7.78428345  7.12614981
   0.43928010 10.35163908  9.65454571
   7.10964738  8.82917250 10.60736804
   6.44092868 11.00432795  0.12933522
   6.29706795  7.34801223  3.83771344
   4.25185551  1.16693121  0.16282804
   2.65255982  8.39454036 10.75709664
  11.11539934  1.39517736 10.57779144
   6.60752239  6.85545029  0.86067440
   0.81870541  7.55673351  9.25525604
   9.94382236  0.53756369  5.66083497
   9.53115055  8.17451870  9.82867654
   2.75172111  1.51463190  5.37668707
   9.95387453  2.35082585  4.17636829
   9.65892689  1.99208960  8.44558256
   0.25478694  2.98345186  5.98548309
   2.67438449  4.09567560  4.23369597
   6.15549450 11.05651093  4.83415067
   4.19783850  7.12558898  1.46058307
   2.41986161  0.67964143  9.50870564
   2.34256631  6.47123811  3.95162963
   1.26046691  4.23374017  8.86208734
   1.60625979  8.74886992  4.48471330
   9.39930141  5.08442602  5.01760096
   8.45583258  2.26495590  1.58278154
   9.62537375  6.18945644  0.62031363
   6.06801310  2.82945771 10.84950075
   8.28702289 10.60096071  1.48360302
   4.60617510  2.67321722  9.01166032
   7.83688383  3.57427008  9.16711864
   3.30808478  0.21755822  2.76099745
   5.84337125  4.94933768  9.79104860
   6.25911197  4.25575871  7.06910535
   4.84812345  3.83795052  5.23043518
   8.02660985  8.93466177  3.49385178
 


--------------------------------------------------------------------------------------------------------


 k-point  1 :   0.0000 0.0000 0.0000  plane waves:   45961
 k-point  2 :   0.5000 0.0000 0.0000  plane waves:   45932
 k-point  3 :   0.0000 0.5000 0.0000  plane waves:   45932
 k-point  4 :   0.5000 0.5000 0.0000  plane waves:   45920
 k-point  5 :   0.0000 0.0000 0.5000  plane waves:   45932
 k-point  6 :   0.5000 0.0000 0.5000  plane waves:   45920
 k-point  7 :   0.0000 0.5000 0.5000  plane waves:   45920
 k-point  8 :   0.5000 0.5000 0.5000  plane waves:   45920

 maximum and minimum number of plane-waves per node :      3885     3771

 maximum number of plane-waves:     45961
 maximum index in each direction: 
   IXMAX=   22   IYMAX=   22   IZMAX=   22
   IXMIN=  -22   IYMIN=  -22   IZMIN=  -22


 real space projection operators:
  total allocation   :      48783.19 KBytes
  max/ min on nodes  :       4405.00       3731.89


 parallel 3D FFT for wavefunctions:
    minimum data exchange during FFTs selected (reduces bandwidth)
 parallel 3D FFT for charge:
    minimum data exchange during FFTs selected (reduces bandwidth)


 total amount of memory used by VASP MPI-rank0   149119. kBytes
=======================================================================

   base      :      30000. kBytes
   nonlr-proj:      21579. kBytes
   fftplans  :      20560. kBytes
   grid      :      10967. kBytes
   one-center:        186. kBytes
   wavefun   :      65827. kBytes
 
     INWAV:  cpu time    0.0001: real time    0.0000
 Broyden mixing: mesh for mixing (old mesh)
   NGX = 45   NGY = 45   NGZ = 45
  (NGX  =180   NGY  =180   NGZ  =180)
  gives a total of  91125 points

 initial charge density was supplied:
 charge density of overlapping atoms calculated
 number of electron     864.0000000 magnetization 
 keeping initial charge density in first step


--------------------------------------------------------------------------------------------------------


 Maximum index for non-local projection operator          820
 Maximum index for augmentation-charges         7251 (set IRDMAX)


--------------------------------------------------------------------------------------------------------


 First call to EWALD:  gamma=   0.159
 Maximum number of real-space cells 3x 3x 3
 Maximum number of reciprocal cells 3x 3x 3

    FEWALD:  cpu time    0.0049: real time    0.0049


--------------------------------------- Iteration      1(   1)  ---------------------------------------


    POTLOK:  cpu time    0.0898: real time    0.0938
    SETDIJ:  cpu time    0.2911: real time    0.2918
     EDDAV:  cpu time   30.2125: real time   30.3094
       DOS:  cpu time    0.0023: real time    0.0024
    --------------------------------------------
      LOOP:  cpu time   30.5958: real time   30.6974

 eigenvalue-minimisations  :  8320
 total energy-change (2. order) : 0.9895097E+04  (-0.4887814E+05)
 number of electron     864.0000000 magnetization 
 augmentation part      864.0000000 magnetization 

 Free energy of the ion-electron system (eV)
  ---------------------------------------------------
  alpha Z        PSCENC =      3473.39795963
  Ewald energy   TEWEN  =    -52937.07546034
  -Hartree energ DENC   =    -13544.77738570
  -exchange      EXHF   =         0.00000000
  -V(xc)+E(xc)   XCENC  =      3220.02246201
  PAW double counting   =     50594.51003143   -49994.65612350
  entropy T*S    EENTRO =        -0.03313206
  eigenvalues    EBANDS =      4115.16883109
  atomic energy  EATOM  =     64968.54023382
  Solvation  Ediel_sol  =         0.00000000
  ---------------------------------------------------
  free energy    TOTEN  =      9895.09741638 eV

  energy without entropy =     9895.13054845  energy(sigma->0) =     9895.11398241


--------------------------------------------------------------------------------------------------------




--------------------------------------- Iteration      1(   2)  ---------------------------------------


     EDDAV:  cpu time   33.0707: real time   33.2173
       DOS:  cpu time    0.0010: real time    0.0010
    --------------------------------------------
      LOOP:  cpu time   33.0717: real time   33.2183

 eigenvalue-minimisations  :  9560
 total energy-change (2. order) :-0.9808553E+04  (-0.9477444E+04)
 number of electron     864.0000000 magnetization 
 augmentation part      864.0000000 magnetization 

 Free energy of the ion-electron system (eV)
  ---------------------------------------------------
  alpha Z        PSCENC =      3473.39795963
  Ewald energy   TEWEN  =    -52937.07546034
  -Hartree energ DENC   =    -13544.77738570
  -exchange      EXHF   =         0.00000000
  -V(xc)+E(xc)   XCENC  =      3220.02246201
  PAW double counting   =     50594.51003143   -49994.65612350
  entropy T*S    EENTRO =        -0.00000000
  eigenvalues    EBANDS =     -5693.41713876
  atomic energy  EATOM  =     64968.54023382
  Solvation  Ediel_sol  =         0.00000000
  ---------------------------------------------------
  free energy    TOTEN  =        86.54457860 eV

  energy without entropy =       86.54457860  energy(sigma->0) =       86.54457860


--------------------------------------------------------------------------------------------------------




--------------------------------------- Iteration      1(   3)  ---------------------------------------


     EDDAV:  cpu time   35.1266: real time   35.3281
       DOS:  cpu time    0.0011: real time    0.0011
    --------------------------------------------
      LOOP:  cpu time   35.1276: real time   35.3291

 eigenvalue-minimisations  : 10208
 total energy-change (2. order) :-0.1082509E+04  (-0.1074581E+04)
 number of electron     864.0000000 magnetization 
 augmentation part      864.0000000 magnetization 

 Free energy of the ion-electron system (eV)
  ---------------------------------------------------
  alpha Z        PSCENC =      3473.39795963
  Ewald energy   TEWEN  =    -52937.07546034
  -Hartree energ DENC   =    -13544.77738570
  -exchange      EXHF   =         0.00000000
  -V(xc)+E(xc)   XCENC  =      3220.02246201
  PAW double counting   =     50594.51003143   -49994.65612350
  entropy T*S    EENTRO =        -0.00000000
  eigenvalues    EBANDS =     -6775.92640531
  atomic energy  EATOM  =     64968.54023382
  Solvation  Ediel_sol  =         0.00000000
  ---------------------------------------------------
  free energy    TOTEN  =      -995.96468796 eV

  energy without entropy =     -995.96468796  energy(sigma->0) =     -995.96468796


--------------------------------------------------------------------------------------------------------




--------------------------------------- Iteration      1(   4)  ---------------------------------------


     EDDAV:  cpu time   38.1189: real time   38.2549
       DOS:  cpu time    0.0011: real time    0.0011
    --------------------------------------------
      LOOP:  cpu time   38.1199: real time   38.2559

 eigenvalue-minimisations  : 11384
 total energy-change (2. order) :-0.5112224E+02  (-0.5091264E+02)
 number of electron     864.0000000 magnetization 
 augmentation part      864.0000000 magnetization 

 Free energy of the ion-electron system (eV)
  ---------------------------------------------------
  alpha Z        PSCENC =      3473.39795963
  Ewald energy   TEWEN  =    -52937.07546034
  -Hartree energ DENC   =    -13544.77738570
  -exchange      EXHF   =         0.00000000
  -V(xc)+E(xc)   XCENC  =      3220.02246201
  PAW double counting   =     50594.51003143   -49994.65612350
  entropy T*S    EENTRO =        -0.00000000
  eigenvalues    EBANDS =     -6827.04864573
  atomic energy  EATOM  =     64968.54023382
  Solvation  Ediel_sol  =         0.00000000
  ---------------------------------------------------
  free energy    TOTEN  =     -1047.08692837 eV

  energy without entropy =    -1047.08692837  energy(sigma->0) =    -1047.08692837


--------------------------------------------------------------------------------------------------------




--------------------------------------- Iteration      1(   5)  ---------------------------------------


     EDDAV:  cpu time   46.1592: real time   46.3444
       DOS:  cpu time    0.0010: real time    0.0010
    CHARGE:  cpu time    1.1238: real time    1.1269
    MIXING:  cpu time    0.0038: real time    0.0040
    --------------------------------------------
      LOOP:  cpu time   47.2878: real time   47.4763

 eigenvalue-minimisations  : 14360
 total energy-change (2. order) :-0.4425366E+01  (-0.4422943E+01)
 number of electron     864.0000007 magnetization 
 augmentation part      133.5604317 magnetization 

 Broyden mixing:
  rms(total) = 0.83110E+01    rms(broyden)= 0.83104E+01
  rms(prec ) = 0.99222E+01
  weight for this iteration     100.00

 Free energy of the ion-electron system (eV)
  ---------------------------------------------------
  alpha Z        PSCENC =      3473.39795963
  Ewald energy   TEWEN  =    -52937.07546034
  -Hartree energ DENC   =    -13544.77738570
  -exchange      EXHF   =         0.00000000
  -V(xc)+E(xc)   XCENC  =      3220.02246201
  PAW double counting   =     50594.51003143   -49994.65612350
  entropy T*S    EENTRO =        -0.00000000
  eigenvalues    EBANDS =     -6831.47401164
  atomic energy  EATOM  =     64968.54023382
  Solvation  Ediel_sol  =         0.00000000
  ---------------------------------------------------
  free energy    TOTEN  =     -1051.51229429 eV

  energy without entropy =    -1051.51229429  energy(sigma->0) =    -1051.51229429


--------------------------------------------------------------------------------------------------------




--------------------------------------- Iteration      1(   6)  ---------------------------------------


    POTLOK:  cpu time    0.0863: real time    0.0943
    SETDIJ:  cpu time    0.2879: real time    0.2888
     EDDAV:  cpu time   34.2464: real time   34.4375
       DOS:  cpu time    0.0011: real time    0.0011
    CHARGE:  cpu time    1.1154: real time    1.1201
    MIXING:  cpu time    0.0046: real time    0.0046
    --------------------------------------------
      LOOP:  cpu time   35.7417: real time   35.9465

 eigenvalue-minimisations  :  9864
 total energy-change (2. order) : 0.1310028E+03  (-0.5731763E+02)
 number of electron     864.0000007 magnetization 
 augmentation part      121.6985556 magnetization 

 Broyden mixing:
  rms(total) = 0.34392E+01    rms(broyden)= 0.34384E+01
  rms(prec ) = 0.36322E+01
  weight for this iteration     100.00

 eigenvalues of (default mixing * dielectric matrix)
  average eigenvalue GAMMA=   1.0777
  1.0777

 Free energy of the ion-electron system (eV)
  ---------------------------------------------------
  alpha Z        PSCENC =      3473.39795963
  Ewald energy   TEWEN  =    -52937.07546034
  -Hartree energ DENC   =    -14714.49402586
  -exchange      EXHF   =         0.00000000
  -V(xc)+E(xc)   XCENC  =      3301.85366086
  PAW double counting   =     65582.36280452   -65121.77528181
  entropy T*S    EENTRO =        -0.00000000
  eigenvalues    EBANDS =     -5473.31936061
  atomic energy  EATOM  =     64968.54023382
  Solvation  Ediel_sol  =         0.00000000
  ---------------------------------------------------
  free energy    TOTEN  =      -920.50946980 eV

  energy without entropy =     -920.50946980  energy(sigma->0) =     -920.50946980


--------------------------------------------------------------------------------------------------------




--------------------------------------- Iteration      1(   7)  ---------------------------------------


    POTLOK:  cpu time    0.0868: real time    0.0931
    SETDIJ:  cpu time    0.2873: real time    0.2887
     EDDAV:  cpu time   38.1540: real time   38.3598
       DOS:  cpu time    0.0011: real time    0.0011
    CHARGE:  cpu time    1.1161: real time    1.1195
    MIXING:  cpu time    0.0030: real time    0.0030
    --------------------------------------------
      LOOP:  cpu time   39.6484: real time   39.8651

 eigenvalue-minimisations  : 11408
 total energy-change (2. order) :-0.2374146E+01  (-0.6126105E+01)
 number of electron     864.0000007 magnetization 
 augmentation part      120.1055111 magnetization 

 Broyden mixing:
  rms(total) = 0.16531E+01    rms(broyden)= 0.16531E+01
  rms(prec ) = 0.17971E+01
  weight for this iteration     100.00

 eigenvalues of (default mixing * dielectric matrix)
  average eigenvalue GAMMA=   1.2539
  1.2539  1.2539

 Free energy of the ion-electron system (eV)
  ---------------------------------------------------
  alpha Z        PSCENC =      3473.39795963
  Ewald energy   TEWEN  =    -52937.07546034
  -Hartree energ DENC   =    -14775.16870739
  -exchange      EXHF   =         0.00000000
  -V(xc)+E(xc)   XCENC  =      3306.34002865
  PAW double counting   =     79043.06998623   -78643.47583454
  entropy T*S    EENTRO =        -0.00000000
  eigenvalues    EBANDS =     -5358.51182185
  atomic energy  EATOM  =     64968.54023382
  Solvation  Ediel_sol  =         0.00000000
  ---------------------------------------------------
  free energy    TOTEN  =      -922.88361579 eV

  energy without entropy =     -922.88361579  energy(sigma->0) =     -922.88361579


--------------------------------------------------------------------------------------------------------




--------------------------------------- Iteration      1(   8)  ---------------------------------------


    POTLOK:  cpu time    0.0881: real time    0.0950
    SETDIJ:  cpu time    0.2881: real time    0.2888
     EDDAV:  cpu time   36.1244: real time   36.2676
       DOS:  cpu time    0.0010: real time    0.0010
    CHARGE:  cpu time    1.1153: real time    1.1184
    MIXING:  cpu time    0.0032: real time    0.0032
    --------------------------------------------
      LOOP:  cpu time   37.6201: real time   37.7741

 eigenvalue-minimisations  : 10656
 total energy-change (2. order) : 0.7412950E+00  (-0.9116064E+00)
 number of electron     864.0000007 magnetization 
 augmentation part      120.4715421 magnetization 

 Broyden mixing:
  rms(total) = 0.66761E+00    rms(broyden)= 0.66753E+00
  rms(prec ) = 0.77094E+00
  weight for this iteration     100.00

 eigenvalues of (default mixing * dielectric matrix)
  average eigenvalue GAMMA=   1.3771
  2.1454  0.9929  0.9929

 Free energy of the ion-electron system (eV)
  ---------------------------------------------------
  alpha Z        PSCENC =      3473.39795963
  Ewald energy   TEWEN  =    -52937.07546034
  -Hartree energ DENC   =    -14730.77681640
  -exchange      EXHF   =         0.00000000
  -V(xc)+E(xc)   XCENC  =      3303.64633944
  PAW double counting   =     86449.18924232   -86085.99289527
  entropy T*S    EENTRO =        -0.00000000
  eigenvalues    EBANDS =     -5363.07092397
  atomic energy  EATOM  =     64968.54023382
  Solvation  Ediel_sol  =         0.00000000
  ---------------------------------------------------
  free energy    TOTEN  =      -922.14232077 eV

  energy without entropy =     -922.14232077  energy(sigma->0) =     -922.14232077


--------------------------------------------------------------------------------------------------------




--------------------------------------- Iteration      1(   9)  ---------------------------------------


    POTLOK:  cpu time    0.0865: real time    0.0946
    SETDIJ:  cpu time    0.2877: real time    0.2886
     EDDAV:  cpu time   34.8579: real time   34.9846
       DOS:  cpu time    0.0013: real time    0.0013
    CHARGE:  cpu time    1.1147: real time    1.1177
    MIXING:  cpu time    0.0033: real time    0.0033
    --------------------------------------------
      LOOP:  cpu time   36.3513: real time   36.4901

 eigenvalue-minimisations  : 10064
 total energy-change (2. order) : 0.2109670E+00  (-0.1873718E+00)
 number of electron     864.0000007 magnetization 
 augmentation part      119.8967705 magnetization 

 Broyden mixing:
  rms(total) = 0.18958E+00    rms(broyden)= 0.18956E+00
  rms(prec ) = 0.22197E+00
  weight for this iteration     100.00

 eigenvalues of (default mixing * dielectric matrix)
  average eigenvalue GAMMA=   1.3839
  2.3095  1.3011  0.9625  0.9625

 Free energy of the ion-electron system (eV)
  ---------------------------------------------------
  alpha Z        PSCENC =      3473.39795963
  Ewald energy   TEWEN  =    -52937.07546034
  -Hartree energ DENC   =    -14788.40338754
  -exchange      EXHF   =         0.00000000
  -V(xc)+E(xc)   XCENC  =      3308.08584165
  PAW double counting   =     91993.75117381   -91654.42892862
  entropy T*S    EENTRO =        -0.00000000
  eigenvalues    EBANDS =     -5285.79878620
  atomic energy  EATOM  =     64968.54023382
  Solvation  Ediel_sol  =         0.00000000
  ---------------------------------------------------
  free energy    TOTEN  =      -921.93135379 eV

  energy without entropy =     -921.93135379  energy(sigma->0) =     -921.93135379


--------------------------------------------------------------------------------------------------------




--------------------------------------- Iteration      1(  10)  ---------------------------------------


    POTLOK:  cpu time    0.0856: real time    0.0943
    SETDIJ:  cpu time    0.2880: real time    0.2888
     EDDAV:  cpu time   37.9490: real time   38.0963
       DOS:  cpu time    0.0011: real time    0.0011
    CHARGE:  cpu time    1.1183: real time    1.1213
    MIXING:  cpu time    0.0038: real time    0.0038
    --------------------------------------------
      LOOP:  cpu time   39.4458: real time   39.6055

 eigenvalue-minimisations  : 11328
 total energy-change (2. order) :-0.6625284E-01  (-0.8505035E-01)
 number of electron     864.0000007 magnetization 
 augmentation part      119.7484804 magnetization 

 Broyden mixing:
  rms(total) = 0.13914E+00    rms(broyden)= 0.13911E+00
  rms(prec ) = 0.15849E+00
  weight for this iteration     100.00

 eigenvalues of (default mixing * dielectric matrix)
  average eigenvalue GAMMA=   1.3196
  2.4028  1.2825  1.1927  0.8600  0.8600

 Free energy of the ion-electron system (eV)
  ---------------------------------------------------
  alpha Z        PSCENC =      3473.39795963
  Ewald energy   TEWEN  =    -52937.07546034
  -Hartree energ DENC   =    -14794.89527634
  -exchange      EXHF   =         0.00000000
  -V(xc)+E(xc)   XCENC  =      3308.64339574
  PAW double counting   =     92684.67577256   -92347.90179508
  entropy T*S    EENTRO =        -0.00000000
  eigenvalues    EBANDS =     -5277.38243662
  atomic energy  EATOM  =     64968.54023382
  Solvation  Ediel_sol  =         0.00000000
  ---------------------------------------------------
  free energy    TOTEN  =      -921.99760663 eV

  energy without entropy =     -921.99760663  energy(sigma->0) =     -921.99760663


--------------------------------------------------------------------------------------------------------




--------------------------------------- Iteration      1(  11)  ---------------------------------------


    POTLOK:  cpu time    0.0873: real time    0.0946
    SETDIJ:  cpu time    0.2878: real time    0.2888
     EDDAV:  cpu time   38.5095: real time   38.6955
       DOS:  cpu time    0.0013: real time    0.0013
    CHARGE:  cpu time    1.1180: real time    1.1210
    MIXING:  cpu time    0.0035: real time    0.0035
    --------------------------------------------
      LOOP:  cpu time   40.0074: real time   40.2045

 eigenvalue-minimisations  : 11488
 total energy-change (2. order) : 0.2352203E-02  (-0.1348247E-01)
 number of electron     864.0000007 magnetization 
 augmentation part      119.7084691 magnetization 

 Broyden mixing:
  rms(total) = 0.70894E-01    rms(broyden)= 0.70887E-01
  rms(prec ) = 0.79431E-01
  weight for this iteration     100.00

 eigenvalues of (default mixing * dielectric matrix)
  average eigenvalue GAMMA=   1.3861
  2.3771  2.0781  1.0046  1.0046  0.9261  0.9261

 Free energy of the ion-electron system (eV)
  ---------------------------------------------------
  alpha Z        PSCENC =      3473.39795963
  Ewald energy   TEWEN  =    -52937.07546034
  -Hartree energ DENC   =    -14800.69696421
  -exchange      EXHF   =         0.00000000
  -V(xc)+E(xc)   XCENC  =      3309.04961775
  PAW double counting   =     92584.75891603   -92247.55069578
  entropy T*S    EENTRO =        -0.00000000
  eigenvalues    EBANDS =     -5272.41886133
  atomic energy  EATOM  =     64968.54023382
  Solvation  Ediel_sol  =         0.00000000
  ---------------------------------------------------
  free energy    TOTEN  =      -921.99525442 eV

  energy without entropy =     -921.99525442  energy(sigma->0) =     -921.99525442


--------------------------------------------------------------------------------------------------------




--------------------------------------- Iteration      1(  12)  ---------------------------------------


    POTLOK:  cpu time    0.0846: real time    0.0931
    SETDIJ:  cpu time    0.2877: real time    0.2884
     EDDAV:  cpu time   35.8972: real time   36.1207
       DOS:  cpu time    0.0010: real time    0.0010
    CHARGE:  cpu time    1.1243: real time    1.1276
    MIXING:  cpu time    0.0033: real time    0.0033
    --------------------------------------------
      LOOP:  cpu time   37.3981: real time   37.6342

 eigenvalue-minimisations  : 10488
 total energy-change (2. order) :-0.1511194E-02  (-0.3226639E-02)
 number of electron     864.0000007 magnetization 
 augmentation part      119.7315311 magnetization 

 Broyden mixing:
  rms(total) = 0.19597E-01    rms(broyden)= 0.19589E-01
  rms(prec ) = 0.24374E-01
  weight for this iteration     100.00

 eigenvalues of (default mixing * dielectric matrix)
  average eigenvalue GAMMA=   1.3934
  2.4907  2.4907  1.0224  1.0224  0.9348  0.8965  0.8965

 Free energy of the ion-electron system (eV)
  ---------------------------------------------------
  alpha Z        PSCENC =      3473.39795963
  Ewald energy   TEWEN  =    -52937.07546034
  -Hartree energ DENC   =    -14799.86293863
  -exchange      EXHF   =         0.00000000
  -V(xc)+E(xc)   XCENC  =      3308.96118381
  PAW double counting   =     92318.20812951   -91979.31351428
  entropy T*S    EENTRO =        -0.00000000
  eigenvalues    EBANDS =     -5274.85235914
  atomic energy  EATOM  =     64968.54023382
  Solvation  Ediel_sol  =         0.00000000
  ---------------------------------------------------
  free energy    TOTEN  =      -921.99676562 eV

  energy without entropy =     -921.99676562  energy(sigma->0) =     -921.99676562


--------------------------------------------------------------------------------------------------------




--------------------------------------- Iteration      1(  13)  ---------------------------------------


    POTLOK:  cpu time    0.0848: real time    0.0938
    SETDIJ:  cpu time    0.2878: real time    0.2885
     EDDAV:  cpu time   39.6576: real time   39.8362
       DOS:  cpu time    0.0011: real time    0.0011
    CHARGE:  cpu time    1.1240: real time    1.1270
    MIXING:  cpu time    0.0038: real time    0.0038
    --------------------------------------------
      LOOP:  cpu time   41.1590: real time   41.3505

 eigenvalue-minimisations  : 12072
 total energy-change (2. order) :-0.7021886E-03  (-0.5120593E-03)
 number of electron     864.0000007 magnetization 
 augmentation part      119.7335991 magnetization 

 Broyden mixing:
  rms(total) = 0.10725E-01    rms(broyden)= 0.10724E-01
  rms(prec ) = 0.13252E-01
  weight for this iteration     100.00

 eigenvalues of (default mixing * dielectric matrix)
  average eigenvalue GAMMA=   1.3688
  2.6068  2.5180  1.1244  1.1244  0.9093  0.9093  0.8791  0.8791

 Free energy of the ion-electron system (eV)
  ---------------------------------------------------
  alpha Z        PSCENC =      3473.39795963
  Ewald energy   TEWEN  =    -52937.07546034
  -Hartree energ DENC   =    -14801.27567601
  -exchange      EXHF   =         0.00000000
  -V(xc)+E(xc)   XCENC  =      3309.03415522
  PAW double counting   =     92210.29647581   -91870.58751589
  entropy T*S    EENTRO =        -0.00000000
  eigenvalues    EBANDS =     -5274.32764005
  atomic energy  EATOM  =     64968.54023382
  Solvation  Ediel_sol  =         0.00000000
  ---------------------------------------------------
  free energy    TOTEN  =      -921.99746781 eV

  energy without entropy =     -921.99746781  energy(sigma->0) =     -921.99746781


--------------------------------------------------------------------------------------------------------




--------------------------------------- Iteration      1(  14)  ---------------------------------------


    POTLOK:  cpu time    0.0865: real time    0.0942
    SETDIJ:  cpu time    0.2879: real time    0.2889
     EDDAV:  cpu time   37.5097: real time   37.6671
       DOS:  cpu time    0.0011: real time    0.0011
    CHARGE:  cpu time    1.1217: real time    1.1248
    MIXING:  cpu time    0.0037: real time    0.0037
    --------------------------------------------
      LOOP:  cpu time   39.0105: real time   39.1798

 eigenvalue-minimisations  : 11096
 total energy-change (2. order) :-0.8697224E-04  (-0.2184661E-03)
 number of electron     864.0000007 magnetization 
 augmentation part      119.7286874 magnetization 

 Broyden mixing:
  rms(total) = 0.77540E-02    rms(broyden)= 0.77532E-02
  rms(prec ) = 0.88668E-02
  weight for this iteration     100.00

 eigenvalues of (default mixing * dielectric matrix)
  average eigenvalue GAMMA=   1.3203
  2.7316  2.4639  1.2758  0.9837  0.9837  0.9050  0.9050  0.8170  0.8170

 Free energy of the ion-electron system (eV)
  ---------------------------------------------------
  alpha Z        PSCENC =      3473.39795963
  Ewald energy   TEWEN  =    -52937.07546034
  -Hartree energ DENC   =    -14802.13200848
  -exchange      EXHF   =         0.00000000
  -V(xc)+E(xc)   XCENC  =      3309.08201864
  PAW double counting   =     92206.54019447   -91866.62719468
  entropy T*S    EENTRO =        -0.00000000
  eigenvalues    EBANDS =     -5273.72329785
  atomic energy  EATOM  =     64968.54023382
  Solvation  Ediel_sol  =         0.00000000
  ---------------------------------------------------
  free energy    TOTEN  =      -921.99755478 eV

  energy without entropy =     -921.99755478  energy(sigma->0) =     -921.99755478


--------------------------------------------------------------------------------------------------------




--------------------------------------- Iteration      1(  15)  ---------------------------------------


    POTLOK:  cpu time    0.0846: real time    0.0928
    SETDIJ:  cpu time    0.2879: real time    0.2886
     EDDAV:  cpu time   48.6794: real time   49.5658
       DOS:  cpu time    0.0012: real time    0.0012
    CHARGE:  cpu time    1.0981: real time    1.1012
    MIXING:  cpu time    0.0043: real time    0.0043
    --------------------------------------------
      LOOP:  cpu time   50.1555: real time   51.0540

 eigenvalue-minimisations  : 11344
 total energy-change (2. order) : 0.1209287E-04  (-0.3090684E-04)
 number of electron     864.0000007 magnetization 
 augmentation part      119.7302930 magnetization 

 Broyden mixing:
  rms(total) = 0.47020E-02    rms(broyden)= 0.47015E-02
  rms(prec ) = 0.54247E-02
  weight for this iteration     100.00

 eigenvalues of (default mixing * dielectric matrix)
  average eigenvalue GAMMA=   1.3993
  2.8841  2.3015  2.3015  0.9724  0.9871  0.9871  0.9024  0.9024  0.8774  0.8774

 Free energy of the ion-electron system (eV)
  ---------------------------------------------------
  alpha Z        PSCENC =      3473.39795963
  Ewald energy   TEWEN  =    -52937.07546034
  -Hartree energ DENC   =    -14802.33639618
  -exchange      EXHF   =         0.00000000
  -V(xc)+E(xc)   XCENC  =      3309.09209974
  PAW double counting   =     92214.52498303   -91874.57230051
  entropy T*S    EENTRO =        -0.00000000
  eigenvalues    EBANDS =     -5273.56866188
  atomic energy  EATOM  =     64968.54023382
  Solvation  Ediel_sol  =         0.00000000
  ---------------------------------------------------
  free energy    TOTEN  =      -921.99754268 eV

  energy without entropy =     -921.99754268  energy(sigma->0) =     -921.99754268


--------------------------------------------------------------------------------------------------------




--------------------------------------- Iteration      1(  16)  ---------------------------------------


    POTLOK:  cpu time    0.0915: real time    0.0921
    SETDIJ:  cpu time    0.2880: real time    0.2887
     EDDAV:  cpu time   35.1185: real time   35.2566
       DOS:  cpu time    0.0010: real time    0.0010
    CHARGE:  cpu time    1.1158: real time    1.1188
    MIXING:  cpu time    0.0042: real time    0.0042
    --------------------------------------------
      LOOP:  cpu time   36.6190: real time   36.7614

 eigenvalue-minimisations  : 10240
 total energy-change (2. order) : 0.1788283E-04  (-0.1147086E-04)
 number of electron     864.0000007 magnetization 
 augmentation part      119.7273206 magnetization 

 Broyden mixing:
  rms(total) = 0.10387E-02    rms(broyden)= 0.10367E-02
  rms(prec ) = 0.14457E-02
  weight for this iteration     100.00

 eigenvalues of (default mixing * dielectric matrix)
  average eigenvalue GAMMA=   1.3841
  2.9223  2.3696  2.3696  1.0820  0.9768  0.9836  0.9836  0.8833  0.8833  0.8856
  0.8856

 Free energy of the ion-electron system (eV)
  ---------------------------------------------------
  alpha Z        PSCENC =      3473.39795963
  Ewald energy   TEWEN  =    -52937.07546034
  -Hartree energ DENC   =    -14802.86895898
  -exchange      EXHF   =         0.00000000
  -V(xc)+E(xc)   XCENC  =      3309.12299186
  PAW double counting   =     92237.49150355   -91897.54285078
  entropy T*S    EENTRO =        -0.00000000
  eigenvalues    EBANDS =     -5273.06294356
  atomic energy  EATOM  =     64968.54023382
  Solvation  Ediel_sol  =         0.00000000
  ---------------------------------------------------
  free energy    TOTEN  =      -921.99752480 eV

  energy without entropy =     -921.99752480  energy(sigma->0) =     -921.99752480


--------------------------------------------------------------------------------------------------------




--------------------------------------- Iteration      1(  17)  ---------------------------------------


    POTLOK:  cpu time    0.0874: real time    0.0944
    SETDIJ:  cpu time    0.2877: real time    0.2887
     EDDAV:  cpu time   38.6745: real time   38.9208
       DOS:  cpu time    0.0011: real time    0.0011
    CHARGE:  cpu time    1.1207: real time    1.1238
    MIXING:  cpu time    0.0038: real time    0.0038
    --------------------------------------------
      LOOP:  cpu time   40.1751: real time   40.4326

 eigenvalue-minimisations  : 11672
 total energy-change (2. order) :-0.1175300E-05  (-0.5339576E-05)
 number of electron     864.0000007 magnetization 
 augmentation part      119.7279299 magnetization 

 Broyden mixing:
  rms(total) = 0.88273E-03    rms(broyden)= 0.88092E-03
  rms(prec ) = 0.10529E-02
  weight for this iteration     100.00

 eigenvalues of (default mixing * dielectric matrix)
  average eigenvalue GAMMA=   1.3362
  3.0315  2.3412  2.3412  1.2959  1.0120  1.0120  0.9406  0.8962  0.8962  0.8532
  0.8532  0.5616

 Free energy of the ion-electron system (eV)
[...]
   0.101E+01 0.536E+02 0.744E+02   0.866E+01 -.290E+02 -.708E+02   -.901E+01 -.237E+02 -.720E+01   0.118E-04 0.168E-03 -.250E-03
   -.585E+02 0.259E+02 0.393E+02   0.755E+02 -.394E+02 -.303E+02   -.159E+02 0.135E+02 -.122E+02   0.207E-03 0.604E-04 -.100E-03
   -.118E+02 0.758E+02 0.511E+02   0.262E+02 -.761E+02 -.474E+02   -.133E+02 -.221E+01 -.443E+01   0.319E-04 -.367E-03 -.188E-03
   -.404E+02 0.628E+02 -.734E+01   0.283E+02 -.562E+02 0.743E+01   0.147E+02 -.964E+01 0.388E-01   0.278E-03 -.211E-03 0.120E-03
   0.826E+02 0.840E+01 0.148E+02   -.107E+03 -.103E+02 0.567E+01   0.231E+02 0.305E+01 -.169E+02   -.410E-03 -.152E-03 0.122E-03
   -.219E+02 0.158E+01 -.629E+02   0.138E+02 -.216E+02 0.742E+02   0.921E+01 0.207E+02 -.131E+02   -.533E-04 -.104E-03 -.159E-03
   0.172E+02 0.587E+02 -.526E+02   -.288E+02 -.687E+02 0.443E+02   0.127E+02 0.789E+01 0.884E+01   -.251E-04 -.203E-03 -.933E-04
   -.187E+02 -.261E+02 0.774E+02   0.161E+02 0.889E+01 -.895E+02   0.568E+01 0.190E+02 0.973E+01   0.143E-04 0.100E-03 -.262E-03
   -.838E+02 -.301E+02 -.291E+02   0.765E+02 0.295E+02 0.429E+02   0.942E+01 0.690E+00 -.156E+02   0.287E-03 0.179E-03 -.909E-04
   0.596E+02 0.270E+02 -.436E+02   -.682E+02 -.445E+02 0.568E+02   0.713E+01 0.190E+02 -.127E+02   -.255E-04 -.137E-03 -.135E-03
   0.143E+02 -.355E+02 0.369E+02   -.146E+02 0.392E+02 -.358E+02   -.844E+00 -.538E+01 -.314E+01   -.108E-04 0.568E-04 0.180E-03
   -.838E+01 0.341E+02 -.507E+01   0.180E+01 -.449E+02 0.137E+02   0.752E+01 0.136E+02 -.987E+01   -.612E-04 0.225E-04 -.508E-04
   0.158E+02 0.134E+02 0.360E+01   -.889E+01 -.130E+02 0.817E+01   -.694E+01 0.462E+00 -.992E+01   -.126E-03 -.197E-03 0.667E-04
   0.114E+02 0.783E+02 -.904E+02   -.213E+02 -.803E+02 0.808E+02   0.794E+01 -.273E+01 0.109E+02   0.559E-04 -.310E-03 0.102E-03
   -.218E+02 0.532E+02 0.837E+01   0.945E+01 -.718E+02 -.241E+02   0.113E+02 0.147E+02 0.140E+02   -.115E-03 -.474E-03 -.424E-03
   0.580E+02 -.354E+02 0.367E+02   -.684E+02 0.376E+02 -.313E+02   0.102E+02 -.633E+00 -.766E+01   -.232E-06 -.124E-03 0.101E-03
   0.104E+03 -.410E+02 0.364E+02   -.121E+03 0.448E+02 -.222E+02   0.168E+02 -.437E+01 -.165E+02   -.296E-03 0.922E-04 0.223E-03
   -.289E+02 0.178E+01 0.364E+02   0.226E+02 -.963E+01 -.383E+02   0.662E+01 0.700E+01 -.739E+00   0.141E-03 -.199E-04 -.183E-03
   -.330E+02 -.363E+02 0.271E+01   0.641E+02 0.440E+02 0.280E+01   -.302E+02 -.548E+01 -.906E+01   0.351E-03 0.168E-03 0.111E-03
   -.172E+02 -.444E+02 0.319E+02   0.795E+01 0.457E+02 -.486E+02   0.970E+01 -.270E+01 0.174E+02   -.115E-03 -.287E-04 -.213E-03
   0.614E+02 -.652E+02 0.793E+02   -.825E+02 0.837E+02 -.849E+02   0.205E+02 -.173E+02 0.649E+01   -.441E-03 0.432E-03 -.107E-03
   0.305E+00 -.147E+02 0.462E+01   0.185E+01 0.205E+02 -.196E+02   -.660E+00 -.591E+01 0.174E+02   0.175E-03 0.103E-04 0.826E-06
   -.494E+02 -.148E+02 0.165E+02   0.629E+02 0.406E+01 -.237E+01   -.150E+02 0.116E+02 -.167E+02   -.167E-03 0.479E-04 -.108E-03
   -.802E+01 -.703E+02 -.896E+02   0.172E+01 0.700E+02 0.869E+02   0.295E+01 -.816E+00 0.760E+01   0.147E-03 0.141E-03 0.865E-04
   -.789E+02 0.454E+01 0.594E+02   0.956E+02 -.432E+01 -.723E+02   -.149E+02 0.132E+01 0.114E+02   0.256E-03 -.154E-03 -.204E-03
   0.534E+02 -.761E+02 -.798E+01   -.591E+02 0.726E+02 0.281E+01   0.519E+01 0.518E+01 0.559E+01   -.175E-03 0.105E-03 -.221E-03
   -.833E+00 -.433E+02 0.265E+01   0.227E+01 0.475E+02 0.796E+01   -.319E+01 -.363E+01 -.138E+02   0.170E-03 -.101E-03 0.809E-04
   -.617E+02 0.202E+02 -.277E+02   0.710E+02 -.301E+02 0.117E+02   -.928E+01 0.982E+01 0.164E+02   0.104E-03 -.150E-03 -.426E-04
   -.509E+02 0.213E+02 -.277E+02   0.498E+02 -.208E+02 0.132E+02   0.114E+01 -.127E+01 0.170E+02   0.204E-03 -.238E-03 -.235E-03
   0.707E+02 0.937E+02 0.354E+02   -.935E+02 -.957E+02 -.318E+02   0.225E+02 -.147E+01 -.746E+01   0.148E-04 -.217E-03 -.516E-05
   0.444E+02 0.981E+02 0.805E+02   -.320E+02 -.102E+03 -.760E+02   -.165E+02 0.192E+01 -.785E+01   -.237E-05 -.401E-03 -.316E-03
   0.100E+02 -.422E+02 0.986E+02   -.428E+01 0.253E+02 -.986E+02   -.590E+01 0.210E+02 -.111E+01   0.217E-03 -.218E-03 0.130E-03
   0.148E+01 -.106E+02 -.228E+02   -.925E+01 0.715E+01 0.391E+01   0.979E+01 0.425E+01 0.208E+02   0.135E-03 0.103E-03 -.330E-03
   0.249E+02 0.269E+02 0.166E+02   -.173E+02 -.298E+02 -.150E+02   -.984E+01 0.363E+01 -.191E+01   -.150E-03 -.316E-04 -.423E-04
   0.140E+01 0.313E+02 0.253E+02   0.288E+01 -.208E+02 -.891E+00   -.598E+01 -.898E+01 -.236E+02   -.422E-04 0.134E-03 0.180E-03
   -.487E+02 0.410E+02 0.252E+02   0.488E+02 -.439E+02 -.402E+02   -.118E+01 -.148E+01 0.122E+02   0.230E-04 -.198E-03 0.130E-04
   0.754E+02 0.938E+02 -.867E+01   -.796E+02 -.109E+03 -.168E+02   0.183E+01 0.122E+02 0.256E+02   -.119E-04 0.972E-04 -.131E-03
   -.322E+02 -.394E+02 0.939E+02   0.324E+02 0.334E+02 -.122E+03   -.610E+00 0.409E+01 0.246E+02   0.243E-04 0.561E-04 -.364E-03
   0.379E+02 0.481E+02 0.751E+02   -.486E+02 -.360E+02 -.814E+02   0.973E+01 -.136E+02 0.660E+01   -.180E-03 -.288E-04 -.894E-04
   -.472E+02 0.839E+02 -.647E+02   0.735E+02 -.106E+03 0.672E+02   -.219E+02 0.186E+02 0.915E+00   0.286E-03 -.229E-03 0.141E-03
   -.180E+02 -.346E+02 -.453E+01   0.156E+02 0.221E+02 0.133E+01   0.549E+01 0.117E+02 0.531E+01   0.298E-04 -.121E-03 0.131E-03
   0.109E+03 0.158E+02 -.903E+02   -.107E+03 -.401E+01 0.798E+02   -.583E+01 -.150E+02 0.156E+02   -.296E-03 -.107E-03 0.258E-03
   -.800E+02 -.185E+02 -.342E+02   0.715E+02 0.182E+02 0.368E+02   0.102E+02 0.158E+01 -.271E+01   0.598E-05 0.290E-03 0.218E-03
   0.233E+02 0.804E+01 0.237E+02   -.310E+02 -.130E+02 -.787E+01   0.534E+01 0.324E+01 -.152E+02   0.139E-03 0.842E-04 0.256E-03
   0.179E+02 0.373E+01 0.117E+02   -.138E+02 0.828E+01 -.117E+02   -.415E+01 -.121E+02 -.191E+01   0.152E-03 0.917E-04 -.578E-04
   -.979E+02 -.366E+02 0.545E+01   0.900E+02 0.339E+02 -.206E+02   0.130E+02 0.264E+01 0.174E+02   0.248E-03 0.261E-03 0.201E-03
   0.664E+02 0.461E+02 0.359E+01   -.621E+02 -.627E+02 0.472E+01   -.476E+01 0.172E+02 -.103E+02   -.470E-03 0.705E-05 -.147E-03
   0.784E+02 -.186E+02 0.344E+02   -.838E+02 0.134E+02 -.422E+02   0.500E+01 0.818E+01 0.718E+01   -.991E-04 0.910E-05 0.670E-04
 -----------------------------------------------------------------------------------------------
   0.179E+02 -.155E+03 -.155E+03   -.270E-12 -.185E-12 -.838E-12   -.179E+02 0.155E+03 0.155E+03   0.115E-02 -.131E-02 -.376E-03
 
 
 POSITION                                       TOTAL-FORCE (eV/Angst)
 -----------------------------------------------------------------------------------
      5.60410     10.50731      6.78032        -0.564152     -2.169314      1.131591
      1.58670      6.52686      6.42098         2.268805      0.484604     -0.433429
      8.05955      0.35911      4.08730         0.270460      1.571578     -1.676786
      7.51400      4.65732      0.64637         0.062171      0.698409     -2.574651
     10.06838      8.94160      5.41349         1.213861      1.313993      0.202599
      4.32929      3.94062      7.55830        -4.282597      3.881142     -3.034372
      9.29342     10.29607     10.51845         1.666289      0.940696     -0.628831
     10.35964      5.51720      9.06201         0.511374      1.285773      1.379005
      2.47861      6.12073     10.07874        -0.585868      1.923952     -1.977423
      9.00692      6.59190      2.82616        -0.874686      0.238372      1.331668
      6.49729      2.12206      8.36032         1.600060     -1.274852      0.119980
      5.76418      3.01012      2.56214        -2.141110     -0.358468     -1.807880
      5.97365      1.90747      5.40296        -2.568011      3.540859     -0.609747
      0.32004      7.93490      0.47635        -0.126928     -0.266354     -1.068071
      0.17251      4.40346      3.90828         1.139025     -1.851327      2.344407
     10.78123      1.46269      1.70765         0.424733      0.965134      0.508580
      1.13600     10.31827      2.68824         1.946238     -0.151136      2.429558
      6.59934      4.97547      4.88190         2.530137      1.589578      2.599545
      5.49436      7.15015      9.99153        -0.201312     -0.821723      0.858308
      0.27285      0.45109      7.57639        -0.582760     -0.042869      1.271604
      9.28801      3.17397      6.59734        -0.156960     -0.206910     -1.948975
      7.84035      8.20410      7.97107        -0.676177     -0.411245     -0.571580
      2.69746      5.36279      1.94001         0.635003     -0.845969      0.483879
      4.25909      7.86721      4.26864        -2.435748     -1.880927      1.768620
      3.15167      9.14145      8.76915        -0.875845      0.985413      0.720079
      6.19483      9.19425      1.61838         0.262531      0.281710      0.594719
      1.52934      3.25779     10.73405        -1.066323     -1.376529     -0.454163
      2.13537      9.62444      5.64908         1.361979      2.869133      4.749524
      1.20901      3.70120      7.40401        -0.163561     -2.969350     -4.385642
      4.50208      7.21926      7.18903         3.176829     -2.522265     -1.930663
     11.00064      8.50760      8.23080         0.653773      0.624075     -0.073464
      1.13043      0.28314     10.55148        -0.359432      1.072850     -2.591044
      6.38906     10.31023      9.78866        -0.792696     -0.676929     -3.511560
      0.13787      0.99639      4.78621        -0.433678      2.128410     -3.485965
      7.52147      0.83362      0.99272        -0.877125      0.889346     -2.158502
      4.63529     10.86560      3.87805        -1.745823      2.378269     -0.014031
      8.36480      7.73697     10.85663        -1.049239     -4.608131      0.196141
      9.06599      2.59470      9.87583         2.713413      0.389937     -1.168076
      7.22933      8.33130      4.88048        -2.773488     -0.888934      0.004352
     10.82483      5.07909      1.01312        -0.670476     -1.546688      1.497222
      4.03876      1.21305      9.65869         0.130542     -1.747561      1.315662
      7.24699      5.03998      8.33421        -5.509089      0.451356      2.850809
      3.03154      2.26191      3.77762        -1.814807     -1.691634      0.597421
      2.95000      1.08829      7.02692        -1.642016      2.259116     -5.167471
      3.24277      0.70885      1.22253         5.383751     -0.073107      6.907479
      8.71386      3.00926      2.84814         1.058072      1.315337     12.327676
      0.76463      7.43860      3.65888         2.731914     -2.545139      0.992707
      5.88061      6.15258      2.27641        -2.041769      0.803423     -2.913184
      3.27890      8.57599      1.18724         0.361325     -3.611391     -1.793600
      9.61514      6.04494      6.23707         0.469920      3.724546     -1.163491
      9.32260      9.57879      2.49946         2.051526      0.642002     -3.908981
      3.89113      5.12768      4.65742        -2.104585     -7.172265     -5.871256
      4.89786      3.74178     10.61791        -2.713123      7.721236      0.263645
      8.56677      0.00112      6.68021         3.804971     -1.835927      3.609729
      8.35050      1.26831     10.68663         1.051161      1.781238     -0.926469
      8.51996      5.52791      7.50705         1.725327      0.289684     -1.451208
      3.39462      8.30952      6.64142        -0.212042      1.026351     -0.016982
      4.52466      1.30030      7.01754         1.438637      0.487571      1.721702
     10.84224      9.87956      1.24886        -2.094011      1.352413     -0.880674
      3.23884      2.42514      1.99399        -0.988006      0.927719      0.458500
      4.62820      5.76414      3.24487        -1.715025     -2.138233      4.241727
      0.65215      5.45573     10.94498         2.615608      2.580662     -0.308873
      3.45106     10.45634      5.02034         1.288486     -2.015333      1.689209
      4.91529      4.90993      1.09899         2.594739     -2.170636      0.122656
      1.14754      1.61875      3.56966         0.646264      0.276273     -0.362944
      5.58251      9.14410      8.50960         1.497962     -1.441339      2.230796
      7.40781      0.13734      8.63074        -0.205054     -3.661244      0.528983
     10.98701      5.56339      6.95651        -0.569146     -3.308363      2.479285
      1.88928      2.14969      7.75704         0.753646     -1.173867      0.004445
      4.66974      1.49231      3.66555         0.551786      2.042422      3.235394
      7.60161      1.21379      6.40142         1.281201      1.497477      1.290928
     10.08697      3.89965     10.50665        -3.206216     -3.541753      0.881139
      1.77231      0.57381      0.86383        -4.269373     -0.930647     -0.277464
      3.88809      6.06994      5.76587         2.830364      6.595947      7.512826
     10.27130      8.54260      3.33985         3.816586     -2.509693     -0.702682
      2.31850      4.32508      6.53057         1.412398      2.177544      0.164243
      0.91231     10.63110      5.17006        -1.846152      4.402119      0.582285
      2.05080      8.27520      2.14212        -3.390642     -0.183718      0.754797
      9.73124      9.88154      7.64192        -1.411917      3.438986      0.732007
      3.81793     10.01652      0.99138         1.479942      2.290795     -1.573270
      4.94266     10.99861      9.25173        -2.419390      3.822357      0.221161
      8.24839      7.16383      5.25683         2.796396     -0.578546      2.250160
      0.90953      9.01640      6.95499         0.301490     -1.154150      0.659635
      7.83180      6.48137      9.70633         0.200484     -0.289756      0.480868
      0.77927      3.78948      1.52374        -2.645061      0.752987      1.811601
      6.02507      8.14925      6.09341        -0.238501      2.258844     -1.789395
      0.14980      6.12799      2.58006         0.801239      1.756494     -2.381922
      9.40834      4.39360      2.70660         0.653480      0.941558     -3.617028
      6.98256      5.08535      2.88099         1.023239      0.068889     -3.280839
      6.01725      6.86327      7.91480         1.022912     -2.463695     -0.779586
      3.30726      4.36927     10.60015         2.638043     -3.131667      0.125695
      6.47270      0.90671      2.11952        -1.513146      1.158199      3.562165
      2.41096     10.70812      7.37335         1.073869      0.636731     -1.797353
      7.86873      9.92642      5.83951         1.077972     -2.168939      0.509790
      4.67208      9.41239      3.22090         3.081628      1.752023     -2.436838
      7.41427      2.85467      4.03630         2.081401      0.054192     -1.750171
      3.76613      6.28044      8.30075        -1.502812      1.501459      0.585795
     10.20789     11.10930      3.45090        -1.083673     -1.656636     -2.097437
     11.02084      6.70973      4.95080         0.938509      2.759363     -1.238203
      8.91427      8.33684      1.14137        -0.063144      0.847956      1.858494
      9.99812      7.78428      7.12615        -1.898749     -4.681456      1.174179
      0.43928     10.35164      9.65455        -1.024410     -3.846175     -1.748308
      7.10965      8.82917     10.60737        -0.278872      1.534795     -2.202259
      6.44093     11.00433      0.12934        -0.398109     -0.540455     -2.279044
      6.29707      7.34801      3.83771         0.325707     -0.842551     -2.635425
      4.25186      1.16693      0.16283         0.911791      2.169861     -3.542382
      2.65256      8.39454     10.75710         0.419847     -1.402479      0.720554
     11.11540      1.39518     10.57779        -0.619306      1.203136      0.876910
      6.60752      6.85545      0.86067         1.493032     -0.082573      2.380986
      0.81871      7.55673      9.25526        -1.500877      0.905177     -2.601165
      9.94382      0.53756      5.66083        -3.351788     -1.105258      4.939957
      9.53115      8.17452      9.82868         1.685284      1.535871     -1.497530
      2.75172      1.51463      5.37669        -0.518298      1.718197      0.416632
      9.95387      2.35083      4.17637        -1.759674      0.539385     -3.212463
      9.65893      1.99209      8.44558         0.023007     -0.104530      0.412361
      0.25479      2.98345      5.98548         0.051744     -0.825420      2.484860
      2.67438      4.09568      4.23370        -0.258125     -3.443639     -3.867101
      6.15549     11.05651      4.83415        -4.086338     -2.191520     -3.363357
      4.19784      7.12559      1.46058        -0.180246      4.002313     -1.131589
      2.41986      0.67964      9.50871         2.022401      0.772307      1.875514
      2.34257      6.47124      3.95163        -2.215126      0.715826     -0.325156
      1.26047      4.23374      8.86209        -1.702009      1.440963      0.850087
      1.60626      8.74887      4.48471        -0.988400     -4.403486     -2.797117
      9.39930      5.08443      5.01760        -2.401485     -3.108770      0.122362
      8.45583      2.26496      1.58278        -0.388810     -1.946985     -3.580912
      9.62537      6.18946      0.62031        -1.059279     -1.419698      0.335157
      6.06801      2.82946     10.84950         4.408119     -3.916747      3.401559
      8.28702     10.60096      1.48360         3.069331     -0.732864      2.110859
      4.60618      2.67322      9.01166        -3.161338     -3.284486      5.080773
      7.83688      3.57427      9.16712         1.580150      1.302345     -0.059333
      3.30808      0.21756      2.76100        -2.411205     -1.708311      0.676412
      5.84337      4.94934      9.79105        -0.041076     -0.107474     -1.843705
      6.25911      4.25576      7.06911         5.157684     -0.019614      2.272260
      4.84812      3.83795      5.23044        -0.467249      0.516695     -1.973308
      8.02661      8.93466      3.49385        -0.338107      2.974279     -0.631880
 -----------------------------------------------------------------------------------
    total drift:                               -0.002541     -0.037318     -0.009325


--------------------------------------------------------------------------------------------------------



  FREE ENERGIE OF THE ION-ELECTRON SYSTEM (eV)
  ---------------------------------------------------
  free  energy   TOTEN  =      -921.99752393 eV

  energy  without entropy=     -921.99752393  energy(sigma->0) =     -921.99752393
 


--------------------------------------------------------------------------------------------------------


    POTLOK:  cpu time    0.3727: real time    0.3737


--------------------------------------------------------------------------------------------------------


     LOOP+:  cpu time  778.6952: real time  783.0328
    4ORBIT:  cpu time    0.0000: real time    0.0000

 total amount of memory used by VASP MPI-rank0   149119. kBytes
=======================================================================

   base      :      30000. kBytes
   nonlr-proj:      21579. kBytes
   fftplans  :      20560. kBytes
   grid      :      10967. kBytes
   one-center:        186. kBytes
   wavefun   :      65827. kBytes
 
  
  
 General timing and accounting informations for this job:
 ========================================================
  
                  Total CPU time used (sec):      795.163
                            User time (sec):      792.115
                          System time (sec):        3.048
                         Elapsed time (sec):      799.651
  
                   Maximum memory used (kb):      268524.
                   Average memory used (kb):           0.
  
                          Minor page faults:        89522
                          Major page faults:            0
                 Voluntary context switches:          387
