 vasp.5.4.4.18Apr17-6-g9f103f2a35 (build Mar 16 2023 09:39:13) complex          
  
 executed on             LinuxIFC date 2024.04.29  18:44:52
 running on   48 total cores
 distrk:  each k-point on   48 cores,    1 groups
 distr:  one band on NCORES_PER_BAND=  12 cores,    4 groups


--------------------------------------------------------------------------------------------------------


 INCAR:
 POTCAR:    PAW_PBE Ca_sv 06Sep2000               
 POTCAR:    PAW_PBE Si 05Jan2001                  
 POTCAR:    PAW_PBE O 08Apr2002                   
 POTCAR:    PAW_PBE Ca_sv 06Sep2000               
   SHA256 =  a47365830e737f14e0e6c5cf1ed81b94e081eecf0a33df105380881bc9da05d5 Ca
   COPYR  = (c) Copyright 06Sep2000 Georg Kresse                                
   COPYR  = This file is part of the software VASP. Any use, copying, and all ot
   COPYR  = If you do not have a valid VASP license, you may not use, copy or di
   VRHFIN =Ca: 3s3p4s                                                           
   LEXCH  = PE                                                                  
   EATOM  =  1006.0909 eV,   73.9456 Ry                                         
                                                                                
   TITEL  = PAW_PBE Ca_sv 06Sep2000                                             
   LULTRA =        F    use ultrasoft PP ?                                      
   IUNSCR =        1    unscreen: 0-lin 1-nonlin 2-no                           
   RPACOR =    2.000    partial core radius                                     
   POMASS =   40.078; ZVAL   =   10.000    mass and valenz                      
   RCORE  =    2.300    outmost cutoff radius                                   
   RWIGS  =    2.500; RWIGS  =    1.323    wigner-seitz radius (au A)           
   ENMAX  =  266.622; ENMIN  =  199.967 eV                                      
   RCLOC  =    1.808    cutoff for local pot                                    
   LCOR   =        T    correct aug charges                                     
   LPAW   =        T    paw PP                                                  
   EAUG   =  420.852                                                            
   RMAX   =    2.359    core radius for proj-oper                               
   RAUG   =    1.300    factor for augmentation sphere                          
   RDEP   =    2.392    radius for radial grids                                 
   RDEPT  =    1.987    core radius for aug-charge                              
                                                                                
   Atomic configuration                                                         
    7 entries                                                                   
     n  l   j            E        occ.                                          
     1  0  0.50     -3949.1705   2.0000                                         
     2  0  0.50      -414.3434   2.0000                                         
     2  1  1.50      -334.7047   6.0000                                         
     3  0  0.50       -47.0896   2.0000                                         
     4  0  0.50        -3.7663   2.0000                                         
     3  1  1.50       -28.0061   6.0000                                         
     3  2  1.50        -4.0817   0.0000                                         
   Description                                                                  
     l       E           TYP  RCUT    TYP  RCUT                                 
     0    -47.0896403     23  2.300                                             
     0     -3.7663320     23  2.300                                             
     1    -28.0060855     23  2.300                                             
     1      6.8029130     23  2.300                                             
     2     -4.0817478     23  2.300                                             
     2      0.4464412     23  2.300                                             
  local pseudopotential read in
  partial core-charges read in
  partial kinetic energy density read in
  atomic valenz-charges read in
  non local Contribution for L=           0  read in
    real space projection operators read in
  non local Contribution for L=           0  read in
    real space projection operators read in
  non local Contribution for L=           1  read in
    real space projection operators read in
  non local Contribution for L=           1  read in
    real space projection operators read in
  non local Contribution for L=           2  read in
    real space projection operators read in
  non local Contribution for L=           2  read in
    real space projection operators read in
    PAW grid and wavefunctions read in
 
   number of l-projection  operators is LMAX  =           6
   number of lm-projection operators is LMMAX =          18
 
 POTCAR:    PAW_PBE Si 05Jan2001                  
   SHA256 =  79d9987ad8750f624c4d6acb2a16d13abf6a777132adc04dc6c8399be72b42bb Si
   COPYR  = (c) Copyright 05Jan2001 Georg Kresse                                
   COPYR  = This file is part of the software VASP. Any use, copying, and all ot
   COPYR  = If you do not have a valid VASP license, you may not use, copy or di
   VRHFIN =Si: s2p2                                                             
   LEXCH  = PE                                                                  
   EATOM  =   103.0669 eV,    7.5752 Ry                                         
                                                                                
   TITEL  = PAW_PBE Si 05Jan2001                                                
   LULTRA =        F    use ultrasoft PP ?                                      
   IUNSCR =        1    unscreen: 0-lin 1-nonlin 2-no                           
   RPACOR =    1.500    partial core radius                                     
   POMASS =   28.085; ZVAL   =    4.000    mass and valenz                      
   RCORE  =    1.900    outmost cutoff radius                                   
   RWIGS  =    2.480; RWIGS  =    1.312    wigner-seitz radius (au A)           
   ENMAX  =  245.345; ENMIN  =  184.009 eV                                      
   ICORE  =        2    local potential                                         
   LCOR   =        T    correct aug charges                                     
   LPAW   =        T    paw PP                                                  
   EAUG   =  322.069                                                            
   DEXC   =    0.000                                                            
   RMAX   =    1.950    core radius for proj-oper                               
   RAUG   =    1.300    factor for augmentation sphere                          
   RDEP   =    1.993    radius for radial grids                                 
   RDEPT  =    1.837    core radius for aug-charge                              
                                                                                
   Atomic configuration                                                         
    6 entries                                                                   
     n  l   j            E        occ.                                          
     1  0  0.50     -1785.8828   2.0000                                         
     2  0  0.50      -139.4969   2.0000                                         
     2  1  1.50       -95.5546   6.0000                                         
     3  0  0.50       -10.8127   2.0000                                         
     3  1  0.50        -4.0811   2.0000                                         
     3  2  1.50        -4.0817   0.0000                                         
   Description                                                                  
     l       E           TYP  RCUT    TYP  RCUT                                 
     0    -10.8127223     23  1.900                                             
     0     -7.6451159     23  1.900                                             
     1     -4.0811372     23  1.900                                             
     1      2.4879257     23  1.900                                             
     2     -4.0817478      7  1.900                                             
  local pseudopotential read in
  partial core-charges read in
  partial kinetic energy density read in
  atomic valenz-charges read in
  non local Contribution for L=           0  read in
    real space projection operators read in
  non local Contribution for L=           0  read in
    real space projection operators read in
  non local Contribution for L=           1  read in
    real space projection operators read in
  non local Contribution for L=           1  read in
    real space projection operators read in
    PAW grid and wavefunctions read in
 
   number of l-projection  operators is LMAX  =           4
   number of lm-projection operators is LMMAX =           8
 
 POTCAR:    PAW_PBE O 08Apr2002                   
   SHA256 =  818f92134a0a090dccd8ba1447fa70422a3b330e708bb4f08108d8ae51209ddf O/
   COPYR  = (c) Copyright 08Apr2002 Georg Kresse                                
   COPYR  = This file is part of the software VASP. Any use, copying, and all ot
   COPYR  = If you do not have a valid VASP license, you may not use, copy or di
   VRHFIN =O: s2p4                                                              
   LEXCH  = PE                                                                  
   EATOM  =   432.3788 eV,   31.7789 Ry                                         
                                                                                
   TITEL  = PAW_PBE O 08Apr2002                                                 
   LULTRA =        F    use ultrasoft PP ?                                      
   IUNSCR =        1    unscreen: 0-lin 1-nonlin 2-no                           
   RPACOR =    1.200    partial core radius                                     
   POMASS =   16.000; ZVAL   =    6.000    mass and valenz                      
   RCORE  =    1.520    outmost cutoff radius                                   
   RWIGS  =    1.550; RWIGS  =    0.820    wigner-seitz radius (au A)           
   ENMAX  =  400.000; ENMIN  =  300.000 eV                                      
   ICORE  =        2    local potential                                         
   LCOR   =        T    correct aug charges                                     
   LPAW   =        T    paw PP                                                  
   EAUG   =  605.392                                                            
   DEXC   =    0.000                                                            
   RMAX   =    1.553    core radius for proj-oper                               
   RAUG   =    1.300    factor for augmentation sphere                          
   RDEP   =    1.550    radius for radial grids                                 
   RDEPT  =    1.329    core radius for aug-charge                              
                                                                                
   Atomic configuration                                                         
    4 entries                                                                   
     n  l   j            E        occ.                                          
     1  0  0.50      -514.6923   2.0000                                         
     2  0  0.50       -23.9615   2.0000                                         
     2  1  0.50        -9.0305   4.0000                                         
     3  2  1.50        -9.5241   0.0000                                         
   Description                                                                  
     l       E           TYP  RCUT    TYP  RCUT                                 
     0    -23.9615318     23  1.200                                             
     0     -9.5240782     23  1.200                                             
     1     -9.0304911     23  1.520                                             
     1      8.1634956     23  1.520                                             
     2     -9.5240782      7  1.500                                             
  local pseudopotential read in
  partial core-charges read in
  partial kinetic energy density read in
  kinetic energy density of atom read in
  atomic valenz-charges read in
  non local Contribution for L=           0  read in
    real space projection operators read in
  non local Contribution for L=           0  read in
    real space projection operators read in
  non local Contribution for L=           1  read in
    real space projection operators read in
  non local Contribution for L=           1  read in
    real space projection operators read in
    PAW grid and wavefunctions read in
 
   number of l-projection  operators is LMAX  =           4
   number of lm-projection operators is LMMAX =           8
 
 Optimization of the real space projectors (new method)

 maximal supplied QI-value         = 16.25
 optimisation between [QCUT,QGAM] = [ 12.51, 25.03] = [ 43.85,175.40] Ry 
 Optimized for a Real-space Cutoff    1.47 Angstroem

   l    n(q)    QCUT    max X(q) W(low)/X(q) W(high)/X(q)  e(spline) 
   0     11    12.514    11.817    0.25E-04    0.32E-05    0.87E-07
   0     11    12.514     8.461    0.39E-04    0.59E-05    0.18E-06
   1     11    12.514     3.957    0.97E-05    0.57E-05    0.28E-07
   1     11    12.514     4.314    0.42E-04    0.14E-04    0.23E-06
   2     10    12.514    14.565    0.79E-04    0.50E-03    0.16E-05
   2     10    12.514    14.552    0.75E-04    0.48E-03    0.15E-05
 Optimization of the real space projectors (new method)

 maximal supplied QI-value         = 19.84
 optimisation between [QCUT,QGAM] = [ 12.50, 25.00] = [ 43.76,175.03] Ry 
 Optimized for a Real-space Cutoff    1.16 Angstroem

   l    n(q)    QCUT    max X(q) W(low)/X(q) W(high)/X(q)  e(spline) 
   0      9    12.501   159.560    0.10E-03    0.83E-04    0.71E-07
   0      9    12.501   115.863    0.99E-04    0.81E-04    0.70E-07
   1      8    12.501    88.339    0.20E-03    0.25E-03    0.76E-07
   1      8    12.501    48.592    0.20E-03    0.24E-03    0.75E-07
 Optimization of the real space projectors (new method)

 maximal supplied QI-value         = 24.76
 optimisation between [QCUT,QGAM] = [ 12.38, 25.00] = [ 42.90,175.06] Ry 
 Optimized for a Real-space Cutoff    1.16 Angstroem

   l    n(q)    QCUT    max X(q) W(low)/X(q) W(high)/X(q)  e(spline) 
   0      9    12.378    20.381    0.16E-03    0.67E-05    0.31E-06
   0      9    12.378    15.268    0.17E-03    0.81E-05    0.33E-06
   1      8    12.378     5.964    0.20E-03    0.16E-03    0.30E-06
   1      8    12.378     5.382    0.18E-03    0.14E-03    0.26E-06
  PAW_PBE Ca_sv 06Sep2000               :
 energy of atom  1       EATOM=-1006.0909
 kinetic energy error for atom=    0.0012 (will be added to EATOM!!)
  PAW_PBE Si 05Jan2001                  :
 energy of atom  2       EATOM= -103.0669
 kinetic energy error for atom=    0.0003 (will be added to EATOM!!)
  PAW_PBE O 08Apr2002                   :
 energy of atom  3       EATOM= -432.3788
 kinetic energy error for atom=    0.0168 (will be added to EATOM!!)
 
 
 POSCAR: Ca Si  O                                
  positions in direct lattice
  No initial velocities read in
 exchange correlation table for  LEXCH =        8
   RHO(1)=    0.500       N(1)  =     2000
   RHO(2)=  100.500       N(2)  =     4000
 


--------------------------------------------------------------------------------------------------------


 ion  position               nearest neighbor table
   1  0.207  0.772  0.890-  92 2.19 119 2.39  85 2.42  29 2.63  14 3.08  30 3.15
   2  0.914  0.679  0.243-  70 2.01  84 2.18 121 2.41 106 2.41 109 2.53  46 2.71   7 2.86  40 3.03
                             3 3.05   9 3.13
   3  0.789  0.901  0.181-  70 2.03  64 2.25   2 3.05  40 3.07
   4  0.573  0.059  0.838-  62 2.03 107 2.13 117 2.21 130 2.30  53 2.46  12 3.02
   5  0.823  0.149  0.301-  75 2.03  95 2.13 122 2.29 104 2.54  48 2.80  33 2.96  26 3.10
   6  0.929  0.005  0.849-  58 2.05 117 2.31  87 2.33 119 2.51  92 2.54  19 3.11  15 3.15
   7  0.093  0.847  0.228- 109 2.20 116 2.45  80 2.46  93 2.52   2 2.86   8 3.05  33 3.08  40 3.14

   8  0.305  0.982  0.303-  80 2.01 103 2.16  93 2.37 123 2.42   7 3.05  49 3.16
   9  0.061  0.624  0.462- 106 1.86 116 2.11 124 2.33 111 2.43 121 2.46  81 2.55  50 2.78  46 2.89
                            35 2.96   2 3.13
  10  0.218  0.357  0.457- 135 2.08 113 2.15  56 2.16  67 2.21  90 2.34  32 2.83  41 3.08  52 3.10
                            20 3.17
  11  0.690  0.727  0.923-  60 2.29  63 2.31 120 2.43  83 2.56  28 3.06
  12  0.471  0.290  0.902-  98 1.97  62 1.97  68 2.18  94 2.24 130 2.39 105 2.42   4 3.02  23 3.11

  13  0.646  0.498  0.730-  73 1.91 129 2.28 118 2.28  61 2.40  36 2.40  96 2.43 125 2.45  31 2.71
                            47 2.99  37 3.01
  14  0.010  0.598  0.924- 110 2.11  66 2.24  63 2.27 101 2.46  40 2.47 109 2.51  92 2.55  37 2.90
                             1 3.08  51 3.11
  15  0.988  0.802  0.679- 101 1.94  81 2.00  58 2.10 124 2.48  46 3.03   6 3.15
  16  0.629  0.791  0.382-  57 2.21 112 2.21 126 2.22  84 2.31  72 2.36  39 2.87  46 2.92  49 2.96
                            31 3.13
  17  0.457  0.519  0.517- 129 1.99 118 2.30  79 2.38 113 2.40  41 2.77  31 2.90  52 3.13
  18  0.352  0.140  0.613-  99 2.05 127 2.16 113 2.41 130 2.44  94 2.46  45 2.89  30 2.91  42 2.97
                            52 2.99  41 3.13
  19  0.065  0.091  0.062- 131 2.18 102 2.45 103 2.52  32 3.03  25 3.07   6 3.11
  20  0.969  0.284  0.542-  56 2.13  91 2.22  67 2.39  87 2.56  45 2.74  48 2.99  22 3.12  10 3.17

  21  0.168  0.528  0.161- 134 2.09  66 2.09 116 2.22  97 2.33 109 2.54  34 3.03  50 3.16
  22  0.865  0.270  0.789-  82 1.95  89 2.20 125 2.21  87 2.24 132 2.25 117 2.52  36 2.89  37 3.09
                            20 3.12
  23  0.371  0.265  0.148- 105 2.06 135 2.24  68 2.39  32 2.71  12 3.11  54 3.11
  24  0.263  0.861  0.554-  85 2.05  99 2.09  80 2.38  79 2.39 127 2.42  42 2.91  50 3.08
  25  0.181  0.296  0.945-  68 2.21 131 2.23  71 2.23 105 2.42  34 3.02  19 3.07
  26  0.831  0.003  0.524-  91 1.98 122 2.16 126 2.48  88 2.55  46 2.74  43 2.81   5 3.10  33 3.16

  27  0.750  0.494  0.437-  96 2.11  84 2.26  61 2.31  95 2.32 129 2.55 106 2.56  39 3.04  48 3.10

  28  0.514  0.857  0.070-  60 1.57  65 1.77  76 1.78 100 2.02 112 2.08  83 2.53  54 2.91  44 3.01
                            11 3.06
  29  0.416  0.755  0.805-  74 1.59 100 1.62  85 1.72 128 1.78 107 2.53   1 2.63  31 2.89
  30  0.230  0.027  0.801- 119 1.53  69 1.66  71 1.76 127 2.02  45 2.48  54 2.82  18 2.91   1 3.15

  31  0.585  0.700  0.631- 108 1.45 129 1.47  72 1.63  74 1.63  43 2.54  13 2.71  29 2.89  17 2.90
                            42 2.95  16 3.13
  32  0.160  0.249  0.246- 135 1.53 103 1.67 131 1.73  67 1.76  23 2.71  10 2.83  33 2.93  48 2.98
                            19 3.03
  33  0.051  0.063  0.376-  93 1.48  75 1.64  91 1.65 103 2.20  32 2.93   5 2.96   7 3.08  26 3.16

  34  0.307  0.523  0.940- 134 1.47  68 1.68 128 1.72 110 2.08  25 3.02  21 3.03
  35  0.148  0.556  0.691- 124 1.60  90 1.77 110 1.78 111 1.80  37 2.89  41 2.90   9 2.96
  36  0.748  0.457  0.904- 125 1.57  73 1.65 114 1.71 120 1.74  13 2.40  82 2.46  51 2.64  38 2.83
                            22 2.89  37 2.97
  37  0.903  0.522  0.712-  96 1.63 101 1.63  82 1.69  73 1.86 111 1.94  35 2.89  14 2.90  36 2.97
                            13 3.01  22 3.09
  38  0.584  0.467  0.084-  98 1.52  86 1.56 120 1.60  55 1.61  39 2.35 114 2.56  36 2.83  44 3.00

  39  0.639  0.601  0.225-  86 1.49  83 1.54  57 1.61  84 1.66  38 2.35  44 2.41  55 2.45  16 2.87
                            27 3.04
  40  0.951  0.784  0.008-  64 1.53  92 1.57  63 1.77 109 1.92  14 2.47   2 3.03   3 3.07   7 3.14

  41  0.341  0.398  0.687-  90 1.46  94 1.55 118 1.59 113 2.13  17 2.77  35 2.90  10 3.08  18 3.13

  42  0.500  0.934  0.584-  99 1.53  72 1.58  88 1.71  59 1.72 107 2.50  43 2.71  24 2.91  31 2.95
                            18 2.97
  43  0.703  0.876  0.684- 108 1.53 107 1.73  58 1.83  88 1.85 126 2.12  31 2.54  42 2.71  26 2.81

  44  0.439  0.647  0.199-  97 1.58  65 1.62  55 1.63  57 1.66  39 2.41  50 2.75  38 3.00  28 3.01

  45  0.112  0.156  0.678-  56 1.55  87 1.61  71 1.63 127 1.73  30 2.48  20 2.74  18 2.89
  46  0.872  0.784  0.447- 106 1.58  70 1.58 126 1.65  81 1.79   2 2.71  26 2.74   9 2.89  16 2.92
                            15 3.03
  47  0.608  0.264  0.628- 132 1.58 130 1.62  61 1.65 133 1.81  52 2.91  13 2.99
  48  0.937  0.362  0.299- 121 1.63  95 1.71 104 1.73  67 1.94   5 2.80  51 2.94  32 2.98  20 2.99
                            27 3.10
  49  0.571  0.033  0.329-  59 1.68  78 1.69 122 1.78 112 1.94  16 2.96   8 3.16
  50  0.270  0.681  0.361-  80 1.65  79 1.68 116 1.71  97 1.79  44 2.75   9 2.78  24 3.08  21 3.16

  51  0.907  0.385  0.049- 114 1.47 104 1.68  66 1.71  89 1.73  36 2.64  48 2.94  14 3.11
  52  0.466  0.267  0.422- 113 1.67 133 1.68  77 1.69 123 1.70  47 2.91  18 2.99  10 3.10  17 3.13

  53  0.697  0.140  0.989- 115 1.52 117 1.62  62 1.77   4 2.46
  54  0.347  0.035  0.013-  76 1.45 105 1.57  69 1.59 102 1.88  30 2.82  28 2.91  23 3.11
  55  0.471  0.541  0.113-  38 1.61  44 1.63  39 2.45
  56  0.143  0.246  0.586-  45 1.55  20 2.13  10 2.16
  57  0.535  0.646  0.305-  39 1.61  44 1.66  16 2.21
  58  0.844  0.885  0.751-  43 1.83   6 2.05  15 2.10
  59  0.504  0.967  0.439-  49 1.68  42 1.72
  60  0.622  0.896  0.997-  28 1.57  11 2.29
  61  0.639  0.384  0.558-  47 1.65  27 2.31  13 2.40
  62  0.547  0.159  0.979-  53 1.77  12 1.97   4 2.03
  63  0.854  0.667  0.018-  40 1.77  14 2.27  11 2.31
  64  0.941  0.904  0.060-  40 1.53   3 2.25
  65  0.410  0.763  0.128-  44 1.62  28 1.77
  66  0.024  0.472  0.069-  51 1.71  21 2.09  14 2.24
  67  0.070  0.284  0.363-  32 1.76  48 1.94  10 2.21  20 2.39
  68  0.340  0.391  0.989-  34 1.68  12 2.18  25 2.21  23 2.39
  69  0.351  0.022  0.877-  54 1.59  30 1.66
  70  0.868  0.828  0.318-  46 1.58   2 2.01   3 2.03
  71  0.177  0.168  0.802-  45 1.63  30 1.76  25 2.23
  72  0.527  0.803  0.557-  42 1.58  31 1.63  16 2.36
  73  0.779  0.556  0.807-  36 1.65  37 1.86  13 1.91
  74  0.494  0.669  0.734-  29 1.59  31 1.63
  75  0.959  0.043  0.272-  33 1.64   5 2.03
  76  0.440  0.990  0.083-  54 1.45  28 1.78
  77  0.462  0.383  0.334-  52 1.69
  78  0.571  0.141  0.231-  49 1.69
  79  0.332  0.679  0.491-  50 1.68  17 2.38  24 2.39
  80  0.262  0.823  0.353-  50 1.65   8 2.01  24 2.38   7 2.46
  81  0.005  0.830  0.511-  46 1.79  15 2.00   9 2.55
  82  0.935  0.421  0.812-  37 1.69  22 1.95  36 2.46
  83  0.649  0.700  0.138-  39 1.54  28 2.53  11 2.56
  84  0.743  0.644  0.313-  39 1.66   2 2.18  27 2.26  16 2.31
  85  0.315  0.819  0.717-  29 1.72  24 2.05   1 2.42
  86  0.650  0.476  0.201-  39 1.49  38 1.56
  87  0.978  0.137  0.707-  45 1.61  22 2.24   6 2.33  20 2.56
  88  0.630  0.998  0.611-  42 1.71  43 1.85  26 2.55
  89  0.908  0.258  0.973-  51 1.73  22 2.20
  90  0.245  0.456  0.630-  41 1.46  35 1.77  10 2.34
  91  0.959  0.105  0.476-  33 1.65  26 1.98  20 2.22
  92  0.024  0.815  0.898-  40 1.57   1 2.19   6 2.54  14 2.55
  93  0.129  0.967  0.405-  33 1.48   8 2.37   7 2.52
  94  0.338  0.289  0.763-  41 1.55  12 2.24  18 2.46
  95  0.817  0.317  0.373-  48 1.71   5 2.13  27 2.32
  96  0.813  0.519  0.605-  37 1.63  27 2.11  13 2.43
  97  0.334  0.585  0.259-  44 1.58  50 1.79  21 2.33
  98  0.552  0.349  0.038-  38 1.52  12 1.97
  99  0.384  0.967  0.634-  42 1.53  18 2.05  24 2.09
 100  0.421  0.818  0.929-  29 1.62  28 2.02
 101  0.928  0.657  0.738-  37 1.63  15 1.94  14 2.46
 102  0.224  0.953  0.080-  54 1.88  19 2.45
 103  0.180  0.107  0.245-  32 1.67   8 2.16  33 2.20  19 2.52
 104  0.874  0.317  0.172-  51 1.68  48 1.73   5 2.54
 105  0.336  0.170  0.003-  54 1.57  23 2.06  12 2.42  25 2.42
 106  0.904  0.652  0.449-  46 1.58   9 1.86   2 2.41  27 2.56
 107  0.586  0.888  0.775-  43 1.73   4 2.13  42 2.50  29 2.53
 108  0.682  0.746  0.695-  31 1.45  43 1.53
 109  0.071  0.713  0.096-  40 1.92   7 2.20  14 2.51   2 2.53  21 2.54
 110  0.158  0.531  0.842-  35 1.78  34 2.08  14 2.11
 111  0.033  0.485  0.615-  35 1.80  37 1.94   9 2.43
 112  0.568  0.895  0.236-  49 1.94  28 2.08  16 2.21
 113  0.386  0.325  0.526-  52 1.67  41 2.13  10 2.15  17 2.40  18 2.41
 114  0.800  0.453  0.041-  51 1.47  36 1.71  38 2.56
 115  0.797  0.121  0.072-  53 1.52
 116  0.139  0.655  0.300-  50 1.71   9 2.11  21 2.22   7 2.45
 117  0.756  0.101  0.869-  53 1.62   4 2.21   6 2.31  22 2.52
 118  0.452  0.475  0.710-  41 1.59  13 2.28  17 2.30
 119  0.139  0.966  0.873-  30 1.53   1 2.39   6 2.51
 120  0.639  0.531  0.975-  38 1.60  36 1.74  11 2.43
 121  0.976  0.496  0.317-  48 1.63   2 2.41   9 2.46
 122  0.713  0.007  0.381-  49 1.78  26 2.16   5 2.29
 123  0.371  0.162  0.385-  52 1.70   8 2.42
 124  0.155  0.679  0.630-  35 1.60   9 2.33  15 2.48
 125  0.701  0.339  0.857-  36 1.57  22 2.21  13 2.45
 126  0.755  0.804  0.525-  46 1.65  43 2.12  16 2.22  26 2.48
 127  0.195  0.042  0.632-  45 1.73  30 2.02  18 2.16  24 2.42
 128  0.380  0.612  0.847-  34 1.72  29 1.78
 129  0.603  0.594  0.565-  31 1.47  17 1.99  13 2.28  27 2.55
 130  0.520  0.207  0.719-  47 1.62   4 2.30  12 2.39  18 2.44
 131  0.096  0.269  0.114-  32 1.73  19 2.18  25 2.23
 132  0.731  0.217  0.660-  47 1.58  22 2.25
 133  0.562  0.191  0.498-  52 1.68  47 1.81
 134  0.271  0.601  0.033-  34 1.47  21 2.09
 135  0.252  0.336  0.283-  32 1.53  10 2.08  23 2.24
 

IMPORTANT INFORMATION: All symmetrisations will be switched off!
NOSYMM: (Re-)initialisation of all symmetry stuff for point group C_1.

 
 

Automatic generation of k-mesh.
 generate k-points for:    2    2    2
Space group operators:
 irot       det(A)        alpha          n_x          n_y          n_z        tau_x        tau_y        tau_z
    1     1.000000     0.000001     1.000000     0.000000     0.000000     0.000000     0.000000     0.000000
 
 Subroutine IBZKPT returns following result:
 ===========================================
 
 Found      8 irreducible k-points:
 
 Following reciprocal coordinates:
            Coordinates               Weight
  0.000000  0.000000  0.000000      1.000000
  0.500000  0.000000  0.000000      1.000000
  0.000000  0.500000  0.000000      1.000000
  0.500000  0.500000  0.000000      1.000000
  0.000000  0.000000  0.500000      1.000000
  0.500000  0.000000  0.500000      1.000000
  0.000000  0.500000  0.500000      1.000000
  0.500000  0.500000  0.500000      1.000000
 
 Following cartesian coordinates:
            Coordinates               Weight
  0.000000  0.000000  0.000000      1.000000
  0.042999  0.000000  0.000000      1.000000
  0.000000  0.042999  0.000000      1.000000
  0.042999  0.042999  0.000000      1.000000
  0.000000  0.000000  0.042999      1.000000
  0.042999  0.000000  0.042999      1.000000
  0.000000  0.042999  0.042999      1.000000
  0.042999  0.042999  0.042999      1.000000
 


--------------------------------------------------------------------------------------------------------




 Dimension of arrays:
   k-points           NKPTS =      8   k-points in BZ     NKDIM =      8   number of bands    NBANDS=    520
   number of dos      NEDOS =    301   number of ions     NIONS =    135
   non local maximal  LDIM  =      6   non local SUM 2l+1 LMDIM =     18
   total plane-waves  NPLWV = 884736
   max r-space proj   IRMAX =   7548   max aug-charges    IRDMAX= 214954
   dimension x,y,z NGX =    96 NGY =   96 NGZ =   96
   dimension x,y,z NGXF=   192 NGYF=  192 NGZF=  192
   support grid    NGXF=   384 NGYF=  384 NGZF=  384
   ions per type =              27  27  81
   NGX,Y,Z   is equivalent  to a cutoff of  13.72, 13.72, 13.72 a.u.
   NGXF,Y,Z  is equivalent  to a cutoff of  27.45, 27.45, 27.45 a.u.

 SYSTEM =  unknown system                          
 POSCAR =  Ca Si  O                                

 Startparameter for this run:
   NWRITE =      2    write-flag & timer
   PREC   = a         normal or accurate (medium, high low for compatibility)
   ISTART =      0    job   : 0-new  1-cont  2-samecut
   ICHARG =      2    charge: 1-file 2-atom 10-const
   ISPIN  =      1    spin polarized calculation?
   LNONCOLLINEAR =      F non collinear calculations
   LSORBIT =      F    spin-orbit coupling
   INIWAV =      1    electr: 0-lowe 1-rand  2-diag
   LASPH  =      F    aspherical Exc in radial PAW
   METAGGA=      F    non-selfconsistent MetaGGA calc.

 Electronic Relaxation 1
   ENCUT  =  600.0 eV  44.10 Ry    6.64 a.u.  23.22 23.22 23.22*2*pi/ulx,y,z
   ENINI  =  600.0     initial cutoff
   ENAUG  =  605.4 eV  augmentation charge cutoff
   NELM   =     60;   NELMIN=  2; NELMDL= -5     # of ELM steps 
   EDIFF  = 0.1E-05   stopping-criterion for ELM
   LREAL  =      T    real-space projection
   NLSPLINE    = F    spline interpolate recip. space projectors
   LCOMPAT=      F    compatible to vasp.4.4
   GGA_COMPAT  = T    GGA compatible to vasp.4.4-vasp.4.6
   LMAXPAW     = -100 max onsite density
   LMAXMIX     =    2 max onsite mixed and CHGCAR
   VOSKOWN=      0    Vosko Wilk Nusair interpolation
   ROPT   =   -0.00025  -0.00025  -0.00025
 Ionic relaxation
   EDIFFG = -.1E-01   stopping-criterion for IOM
   NSW    =      1    number of steps for IOM
   NBLOCK =      1;   KBLOCK =      1    inner block; outer block 
   IBRION =     -1    ionic relax: 0-MD 1-quasi-New 2-CG
   NFREE  =      0    steps in history (QN), initial steepest desc. (CG)
   ISIF   =      2    stress and relaxation
   IWAVPR =     10    prediction:  0-non 1-charg 2-wave 3-comb
   ISYM   =      0    0-nonsym 1-usesym 2-fastsym
   LCORR  =      T    Harris-Foulkes like correction to forces

   POTIM  = 1.0000    time-step for ionic-motion
   TEIN   =    0.0    initial temperature
   TEBEG  =    0.0;   TEEND  =   0.0 temperature during run
   SMASS  =  -3.00    Nose mass-parameter (am)
   estimated Nose-frequenzy (Omega)   =  0.10E-29 period in steps =****** mass=  -0.309E-26a.u.
   SCALEE = 1.0000    scale energy and forces
   NPACO  =    256;   APACO  = 16.0  distance and # of slots for P.C.
   PSTRESS=    0.0 pullay stress

  Mass of Ions in am
   POMASS =  40.08 28.09 16.00
  Ionic Valenz
   ZVAL   =  10.00  4.00  6.00
  Atomic Wigner-Seitz radii
   RWIGS  =  -1.00 -1.00 -1.00
  virtual crystal weights 
   VCA    =   1.00  1.00  1.00
   NELECT =     864.0000    total number of electrons
   NUPDOWN=      -1.0000    fix difference up-down

 DOS related values:
   EMIN   =  10.00;   EMAX   =-10.00  energy-range for DOS
   EFERMI =   0.00
   ISMEAR =     0;   SIGMA  =   0.05  broadening in eV -4-tet -1-fermi 0-gaus

 Electronic relaxation 2 (details)
   IALGO  =     38    algorithm
   LDIAG  =      T    sub-space diagonalisation (order eigenvalues)
   LSUBROT=      F    optimize rotation matrix (better conditioning)
   TURBO    =      0    0=normal 1=particle mesh
   IRESTART =      0    0=no restart 2=restart with 2 vectors
   NREBOOT  =      0    no. of reboots
   NMIN     =      0    reboot dimension
   EREF     =   0.00    reference energy to select bands
   IMIX   =      4    mixing-type and parameters
     AMIX     =   0.40;   BMIX     =  1.00
     AMIX_MAG =   1.60;   BMIX_MAG =  1.00
     AMIN     =   0.10
     WC   =   100.;   INIMIX=   1;  MIXPRE=   1;  MAXMIX= -45

 Intra band minimization:
   WEIMIN = 0.0000     energy-eigenvalue tresh-hold
   EBREAK =  0.48E-09  absolut break condition
   DEPER  =   0.30     relativ break condition  

   TIME   =   0.40     timestep for ELM

  volume/ion in A,a.u.               =      11.65        78.60
  Fermi-wavevector in a.u.,A,eV,Ry     =   1.340915  2.533962 24.463997  1.798053
  Thomas-Fermi vector in A             =   2.469190
 
 Write flags
   LWAVE        =      F    write WAVECAR
   LDOWNSAMPLE  =      F    k-point downsampling of WAVECAR
   LCHARG       =      F    write CHGCAR
   LVTOT        =      F    write LOCPOT, total local potential
   LVHAR        =      F    write LOCPOT, Hartree potential only
   LELF         =      F    write electronic localiz. function (ELF)
   LORBIT       =      0    0 simple, 1 ext, 2 COOP (PROOUT), +10 PAW based schemes


 Dipole corrections
   LMONO  =      F    monopole corrections only (constant potential shift)
   LDIPOL =      F    correct potential (dipole corrections)
   IDIPOL =      0    1-x, 2-y, 3-z, 4-all directions 
   EPSILON=  1.0000000 bulk dielectric constant

 Exchange correlation treatment:
   GGA     =    --    GGA type
   LEXCH   =     8    internal setting for exchange type
   VOSKOWN=      0    Vosko Wilk Nusair interpolation
   LHFCALC =     F    Hartree Fock is set to
   LHFONE  =     F    Hartree Fock one center treatment
   AEXX    =    0.0000 exact exchange contribution

 Linear response parameters
   LEPSILON=     F    determine dielectric tensor
   LRPA    =     F    only Hartree local field effects (RPA)
   LNABLA  =     F    use nabla operator in PAW spheres
   LVEL    =     F    velocity operator in full k-point grid
   LINTERFAST=   F  fast interpolation
   KINTER  =     0    interpolate to denser k-point grid
   CSHIFT  =0.1000    complex shift for real part using Kramers Kronig
   OMEGAMAX=  -1.0    maximum frequency
   DEG_THRESHOLD= 0.2000000E-02 threshold for treating states as degnerate
   RTIME   =   -0.100 relaxation time in fs
  (WPLASMAI=    0.000 imaginary part of plasma frequency in eV, 0.658/RTIME)
   DFIELD  = 0.0000000 0.0000000 0.0000000 field for delta impulse in time
 
 Orbital magnetization related:
   ORBITALMAG=     F  switch on orbital magnetization
   LCHIMAG   =     F  perturbation theory with respect to B field
   DQ        =  0.001000  dq finite difference perturbation B field
   LLRAUG    =     F  two centre corrections for induced B field



--------------------------------------------------------------------------------------------------------


 Static calculation
 charge density and potential will be updated during run
 non-spin polarized calculation
 Variant of blocked Davidson
 Davidson routine will perform the subspace rotation
 perform sub-space diagonalisation
    after iterative eigenvector-optimisation
 modified Broyden-mixing scheme, WC =      100.0
 initial mixing is a Kerker type mixing with AMIX =  0.4000 and BMIX =      1.0000
 Hartree-type preconditioning will be used
 using additional bands           88
 real space projection scheme for non local part
 use partial core corrections
 calculate Harris-corrections to forces 
   (improved forces if not selfconsistent)
 use gradient corrections 
 use of overlap-Matrix (Vanderbilt PP)
 Gauss-broadening in eV      SIGMA  =   0.05


--------------------------------------------------------------------------------------------------------


  energy-cutoff  :      600.00
  volume of cell :     1572.30
      direct lattice vectors                 reciprocal lattice vectors
    11.628173330  0.000000000  0.000000000     0.085998030  0.000000000  0.000000000
     0.000000000 11.628173330  0.000000000     0.000000000  0.085998030  0.000000000
     0.000000000  0.000000000 11.628173330     0.000000000  0.000000000  0.085998030

  length of vectors
    11.628173330 11.628173330 11.628173330     0.085998030  0.085998030  0.085998030


 
 k-points in units of 2pi/SCALE and weight: read from INCAR                         
   0.00000000  0.00000000  0.00000000       0.125
   0.04299902  0.00000000  0.00000000       0.125
   0.00000000  0.04299902  0.00000000       0.125
   0.04299902  0.04299902  0.00000000       0.125
   0.00000000  0.00000000  0.04299902       0.125
   0.04299902  0.00000000  0.04299902       0.125
   0.00000000  0.04299902  0.04299902       0.125
   0.04299902  0.04299902  0.04299902       0.125
 
 k-points in reciprocal lattice and weights: read from INCAR                         
   0.00000000  0.00000000  0.00000000       0.125
   0.50000000  0.00000000  0.00000000       0.125
   0.00000000  0.50000000  0.00000000       0.125
   0.50000000  0.50000000  0.00000000       0.125
   0.00000000  0.00000000  0.50000000       0.125
   0.50000000  0.00000000  0.50000000       0.125
   0.00000000  0.50000000  0.50000000       0.125
   0.50000000  0.50000000  0.50000000       0.125
 
 position of ions in fractional coordinates (direct lattice) 
   0.20687321  0.77200013  0.88966519
   0.91404305  0.67892535  0.24341086
   0.78945780  0.90126707  0.18120142
   0.57283465  0.05920533  0.83835899
   0.82319128  0.14919422  0.30141123
   0.92854251  0.00475548  0.84879323
   0.09269827  0.84716654  0.22821953
   0.30493053  0.98242532  0.30302640
   0.06114403  0.62399168  0.46157739
   0.21769091  0.35723524  0.45705188
   0.68997972  0.72686157  0.92311392
   0.47142880  0.28952579  0.90154363
   0.64568337  0.49771016  0.72963132
   0.01008313  0.59777436  0.92392078
   0.98817005  0.80159362  0.67937104
   0.62901059  0.79118417  0.38218478
   0.45686160  0.51865867  0.51721794
   0.35150357  0.13981184  0.61311706
   0.06545975  0.09082607  0.06188611
   0.96914358  0.28415445  0.54235355
   0.16820347  0.52822314  0.16081263
   0.86518134  0.27016645  0.78931464
   0.37129330  0.26500484  0.14803413
   0.26279646  0.86141360  0.55424407
   0.18147190  0.29639865  0.94452625
   0.83146054  0.00263405  0.52378582
   0.75042445  0.49431183  0.43655250
   0.51439015  0.85719216  0.06952411
   0.41616613  0.75499281  0.80475710
   0.23045062  0.02668208  0.80107009
   0.58516922  0.69985142  0.63142704
   0.16014719  0.24949081  0.24615243
   0.05115496  0.06326586  0.37637294
   0.30720063  0.52326077  0.94045192
   0.14771925  0.55559366  0.69074457
   0.74758841  0.45650073  0.90409316
   0.90265804  0.52178198  0.71220584
   0.58443134  0.46734995  0.08394623
   0.63925377  0.60098208  0.22516226
   0.95086622  0.78421839  0.00753268
   0.34101400  0.39832812  0.68741026
   0.50024499  0.93405385  0.58364910
   0.70255087  0.87609941  0.68388439
   0.43865045  0.64666310  0.19909602
   0.11218983  0.15561091  0.67843752
   0.87180777  0.78384333  0.44727097
   0.60777060  0.26427905  0.62810344
   0.93654350  0.36185796  0.29943755
   0.57074991  0.03317579  0.32927769
   0.27000430  0.68093830  0.36097612
   0.90661384  0.38527981  0.04933327
   0.46590171  0.26718681  0.42151796
   0.69746320  0.14017886  0.98893482
   0.34704497  0.03515037  0.01344878
   0.47077153  0.54096621  0.11305739
   0.14284379  0.24590689  0.58575264
   0.53539392  0.64552696  0.30464920
   0.84440746  0.88468454  0.75116879
   0.50413924  0.96740594  0.43920977
   0.62193682  0.89608485  0.99720274
   0.63909830  0.38380235  0.55797679
   0.54697642  0.15892087  0.97912678
   0.85400584  0.66728696  0.01821214
   0.94109027  0.90391253  0.06037501
   0.40977323  0.76326395  0.12843995
   0.02432835  0.47186089  0.06901220
   0.06957400  0.28424373  0.36266934
   0.34042117  0.39139844  0.98893546
   0.35121885  0.02226566  0.87717674
   0.86844736  0.82784184  0.31832210
   0.17739937  0.16844383  0.80206181
   0.52655748  0.80294116  0.55742472
   0.77852082  0.55565273  0.80746087
   0.49428020  0.66852977  0.73386208
   0.95889024  0.04330022  0.27162439
   0.43952650  0.98998672  0.08334552
   0.46234012  0.38310526  0.33354577
   0.57094149  0.14096238  0.23139024
   0.33248616  0.67876898  0.49135276
   0.26169364  0.82267078  0.35287812
   0.00458676  0.83040506  0.51053957
   0.93490332  0.42126421  0.81221732
   0.64921251  0.70041889  0.13822833
   0.74339418  0.64369870  0.31301255
   0.31454322  0.81851167  0.71740244
   0.64997369  0.47580882  0.20065004
   0.97771411  0.13749108  0.70667870
   0.63005902  0.99786048  0.61131288
   0.90754000  0.25756643  0.97293216
   0.24478268  0.45569390  0.63000311
   0.95896804  0.10526887  0.47603438
   0.02401425  0.81482149  0.89822329
   0.12909493  0.96657730  0.40508439
   0.33827747  0.28876972  0.76259929
   0.81717388  0.31738191  0.37338821
   0.81261414  0.51922462  0.60519585
   0.33366833  0.58532130  0.25887459
   0.55215091  0.34905838  0.03780170
   0.38380033  0.96746492  0.63448209
   0.42072497  0.81770393  0.92891925
   0.92769519  0.65749884  0.73825939
   0.22434237  0.95326344  0.08012251
   0.18006805  0.10725050  0.24514717
   0.87432708  0.31736721  0.17229994
   0.33561124  0.16952515  0.00301711
   0.90398889  0.65176159  0.44852935
   0.58625736  0.88753325  0.77541295
   0.68204683  0.74642882  0.69497183
   0.07064349  0.71303861  0.09631455
   0.15781847  0.53065556  0.84183095
   0.03259484  0.48488021  0.61451416
   0.56787059  0.89532412  0.23581525
   0.38626658  0.32461094  0.52611352
   0.79953367  0.45274874  0.04147960
   0.79717446  0.12066069  0.07184036
   0.13902988  0.65476898  0.30027319
   0.75596287  0.10068940  0.86902886
   0.45191403  0.47497173  0.71041388
   0.13901709  0.96563512  0.87299414
   0.63909268  0.53060334  0.97498049
   0.97570700  0.49569586  0.31727023
   0.71263015  0.00678289  0.38106923
   0.37109835  0.16211585  0.38479178
   0.15506032  0.67904738  0.62999642
   0.70116319  0.33921101  0.85679228
   0.75508186  0.80374346  0.52532055
   0.19524212  0.04180926  0.63195179
   0.37952946  0.61239497  0.84665924
   0.60323518  0.59409223  0.56461686
   0.51956982  0.20737896  0.71910808
   0.09582032  0.26861316  0.11350332
   0.73104378  0.21734182  0.65977286
   0.56214012  0.19144739  0.49848767
   0.27054650  0.60112387  0.03258902
   0.25231896  0.33553592  0.28262099
 
 position of ions in cartesian coordinates  (Angst):
   2.40555752  8.97695136 10.34518099
  10.62865104  7.89466168  2.83042371
   9.17995211 10.48008968  2.10704148
   6.66102058  0.68844982  9.74858360
   9.57221089  1.73485626  3.50486206
  10.79725327  0.05529749  9.86991481
   1.07791156  9.85099935  2.65377631
   3.54578503 11.42381190  3.52364354
   0.71099343  7.25588343  5.36730184
   2.53134761  4.15399331  5.31467849
   8.02320377  8.45207234 10.73412872
   5.48185581  3.36665607 10.48330554
   7.50811812  5.78746001  8.48427951
   0.11724844  6.95102390 10.74351092
  11.49061267  9.32106955  7.89984423
   7.31424411  9.20002666  4.44411085
   5.31246593  6.03105292  6.01429985
   4.08734449  1.62575628  7.12943142
   0.76117727  1.05614123  0.71962244
  11.26936958  3.30419723  6.30658109
   1.95589910  6.14227020  1.86995710
  10.06047863  3.14154227  9.17828741
   4.31746285  3.08152221  1.72136654
   3.05584273 10.01666669  6.44484606
   2.11018671  3.44657491 10.98311491
   9.66836733  0.03062917  6.09067232
   8.72606557  5.74794366  5.07630809
   5.98141781  9.96757897  0.80843841
   4.83925184  8.77918729  9.35785507
   2.67971979  0.31026385  9.31498184
   6.80444915  8.13799361  7.34234311
   1.86221932  2.90112236  2.86230313
   0.59483869  0.73566643  4.37652973
   3.57218215  6.08456692 10.93573793
   1.71770507  6.46053933  8.03209756
   8.69308765  5.30826963 10.51295202
  10.49626415  6.06737131  8.28165292
   6.79586890  5.43442628  0.97614126
   7.43335366  6.98832378  2.61822582
  11.05683726  9.11902732  0.08759128
   3.96536989  4.63182840  7.99332561
   5.81693542 10.86134009  6.78677287
   8.16938328 10.18743578  7.95232626
   5.10070346  7.51951064  2.31512307
   1.30456275  1.80947068  7.88898909
  10.13753189  9.11466615  5.20094435
   7.06726185  3.07308259  7.30369566
  10.89029010  4.20774707  3.48191178
   6.63677893  0.38577389  3.82889808
   3.13965683  7.91806857  4.19749291
  10.54226286  4.48010046  0.57365581
   5.41758581  3.10689455  4.90148389
   8.11022301  1.63002405 11.49950545
   4.03549906  0.40873455  0.15638480
   5.47421300  6.29044889  1.31465095
   1.66101230  2.85944798  6.81123320
   6.22565335  7.50629939  3.54251376
   9.81891632 10.28726521  8.73472087
   5.86221852 11.24916399  5.10720736
   7.23198911 10.41982998 11.59564630
   7.43154578  4.46292029  6.48825081
   6.36033662  1.84795938 11.38545594
   9.93052790  7.75932843  0.21177387
  10.94316076 10.51085160  0.70205103
   4.76491413  8.87536545  1.49352195
   0.28289426  5.48688026  0.80248578
   0.80901854  3.30523531  4.21718198
   3.95847632  4.55124886 11.49951293
   4.08403364  0.25890901 10.19996320
  10.09845645  9.62628836  3.70150454
   2.06283067  1.95869406  9.32651378
   6.12290169  9.33673903  6.48183122
   9.05277504  6.46122622  9.38929498
   5.74757579  7.77378009  8.53347552
  11.15014193  0.50350246  3.15849544
   5.11089036 11.51173715  0.96915612
   5.37617109  4.45481435  3.87852806
   6.63900659  1.63913497  2.69064585
   3.86620668  7.89284337  5.71353506
   3.04301905  9.56615840  4.10332795
   0.05333566  9.65609397  5.93664259
  10.87121789  4.89853328  9.44460383
   7.54915555  8.14459228  1.60734299
   8.64431635  7.48504005  3.63976419
   3.65756309  9.51779552  8.34207988
   7.55800674  5.53278745  2.33319346
  11.36902912  1.59877014  8.21738243
   7.32643553 11.60329459  7.10845211
  10.55303240  2.99502709 11.31342385
   2.84637544  5.29888760  7.32578531
  11.15104664  1.22408471  5.53541024
   0.27924186  9.47488556 10.44469610
   1.50113824 11.23952837  4.71039145
   3.93354910  3.35786438  8.86763675
   9.50223956  3.69057189  4.34182278
   9.44921811  6.03763383  7.03732224
   3.87995322  6.80621753  3.01023862
   6.42050645  4.05891133  0.43956474
   4.46289672 11.24984979  7.37786772
   4.89226286  9.50840306 10.80163404
  10.78740049  7.64551053  8.58460814
   2.60869201 11.08471251  0.93167840
   2.09386245  1.24712737  2.85061381
  10.16682681  3.69040097  2.00353358
   3.90254572  1.97126777  0.03508342
  10.51173954  7.57879676  5.21557706
   6.81710221 10.32039048  9.01663616
   7.93095875  8.67960371  8.08125293
   0.82145474  8.29133657  1.11996233
   1.83514056  6.17055481  9.78895615
   0.37901845  5.63827117  7.14567712
   6.60329760 10.41098406  2.74210057
   4.49157470  3.77463225  6.11773921
   9.29711615  5.26464087  0.48233193
   9.26968275  1.40306343  0.83537213
   1.61666354  7.61376716  3.49162865
   8.79046731  1.17083384 10.10521816
   5.25493463  5.52305366  8.26081575
   1.61651482 11.22857257 10.15132713
   7.43148042  6.16994755 11.33724209
  11.34569010  5.76403733  3.68927322
   8.28658687  0.07887265  4.43113903
   4.31519598  1.88511116  4.47442556
   1.80306824  7.89608065  7.32570752
   8.15324713  3.94440440  9.96292919
   8.78022273  9.34606824  6.10851846
   2.27030921  0.48616530  7.34844493
   4.41323439  7.12103491  9.84510040
   7.01452322  6.90820744  6.56546273
   6.04164790  2.41143845  8.36191337
   1.11421530  3.12348039  1.31983632
   8.50070381  2.52728833  7.67195318
   6.53666272  2.22618339  5.79650100
   3.14596163  6.98997250  0.37895075
   2.93400859  3.90166988  3.28636581
 


--------------------------------------------------------------------------------------------------------


 k-point  1 :   0.0000 0.0000 0.0000  plane waves:   52515
 k-point  2 :   0.5000 0.0000 0.0000  plane waves:   52518
 k-point  3 :   0.0000 0.5000 0.0000  plane waves:   52518
 k-point  4 :   0.5000 0.5000 0.0000  plane waves:   52456
 k-point  5 :   0.0000 0.0000 0.5000  plane waves:   52518
 k-point  6 :   0.5000 0.0000 0.5000  plane waves:   52456
 k-point  7 :   0.0000 0.5000 0.5000  plane waves:   52456
 k-point  8 :   0.5000 0.5000 0.5000  plane waves:   52568

 maximum and minimum number of plane-waves per node :      4420     4326

 maximum number of plane-waves:     52568
 maximum index in each direction: 
   IXMAX=   23   IYMAX=   23   IZMAX=   23
   IXMIN=  -23   IYMIN=  -23   IZMIN=  -23


 real space projection operators:
  total allocation   :      51790.38 KBytes
  max/ min on nodes  :       4394.64       4263.48


 parallel 3D FFT for wavefunctions:
    minimum data exchange during FFTs selected (reduces bandwidth)
 parallel 3D FFT for charge:
    minimum data exchange during FFTs selected (reduces bandwidth)


 total amount of memory used by VASP MPI-rank0   164780. kBytes
=======================================================================

   base      :      30000. kBytes
   nonlr-proj:      22669. kBytes
   fftplans  :      23775. kBytes
   grid      :      12472. kBytes
   one-center:        186. kBytes
   wavefun   :      75678. kBytes
 
     INWAV:  cpu time    0.0000: real time    0.0000
 Broyden mixing: mesh for mixing (old mesh)
   NGX = 47   NGY = 47   NGZ = 47
  (NGX  =192   NGY  =192   NGZ  =192)
  gives a total of 103823 points

 initial charge density was supplied:
 charge density of overlapping atoms calculated
 number of electron     864.0000000 magnetization 
 keeping initial charge density in first step


--------------------------------------------------------------------------------------------------------


 Maximum index for non-local projection operator          685
 Maximum index for augmentation-charges         4879 (set IRDMAX)


--------------------------------------------------------------------------------------------------------


 First call to EWALD:  gamma=   0.152
 Maximum number of real-space cells 3x 3x 3
 Maximum number of reciprocal cells 3x 3x 3

    FEWALD:  cpu time    0.0052: real time    0.0054


--------------------------------------- Iteration      1(   1)  ---------------------------------------


    POTLOK:  cpu time    0.1059: real time    0.1180
    SETDIJ:  cpu time    0.3072: real time    0.3133
     EDDAV:  cpu time   33.3429: real time   34.2902
       DOS:  cpu time    0.0023: real time    0.0023
    --------------------------------------------
      LOOP:  cpu time   33.7584: real time   34.7239

 eigenvalue-minimisations  :  8320
 total energy-change (2. order) : 0.9777649E+04  (-0.4845354E+05)
 number of electron     864.0000000 magnetization 
 augmentation part      864.0000000 magnetization 

 Free energy of the ion-electron system (eV)
  ---------------------------------------------------
  alpha Z        PSCENC =      3039.22321400
  Ewald energy   TEWEN  =    -48510.69927364
  -Hartree energ DENC   =    -16103.10256351
  -exchange      EXHF   =         0.00000000
  -V(xc)+E(xc)   XCENC  =      3194.84229786
  PAW double counting   =     50594.51003143   -49994.65612350
  entropy T*S    EENTRO =        -0.03646797
  eigenvalues    EBANDS =      2589.02774010
  atomic energy  EATOM  =     64968.54023382
  Solvation  Ediel_sol  =         0.00000000
  ---------------------------------------------------
  free energy    TOTEN  =      9777.64908859 eV

  energy without entropy =     9777.68555656  energy(sigma->0) =     9777.66732258


--------------------------------------------------------------------------------------------------------




--------------------------------------- Iteration      1(   2)  ---------------------------------------


     EDDAV:  cpu time   38.4709: real time   38.7064
       DOS:  cpu time    0.0010: real time    0.0010
    --------------------------------------------
      LOOP:  cpu time   38.4719: real time   38.7074

 eigenvalue-minimisations  :  9728
 total energy-change (2. order) :-0.9722868E+04  (-0.9415326E+04)
 number of electron     864.0000000 magnetization 
 augmentation part      864.0000000 magnetization 

 Free energy of the ion-electron system (eV)
  ---------------------------------------------------
  alpha Z        PSCENC =      3039.22321400
  Ewald energy   TEWEN  =    -48510.69927364
  -Hartree energ DENC   =    -16103.10256351
  -exchange      EXHF   =         0.00000000
  -V(xc)+E(xc)   XCENC  =      3194.84229786
  PAW double counting   =     50594.51003143   -49994.65612350
  entropy T*S    EENTRO =        -0.00000000
  eigenvalues    EBANDS =     -7133.87692024
  atomic energy  EATOM  =     64968.54023382
  Solvation  Ediel_sol  =         0.00000000
  ---------------------------------------------------
  free energy    TOTEN  =        54.78089623 eV

  energy without entropy =       54.78089623  energy(sigma->0) =       54.78089623


--------------------------------------------------------------------------------------------------------




--------------------------------------- Iteration      1(   3)  ---------------------------------------


     EDDAV:  cpu time   40.1310: real time   40.3929
       DOS:  cpu time    0.0010: real time    0.0010
    --------------------------------------------
      LOOP:  cpu time   40.1320: real time   40.3939

 eigenvalue-minimisations  : 10296
 total energy-change (2. order) :-0.1053624E+04  (-0.1046221E+04)
 number of electron     864.0000000 magnetization 
 augmentation part      864.0000000 magnetization 

 Free energy of the ion-electron system (eV)
  ---------------------------------------------------
  alpha Z        PSCENC =      3039.22321400
  Ewald energy   TEWEN  =    -48510.69927364
  -Hartree energ DENC   =    -16103.10256351
  -exchange      EXHF   =         0.00000000
  -V(xc)+E(xc)   XCENC  =      3194.84229786
  PAW double counting   =     50594.51003143   -49994.65612350
  entropy T*S    EENTRO =        -0.00000000
  eigenvalues    EBANDS =     -8187.50098967
  atomic energy  EATOM  =     64968.54023382
  Solvation  Ediel_sol  =         0.00000000
  ---------------------------------------------------
  free energy    TOTEN  =      -998.84317320 eV

  energy without entropy =     -998.84317320  energy(sigma->0) =     -998.84317320


--------------------------------------------------------------------------------------------------------




--------------------------------------- Iteration      1(   4)  ---------------------------------------


     EDDAV:  cpu time   43.3643: real time   43.5977
       DOS:  cpu time    0.0010: real time    0.0010
    --------------------------------------------
      LOOP:  cpu time   43.3653: real time   43.5987

 eigenvalue-minimisations  : 11424
 total energy-change (2. order) :-0.5121727E+02  (-0.5103124E+02)
 number of electron     864.0000000 magnetization 
 augmentation part      864.0000000 magnetization 

 Free energy of the ion-electron system (eV)
  ---------------------------------------------------
  alpha Z        PSCENC =      3039.22321400
  Ewald energy   TEWEN  =    -48510.69927364
  -Hartree energ DENC   =    -16103.10256351
  -exchange      EXHF   =         0.00000000
  -V(xc)+E(xc)   XCENC  =      3194.84229786
  PAW double counting   =     50594.51003143   -49994.65612350
  entropy T*S    EENTRO =        -0.00000000
  eigenvalues    EBANDS =     -8238.71825714
  atomic energy  EATOM  =     64968.54023382
  Solvation  Ediel_sol  =         0.00000000
  ---------------------------------------------------
  free energy    TOTEN  =     -1050.06044068 eV

  energy without entropy =    -1050.06044068  energy(sigma->0) =    -1050.06044068


--------------------------------------------------------------------------------------------------------




--------------------------------------- Iteration      1(   5)  ---------------------------------------


     EDDAV:  cpu time   52.3079: real time   53.8104
       DOS:  cpu time    0.0009: real time    0.0010
    CHARGE:  cpu time    1.2657: real time    1.3005
    MIXING:  cpu time    0.0055: real time    0.0057
    --------------------------------------------
      LOOP:  cpu time   53.5801: real time   55.1176

 eigenvalue-minimisations  : 14632
 total energy-change (2. order) :-0.5284570E+01  (-0.5281747E+01)
 number of electron     864.0000006 magnetization 
 augmentation part      133.3842027 magnetization 

 Broyden mixing:
  rms(total) = 0.87347E+01    rms(broyden)= 0.87341E+01
  rms(prec ) = 0.10313E+02
  weight for this iteration     100.00

 Free energy of the ion-electron system (eV)
  ---------------------------------------------------
  alpha Z        PSCENC =      3039.22321400
  Ewald energy   TEWEN  =    -48510.69927364
  -Hartree energ DENC   =    -16103.10256351
  -exchange      EXHF   =         0.00000000
  -V(xc)+E(xc)   XCENC  =      3194.84229786
  PAW double counting   =     50594.51003143   -49994.65612350
  entropy T*S    EENTRO =        -0.00000000
  eigenvalues    EBANDS =     -8244.00282699
  atomic energy  EATOM  =     64968.54023382
  Solvation  Ediel_sol  =         0.00000000
  ---------------------------------------------------
  free energy    TOTEN  =     -1055.34501052 eV

  energy without entropy =    -1055.34501052  energy(sigma->0) =    -1055.34501052


--------------------------------------------------------------------------------------------------------




--------------------------------------- Iteration      1(   6)  ---------------------------------------


    POTLOK:  cpu time    0.1033: real time    0.1145
    SETDIJ:  cpu time    0.3082: real time    0.3092
     EDDAV:  cpu time   38.8610: real time   39.0934
       DOS:  cpu time    0.0010: real time    0.0010
    CHARGE:  cpu time    1.2991: real time    1.3049
    MIXING:  cpu time    0.0046: real time    0.0047
    --------------------------------------------
      LOOP:  cpu time   40.5772: real time   40.8276

 eigenvalue-minimisations  :  9872
 total energy-change (2. order) : 0.1434704E+03  (-0.6484035E+02)
 number of electron     864.0000005 magnetization 
 augmentation part      120.3413890 magnetization 

 Broyden mixing:
  rms(total) = 0.38149E+01    rms(broyden)= 0.38139E+01
  rms(prec ) = 0.40164E+01
  weight for this iteration     100.00

 eigenvalues of (default mixing * dielectric matrix)
  average eigenvalue GAMMA=   1.0529
  1.0529

 Free energy of the ion-electron system (eV)
  ---------------------------------------------------
  alpha Z        PSCENC =      3039.22321400
  Ewald energy   TEWEN  =    -48510.69927364
  -Hartree energ DENC   =    -17427.87907990
  -exchange      EXHF   =         0.00000000
  -V(xc)+E(xc)   XCENC  =      3284.50165844
  PAW double counting   =     67200.36842663   -66739.76260504
  entropy T*S    EENTRO =        -0.00000000
  eigenvalues    EBANDS =     -6726.16715304
  atomic energy  EATOM  =     64968.54023382
  Solvation  Ediel_sol  =         0.00000000
  ---------------------------------------------------
  free energy    TOTEN  =      -911.87457872 eV

  energy without entropy =     -911.87457872  energy(sigma->0) =     -911.87457872


--------------------------------------------------------------------------------------------------------




--------------------------------------- Iteration      1(   7)  ---------------------------------------


    POTLOK:  cpu time    0.1031: real time    0.1133
    SETDIJ:  cpu time    0.3022: real time    0.3107
     EDDAV:  cpu time   41.9323: real time   42.3614
       DOS:  cpu time    0.0011: real time    0.0011
    CHARGE:  cpu time    1.3176: real time    1.3311
    MIXING:  cpu time    0.0039: real time    0.0039
    --------------------------------------------
      LOOP:  cpu time   43.6601: real time   44.1214

 eigenvalue-minimisations  : 10944
 total energy-change (2. order) :-0.1523100E+01  (-0.6600851E+01)
 number of electron     864.0000005 magnetization 
 augmentation part      119.1648680 magnetization 

 Broyden mixing:
  rms(total) = 0.17959E+01    rms(broyden)= 0.17959E+01
  rms(prec ) = 0.19522E+01
  weight for this iteration     100.00

 eigenvalues of (default mixing * dielectric matrix)
  average eigenvalue GAMMA=   1.2322
  1.2322  1.2322

 Free energy of the ion-electron system (eV)
  ---------------------------------------------------
  alpha Z        PSCENC =      3039.22321400
  Ewald energy   TEWEN  =    -48510.69927364
  -Hartree energ DENC   =    -17505.73395579
  -exchange      EXHF   =         0.00000000
  -V(xc)+E(xc)   XCENC  =      3288.74644629
  PAW double counting   =     82624.73347210   -82221.18727822
  entropy T*S    EENTRO =        -0.00000000
  eigenvalues    EBANDS =     -6597.02053754
  atomic energy  EATOM  =     64968.54023382
  Solvation  Ediel_sol  =         0.00000000
  ---------------------------------------------------
  free energy    TOTEN  =      -913.39767898 eV

  energy without entropy =     -913.39767898  energy(sigma->0) =     -913.39767898


--------------------------------------------------------------------------------------------------------




--------------------------------------- Iteration      1(   8)  ---------------------------------------


    POTLOK:  cpu time    0.1048: real time    0.1124
    SETDIJ:  cpu time    0.3058: real time    0.3096
     EDDAV:  cpu time   42.4766: real time   42.7097
       DOS:  cpu time    0.0010: real time    0.0010
    CHARGE:  cpu time    1.2998: real time    1.3082
    MIXING:  cpu time    0.0050: real time    0.0050
    --------------------------------------------
      LOOP:  cpu time   44.1930: real time   44.4459

 eigenvalue-minimisations  : 11168
 total energy-change (2. order) : 0.1093105E+01  (-0.9687699E+00)
 number of electron     864.0000005 magnetization 
 augmentation part      119.2818233 magnetization 

 Broyden mixing:
  rms(total) = 0.75196E+00    rms(broyden)= 0.75189E+00
  rms(prec ) = 0.85347E+00
  weight for this iteration     100.00

 eigenvalues of (default mixing * dielectric matrix)
  average eigenvalue GAMMA=   1.3766
  2.1836  0.9731  0.9731

 Free energy of the ion-electron system (eV)
  ---------------------------------------------------
  alpha Z        PSCENC =      3039.22321400
  Ewald energy   TEWEN  =    -48510.69927364
  -Hartree energ DENC   =    -17506.23842073
  -exchange      EXHF   =         0.00000000
  -V(xc)+E(xc)   XCENC  =      3288.19689422
  PAW double counting   =     91902.06900387   -91536.39671424
  entropy T*S    EENTRO =        -0.00000000
  eigenvalues    EBANDS =     -6556.99951159
  atomic energy  EATOM  =     64968.54023382
  Solvation  Ediel_sol  =         0.00000000
  ---------------------------------------------------
  free energy    TOTEN  =      -912.30457427 eV

  energy without entropy =     -912.30457427  energy(sigma->0) =     -912.30457427


--------------------------------------------------------------------------------------------------------




--------------------------------------- Iteration      1(   9)  ---------------------------------------


    POTLOK:  cpu time    0.1047: real time    0.1129
    SETDIJ:  cpu time    0.3081: real time    0.3091
     EDDAV:  cpu time   40.6254: real time   40.8628
       DOS:  cpu time    0.0010: real time    0.0010
    CHARGE:  cpu time    1.3066: real time    1.3126
    MIXING:  cpu time    0.0049: real time    0.0049
    --------------------------------------------
      LOOP:  cpu time   42.3507: real time   42.6031

 eigenvalue-minimisations  : 10472
 total energy-change (2. order) : 0.1960060E+00  (-0.2073375E+00)
 number of electron     864.0000005 magnetization 
 augmentation part      118.7045627 magnetization 

 Broyden mixing:
  rms(total) = 0.20494E+00    rms(broyden)= 0.20493E+00
  rms(prec ) = 0.24218E+00
  weight for this iteration     100.00

 eigenvalues of (default mixing * dielectric matrix)
  average eigenvalue GAMMA=   1.3657
  2.3331  1.2345  0.9477  0.9477

 Free energy of the ion-electron system (eV)
  ---------------------------------------------------
  alpha Z        PSCENC =      3039.22321400
  Ewald energy   TEWEN  =    -48510.69927364
  -Hartree energ DENC   =    -17582.58570830
  -exchange      EXHF   =         0.00000000
  -V(xc)+E(xc)   XCENC  =      3293.21544678
  PAW double counting   =     99145.27433142   -98802.57754121
  entropy T*S    EENTRO =        -0.00000000
  eigenvalues    EBANDS =     -6462.49927118
  atomic energy  EATOM  =     64968.54023382
  Solvation  Ediel_sol  =         0.00000000
  ---------------------------------------------------
  free energy    TOTEN  =      -912.10856831 eV

  energy without entropy =     -912.10856831  energy(sigma->0) =     -912.10856831


--------------------------------------------------------------------------------------------------------




--------------------------------------- Iteration      1(  10)  ---------------------------------------


    POTLOK:  cpu time    0.1053: real time    0.1127
    SETDIJ:  cpu time    0.3081: real time    0.3089
     EDDAV:  cpu time   44.1729: real time   44.4295
       DOS:  cpu time    0.0012: real time    0.0012
    CHARGE:  cpu time    1.3004: real time    1.3060
    MIXING:  cpu time    0.0036: real time    0.0038
    --------------------------------------------
      LOOP:  cpu time   45.8917: real time   46.1621

 eigenvalue-minimisations  : 11656
 total energy-change (2. order) :-0.8086022E-01  (-0.9149769E-01)
 number of electron     864.0000005 magnetization 
 augmentation part      118.5833511 magnetization 

 Broyden mixing:
  rms(total) = 0.13470E+00    rms(broyden)= 0.13468E+00
  rms(prec ) = 0.15489E+00
  weight for this iteration     100.00

 eigenvalues of (default mixing * dielectric matrix)
  average eigenvalue GAMMA=   1.3018
  2.4477  1.1699  1.1699  0.8607  0.8607

 Free energy of the ion-electron system (eV)
  ---------------------------------------------------
  alpha Z        PSCENC =      3039.22321400
  Ewald energy   TEWEN  =    -48510.69927364
  -Hartree energ DENC   =    -17593.48080015
  -exchange      EXHF   =         0.00000000
  -V(xc)+E(xc)   XCENC  =      3293.86969123
  PAW double counting   =    100171.89291670   -99830.43728395
  entropy T*S    EENTRO =        -0.00000000
  eigenvalues    EBANDS =     -6451.09812655
  atomic energy  EATOM  =     64968.54023382
  Solvation  Ediel_sol  =         0.00000000
  ---------------------------------------------------
  free energy    TOTEN  =      -912.18942853 eV

  energy without entropy =     -912.18942853  energy(sigma->0) =     -912.18942853


--------------------------------------------------------------------------------------------------------




--------------------------------------- Iteration      1(  11)  ---------------------------------------


    POTLOK:  cpu time    0.1167: real time    0.1246
    SETDIJ:  cpu time    0.3056: real time    0.3091
     EDDAV:  cpu time   43.3306: real time   43.5974
       DOS:  cpu time    0.0009: real time    0.0010
    CHARGE:  cpu time    1.3001: real time    1.3059
    MIXING:  cpu time    0.0074: real time    0.0075
    --------------------------------------------
      LOOP:  cpu time   45.0614: real time   45.3454

 eigenvalue-minimisations  : 11384
 total energy-change (2. order) :-0.6268214E-02  (-0.1340032E-01)
 number of electron     864.0000005 magnetization 
 augmentation part      118.5461622 magnetization 

 Broyden mixing:
  rms(total) = 0.69228E-01    rms(broyden)= 0.69222E-01
  rms(prec ) = 0.79452E-01
  weight for this iteration     100.00

 eigenvalues of (default mixing * dielectric matrix)
  average eigenvalue GAMMA=   1.3709
  2.4370  1.9616  0.9936  0.9936  0.9199  0.9199

 Free energy of the ion-electron system (eV)
  ---------------------------------------------------
  alpha Z        PSCENC =      3039.22321400
  Ewald energy   TEWEN  =    -48510.69927364
  -Hartree energ DENC   =    -17601.70167521
  -exchange      EXHF   =         0.00000000
  -V(xc)+E(xc)   XCENC  =      3294.38908677
  PAW double counting   =    100301.04295547   -99958.79679103
  entropy T*S    EENTRO =        -0.00000000
  eigenvalues    EBANDS =     -6444.19344692
  atomic energy  EATOM  =     64968.54023382
  Solvation  Ediel_sol  =         0.00000000
  ---------------------------------------------------
  free energy    TOTEN  =      -912.19569675 eV

  energy without entropy =     -912.19569675  energy(sigma->0) =     -912.19569675


--------------------------------------------------------------------------------------------------------




--------------------------------------- Iteration      1(  12)  ---------------------------------------


    POTLOK:  cpu time    0.1066: real time    0.1140
    SETDIJ:  cpu time    0.3065: real time    0.3103
     EDDAV:  cpu time   40.4212: real time   40.6413
       DOS:  cpu time    0.0010: real time    0.0010
    CHARGE:  cpu time    1.2947: real time    1.3031
    MIXING:  cpu time    0.0049: real time    0.0049
    --------------------------------------------
      LOOP:  cpu time   42.1349: real time   42.3745

 eigenvalue-minimisations  : 10424
 total energy-change (2. order) :-0.6067354E-02  (-0.3428770E-02)
 number of electron     864.0000005 magnetization 
 augmentation part      118.5617054 magnetization 

 Broyden mixing:
  rms(total) = 0.22774E-01    rms(broyden)= 0.22768E-01
  rms(prec ) = 0.29232E-01
  weight for this iteration     100.00

 eigenvalues of (default mixing * dielectric matrix)
  average eigenvalue GAMMA=   1.3868
  2.4797  2.4797  1.0240  0.9750  0.9750  0.8871  0.8871

 Free energy of the ion-electron system (eV)
  ---------------------------------------------------
  alpha Z        PSCENC =      3039.22321400
  Ewald energy   TEWEN  =    -48510.69927364
  -Hartree energ DENC   =    -17603.14072011
  -exchange      EXHF   =         0.00000000
  -V(xc)+E(xc)   XCENC  =      3294.40734122
  PAW double counting   =    100095.97060158   -99751.60735273
  entropy T*S    EENTRO =        -0.00000000
  eigenvalues    EBANDS =     -6444.89580825
  atomic energy  EATOM  =     64968.54023382
  Solvation  Ediel_sol  =         0.00000000
  ---------------------------------------------------
  free energy    TOTEN  =      -912.20176410 eV

  energy without entropy =     -912.20176410  energy(sigma->0) =     -912.20176410


--------------------------------------------------------------------------------------------------------




--------------------------------------- Iteration      1(  13)  ---------------------------------------


    POTLOK:  cpu time    0.1019: real time    0.1134
    SETDIJ:  cpu time    0.3050: real time    0.3105
     EDDAV:  cpu time   44.4508: real time   45.7140
       DOS:  cpu time    0.0011: real time    0.0011
    CHARGE:  cpu time    1.3070: real time    1.3127
    MIXING:  cpu time    0.0049: real time    0.0049
    --------------------------------------------
      LOOP:  cpu time   46.1706: real time   47.4566

 eigenvalue-minimisations  : 11984
 total energy-change (2. order) :-0.1836878E-02  (-0.8327282E-03)
 number of electron     864.0000005 magnetization 
 augmentation part      118.5605125 magnetization 

 Broyden mixing:
  rms(total) = 0.11833E-01    rms(broyden)= 0.11832E-01
  rms(prec ) = 0.14903E-01
  weight for this iteration     100.00

 eigenvalues of (default mixing * dielectric matrix)
  average eigenvalue GAMMA=   1.3478
  2.5632  2.5632  0.9004  0.9004  1.0545  1.0545  0.8729  0.8729

 Free energy of the ion-electron system (eV)
  ---------------------------------------------------
  alpha Z        PSCENC =      3039.22321400
  Ewald energy   TEWEN  =    -48510.69927364
  -Hartree energ DENC   =    -17605.71795429
  -exchange      EXHF   =         0.00000000
  -V(xc)+E(xc)   XCENC  =      3294.53655641
  PAW double counting   =    100004.52772059   -99659.17974557
  entropy T*S    EENTRO =        -0.00000000
  eigenvalues    EBANDS =     -6443.43435230
  atomic energy  EATOM  =     64968.54023382
  Solvation  Ediel_sol  =         0.00000000
  ---------------------------------------------------
  free energy    TOTEN  =      -912.20360098 eV

  energy without entropy =     -912.20360098  energy(sigma->0) =     -912.20360098


--------------------------------------------------------------------------------------------------------




--------------------------------------- Iteration      1(  14)  ---------------------------------------


    POTLOK:  cpu time    0.1054: real time    0.1127
    SETDIJ:  cpu time    0.3093: real time    0.3102
     EDDAV:  cpu time   42.9351: real time   43.1798
       DOS:  cpu time    0.0011: real time    0.0011
    CHARGE:  cpu time    1.2986: real time    1.3051
    MIXING:  cpu time    0.0159: real time    0.0159
    --------------------------------------------
      LOOP:  cpu time   44.6653: real time   44.9248

 eigenvalue-minimisations  : 11232
 total energy-change (2. order) :-0.2706456E-03  (-0.2614319E-03)
 number of electron     864.0000005 magnetization 
 augmentation part      118.5603830 magnetization 

 Broyden mixing:
  rms(total) = 0.80974E-02    rms(broyden)= 0.80965E-02
  rms(prec ) = 0.98819E-02
  weight for this iteration     100.00

 eigenvalues of (default mixing * dielectric matrix)
  average eigenvalue GAMMA=   1.3205
  2.7836  2.4670  1.2063  0.9726  0.9726  0.9075  0.9075  0.8339  0.8339

 Free energy of the ion-electron system (eV)
  ---------------------------------------------------
  alpha Z        PSCENC =      3039.22321400
  Ewald energy   TEWEN  =    -48510.69927364
  -Hartree energ DENC   =    -17606.51938616
  -exchange      EXHF   =         0.00000000
  -V(xc)+E(xc)   XCENC  =      3294.57402468
  PAW double counting   =     99981.06288816   -99635.50764969
  entropy T*S    EENTRO =        -0.00000000
  eigenvalues    EBANDS =     -6442.87792280
  atomic energy  EATOM  =     64968.54023382
  Solvation  Ediel_sol  =         0.00000000
  ---------------------------------------------------
  free energy    TOTEN  =      -912.20387162 eV

  energy without entropy =     -912.20387162  energy(sigma->0) =     -912.20387162


--------------------------------------------------------------------------------------------------------




--------------------------------------- Iteration      1(  15)  ---------------------------------------


    POTLOK:  cpu time    0.1061: real time    0.1133
    SETDIJ:  cpu time    0.3088: real time    0.3097
     EDDAV:  cpu time   40.8306: real time   41.0804
       DOS:  cpu time    0.0012: real time    0.0012
    CHARGE:  cpu time    1.2937: real time    1.3023
    MIXING:  cpu time    0.0068: real time    0.0068
    --------------------------------------------
      LOOP:  cpu time   42.5472: real time   42.8137

 eigenvalue-minimisations  : 10552
 total energy-change (2. order) :-0.1877913E-04  (-0.4136059E-04)
 number of electron     864.0000005 magnetization 
 augmentation part      118.5604424 magnetization 

 Broyden mixing:
  rms(total) = 0.43610E-02    rms(broyden)= 0.43604E-02
  rms(prec ) = 0.54284E-02
  weight for this iteration     100.00

 eigenvalues of (default mixing * dielectric matrix)
  average eigenvalue GAMMA=   1.3863
  2.9418  2.2768  2.2768  0.9735  0.9735  0.9021  0.8898  0.8898  0.8694  0.8694

 Free energy of the ion-electron system (eV)
  ---------------------------------------------------
  alpha Z        PSCENC =      3039.22321400
  Ewald energy   TEWEN  =    -48510.69927364
  -Hartree energ DENC   =    -17606.94646390
  -exchange      EXHF   =         0.00000000
  -V(xc)+E(xc)   XCENC  =      3294.59464155
  PAW double counting   =     99987.25994854   -99641.67866049
  entropy T*S    EENTRO =        -0.00000000
  eigenvalues    EBANDS =     -6442.49753028
  atomic energy  EATOM  =     64968.54023382
  Solvation  Ediel_sol  =         0.00000000
  ---------------------------------------------------
  free energy    TOTEN  =      -912.20389040 eV

  energy without entropy =     -912.20389040  energy(sigma->0) =     -912.20389040


--------------------------------------------------------------------------------------------------------




--------------------------------------- Iteration      1(  16)  ---------------------------------------


    POTLOK:  cpu time    0.1028: real time    0.1145
    SETDIJ:  cpu time    0.3052: real time    0.3180
     EDDAV:  cpu time   39.4450: real time   40.5695
       DOS:  cpu time    0.0009: real time    0.0009
    CHARGE:  cpu time    1.2631: real time    1.2980
    MIXING:  cpu time    0.0053: real time    0.0053
    --------------------------------------------
      LOOP:  cpu time   41.1222: real time   42.3061

 eigenvalue-minimisations  : 10328
 total energy-change (2. order) :-0.4148576E-05  (-0.1608809E-04)
 number of electron     864.0000005 magnetization 
 augmentation part      118.5590509 magnetization 

 Broyden mixing:
  rms(total) = 0.14722E-02    rms(broyden)= 0.14711E-02
  rms(prec ) = 0.20220E-02
  weight for this iteration     100.00

 eigenvalues of (default mixing * dielectric matrix)
  average eigenvalue GAMMA=   1.3861
  3.0525  2.3955  2.3955  0.9820  0.9820  0.9496  0.9496  0.9156  0.9156  0.8546
  0.8546

 Free energy of the ion-electron system (eV)
  ---------------------------------------------------
  alpha Z        PSCENC =      3039.22321400
  Ewald energy   TEWEN  =    -48510.69927364
  -Hartree energ DENC   =    -17607.35465977
  -exchange      EXHF   =         0.00000000
  -V(xc)+E(xc)   XCENC  =      3294.61478670
  PAW double counting   =    100001.60315328   -99656.08581038
  entropy T*S    EENTRO =        -0.00000000
  eigenvalues    EBANDS =     -6442.04553856
  atomic energy  EATOM  =     64968.54023382
  Solvation  Ediel_sol  =         0.00000000
  ---------------------------------------------------
  free energy    TOTEN  =      -912.20389455 eV

  energy without entropy =     -912.20389455  energy(sigma->0) =     -912.20389455


--------------------------------------------------------------------------------------------------------




--------------------------------------- Iteration      1(  17)  ---------------------------------------


    POTLOK:  cpu time    0.1031: real time    0.1119
    SETDIJ:  cpu time    0.3035: real time    0.3093
     EDDAV:  cpu time   45.0832: real time   46.3638
       DOS:  cpu time    0.0010: real time    0.0010
    CHARGE:  cpu time    1.2648: real time    1.3031
    MIXING:  cpu time    0.0050: real time    0.0051
    --------------------------------------------
      LOOP:  cpu time   46.7606: real time   48.0941

 eigenvalue-minimisations  : 12184
 total energy-change (2. order) :-0.4869609E-05  (-0.1115873E-04)
 number of electron     864.0000005 magnetization 
 augmentation part      118.5598051 magnetization 

 Broyden mixing:
  rms(total) = 0.12163E-02    rms(broyden)= 0.12152E-02
  rms(prec ) = 0.14227E-02
  weight for this iteration     100.00

 eigenvalues of (default mixing * dielectric matrix)
  average eigenvalue GAMMA=   1.3268
  3.1563  2.3766  2.3766  1.0090  0.9461  0.9853  0.9853  0.9361  0.9361  0.8261
  0.8261  0.5618

 Free energy of the ion-electron system (eV)
  ---------------------------------------------------
  alpha Z        PSCENC =      3039.22321400
  Ewald energy   TEWEN  =    -48510.69927364
  -Hartree energ DENC   =    -17607.32563192
  -exchange      EXHF   =         0.00000000
  -V(xc)+E(xc)   XCENC  =      3294.61204576
  PAW double counting   =    100003.41728731   -99657.91723429
  entropy T*S    EENTRO =        -0.00000000
  eigenvalues    EBANDS =     -6442.05454047
  atomic energy  EATOM  =     64968.54023382
  Solvation  Ediel_sol  =         0.00000000
  ---------------------------------------------------
  free energy    TOTEN  =      -912.20389942 eV

  energy without entropy =     -912.20389942  energy(sigma->0) =     -912.20389942


--------------------------------------------------------------------------------------------------------




--------------------------------------- Iteration      1(  18)  ---------------------------------------


    POTLOK:  cpu time    0.1061: real time    0.1132
    SETDIJ:  cpu time    0.3078: real time    0.3090
     EDDAV:  cpu time   38.5781: real time   38.8540
       DOS:  cpu time    0.0011: real time    0.0011
    CHARGE:  cpu time    1.3052: real time    1.3110
    MIXING:  cpu time    0.0053: real time    0.0054
    --------------------------------------------
      LOOP:  cpu time   40.3037: real time   40.5936

 eigenvalue-minimisations  :  9784
 total energy-change (2. order) : 0.2694578E-06  (-0.1801200E-05)
 number of electron     864.0000005 magnetization 
 augmentation part      118.5601391 magnetization 

 Broyden mixing:
[...]
   -.652E+02 -.150E+03 0.132E+02   0.755E+02 0.178E+03 -.177E+02   -.830E+01 -.297E+02 0.476E+01   0.193E-03 0.105E-03 -.388E-04
   -.465E+02 0.824E+02 -.439E+02   0.423E+02 -.103E+03 0.409E+02   0.648E+01 0.232E+02 0.294E+01   0.342E-03 -.146E-03 0.200E-03
   0.683E+02 -.633E+02 0.169E+01   -.866E+02 0.687E+02 -.251E+02   0.116E+02 -.723E-01 0.208E+02   -.436E-03 0.431E-03 0.352E-03
   -.191E+02 -.319E+02 -.448E+02   0.909E+01 0.378E+02 0.612E+02   0.125E+02 -.407E+01 -.176E+02   0.365E-03 0.438E-04 -.252E-03
   0.105E+02 -.430E+02 0.392E+02   0.413E+01 0.556E+02 -.593E+02   -.156E+02 -.150E+02 0.172E+02   0.239E-03 0.857E-04 -.215E-03
   -.124E+02 -.149E+02 -.804E+02   0.316E+02 -.158E+02 0.935E+02   -.155E+02 0.284E+02 -.117E+02   0.199E-04 -.277E-03 -.161E-03
   0.846E+02 -.581E+01 -.276E+02   -.838E+02 -.215E+02 0.450E+02   -.339E+01 0.273E+02 -.168E+02   -.214E-03 -.201E-03 0.141E-03
   0.143E+03 0.205E+02 -.161E+02   -.167E+03 -.255E+02 0.258E+02   0.275E+02 0.636E+01 -.846E+01   0.481E-03 0.146E-03 0.244E-03
   -.556E+02 0.666E+02 0.605E+02   0.408E+02 -.626E+02 -.783E+02   0.160E+02 -.591E+01 0.192E+02   0.202E-03 0.381E-03 -.702E-04
   -.639E+01 0.795E+02 -.598E+02   -.538E+01 -.108E+03 0.605E+02   0.914E+01 0.301E+02 0.290E+01   -.369E-03 0.248E-03 0.142E-03
   -.950E+02 0.613E+02 -.175E+03   0.927E+02 -.915E+02 0.168E+03   0.268E+01 0.293E+02 0.103E+02   0.324E-04 -.517E-03 -.583E-04
   -.222E+02 -.244E+02 -.408E+02   -.380E+01 0.278E+02 0.594E+02   0.273E+02 -.136E+01 -.184E+02   -.210E-03 0.192E-03 0.349E-03
   -.322E+01 0.314E+01 -.776E+02   -.113E+01 0.820E+01 0.950E+02   0.495E+01 -.116E+02 -.175E+02   -.845E-04 0.241E-03 0.425E-03
   -.279E+01 -.179E+02 -.238E+02   -.200E+01 0.380E+02 0.291E+02   0.686E+01 -.229E+02 -.406E+01   -.616E-04 -.264E-03 0.249E-03
   -.115E+02 0.640E+02 -.213E+02   0.373E+01 -.759E+02 0.251E+02   0.874E+01 0.139E+02 -.455E+01   -.276E-03 -.157E-03 0.171E-03
   -.213E+02 -.587E+01 0.145E+02   0.273E+02 -.164E+02 -.195E+02   -.764E+01 0.251E+02 0.556E+01   -.346E-03 -.271E-03 0.680E-04
   0.977E+02 0.556E+02 -.297E+02   -.118E+03 -.736E+02 0.280E+02   0.225E+02 0.188E+02 0.511E+01   0.800E-03 -.292E-04 -.777E-04
   0.555E+02 0.283E+02 -.422E+02   -.552E+02 -.563E+01 0.338E+02   -.307E+01 -.206E+02 0.921E+01   -.323E-03 0.537E-04 -.106E-03
   0.649E+02 0.897E+02 -.566E+02   -.692E+02 -.118E+03 0.608E+02   0.487E+00 0.287E+02 -.505E+01   -.132E-03 -.433E-03 0.150E-03
   0.287E+02 -.108E+02 -.105E+03   -.432E+02 0.990E+01 0.120E+03   0.145E+02 0.600E+00 -.148E+02   -.160E-03 -.154E-03 0.200E-05
   -.116E+03 0.280E+02 -.986E+02   0.143E+03 -.449E+02 0.121E+03   -.193E+02 0.137E+02 -.178E+02   0.684E-03 -.277E-05 0.214E-04
   -.829E+02 -.736E+01 0.228E+02   0.966E+02 0.220E+00 -.185E+02   -.166E+02 0.826E+01 -.577E+01   0.262E-03 0.950E-04 0.164E-03
   -.561E+02 0.829E+02 0.268E+02   0.522E+02 -.878E+02 -.126E+02   0.600E+01 0.448E+01 -.171E+02   0.170E-03 -.469E-04 -.406E-03
   -.193E+02 0.993E+02 0.231E+02   0.128E+02 -.109E+03 -.370E+02   0.757E+01 0.107E+02 0.161E+02   0.342E-04 0.332E-03 0.355E-03
   0.656E+02 -.838E+02 0.767E+02   -.666E+02 0.758E+02 -.788E+02   0.109E+01 0.957E+01 0.194E+01   -.255E-03 0.243E-03 -.541E-03
   -.385E+02 -.959E+01 0.242E+02   0.331E+02 0.138E+02 -.160E+02   0.406E+01 -.287E+01 -.482E+01   0.888E-05 -.967E-04 0.342E-03
   0.263E+02 0.201E+02 -.131E+03   -.530E+02 0.103E+01 0.153E+03   0.227E+02 -.179E+02 -.247E+02   0.276E-03 0.312E-03 -.364E-03
   0.152E+02 0.158E+02 -.988E+02   0.142E+02 -.175E+02 0.116E+03   -.290E+02 -.285E-02 -.126E+02   0.496E-03 -.335E-03 0.617E-04
   -.492E+02 0.253E+02 0.168E+02   0.335E+02 -.285E+02 -.299E+02   0.166E+02 0.382E+01 0.144E+02   -.771E-04 0.327E-03 -.285E-03
   -.535E+02 0.521E+02 0.230E+01   0.653E+02 -.577E+02 -.256E+02   -.123E+02 0.522E+01 0.228E+02   0.428E-03 -.440E-04 -.251E-03
   0.366E+02 0.913E+01 -.802E+02   -.159E+02 0.959E+01 0.900E+02   -.212E+02 -.205E+02 -.105E+02   -.145E-03 0.579E-04 0.199E-03
   0.485E+02 -.136E+02 -.230E+02   -.708E+02 -.346E+01 0.449E+02   0.205E+02 0.167E+02 -.221E+02   -.263E-03 -.403E-03 0.393E-03
   0.923E+02 -.594E+02 0.497E+00   -.969E+02 0.804E+02 -.105E+02   0.473E+01 -.189E+02 0.608E+01   0.404E-03 0.135E-03 -.224E-03
   -.116E+02 0.922E+02 0.255E+02   0.186E+02 -.679E+02 -.225E+02   -.699E+01 -.267E+02 -.328E+01   0.220E-03 0.178E-03 -.547E-04
   0.414E+02 -.114E+03 0.524E+02   -.311E+02 0.110E+03 -.457E+02   -.114E+02 0.479E+01 -.858E+01   -.235E-04 -.194E-03 -.308E-04
   -.124E+02 0.468E+02 0.779E+02   -.638E+00 -.603E+02 -.842E+02   0.130E+02 0.135E+02 0.640E+01   -.296E-03 -.237E-03 -.116E-03
   -.805E+02 -.228E+02 -.301E+02   0.870E+02 0.483E+02 0.179E+02   -.678E+01 -.260E+02 0.137E+02   -.789E-04 -.272E-03 0.203E-03
   0.594E+02 0.109E+03 -.439E+02   -.735E+02 -.140E+03 0.353E+02   0.133E+02 0.309E+02 0.808E+01   -.128E-03 -.552E-03 0.298E-04
   -.236E+02 -.172E+02 -.382E+02   0.577E+01 0.108E+02 0.501E+02   0.198E+02 0.869E+01 -.123E+02   0.921E-04 -.323E-04 0.318E-03
   0.125E+03 0.709E+02 0.582E+02   -.121E+03 -.869E+02 -.776E+02   -.679E+01 0.153E+02 0.232E+02   0.139E-03 -.336E-03 0.887E-04
   0.202E+02 0.463E+02 -.567E+02   -.655E+01 -.525E+02 0.427E+02   -.181E+02 0.411E+01 0.178E+02   -.495E-03 -.357E-03 0.278E-04
   -.321E+02 0.226E+02 0.137E+03   0.442E+02 -.523E+02 -.156E+03   -.972E+01 0.272E+02 0.156E+02   0.460E-03 -.596E-03 -.521E-03
   -.279E+02 0.142E+02 0.221E+02   0.129E+02 -.234E+02 -.733E+01   0.147E+02 0.918E+01 -.147E+02   -.342E-03 -.165E-03 -.915E-05
   0.516E+02 -.388E+02 -.134E+02   -.660E+02 0.476E+02 -.154E+01   0.170E+02 -.922E+01 0.178E+02   -.230E-03 0.301E-04 -.639E-04
   -.800E+02 0.737E+02 0.972E+02   0.102E+03 -.861E+02 -.909E+02   -.190E+02 0.115E+02 -.665E+01   0.295E-03 -.371E-03 0.128E-03
   -.121E+03 0.299E+02 0.127E+03   0.134E+03 -.517E+02 -.128E+03   -.144E+02 0.225E+02 0.556E+00   -.150E-03 -.192E-03 0.227E-03
   -.371E+02 -.901E+02 -.229E+02   0.323E+02 0.119E+03 0.492E+02   0.176E+01 -.249E+02 -.227E+02   -.425E-03 0.511E-03 0.263E-03
   -.665E+02 -.898E+02 0.393E+02   0.940E+02 0.113E+03 -.302E+02   -.259E+02 -.207E+02 -.112E+02   0.153E-03 0.347E-03 -.552E-05
 -----------------------------------------------------------------------------------------------
   -.134E+02 -.638E+02 0.101E+03   -.682E-12 0.327E-12 -.416E-12   0.135E+02 0.638E+02 -.101E+03   0.252E-02 0.104E-02 0.127E-02
 
 
 POSITION                                       TOTAL-FORCE (eV/Angst)
 -----------------------------------------------------------------------------------
      2.40556      8.97695     10.34518         0.592370      0.565533      1.990618
     10.62865      7.89466      2.83042         0.486760     -5.495561     -2.189029
      9.17995     10.48009      2.10704        -3.230716      2.707912     -1.990269
      6.66102      0.68845      9.74858        -1.250133     -2.321179     -4.267673
      9.57221      1.73486      3.50486        -3.841239      0.903918     -1.780656
     10.79725      0.05530      9.86991        -0.331719      0.837435      1.363400
      1.07791      9.85100      2.65378         1.498155      0.805660     -0.325855
      3.54579     11.42381      3.52364         2.360398      2.052427     -1.010958
      0.71099      7.25588      5.36730         2.538933     -1.525005      2.361939
      2.53135      4.15399      5.31468         0.980036      1.021515      0.718202
      8.02320      8.45207     10.73413        -0.403097     -0.290965      0.085577
      5.48186      3.36666     10.48331        -0.650358      1.110743     -4.130380
      7.50812      5.78746      8.48428        -4.942599     -2.184944     -5.274971
      0.11725      6.95102     10.74351        -1.142506     -1.556433      0.214555
     11.49061      9.32107      7.89984         2.250006      0.594182      1.824851
      7.31424      9.20003      4.44411        -0.829148      0.863277     -0.158483
      5.31247      6.03105      6.01430        -1.349339     -1.501534     -2.206551
      4.08734      1.62576      7.12943         2.304946      3.912529     -1.385561
      0.76118      1.05614      0.71962        -0.654083     -1.632975      1.125411
     11.26937      3.30420      6.30658        -3.031846      1.054509     -0.124102
      1.95590      6.14227      1.86996        -0.285103     -0.034411      1.399665
     10.06048      3.14154      9.17829        -2.650646     -4.170991     -0.234498
      4.31746      3.08152      1.72137         4.564705      1.359872      2.378702
      3.05584     10.01667      6.44485        -2.522426     -1.596737     -1.884468
      2.11019      3.44657     10.98311        -0.292907      0.725295     -0.966455
      9.66837      0.03063      6.09067        -2.629903      0.190255      1.901720
      8.72607      5.74794      5.07631        -0.350538     -0.499312      0.886693
      5.98142      9.96758      0.80844        -3.468094      1.441837      2.933437
      4.83925      8.77919      9.35786        -1.061557      0.132664      0.174433
      2.67972      0.31026      9.31498         1.861997      1.112124     -0.786749
      6.80445      8.13799      7.34234        -7.395556      1.602064     -0.348522
      1.86222      2.90112      2.86230        -4.401364     -2.567181     -2.075848
      0.59484      0.73567      4.37653        -3.797044      2.383610     -1.923138
      3.57218      6.08457     10.93574         3.637201     -0.606139     -5.187096
      1.71771      6.46054      8.03210        -0.924306     -2.013033     -0.674107
      8.69309      5.30827     10.51295         0.236088      1.562125      5.217639
     10.49626      6.06737      8.28165        -1.391118      1.215503     -2.235371
      6.79587      5.43443      0.97614        -2.158275     -1.700461     -2.597066
      7.43335      6.98832      2.61823         4.656608      6.241420      3.940870
     11.05684      9.11903      0.08759         1.929678     -4.735075      2.043287
      3.96537      4.63183      7.99333         8.947087     -4.109356      2.396426
      5.81694     10.86134      6.78677         5.265253      2.495988     -2.164960
      8.16938     10.18744      7.95233         0.100067      4.790135      2.816786
      5.10070      7.51951      2.31512        -0.045262      0.452852     -2.411716
      1.30456      1.80947      7.88899        -0.750423     -2.427649      0.285707
     10.13753      9.11467      5.20094         2.875537     -1.070275      3.698189
      7.06726      3.07308      7.30370         1.536783     -1.647575     -3.876967
     10.89029      4.20775      3.48191        -2.536180      1.023286     -0.941361
      6.63678      0.38577      3.82890         2.876904     -0.022525     -2.337668
      3.13966      7.91807      4.19749         1.072058      1.206250     -0.664579
     10.54226      4.48010      0.57366         8.267466     -7.199371      1.352203
      5.41759      3.10689      4.90148        -0.198076      0.082007     -2.221929
      8.11022      1.63002     11.49951        -1.872891      1.231498      0.174796
      4.03550      0.40873      0.15638        -8.519311     -0.633313     -0.584514
      5.47421      6.29045      1.31465        -0.290932      1.015579     -0.036498
      1.66101      2.85945      6.81123         0.653140      1.128876     -0.728998
      6.22565      7.50630      3.54251        -3.113556     -0.298907      1.319584
      9.81892     10.28727      8.73472        -4.816953      1.087479     -2.589532
      5.86222     11.24916      5.10721        -1.686300      0.060232     -0.586727
      7.23199     10.41983     11.59565         2.139219     -0.440962      0.228911
      7.43155      4.46292      6.48825        -2.261461      0.118121      1.334288
      6.36034      1.84796     11.38546         6.142862     -2.924101      2.529630
      9.93053      7.75933      0.21177         1.761595      4.607673     -0.156111
     10.94316     10.51085      0.70205        -1.681886      3.815080      2.627284
      4.76491      8.87537      1.49352         1.641737      0.669967      0.792634
      0.28289      5.48688      0.80249        -2.558656     -1.695852     -1.900815
      0.80902      3.30524      4.21718        -3.165911     -0.637821     -2.281948
      3.95848      4.55125     11.49951        -2.587775      2.944096     -1.152684
      4.08403      0.25891     10.19996        -0.437673     -1.015357     -5.292741
     10.09846      9.62629      3.70150         0.661259      2.132495      0.716909
      2.06283      1.95869      9.32651         0.121740     -1.462989      0.618593
      6.12290      9.33674      6.48183        -0.581913     -1.789134     -0.857181
      9.05278      6.46123      9.38929         1.698060      0.575710      4.510833
      5.74758      7.77378      8.53348         3.831068      1.666854     -2.943290
     11.15014      0.50350      3.15850         2.529033     -1.076302     -1.313242
      5.11089     11.51174      0.96916         6.587616     -4.458561      4.229403
      5.37617      4.45481      3.87853         1.127046     -1.932786      1.593060
      6.63901      1.63913      2.69065        -0.445864     -1.889826      3.063128
      3.86621      7.89284      5.71354        -1.152695     -2.086254     -2.462709
      3.04302      9.56616      4.10333         0.478703     -2.655445     -0.725779
      0.05334      9.65609      5.93664        -3.324520      0.444967     -2.986624
     10.87122      4.89853      9.44460         1.673223      3.934473     -0.317018
      7.54916      8.14459      1.60734        -0.296839      2.701950     -4.156438
      8.64432      7.48504      3.63976        -0.721343     -1.287900      0.054471
      3.65756      9.51780      8.34208         0.712610     -2.987235      5.550469
      7.55801      5.53279      2.33319         2.464107     -5.332317      1.587698
     11.36903      1.59877      8.21738         0.667211     -0.192160     -0.558245
      7.32644     11.60329      7.10845         1.947790     -1.961227      0.300897
     10.55303      2.99503     11.31342         2.301216      2.542845     -0.139220
      2.84638      5.29889      7.32579        -6.694755      5.358607     -2.559230
     11.15105      1.22408      5.53541         2.484949      1.796855     -1.243175
      0.27924      9.47489     10.44470        -0.942728     -2.439703     -2.879293
      1.50114     11.23953      4.71039         3.646447     -2.294392      1.346852
      3.93355      3.35786      8.86764        -2.578480     -0.043760      0.547160
      9.50224      3.69057      4.34182         3.684562      1.428801      1.234918
      9.44922      6.03763      7.03732         1.269684     -1.859268      1.432731
      3.87995      6.80622      3.01024        -2.625299      1.491357      3.548876
      6.42051      4.05891      0.43956         0.360685     -0.852765      2.945525
      4.46290     11.24985      7.37787         1.344462      2.015962      0.210848
      4.89226      9.50840     10.80163         0.601629     -0.277580     -0.002139
     10.78740      7.64551      8.58461         2.065705     -2.726852      1.243977
      2.60869     11.08471      0.93168         0.945824      2.036814     -0.665520
      2.09386      1.24713      2.85061        -1.694902      2.789293      0.557606
     10.16683      3.69040      2.00353         2.636019      0.760223      3.417935
      3.90255      1.97127      0.03508        -2.755730      2.023281      0.774866
     10.51174      7.57880      5.21558        -3.769147      0.094077     -0.837103
      6.81710     10.32039      9.01664         0.033717     -0.313175     -0.181863
      7.93096      8.67960      8.08125         7.499144     -3.193264      4.438091
      0.82145      8.29134      1.11996        -2.873420      1.124788     -1.504732
      1.83514      6.17055      9.78896         2.144767     -0.374659     -2.911516
      0.37902      5.63827      7.14568         1.100867      0.693774      2.169626
      6.60330     10.41098      2.74210         0.094932      1.544948     -0.167614
      4.49157      3.77463      6.11774        -1.268132      1.340972      3.427890
      9.29712      5.26464      0.48233        -4.014652      3.230097     -3.092900
      9.26968      1.40306      0.83537         0.340404     -1.669977      4.463085
      1.61666      7.61377      3.49163         0.856182      0.633719      1.353739
      8.79047      1.17083     10.10522        -0.564075     -0.401092     -0.538756
      5.25493      5.52305      8.26082        -0.616535     -1.811286     -0.753014
      1.61651     11.22857     10.15133        -1.868269     -0.300005     -0.190350
      7.43148      6.16995     11.33724         0.193251      2.101651     -3.890895
     11.34569      5.76404      3.68927        -0.007235     -2.356780     -0.279526
      8.28659      0.07887      4.43114        -1.100993      0.406554     -1.856244
      4.31520      1.88511      4.47443        -0.000049     -0.035657      0.094960
      1.80307      7.89608      7.32571        -0.257728     -0.521690      1.560263
      8.15325      3.94440      9.96293        -0.791349      0.428259     -0.485394
      8.78022      9.34607      6.10852         1.997575      2.284083     -0.444747
      2.27031      0.48617      7.34844        -1.894129     -0.698604      3.806689
      4.41323      7.12103      9.84510        -4.483943     -2.058528      3.753782
      7.01452      6.90821      6.56546         2.389675     -2.494800     -3.947167
      6.04165      2.41144      8.36191        -0.223094      0.041924      0.123068
      1.11422      3.12348      1.31984         2.569915     -0.358558      2.835809
      8.50070      2.52729      7.67195         2.952006     -0.868761     -0.256211
      6.53666      2.22618      5.79650        -0.622450      0.708906     -0.281925
      3.14596      6.98997      0.37895        -3.000085      3.845807      3.589247
      2.93401      3.90167      3.28637         1.488543      2.312714     -2.103830
 -----------------------------------------------------------------------------------
    total drift:                                0.010081     -0.016107      0.004767


--------------------------------------------------------------------------------------------------------



  FREE ENERGIE OF THE ION-ELECTRON SYSTEM (eV)
  ---------------------------------------------------
  free  energy   TOTEN  =      -912.20389756 eV

  energy  without entropy=     -912.20389756  energy(sigma->0) =     -912.20389756
 


--------------------------------------------------------------------------------------------------------


    POTLOK:  cpu time    0.4108: real time    0.4149


--------------------------------------------------------------------------------------------------------


     LOOP+:  cpu time  877.9370: real time  888.4813
    4ORBIT:  cpu time    0.0000: real time    0.0000

 total amount of memory used by VASP MPI-rank0   164780. kBytes
=======================================================================

   base      :      30000. kBytes
   nonlr-proj:      22669. kBytes
   fftplans  :      23775. kBytes
   grid      :      12472. kBytes
   one-center:        186. kBytes
   wavefun   :      75678. kBytes
 
  
  
 General timing and accounting informations for this job:
 ========================================================
  
                  Total CPU time used (sec):      896.840
                            User time (sec):      892.678
                          System time (sec):        4.161
                         Elapsed time (sec):      907.626
  
                   Maximum memory used (kb):      293456.
                   Average memory used (kb):           0.
  
                          Minor page faults:       120892
                          Major page faults:            0
                 Voluntary context switches:          426
