135
Time=99999.99999996 pbc="T T T" Lattice="11.12194768 0.00000000 0.00000000 0.00000000 11.12194768 0.00000000 0.00000000 0.00000000 11.12194768" energy=-909.77071814 virial="192.20556987 -35.63136347 12.00248269 -35.63136347 260.76879277 -7.49928710 12.00248269 -7.49928710 273.10958847" stress="0.16084867 -0.02589941 0.00872426 -0.02589941 0.21068531 -0.00545102 0.00872426 -0.00545102 0.21965547" Properties=species:S:1:pos:R:3
Ca 3.97117561 1.07003990 8.51424731
Ca 5.03665489 2.77293129 1.04372715
Ca 7.45474303 4.47778545 2.18925375
Ca 3.28534633 9.65044810 4.71430597
Ca 6.38235676 7.89358268 1.27779249
Ca 8.93700988 10.02575762 3.26785535
Ca 9.93766484 8.80520692 5.66172848
Ca 2.69487694 6.06202244 1.62886843
Ca 7.12515334 9.51572598 9.96606042
Ca 1.05916338 9.39757947 2.13514473
Ca 8.62796116 5.23712976 5.13967760
Ca 1.69654446 1.13121858 0.82472793
Ca 7.42614291 1.62983822 8.99179596
Ca 4.13648869 0.26602738 2.64948071
Ca 1.14162687 3.48142099 9.95027153
Ca 9.99357041 5.38990641 9.90536412
Ca 7.20419437 6.90153926 8.38488610
Ca 6.09612963 3.96392634 7.60345156
Ca 0.19868538 3.49199857 4.89595910
Ca 1.55682126 6.90819610 9.90795562
Ca 4.49501203 3.93636223 4.52265382
Ca 7.36458555 0.48740857 1.31431921
Ca 8.68366368 1.76541603 5.85191012
Ca 2.39006798 9.81551795 10.02389237
Ca 3.67043565 6.15308339 7.54869186
Ca 0.19439416 0.45128605 7.88236902
Ca 4.82137948 9.28787633 7.27756590
Si 10.02111999 6.69988391 2.45699875
Si 3.02281658 1.48381094 5.38267894
Si 9.49834465 1.92597158 3.29841303
Si 2.59253087 3.22928177 7.53346703
Si 7.72601845 7.29130330 3.74389109
Si 8.17197697 10.27334490 7.03269317
Si 2.39858597 3.17921851 2.86666144
Si 10.82689507 4.35317324 1.61050382
Si 4.02536898 4.47268966 10.29667611
Si 6.12397009 9.36367394 4.39262464
Si 5.95183254 6.44224494 5.56269307
Si 4.51791859 7.07490919 9.87286914
Si 9.45786736 2.60605884 0.21126230
Si 6.74537793 4.63455623 10.81145433
Si 1.07671695 7.01308839 4.56930949
Si 9.62790894 8.72601381 0.18407969
Si 3.88846697 6.99906071 3.96553504
Si 9.66591022 3.44985289 7.78498057
Si 3.52487429 8.89087960 1.28918655
Si 1.38227054 9.06996653 7.19697017
Si 6.05966322 1.71553789 3.63723759
Si 0.17169306 6.15814349 7.37150079
Si 4.87020301 0.06517789 0.00098019
Si 5.52175680 0.75025807 6.50081702
Si 10.38935875 0.19399397 10.52744888
Si 9.77725915 8.56833129 8.90946747
Si 0.42734695 0.20067759 4.78254676
O 9.04246049 0.15509618 7.84017379
O 10.97714265 9.70834804 3.77275357
O 6.37792221 0.50705534 10.51152420
O 6.46857202 3.33285069 3.69947515
O 1.27006756 7.60052020 7.56268294
O 5.80586347 1.70891307 7.93017192
O 9.99440019 7.03962982 8.21387444
O 9.49297999 6.99570049 4.27380738
O 2.86362184 10.38060805 1.04987714
O 10.67637980 10.71398061 0.81407444
O 6.84835511 5.43887231 6.36539416
O 5.26140680 3.30145069 9.84873420
O 6.63995453 5.64315451 0.75323448
O 6.08225435 10.59289656 3.44792988
O 0.69703583 5.39293903 0.69565334
O 3.23135443 7.59608404 8.99934301
O 5.06564360 5.48970161 9.37036582
O 2.62832868 7.71250865 4.98954813
O 2.25812371 3.15000291 4.37145967
O 7.44184886 7.75562096 5.43422260
O 8.22321712 0.96559027 3.71525545
O 9.82262196 3.40114341 9.52049388
O 4.38359773 7.60535343 0.38413573
O 4.59801625 10.02808285 9.82366932
O 8.20997685 3.27860342 7.25000914
O 2.63909504 10.03726245 7.46932407
O 9.22523231 4.28484364 0.87098378
O 3.36377277 8.95260064 2.88922866
O 3.65718258 1.25499006 10.83386260
O 4.42504414 1.87812784 4.16564601
O 2.84758793 1.97955502 2.08387425
O 2.19447954 0.28596627 4.19374589
O 5.28826292 10.07663367 1.35955004
O 10.94260740 7.99022111 10.36875021
O 2.04861453 5.82038664 3.57265455
O 10.15809515 5.07574227 2.86733565
O 0.92715360 3.67190002 2.34759251
O 7.89346042 10.07525386 5.32766050
O 8.39704455 9.66978803 0.87802647
O 0.25215518 7.39256089 3.32243568
O 5.26158587 7.88830086 4.58161165
O 4.59726613 6.95721866 2.52254528
O 4.15197818 5.88776777 5.15381913
O 0.75266089 0.59195210 9.77386411
O 6.34210389 1.63149692 5.25008028
O 0.91479077 9.36086119 5.74832444
O 5.86393185 7.93269273 9.77715149
O 4.00176872 0.49617989 6.57670063
O 3.93907126 4.16327595 2.43072183
O 10.47392405 2.39109246 7.00282802
O 7.20059546 8.62952002 3.22525682
O 5.36835942 10.21563228 5.40983645
O 7.62093409 3.04416335 11.10484881
O 2.78281118 3.80056621 11.10042268
O 3.29607078 4.00451911 8.65137164
O 3.51352015 5.84547683 10.57740164
O 6.75877749 10.56506125 7.53214530
O 9.61442072 10.14177686 9.82052965
O 9.26668460 1.13130315 10.66636207
O 1.28132222 1.57402319 5.73432120
O 5.44893647 7.17095880 7.05199377
O 10.29028059 7.92833439 1.44854556
O 0.00619971 2.48736956 0.50738606
O 10.11159470 4.89766173 6.93753761
O 8.63455607 8.93769523 7.53256187
O 9.20041867 3.30137521 4.38517555
O 3.79473784 2.61257068 6.46824220
O 6.14082099 1.71754891 2.20062649
O 8.56848805 8.09378945 10.01327293
O 8.26082833 6.67068685 2.15582537
O 9.05375669 1.97454639 1.75614459
O 2.09280189 1.92027659 8.37576147
O 6.72744582 6.08330665 3.90178159
O 10.11004402 0.02182167 5.66645839
O 2.22259004 4.82822530 6.74391041
O 7.51115353 5.07771108 9.53427327
O 10.90687887 1.37301487 3.50572623
O 11.06530007 6.43204157 5.76105866
O 0.02310172 9.34452029 8.34607736
O 0.70367429 5.30008794 8.72567392
O 2.14443093 7.93310900 0.72101364
135
Time=199999.99999918 pbc="T T T" Lattice="11.12194768 0.00000000 0.00000000 0.00000000 11.12194768 0.00000000 0.00000000 0.00000000 11.12194768" energy=-915.91278415 virial="285.06673692 -16.42422347 16.14577890 -16.42422347 258.55801666 -35.09094073 16.14577890 -35.09094073 298.06525322" stress="0.22834678 -0.01193829 0.01173590 -0.01193829 0.20907836 -0.02550659 0.01173590 -0.02550659 0.23779503" Properties=species:S:1:pos:R:3
Ca 5.40939302 10.19694498 4.24234407
Ca 4.33121302 9.20023416 9.32901345
Ca 0.14552390 9.79130817 2.42235738
Ca 4.00466903 5.41044113 5.26619381
Ca 10.37989872 1.91654883 4.23112966
Ca 1.74936897 10.28508707 4.94413066
Ca 9.14465031 5.28439387 4.99265623
Ca 6.39751876 6.63466115 0.59725446
Ca 6.29737453 11.01545107 9.94410142
Ca 3.17247512 7.91774490 2.80202890
Ca 7.30914069 3.75622604 2.59921555
Ca 10.75389900 2.03484327 8.39785702
Ca 9.74209401 1.26502397 0.24913961
Ca 8.16638108 9.29313980 0.92483587
Ca 0.19625520 3.96234533 10.87587236
Ca 10.41302050 7.24718214 10.08639148
Ca 2.59395661 2.26463538 9.34584802
Ca 4.67513893 5.82059996 8.90891970
Ca 0.91338130 4.62237600 5.82782660
Ca 9.41754733 7.86140441 3.70816678
Ca 5.17756877 2.15062048 3.96375719
Ca 5.33742049 1.20515624 7.50090297
Ca 7.31280345 9.70080324 6.37713539
Ca 9.99551563 7.78695414 6.77301557
Ca 6.39572098 6.95293339 3.64016509
Ca 1.98453320 7.79423243 8.00788395
Ca 2.00571708 3.64070666 3.22233189
Si 0.42778669 6.59723373 1.48691403
Si 1.76745328 4.95068250 8.63973602
Si 10.05749874 10.50525788 5.70007889
Si 9.89109746 9.88601879 8.91907711
Si 10.46521447 4.19133682 2.65690983
Si 6.78567862 6.68880110 6.12949407
Si 2.27660499 0.47057769 1.94272163
Si 9.01461937 6.49685517 1.33428746
Si 5.76906271 3.13003670 9.64417656
Si 6.44491432 4.18933631 6.09955098
Si 8.31613884 1.32794081 8.12439841
Si 2.32103751 8.44568722 11.03614046
Si 4.33392179 4.86339235 2.38895065
Si 3.10943382 5.31438465 0.32541380
Si 8.12660150 10.64002014 3.25830420
Si 6.88087673 0.98705349 1.56438353
Si 5.06513298 9.49118624 1.38247804
Si 7.78194911 7.62563373 8.88578174
Si 1.10788517 11.10243218 10.51193618
Si 1.12465911 7.41738910 4.92992356
Si 8.06097157 1.67320020 5.35692217
Si 9.06801349 4.83291940 8.30108316
Si 4.33677090 1.77096345 0.88524902
Si 2.52157247 11.02961446 7.91353603
Si 3.08501339 1.84700283 5.86642840
Si 8.01016835 4.05183664 10.81323327
Si 4.34189708 8.85212682 6.34345825
O 10.33664751 5.81037873 0.44191005
O 7.18036998 0.06632525 8.05065119
O 3.42698954 1.58713811 2.56837064
O 5.46086381 8.30554953 2.47485122
O 9.34483332 4.42383718 10.00816081
O 5.55037830 7.67005624 5.40196496
O 10.09740453 4.63549469 7.13131698
O 0.62647628 8.24442344 0.79138080
O 2.69584054 4.54189351 9.94157608
O 8.15078084 2.65445478 0.62660736
O 0.69418954 5.10192279 2.09963376
O 4.85027981 0.39992686 0.77323992
O 6.98124086 2.83388445 6.80656884
O 3.43548828 10.41505329 2.45992223
O 4.49139066 5.97232272 0.05807208
O 3.67643753 8.57525082 0.88157040
O 7.24098297 7.71779815 7.26247880
O 6.30979486 4.44922972 4.50729734
O 2.54199812 5.73412258 7.56649363
O 4.55459190 3.37818826 8.70038614
O 1.26444685 0.06226453 8.74362951
O 2.16757488 9.79102919 10.24209362
O 3.95995307 0.81343267 5.08179510
O 10.59896121 10.44953043 10.63720118
O 8.45865697 9.04699659 9.24413975
O 5.24363297 10.10793110 6.79435185
O 5.86144570 2.24127288 1.72530271
O 10.95121794 4.13747782 4.33170662
O 6.22887891 10.57028593 2.21180053
O 9.03835339 1.37435594 6.61060806
O 1.10649168 8.23172091 6.21834040
O 10.56781176 9.52996890 4.51716618
O 10.22633224 7.30980815 1.98381967
O 0.58663698 5.73875633 9.30195194
O 2.02199619 6.41809509 0.82510138
O 9.08841742 0.24158640 4.78719146
O 0.12072294 0.42345688 6.03981233
O 2.84235431 9.64307998 7.17234328
O 8.06246759 1.01811308 2.64023188
O 3.08762888 7.55735397 9.93874699
O 9.30774185 10.32141514 2.34143649
O 10.75640745 2.89471667 1.77186916
O 6.73368448 4.33662214 10.00370989
O 4.79541150 3.16575829 11.01822322
O 6.39167085 1.69451490 9.42936915
O 9.02972375 5.06155362 2.94543072
O 10.92933858 8.75371883 8.56255138
O 2.05749859 6.34211525 5.05697550
O 9.55036408 0.26422419 8.84031187
O 3.89888917 3.85999058 3.49572722
O 0.81680465 7.87175895 3.45987711
O 8.44914932 7.25168724 0.09017250
O 4.23010223 6.31801542 3.46773853
O 2.44027398 1.58940251 0.29262807
O 3.70488160 0.05140769 8.96747188
O 8.69605814 2.89070828 4.49480757
O 1.13005604 3.45343057 8.24048005
O 9.30523486 9.83841573 7.01055810
O 1.24478989 0.47324790 3.35638777
O 8.04032605 7.02440688 2.53909880
O 8.92640239 6.46675026 8.30992612
O 5.87654967 8.90375706 0.11684909
O 7.73002688 4.99940026 6.81899166
O 7.55167430 9.52831216 4.13962801
O 6.66699545 0.77579978 5.09762818
O 3.48192985 8.83793934 4.88545864
O 4.39522326 3.11692361 5.77762469
O 4.25223391 7.66382705 7.40720843
O 1.18068427 10.94943314 0.99263943
O 3.08805934 4.44079649 1.49174643
O 7.90200687 5.14951034 0.91099956
O 10.84209870 6.65384456 4.85499376
O 8.12282444 7.05112120 5.18586956
O 0.61169574 1.65084962 10.24016465
O 6.29059376 7.04489063 9.48160606
O 5.73138427 5.75096713 6.64970622
O 2.66513696 1.26200962 7.10957000
O 5.86720651 4.94439860 1.95853318
O 1.76386736 2.18157298 5.25181071
O 8.81129943 2.88758543 8.71296135
O 7.65346878 0.21718220 0.39642251
135
Time=299999.99999840 pbc="T T T" Lattice="11.12194768 0.00000000 0.00000000 0.00000000 11.12194768 0.00000000 0.00000000 0.00000000 11.12194768" energy=-920.18742822 virial="249.93651369 5.99384235 -28.56681044 5.99384235 245.68472767 -8.73697111 -28.56681044 -8.73697111 237.63131885" stress="0.20281163 0.00435675 -0.02076439 0.00435675 0.19972113 -0.00635065 -0.02076439 -0.00635065 0.19386734" Properties=species:S:1:pos:R:3
Ca 8.03082720 10.57209962 2.11911454
Ca 0.66332522 6.36719682 10.72091319
Ca 3.55444836 0.59195602 0.67703375
Ca 2.70209002 2.03476642 6.40858817
Ca 8.00743319 7.47125540 7.78205603
Ca 1.87244359 10.11259694 6.83851865
Ca 0.04171489 4.21546136 7.92515064
Ca 9.02690777 8.52711270 10.06144514
Ca 4.20353444 10.23453136 8.86470159
Ca 8.78406665 5.78927662 5.25721973
Ca 8.57354411 2.79977463 2.72459030
Ca 7.57465067 2.43278703 10.16562693
Ca 10.57634263 0.85536564 2.86850813
Ca 5.42254419 5.91768235 9.12077135
Ca 2.12046490 3.47856782 1.62647540
Ca 6.32368102 10.45535064 10.71506168
Ca 0.61658902 1.91758260 9.51657060
Ca 5.56977543 4.16781840 0.33733023
Ca 10.36186165 6.11371859 2.31816733
Ca 5.26552168 6.60352089 3.61083325
Ca 5.06436521 3.71606239 4.12616196
Ca 2.40467659 7.70299365 8.85424590
Ca 5.40183185 2.40873669 7.42380584
Ca 10.79794182 8.50956273 5.23243523
Ca 9.40927492 11.11702790 7.99114279
Ca 2.34108165 6.05236724 6.13683666
Ca 4.96679516 9.67282939 2.43514598
Si 2.38550543 8.37072706 3.93012127
Si 2.91676624 4.41322221 9.33039137
Si 11.02411303 6.98305853 7.46261230
Si 4.76652174 8.11190695 0.10146099
Si 0.83932948 3.55287887 4.37947794
Si 7.41837920 8.97811112 4.73977928
Si 3.70792649 1.91550202 9.57649003
Si 10.23519618 3.28876448 0.22932387
Si 5.95565992 1.70273226 1.94640861
Si 4.51052090 0.34189051 5.14412477
Si 7.88780926 4.50325195 8.37464470
Si 1.02589209 10.04261044 10.17361371
Si 7.54731150 7.97338143 1.77052733
Si 3.30757371 5.90582739 1.05685800
Si 10.41357185 8.98234640 1.82860911
Si 8.57091871 2.88220237 6.28706129
Si 2.04744093 8.82198973 1.11613827
Si 6.98051527 10.19708138 7.56531953
Si 9.81302178 0.57093877 11.00564464
Si 2.41910312 1.10926751 3.52226608
Si 7.31818122 1.21290204 4.74815231
Si 8.51349816 5.60558396 10.66593969
Si 7.66774046 5.40542858 2.74571217
Si 0.01739690 1.18347230 5.92276063
Si 2.14928786 5.71279486 3.30183087
Si 5.63288311 5.43868643 6.27309679
Si 4.60297873 8.49136816 6.29867501
O 10.94583075 3.31221781 1.72524702
O 7.63957662 1.46152713 6.42900286
O 7.44486218 6.95790396 3.36200164
O 8.69503562 4.13995495 0.39433003
O 9.27571171 1.56533279 1.23258810
O 6.22354747 0.23259124 8.29008299
O 3.02948135 7.76923794 0.20108259
O 4.43732384 3.67503546 9.46506071
O 0.49234046 8.09696776 1.54166670
O 9.17630348 4.84675655 9.42636499
O 6.31290608 1.86663448 3.39088927
O 5.72109950 7.94613481 1.31332192
O 6.90863255 4.43367001 9.94243966
O 7.81293403 10.11263855 6.18677946
O 2.00343911 10.26489464 9.01243697
O 0.56411349 6.14053060 8.61046263
O 6.14555140 11.12120650 4.94582972
O 4.80403660 6.45223852 11.09757114
O 7.10148265 9.03677901 3.16866520
O 4.92646929 4.14209196 6.43345976
O 1.55147099 5.76249637 1.51417260
O 3.60386238 1.43758716 8.07313737
O 10.75628284 2.55567474 4.39209552
O 6.07438756 0.22170142 1.49477989
O 1.31770671 7.09663921 3.99736128
O 9.88910729 2.16051067 10.09440043
O 7.70376997 2.86245657 8.11874685
O 6.82324990 5.46711770 7.56578148
O 4.22017451 5.03872566 1.99013503
O 7.93085115 9.43420245 8.58131976
O 10.37502724 10.89043917 6.12216744
O 1.83091633 9.52818367 4.94082110
O 8.79482379 8.23243714 5.16001869
O 0.47129860 8.37598643 9.85211046
O 1.63839403 10.27865997 0.46720148
O 4.40232668 9.93135433 0.05141938
O 10.06293574 2.18042720 6.81906308
O 0.88874928 1.09035515 7.26393934
O 7.82846852 8.82672221 0.45705073
O 10.49654753 9.78455014 3.23160198
O 9.34095952 7.92961252 2.36731494
O 1.28709356 0.65519259 4.99459982
O 2.39269981 1.77055127 10.51865286
O 7.96831146 3.19677688 4.70532357
O 9.72998187 6.66062914 0.13701364
O 8.96634643 4.36808102 6.92430524
O 10.04503865 10.30960260 0.78210698
O 7.49795909 6.87846621 10.07866172
O 5.00491424 1.19733787 10.28159560
O 1.41655867 3.70141532 5.92042385
O 3.33289103 6.89249598 2.51754925
O 5.33055555 8.27522726 9.56005930
O 3.74500102 10.95467222 6.51384737
O 6.38720643 4.56781788 2.85362428
O 3.95925611 8.21998996 4.73443130
O 6.62870904 5.51611925 5.22814702
O 4.79799915 6.81856556 6.64335210
O 10.96362806 6.15035876 6.08728145
O 1.12728299 7.91773419 7.14352171
O 9.00995353 4.86650032 3.27939777
O 2.69745257 9.44577258 2.54415908
O 2.33268801 4.81612045 10.69099928
O 8.63547898 0.65446981 3.98833851
O 10.95678789 11.10719801 9.84757882
O 8.23742274 0.31675014 10.26215480
O 5.41971807 9.37940791 7.43789566
O 9.92815222 8.00362072 8.03294494
O 2.65217528 2.89123998 4.05860888
O 3.74171638 0.31646947 3.74384559
O 0.04018816 4.12517043 10.29999369
O 4.57309220 2.33666091 1.76866767
O 1.67254588 1.17940599 2.11913188
O 3.26732540 8.54749825 7.20073413
O 1.87897434 3.27548571 8.38028046
O 3.49619246 5.57477408 8.46739101
O 6.18331688 8.12633963 5.23516584
O 3.29206371 5.13760192 4.25649654
O 4.53711058 2.01734119 5.25679846
O 0.82308638 4.70542154 3.19785446
O 6.83867179 2.59981200 1.15038338
O 7.66832676 6.08008180 1.12858080
135
Time=400000.00000008 pbc="T T T" Lattice="11.12194768 0.00000000 0.00000000 0.00000000 11.12194768 0.00000000 0.00000000 0.00000000 11.12194768" energy=-925.07462852 virial="237.09346142 7.86898466 35.22734082 7.86898466 244.98718097 -10.94595876 35.22734082 -10.94595876 200.11793642" stress="0.19347639 0.00571974 0.02560574 0.00571974 0.19921411 -0.00795630 0.02560574 -0.00795630 0.16659994" Properties=species:S:1:pos:R:3
Ca 8.81546273 2.41784560 4.33034769
Ca 1.28695359 6.12247793 1.41952213
Ca 5.52547612 7.77389164 10.85331822
Ca 1.26299133 0.55709825 8.85523645
Ca 6.83685389 0.19263935 8.10927169
Ca 5.47058086 8.78656747 5.25131542
Ca 10.43497291 0.87928269 6.84471309
Ca 0.82039117 6.78648866 8.06168538
Ca 2.23352926 8.96118309 0.03334281
Ca 0.06164539 4.80170140 5.26670566
Ca 0.61234553 3.00826444 2.84651715
Ca 9.01459921 4.18591085 11.06647102
Ca 7.88458964 7.20947904 3.51918349
Ca 8.02843389 8.91766292 10.66247412
Ca 4.79595548 1.66061384 2.73387148
Ca 8.00316516 0.56469140 2.01143417
Ca 2.64534152 1.95425519 0.57631834
Ca 6.46760664 4.70288728 9.59310560
Ca 0.23803241 8.46391581 3.21733819
Ca 5.99703135 5.50855106 3.31108593
Ca 4.59541941 3.95734560 0.79885689
Ca 2.19964712 3.87399571 6.97339513
Ca 5.08769552 5.89017473 7.32129952
Ca 8.95214644 6.49183216 8.36858333
Ca 5.17896681 3.40042199 5.57311105
Ca 0.51144914 3.91716266 10.18908931
Ca 2.87663930 10.42542648 2.91405410
Si 2.13816419 7.42046926 5.66471079
Si 9.82736038 5.09071282 2.61111883
Si 10.39904465 7.34970069 10.82846143
Si 3.42935323 8.87454401 8.33900615
Si 10.20477973 3.43841688 7.76012767
Si 8.36602688 10.12387323 4.41333995
Si 4.08370988 2.71598166 8.89073517
Si 9.07887530 1.46466261 9.70886724
Si 6.17172900 1.74116550 10.32999566
Si 3.67045257 0.43895354 6.70945405
Si 7.57091960 6.29486612 0.75769827
Si 1.45664223 9.77403843 5.82437992
Si 6.14124473 0.54888264 5.20485601
Si 3.09180866 5.86969880 10.00253564
Si 3.56023842 7.36016278 3.11557556
Si 7.49057600 5.33810058 6.07710337
Si 4.78048758 10.48684445 10.96985741
Si 7.82098092 2.73675685 7.48620040
Si 10.85890034 11.06315187 1.14994390
Si 10.76744795 10.95514722 3.73034683
Si 6.93190446 3.20025094 1.65083176
Si 10.68123802 9.84423207 9.77011635
Si 5.95020470 9.13888204 2.43859461
Si 9.28254851 8.78618510 6.69514517
Si 3.14308807 4.68703711 3.52631480
Si 1.80425450 1.71773664 4.71367612
Si 6.44514004 8.41367568 8.08403797
O 0.91567754 0.55512923 0.23573115
O 3.69785865 0.13063982 0.77680990
O 6.21266394 6.53079330 5.64194892
O 11.03820008 4.66916995 7.67604347
O 2.09749301 1.28120808 3.09431810
O 7.82652365 0.71691076 10.40787963
O 0.85047035 8.12568618 5.33935328
O 2.10673745 3.42336873 4.90997169
O 6.97163548 7.76071249 1.33098402
O 9.97689535 4.01829680 3.77983929
O 3.75795284 6.03234237 2.48839774
O 6.35617367 6.92313567 8.63746918
O 2.84438774 7.25803768 8.93172848
O 6.88359933 4.36354638 7.23165135
O 10.21851953 5.87985069 10.11950698
O 2.48520553 4.26288800 0.46772130
O 3.05871965 10.54336891 8.00672193
O 6.55877456 9.41802757 9.30695996
O 3.04461491 10.56040959 5.49354817
O 4.52428434 1.24063631 4.83548917
O 6.08410704 5.60639106 0.79022831
O 5.47425583 7.77501416 3.31857178
O 2.05428905 7.65905277 3.09913651
O 2.27127249 8.50095978 7.02930397
O 3.66309073 8.71657769 1.86108164
O 3.27102652 3.32874565 2.33451918
O 9.38256413 7.41431938 0.95439087
O 1.64646769 5.22386116 3.25405396
O 4.66139473 5.65853649 10.11227822
O 7.05713502 3.63643997 0.11921838
O 4.08228759 9.30484754 10.00682188
O 0.49590982 7.74483726 0.43339774
O 9.00743213 5.90882558 6.24388246
O 1.06417495 9.52424323 9.60148276
O 0.70257664 9.97949219 1.93162355
O 10.16688545 0.20669769 9.33545116
O 6.94814965 1.02671667 3.86904288
O 9.93486594 8.43828321 9.69753899
O 4.32786840 1.54245474 7.71812047
O 7.87443243 6.33270671 10.27115226
O 7.40346510 9.58122732 3.13445540
O 10.25115639 7.80694538 7.25790981
O 4.34422253 4.09996139 8.23444135
O 8.60231106 1.51686472 8.17572933
O 4.67866222 2.59284754 10.32774025
O 6.47300711 2.52049701 8.89202924
O 10.25768122 1.01718685 2.30470718
O 2.07235229 1.57113248 6.40020351
O 2.54809751 2.14890751 9.22288630
O 10.32220286 6.37839342 3.09964238
O 5.14157717 10.31254087 3.24268295
O 8.93000092 9.98466536 7.60292127
O 0.21098700 1.50698425 4.51534525
O 5.47983230 0.39044822 9.84598967
O 1.86267071 5.79315324 6.27535359
O 5.86315971 3.61545630 2.67693941
O 1.08327769 10.24601529 4.26572862
O 4.35109110 5.03465691 4.41331884
O 0.67756638 10.47141695 7.06602517
O 6.11018279 10.11020126 0.93448734
O 0.01070265 2.27496341 8.31051435
O 2.07564030 4.90233209 9.23682532
O 7.25856347 10.63341208 5.53003105
O 8.18381035 5.12782378 1.90366733
O 5.95141367 1.65538022 0.94556027
O 3.00407813 6.95118392 0.18989575
O 4.84864331 8.22086294 7.59094035
O 3.62484565 7.50636108 5.00051399
O 8.72671744 3.70440498 8.53239518
O 9.78272118 2.42976201 10.54160382
O 9.51746373 0.03435163 4.95983642
O 5.26276408 10.85408193 6.55792172
O 7.62533163 8.31324907 6.98740821
O 7.30072318 4.43166039 4.66433533
O 6.90187135 1.92342093 6.25600171
O 9.90379353 10.14910621 0.20912258
O 9.45814557 10.04074164 3.08405089
O 9.40757641 3.22250272 6.39791043
O 9.01197950 8.74752648 5.00524402
O 8.34225450 2.70556895 2.11840487
O 10.78257559 4.40658531 1.41234171
135
Time=500000.00000301 pbc="T T T" Lattice="11.12194768 0.00000000 0.00000000 0.00000000 11.12194768 0.00000000 0.00000000 0.00000000 11.12194768" energy=-916.67391153 virial="199.80243906 13.18289826 3.03536090 13.18289826 195.09716636 -19.25367361 3.03536090 -19.25367361 271.57872512" stress="0.16637062 0.00958227 0.00220632 0.00958227 0.16295049 -0.01399494 0.00220632 -0.01399494 0.21854273" Properties=species:S:1:pos:R:3
Ca 7.03976100 2.21096702 8.45781644
Ca 10.56017256 7.91180534 8.57407227
Ca 10.99138040 9.98259802 0.46031527
Ca 4.36261435 6.72869324 9.59827616
Ca 9.08880483 8.29178465 6.39702367
Ca 5.95614939 7.41630394 6.83480705
Ca 7.68266710 2.55342104 4.52179915
Ca 9.92035796 3.59456670 8.36598377
Ca 1.74766650 7.64350581 2.26861223
Ca 4.96230509 7.97772720 0.78510642
Ca 9.67878073 4.88446428 2.47249019
Ca 3.75727888 11.02818827 8.98241416
Ca 10.82667102 6.45433160 0.35940329
Ca 7.54661322 6.33772140 4.04437931
Ca 4.65387816 2.53118158 0.86265136
Ca 6.94137269 10.02311324 9.47362878
Ca 9.56968822 0.26258053 6.82861261
Ca 8.19248551 8.68140524 1.01945886
Ca 0.96076523 9.40200525 5.29868086
Ca 8.05251815 0.46830275 1.68168281
Ca 10.50043286 0.27314981 3.79032117
Ca 1.54434033 2.77215290 6.49461465
Ca 3.50689807 10.57625125 5.40883422
Ca 6.73036566 5.18260098 9.90081378
Ca 3.56641894 7.16235302 4.67813795
Ca 2.08177012 5.77682021 7.22332699
Ca 5.66575792 0.61778567 3.41693904
Si 4.98284385 4.77478920 6.81393094
Si 9.92820166 7.82859860 2.90342753
Si 8.80759899 3.32742609 0.06032036
Si 2.06199276 4.38198994 1.19674287
Si 9.93347430 3.62033848 5.60628783
Si 7.01616134 3.72014666 1.82934242
Si 1.11694268 1.73493709 9.70280177
Si 1.32062445 4.83098799 9.66045187
Si 3.69939806 3.17843326 9.02161239
Si 2.14691783 1.51541116 4.18387989
Si 0.55838375 1.54194194 1.57834445
Si 2.74542200 8.59899194 7.66194964
Si 5.65953936 8.73229641 3.69585327
Si 11.06284997 6.09334923 5.31946980
Si 4.55961975 5.58972036 1.47331163
Si 8.01414967 5.28255879 7.00368937
Si 5.14821601 10.80510474 0.19022709
Si 6.71029955 0.09197588 6.48542523
Si 9.20039430 0.47534240 10.02881755
Si 2.12572100 8.89184866 10.74130993
Si 5.17517263 4.41923914 3.92075482
Si 8.46950843 9.71366333 4.17872494
Si 2.86539260 10.41091018 2.55351713
Si 0.85496005 10.38473357 8.69952700
Si 4.66069833 2.27681201 6.22297314
Si 2.36360418 4.60553164 3.46145292
Si 8.07232705 7.40435680 9.21194802
O 10.57929262 8.17658815 1.36782945
O 5.16867623 2.91555888 4.48595593
O 3.20056724 7.57181962 0.02982727
O 0.98464572 1.21690739 0.10171102
O 1.23894126 0.47942886 4.87407439
O 10.50017677 10.52757320 9.60041713
O 1.84677941 9.46382848 3.52041282
O 10.81293488 7.23684682 6.39937033
O 8.34255895 0.30680142 8.67047019
O 4.47469837 9.02581387 7.72511200
O 3.03293081 3.43628646 2.28929487
O 10.22289311 0.99083020 1.71742514
O 2.98225804 4.84558386 9.07904439
O 5.31524110 0.78594099 5.49209451
O 8.27337031 3.85331276 6.23815977
O 0.07407519 7.44149058 3.88999751
O 9.08652667 8.24811958 4.15634364
O 0.62981669 8.22052450 10.52317879
O 5.26782248 4.39062094 2.32828398
O 4.27488549 9.13588944 2.82951936
O 1.55646758 0.85183257 2.54442033
O 9.86370673 4.61323410 0.13156092
O 10.41025105 2.16824754 6.48244134
O 1.16689237 0.84667488 8.43602439
O 3.37222980 0.47430630 3.64841735
O 0.13215485 4.71228355 6.30526392
O 2.02582185 9.56421817 1.09692511
O 0.92296828 3.42487539 9.02053507
O 2.11317744 10.21617745 7.49825333
O 8.84790456 6.74363184 2.16182891
O 1.38766623 5.42798482 2.32221895
O 3.79883475 0.37078655 1.00872343
O 2.33492811 7.75779654 8.93150237
O 3.45258848 4.67686729 0.38970862
O 5.70902498 0.83999650 10.27779947
O 9.73305144 2.71959912 4.08963847
O 9.53424203 5.49792308 4.83169044
O 3.84643853 4.97244300 4.36316877
O 5.98798553 6.15252114 0.76597517
O 1.21908575 5.12772367 11.08955339
O 7.99719120 0.41736229 3.98462513
O 8.74189210 10.44967656 0.01009312
O 6.54967438 2.05450819 2.20327008
O 8.24308320 3.52686198 9.71301556
O 7.34161556 9.89593737 5.98669066
O 8.70691427 6.20755632 8.09052211
O 10.54956191 2.06241062 9.67060474
O 6.56998057 4.85543416 7.94909100
O 5.75418917 0.00351383 7.90400815
O 9.91542683 10.07213582 5.16922136
O 6.61305540 3.96375379 0.37042506
O 7.83656585 6.82340369 6.10891414
O 3.19658119 1.62472922 5.57961847
O 7.57589418 1.41157230 6.36962321
O 1.55136149 3.07856944 4.39866832
O 8.23980486 1.67213858 10.91894335
O 8.70278720 3.36090095 1.81138055
O 3.85482987 2.03645997 7.67190269
O 7.13283626 9.27526227 3.15048451
O 5.10032656 3.70674016 9.61129811
O 0.34747714 5.80508365 8.63465283
O 2.15342667 7.84892734 6.21169326
O 0.60424132 3.33602915 1.34158274
O 3.58998369 6.34803161 2.37062401
O 4.45352855 6.34009487 7.46321223
O 5.67128023 7.09330781 3.68008225
O 4.49135119 9.51179292 10.29263234
O 1.57807615 5.47457211 4.78355866
O 2.00136914 10.20875356 9.98431334
O 10.98802443 9.80018760 7.69140137
O 6.04527160 5.28756516 5.63157499
O 7.10685123 4.39398747 3.57077182
O 8.36268437 8.80586236 8.43435751
O 6.47244484 7.82705778 9.30555245
O 8.87907000 7.22740815 10.50023107
O 6.29319295 9.75453921 0.65215488
O 3.46928947 4.10229024 6.68509713
O 5.91786575 3.06232547 6.68066375
O 9.40453211 9.89245556 2.37487483
O 5.31870195 8.77567421 5.19819279
O 2.79253513 2.22024348 10.00799772
135
Time=600000.00000594 pbc="T T T" Lattice="11.12194768 0.00000000 0.00000000 0.00000000 11.12194768 0.00000000 0.00000000 0.00000000 11.12194768" energy=-916.99682667 virial="273.88677826 5.33527179 34.28009487 5.33527179 231.90062910 27.26358352 34.28009487 27.26358352 227.42106070" stress="0.22022039 0.00387806 0.02491721 0.00387806 0.18970187 0.01981711 0.02491721 0.01981711 0.18644580" Properties=species:S:1:pos:R:3
Ca 5.63155358 8.21952693 6.12868585
Ca 9.97363055 9.77343847 1.74974221
Ca 10.40954851 1.68547191 10.54783136
Ca 3.14899649 6.24237608 10.07261993
Ca 6.53808722 5.32297861 7.54892333
Ca 3.22224382 9.15727896 8.70471179
Ca 7.57678221 4.13240548 5.30773864
Ca 2.44548938 3.32055071 7.95444043
Ca 9.11465429 7.37086172 8.58754013
Ca 5.21906447 3.71489329 9.91258934
Ca 0.26587539 4.96683871 0.70200642
Ca 6.41658733 0.94002932 5.25327327
Ca 10.72685122 4.51915941 8.87028816
Ca 8.51859826 3.16110331 2.07339017
Ca 5.22969206 2.53149628 1.71267962
Ca 6.36271284 10.12891926 8.56686984
Ca 0.22059805 2.55090637 5.75290306
Ca 6.51254757 5.63222213 1.73207641
Ca 3.97739210 0.09272614 3.16898579
Ca 1.95336544 5.37768955 4.09029176
Ca 2.09058065 8.07379033 1.47650698
Ca 1.63373072 10.93866657 0.12916724
Ca 8.05383016 7.91038032 4.62959320
Ca 8.59999491 1.71720821 7.73045106
Ca 2.71464932 8.21636695 4.97373897
Ca 0.43461809 9.50967985 7.01279484
Ca 4.47527355 3.26774530 5.59670762
Si 10.01315853 5.20471920 3.57967584
Si 9.51474165 7.02023619 1.22348070
Si 0.94951927 0.60952466 8.51009464
Si 2.98358932 2.40582344 10.54546352
Si 7.55614274 1.38886718 10.41557196
Si 4.98145847 5.73387176 4.23423750
Si 5.01566575 10.92838268 0.15924644
Si 0.73623000 7.68630307 10.00365873
Si 1.25117411 10.73522469 3.84416848
Si 7.13622856 0.20370148 2.43450934
Si 0.54555606 2.08589245 1.97867755
Si 5.52133751 8.95910801 3.15701481
Si 7.28419582 8.86241432 0.75916618
Si 0.09426012 7.93959912 4.38930730
Si 8.15529958 4.40481951 10.38830721
Si 9.80305552 5.70618221 6.46296567
Si 3.57242438 5.53800665 1.76137470
Si 9.40772450 0.86855506 4.46957527
Si 9.51449483 10.06214412 9.51699119
Si 4.86245609 8.55694243 0.22868543
Si 3.91870763 5.81568317 7.14190598
Si 2.95503620 2.71887651 3.48233590
Si 3.12843129 0.03647752 6.32493761
Si 8.67794143 9.80426445 6.45542533
Si 5.15191033 1.08834814 7.80559537
Si 1.08098947 6.27502988 7.09440182
Si 5.89571219 7.16752228 9.70928983
O 9.62538128 3.57105609 10.76049635
O 6.70708806 0.99961559 8.13520085
O 10.62502843 6.36020312 7.79306364
O 0.94928937 4.76210123 6.71667050
O 10.63867309 3.28403547 2.25924808
O 1.97529978 1.81203783 2.89512570
O 10.93632968 4.39052637 4.58965518
O 4.86916460 8.25240339 9.85215811
O 6.92816096 3.94424527 0.47063006
O 3.94679407 9.01912503 3.10970173
O 2.83291875 9.55331163 6.68828972
O 10.98245132 0.55250836 4.51600700
O 6.29146859 2.69735504 6.57833067
O 10.66697070 8.39482245 9.33415657
O 5.61082250 4.42243866 3.57372745
O 8.63410190 11.09579184 3.45547153
O 1.59870121 10.41046798 8.93895233
O 8.82108915 6.00987968 0.45991472
O 6.99164196 1.80984692 3.06707935
O 10.10272058 8.49491629 3.27137600
O 2.23769805 3.02521855 5.18023939
O 8.37718816 1.34162037 0.77770066
O 4.26380219 7.44686474 7.41785000
O 4.46404804 4.44737970 0.99576382
O 5.73351896 7.92819802 4.25327155
O 3.62896983 6.03974173 5.54043073
O 1.44617262 2.82270967 0.52438586
O 8.63397919 0.37337008 6.00334224
O 4.26193004 1.45819121 6.54528045
O 7.82475117 10.38116544 1.36773782
O 1.31488381 7.40054145 3.42647717
O 2.28290930 5.80330223 1.24430865
O 4.26318764 1.93654740 9.11883207
O 10.48105816 10.27684809 10.94804516
O 6.43059696 7.27848083 0.14011632
O 0.97303963 9.52596774 4.88034107
O 5.92833819 5.91002785 5.48983754
O 4.29531664 2.10956554 3.67055000