 vasp.5.4.4.18Apr17-6-g9f103f2a35 (build Mar 16 2023 09:39:13) complex          
  
 executed on             LinuxIFC date 2024.04.29  23:06:57
 running on   48 total cores
 distrk:  each k-point on   48 cores,    1 groups
 distr:  one band on NCORES_PER_BAND=  12 cores,    4 groups


--------------------------------------------------------------------------------------------------------


 INCAR:
 POTCAR:    PAW_PBE Ca_sv 06Sep2000               
 POTCAR:    PAW_PBE Si 05Jan2001                  
 POTCAR:    PAW_PBE O 08Apr2002                   
 POTCAR:    PAW_PBE Ca_sv 06Sep2000               
   SHA256 =  a47365830e737f14e0e6c5cf1ed81b94e081eecf0a33df105380881bc9da05d5 Ca
   COPYR  = (c) Copyright 06Sep2000 Georg Kresse                                
   COPYR  = This file is part of the software VASP. Any use, copying, and all ot
   COPYR  = If you do not have a valid VASP license, you may not use, copy or di
   VRHFIN =Ca: 3s3p4s                                                           
   LEXCH  = PE                                                                  
   EATOM  =  1006.0909 eV,   73.9456 Ry                                         
                                                                                
   TITEL  = PAW_PBE Ca_sv 06Sep2000                                             
   LULTRA =        F    use ultrasoft PP ?                                      
   IUNSCR =        1    unscreen: 0-lin 1-nonlin 2-no                           
   RPACOR =    2.000    partial core radius                                     
   POMASS =   40.078; ZVAL   =   10.000    mass and valenz                      
   RCORE  =    2.300    outmost cutoff radius                                   
   RWIGS  =    2.500; RWIGS  =    1.323    wigner-seitz radius (au A)           
   ENMAX  =  266.622; ENMIN  =  199.967 eV                                      
   RCLOC  =    1.808    cutoff for local pot                                    
   LCOR   =        T    correct aug charges                                     
   LPAW   =        T    paw PP                                                  
   EAUG   =  420.852                                                            
   RMAX   =    2.359    core radius for proj-oper                               
   RAUG   =    1.300    factor for augmentation sphere                          
   RDEP   =    2.392    radius for radial grids                                 
   RDEPT  =    1.987    core radius for aug-charge                              
                                                                                
   Atomic configuration                                                         
    7 entries                                                                   
     n  l   j            E        occ.                                          
     1  0  0.50     -3949.1705   2.0000                                         
     2  0  0.50      -414.3434   2.0000                                         
     2  1  1.50      -334.7047   6.0000                                         
     3  0  0.50       -47.0896   2.0000                                         
     4  0  0.50        -3.7663   2.0000                                         
     3  1  1.50       -28.0061   6.0000                                         
     3  2  1.50        -4.0817   0.0000                                         
   Description                                                                  
     l       E           TYP  RCUT    TYP  RCUT                                 
     0    -47.0896403     23  2.300                                             
     0     -3.7663320     23  2.300                                             
     1    -28.0060855     23  2.300                                             
     1      6.8029130     23  2.300                                             
     2     -4.0817478     23  2.300                                             
     2      0.4464412     23  2.300                                             
  local pseudopotential read in
  partial core-charges read in
  partial kinetic energy density read in
  atomic valenz-charges read in
  non local Contribution for L=           0  read in
    real space projection operators read in
  non local Contribution for L=           0  read in
    real space projection operators read in
  non local Contribution for L=           1  read in
    real space projection operators read in
  non local Contribution for L=           1  read in
    real space projection operators read in
  non local Contribution for L=           2  read in
    real space projection operators read in
  non local Contribution for L=           2  read in
    real space projection operators read in
    PAW grid and wavefunctions read in
 
   number of l-projection  operators is LMAX  =           6
   number of lm-projection operators is LMMAX =          18
 
 POTCAR:    PAW_PBE Si 05Jan2001                  
   SHA256 =  79d9987ad8750f624c4d6acb2a16d13abf6a777132adc04dc6c8399be72b42bb Si
   COPYR  = (c) Copyright 05Jan2001 Georg Kresse                                
   COPYR  = This file is part of the software VASP. Any use, copying, and all ot
   COPYR  = If you do not have a valid VASP license, you may not use, copy or di
   VRHFIN =Si: s2p2                                                             
   LEXCH  = PE                                                                  
   EATOM  =   103.0669 eV,    7.5752 Ry                                         
                                                                                
   TITEL  = PAW_PBE Si 05Jan2001                                                
   LULTRA =        F    use ultrasoft PP ?                                      
   IUNSCR =        1    unscreen: 0-lin 1-nonlin 2-no                           
   RPACOR =    1.500    partial core radius                                     
   POMASS =   28.085; ZVAL   =    4.000    mass and valenz                      
   RCORE  =    1.900    outmost cutoff radius                                   
   RWIGS  =    2.480; RWIGS  =    1.312    wigner-seitz radius (au A)           
   ENMAX  =  245.345; ENMIN  =  184.009 eV                                      
   ICORE  =        2    local potential                                         
   LCOR   =        T    correct aug charges                                     
   LPAW   =        T    paw PP                                                  
   EAUG   =  322.069                                                            
   DEXC   =    0.000                                                            
   RMAX   =    1.950    core radius for proj-oper                               
   RAUG   =    1.300    factor for augmentation sphere                          
   RDEP   =    1.993    radius for radial grids                                 
   RDEPT  =    1.837    core radius for aug-charge                              
                                                                                
   Atomic configuration                                                         
    6 entries                                                                   
     n  l   j            E        occ.                                          
     1  0  0.50     -1785.8828   2.0000                                         
     2  0  0.50      -139.4969   2.0000                                         
     2  1  1.50       -95.5546   6.0000                                         
     3  0  0.50       -10.8127   2.0000                                         
     3  1  0.50        -4.0811   2.0000                                         
     3  2  1.50        -4.0817   0.0000                                         
   Description                                                                  
     l       E           TYP  RCUT    TYP  RCUT                                 
     0    -10.8127223     23  1.900                                             
     0     -7.6451159     23  1.900                                             
     1     -4.0811372     23  1.900                                             
     1      2.4879257     23  1.900                                             
     2     -4.0817478      7  1.900                                             
  local pseudopotential read in
  partial core-charges read in
  partial kinetic energy density read in
  atomic valenz-charges read in
  non local Contribution for L=           0  read in
    real space projection operators read in
  non local Contribution for L=           0  read in
    real space projection operators read in
  non local Contribution for L=           1  read in
    real space projection operators read in
  non local Contribution for L=           1  read in
    real space projection operators read in
    PAW grid and wavefunctions read in
 
   number of l-projection  operators is LMAX  =           4
   number of lm-projection operators is LMMAX =           8
 
 POTCAR:    PAW_PBE O 08Apr2002                   
   SHA256 =  818f92134a0a090dccd8ba1447fa70422a3b330e708bb4f08108d8ae51209ddf O/
   COPYR  = (c) Copyright 08Apr2002 Georg Kresse                                
   COPYR  = This file is part of the software VASP. Any use, copying, and all ot
   COPYR  = If you do not have a valid VASP license, you may not use, copy or di
   VRHFIN =O: s2p4                                                              
   LEXCH  = PE                                                                  
   EATOM  =   432.3788 eV,   31.7789 Ry                                         
                                                                                
   TITEL  = PAW_PBE O 08Apr2002                                                 
   LULTRA =        F    use ultrasoft PP ?                                      
   IUNSCR =        1    unscreen: 0-lin 1-nonlin 2-no                           
   RPACOR =    1.200    partial core radius                                     
   POMASS =   16.000; ZVAL   =    6.000    mass and valenz                      
   RCORE  =    1.520    outmost cutoff radius                                   
   RWIGS  =    1.550; RWIGS  =    0.820    wigner-seitz radius (au A)           
   ENMAX  =  400.000; ENMIN  =  300.000 eV                                      
   ICORE  =        2    local potential                                         
   LCOR   =        T    correct aug charges                                     
   LPAW   =        T    paw PP                                                  
   EAUG   =  605.392                                                            
   DEXC   =    0.000                                                            
   RMAX   =    1.553    core radius for proj-oper                               
   RAUG   =    1.300    factor for augmentation sphere                          
   RDEP   =    1.550    radius for radial grids                                 
   RDEPT  =    1.329    core radius for aug-charge                              
                                                                                
   Atomic configuration                                                         
    4 entries                                                                   
     n  l   j            E        occ.                                          
     1  0  0.50      -514.6923   2.0000                                         
     2  0  0.50       -23.9615   2.0000                                         
     2  1  0.50        -9.0305   4.0000                                         
     3  2  1.50        -9.5241   0.0000                                         
   Description                                                                  
     l       E           TYP  RCUT    TYP  RCUT                                 
     0    -23.9615318     23  1.200                                             
     0     -9.5240782     23  1.200                                             
     1     -9.0304911     23  1.520                                             
     1      8.1634956     23  1.520                                             
     2     -9.5240782      7  1.500                                             
  local pseudopotential read in
  partial core-charges read in
  partial kinetic energy density read in
  kinetic energy density of atom read in
  atomic valenz-charges read in
  non local Contribution for L=           0  read in
    real space projection operators read in
  non local Contribution for L=           0  read in
    real space projection operators read in
  non local Contribution for L=           1  read in
    real space projection operators read in
  non local Contribution for L=           1  read in
    real space projection operators read in
    PAW grid and wavefunctions read in
 
   number of l-projection  operators is LMAX  =           4
   number of lm-projection operators is LMMAX =           8
 
 Optimization of the real space projectors (new method)

 maximal supplied QI-value         = 16.25
 optimisation between [QCUT,QGAM] = [ 12.51, 25.03] = [ 43.85,175.40] Ry 
 Optimized for a Real-space Cutoff    1.47 Angstroem

   l    n(q)    QCUT    max X(q) W(low)/X(q) W(high)/X(q)  e(spline) 
   0     11    12.514    11.817    0.25E-04    0.32E-05    0.87E-07
   0     11    12.514     8.461    0.39E-04    0.59E-05    0.18E-06
   1     11    12.514     3.957    0.97E-05    0.57E-05    0.28E-07
   1     11    12.514     4.314    0.42E-04    0.14E-04    0.23E-06
   2     10    12.514    14.565    0.79E-04    0.50E-03    0.16E-05
   2     10    12.514    14.552    0.75E-04    0.48E-03    0.15E-05
 Optimization of the real space projectors (new method)

 maximal supplied QI-value         = 19.84
 optimisation between [QCUT,QGAM] = [ 12.50, 25.00] = [ 43.76,175.03] Ry 
 Optimized for a Real-space Cutoff    1.16 Angstroem

   l    n(q)    QCUT    max X(q) W(low)/X(q) W(high)/X(q)  e(spline) 
   0      9    12.501   159.560    0.10E-03    0.83E-04    0.71E-07
   0      9    12.501   115.863    0.99E-04    0.81E-04    0.70E-07
   1      8    12.501    88.339    0.20E-03    0.25E-03    0.76E-07
   1      8    12.501    48.592    0.20E-03    0.24E-03    0.75E-07
 Optimization of the real space projectors (new method)

 maximal supplied QI-value         = 24.76
 optimisation between [QCUT,QGAM] = [ 12.38, 25.00] = [ 42.90,175.06] Ry 
 Optimized for a Real-space Cutoff    1.16 Angstroem

   l    n(q)    QCUT    max X(q) W(low)/X(q) W(high)/X(q)  e(spline) 
   0      9    12.378    20.381    0.16E-03    0.67E-05    0.31E-06
   0      9    12.378    15.268    0.17E-03    0.81E-05    0.33E-06
   1      8    12.378     5.964    0.20E-03    0.16E-03    0.30E-06
   1      8    12.378     5.382    0.18E-03    0.14E-03    0.26E-06
  PAW_PBE Ca_sv 06Sep2000               :
 energy of atom  1       EATOM=-1006.0909
 kinetic energy error for atom=    0.0012 (will be added to EATOM!!)
  PAW_PBE Si 05Jan2001                  :
 energy of atom  2       EATOM= -103.0669
 kinetic energy error for atom=    0.0003 (will be added to EATOM!!)
  PAW_PBE O 08Apr2002                   :
 energy of atom  3       EATOM= -432.3788
 kinetic energy error for atom=    0.0168 (will be added to EATOM!!)
 
 
 POSCAR: Ca Si  O                                
  positions in direct lattice
  No initial velocities read in
 exchange correlation table for  LEXCH =        8
   RHO(1)=    0.500       N(1)  =     2000
   RHO(2)=  100.500       N(2)  =     4000
 


--------------------------------------------------------------------------------------------------------


 ion  position               nearest neighbor table
   1  0.289  0.442  0.528-  82 2.11 120 2.13  56 2.15 106 2.16  78 2.18 108 2.18 105 2.29  93 2.50
                            47 2.60  34 2.68  46 2.89  51 2.97  21 3.04
   2  0.813  0.222  0.981-  71 2.00  79 2.14 116 2.30  73 2.36  74 2.36  67 2.52  94 2.53 107 2.55
                            18 2.92  14 2.98  41 2.98  52 3.01  29 3.06
   3  0.251  0.136  0.848- 110 2.25  64 2.25  58 2.28  85 2.45 114 2.47 123 2.53 105 2.53  34 2.65
                            52 2.71  33 2.90  11 3.02  50 3.04  29 3.16
   4  0.624  0.435  0.869-  80 2.22  69 2.23 115 2.23  91 2.28  71 2.36  74 2.37  79 2.44 126 2.55
                           121 2.56  21 2.85  43 2.92  29 2.97  41 2.98  35 3.05  50 3.11
   5  0.376  0.305  0.126- 132 2.27 112 2.31 118 2.34  64 2.34  69 2.37  98 2.40  56 2.50  57 2.52
                            96 2.53  29 2.80  36 2.91  51 2.92  20 2.97  40 3.05  50 3.07
   6  0.720  0.677  0.073-  80 2.16 129 2.21 102 2.22  76 2.37 126 2.39  84 2.48 133 2.56  43 2.89
                            30 2.92  35 2.92  14 2.98  48 3.03  38 3.09
   7  0.934  0.127  0.544-  86 2.15  92 2.21 101 2.31  83 2.39  67 2.39 110 2.42  68 2.54  41 2.77
                            28 2.85  45 2.89  54 2.98  42 3.03  52 3.12
   8  0.012  0.670  0.438-  81 2.00 130 2.13 111 2.27 134 2.31  93 2.37 106 2.43 127 2.44 125 2.52
                            28 2.55  49 2.64  42 2.89  47 2.91
   9  0.049  0.356  0.810- 124 2.06  71 2.31  73 2.35 113 2.42 110 2.42  75 2.48  64 2.52  43 2.71
                            40 2.94  52 3.01  50 3.08  44 3.09  41 3.12  16 3.16
  10  0.967  0.480  0.177- 104 2.09 124 2.12 100 2.19 129 2.20 118 2.44  81 2.47 134 2.48 133 2.54
                            16 2.69  43 2.77  40 2.78  47 2.81  39 2.90
  11  0.184  0.920  0.672- 128 2.15 125 2.23  62 2.39 131 2.42  61 2.42  58 2.46 101 2.48  37 2.96
                            33 3.00  52 3.01  46 3.01   3 3.02  23 3.09  28 3.13  34 3.15
  12  0.853  0.907  0.320- 122 2.15  86 2.35  94 2.42  83 2.45 130 2.48 119 2.50  81 2.54  28 2.65
                            32 2.97  14 2.98  45 3.04  39 3.08  49 3.12  54 3.15
  13  0.364  0.676  0.777- 135 2.15 115 2.17  75 2.29 131 2.44 126 2.53  46 2.82  44 2.87  50 2.95
                            37 2.99  48 3.08
  14  0.763  0.956  0.058- 122 1.99  94 2.03  77 2.04  66 2.05  84 2.11 116 2.14  18 2.70  12 2.98
                             2 2.98   6 2.98  24 3.13  22 3.17
  15  0.819  0.571  0.675- 121 1.87  87 2.21  91 2.24  90 2.34 113 2.42 111 2.45 127 2.55 103 2.56
                            43 2.85  48 2.91  21 2.95  42 3.01  44 3.09  53 3.14
  16  0.153  0.546  0.016- 124 2.02  57 2.23  75 2.29 118 2.30 104 2.33  10 2.69  50 2.88  39 2.88
                            40 3.00  43 3.02   9 3.16
  17  0.734  0.006  0.762-  70 2.07 116 2.32  84 2.33  79 2.38 103 2.39  67 2.45 101 2.53  41 2.92
                            45 2.94  48 2.96  33 2.99  52 3.01
  18  0.629  0.142  0.172-  66 1.97  74 2.12  77 2.18 107 2.32  94 2.34  98 2.36  96 2.41  29 2.64
                            14 2.70   2 2.92  35 2.96  54 2.97
  19  0.498  0.539  0.334-  60 2.13  89 2.17  63 2.29  78 2.31  56 2.36  97 2.37 108 2.38  96 2.39
                            35 2.86  51 2.88  31 2.95  21 3.06  30 3.08  49 3.10
  20  0.187  0.236  0.322- 112 2.02 120 2.19  65 2.25  56 2.28 118 2.33 132 2.38  82 2.39 119 2.45
                           100 2.51  40 2.84  47 2.88  36 2.95   5 2.97  51 3.03  34 3.07  32 3.14
  21  0.558  0.492  0.614-  78 1.80  91 1.92  63 2.09 115 2.13 108 2.22 135 2.27   4 2.85  25 2.87
                            15 2.95  26 3.01  53 3.03   1 3.04  19 3.06
  22  0.471  0.917  0.996-  85 1.92  98 2.08  55 2.10  77 2.27 109 2.35 102 2.36 123 2.39 117 2.48
                            36 2.79  33 2.84  37 2.85  29 2.92  38 2.98  30 3.10  14 3.17
  23  0.364  0.996  0.455-  99 2.18  65 2.18  62 2.20 128 2.22  58 2.37  72 2.49 132 2.52  32 2.70
                            36 2.99  11 3.09  34 3.10  46 3.11  33 3.13
  24  0.050  0.004  0.113-  88 2.16 122 2.23 119 2.26  95 2.33 123 2.40  94 2.43 112 2.43  73 2.56
                            61 2.57  39 2.75  40 2.92  32 2.92  37 2.99  36 3.00  14 3.13  52 3.15
  25  0.520  0.225  0.644-  68 2.09 114 2.21  70 2.24  58 2.36  78 2.39  72 2.51  82 2.55  33 2.79
                            51 2.84  21 2.87  45 2.93  41 2.93  34 3.09  26 3.10
  26  0.715  0.322  0.447-  68 1.99  92 2.34  90 2.36  83 2.37  96 2.42  91 2.49  51 2.77  54 2.85
                            41 2.88  45 2.92  21 3.01  42 3.08  25 3.10
  27  0.954  0.808  0.878-  61 2.08 131 2.23  84 2.32 116 2.46 127 2.47 113 2.54 129 2.57  37 2.88
                            52 2.91  39 2.92  44 2.94
  28  0.918  0.858  0.557- 130 1.64  86 1.65 101 1.68 111 1.70 127 1.73 103 2.32   8 2.55  12 2.65
                             7 2.85  32 3.09  11 3.13
  29  0.529  0.182  0.947-  98 1.54  77 1.63 114 1.67  69 1.73  74 1.82  79 2.11  18 2.64   5 2.80
                            22 2.92   4 2.97   2 3.06  33 3.14   3 3.16
  30  0.448  0.632  0.062- 102 1.59  57 1.72 109 1.78  60 1.90  97 1.94 126 2.02  31 2.91   6 2.92
                            19 3.08  22 3.10  38 3.13
  31  0.328  0.754  0.278-  97 1.52  99 1.60  89 1.64 117 1.72 106 2.40  38 2.52  46 2.59  30 2.91
                            19 2.95  47 2.97  32 3.13
  32  0.126  0.949  0.373-  65 1.55 130 1.56  88 1.76 128 1.80 119 1.87  99 2.06  23 2.70  24 2.92
                            12 2.97  36 3.08  28 3.09  31 3.13  20 3.14
  33  0.453  0.987  0.737- 114 1.57  58 1.80  55 1.81  85 1.81  70 1.81  62 2.22  25 2.79  22 2.84
                             3 2.90  17 2.99  11 3.00  23 3.13  29 3.14
  34  0.231  0.208  0.608-  82 1.68 120 1.75  58 1.79 110 1.81 105 1.81 128 2.14   3 2.65   1 2.68
                            20 3.07  25 3.09  23 3.10  11 3.15
  35  0.662  0.419  0.155-  60 1.53  80 1.76 133 1.79  74 1.82 107 1.84  96 2.01  19 2.86   6 2.92
                            18 2.96   4 3.05
  36  0.324  0.039  0.178- 123 1.60  65 1.66 132 1.78 117 1.83 112 2.03  98 2.07  22 2.79   5 2.91
                            20 2.95  23 2.99  24 3.00  32 3.08
  37  0.215  0.852  0.942-  95 1.55  61 1.77 131 1.77  85 1.85 109 1.87 123 1.97  22 2.85  27 2.88
                            11 2.96  24 2.99  13 2.99
  38  0.551  0.833  0.253-  66 1.67  76 1.67 102 1.68 117 1.76  89 1.85  59 2.30  31 2.52  22 2.98
                             6 3.09  30 3.13
  39  0.017  0.747  0.140- 122 1.64  95 1.65  88 1.71 104 1.72 129 1.76  81 2.18  24 2.75  16 2.88
                            10 2.90  27 2.92  12 3.08
  40  0.094  0.274  0.073- 100 1.57  73 1.60 112 1.64  64 1.73 118 2.00 124 2.02  10 2.78  20 2.84
                            24 2.92   9 2.94  16 3.00   5 3.05
  41  0.787  0.272  0.705-  91 1.63  67 1.65  87 1.73  79 1.77  68 1.78  71 2.11   7 2.77  26 2.88
                            17 2.92  25 2.93   2 2.98   4 2.98   9 3.12
  42  0.986  0.407  0.512- 134 1.60  87 1.65  92 1.71  93 1.90 120 1.95  90 2.12   8 2.89  15 3.01
                             7 3.03  26 3.08
  43  0.883  0.510  0.931-  71 1.66 121 1.71 113 1.72 124 1.74  80 1.76 129 1.93   9 2.71  10 2.77
                            15 2.85   6 2.89   4 2.92  16 3.02
  44  0.101  0.630  0.723-  93 1.68 113 1.71 131 1.75 125 1.81 127 1.87  75 1.94  13 2.87  27 2.94
                            15 3.09   9 3.09
  45  0.676  0.052  0.494-  83 1.67  86 1.71  68 1.76  70 1.80  72 1.86  59 1.96   7 2.89  26 2.92
                            25 2.93  17 2.94  12 3.04
  46  0.309  0.715  0.519- 108 1.51 125 1.62  99 1.72  62 1.80 106 1.83  89 2.26  31 2.59  13 2.82
                             1 2.89  11 3.01  23 3.11
  47  0.195  0.508  0.311- 106 1.52  56 1.67 134 1.74 118 1.80 104 1.92  97 2.25   1 2.60  10 2.81
                            20 2.88   8 2.91  31 2.97
  48  0.646  0.743  0.804- 126 1.67  55 1.71  84 1.71 103 1.81 135 1.84 121 2.11  53 2.67  15 2.91
                            17 2.96   6 3.03  13 3.08
  49  0.775  0.627  0.373-  90 1.59  81 1.62 133 1.65  76 1.83  63 1.89 111 1.95   8 2.64  53 2.84
                            19 3.10  12 3.12
  50  0.331  0.411  0.860- 115 1.65  69 1.68  75 1.73 105 1.83  57 1.84  64 2.01  16 2.88  13 2.95
                             3 3.04   5 3.07   9 3.08   4 3.11
  51  0.464  0.274  0.386-  96 1.56  72 1.66  78 1.72  82 1.81 132 1.85  56 2.19  26 2.77  25 2.84
                            19 2.88   5 2.92   1 2.97  20 3.03
  52  0.002  0.075  0.827- 116 1.61  67 1.70  61 1.74 110 1.87  73 1.91 101 2.09   3 2.71  27 2.91
                            11 3.01  17 3.01   2 3.01   9 3.01   7 3.12  24 3.15
  53  0.629  0.764  0.553-  59 1.62  63 1.70 135 1.75 103 1.76 111 2.10  48 2.67  49 2.84  21 3.03
                            15 3.14
  54  0.884  0.200  0.276-  94 1.67 107 1.70 100 1.73  92 1.81  83 1.87 119 1.98  26 2.85  18 2.97
                             7 2.98  12 3.15
  55  0.533  0.858  0.816-  48 1.71  33 1.81  22 2.10
  56  0.317  0.409  0.329-  47 1.67   1 2.15  51 2.19  20 2.28  19 2.36   5 2.50
  57  0.361  0.508  0.002-  30 1.72  50 1.84  16 2.23   5 2.52
  58  0.343  0.090  0.657-  34 1.79  33 1.80   3 2.28  25 2.36  23 2.37  11 2.46
  59  0.634  0.877  0.449-  53 1.62  45 1.96  38 2.30
  60  0.546  0.504  0.142-  35 1.53  30 1.90  19 2.13
  61  0.093  0.948  0.880-  52 1.74  37 1.77  27 2.08  11 2.42  24 2.57
  62  0.384  0.845  0.597-  46 1.80  23 2.20  33 2.22  11 2.39
  63  0.634  0.620  0.482-  53 1.70  49 1.89  21 2.09  19 2.29
  64  0.218  0.306  0.971-  40 1.73  50 2.01   3 2.25   5 2.34   9 2.52
  65  0.229  0.028  0.302-  32 1.55  36 1.66  23 2.18  20 2.25
  66  0.632  0.958  0.201-  38 1.67  18 1.97  14 2.05
  67  0.893  0.174  0.762-  41 1.65  52 1.70   7 2.39  17 2.45   2 2.52
  68  0.705  0.190  0.582-  45 1.76  41 1.78  26 1.99  25 2.09   7 2.54
  69  0.451  0.323  0.915-  50 1.68  29 1.73   4 2.23   5 2.37
  70  0.585  0.024  0.634-  45 1.80  33 1.81  17 2.07  25 2.24
  71  0.839  0.373  0.869-  43 1.66   2 2.00  41 2.11   9 2.31   4 2.36
  72  0.545  0.144  0.422-  51 1.66  45 1.86  23 2.49  25 2.51
  73  0.033  0.192  0.961-  40 1.60  52 1.91   9 2.35   2 2.36  24 2.56
  74  0.612  0.297  0.045-  35 1.82  29 1.82  18 2.12   2 2.36   4 2.37
  75  0.218  0.519  0.811-  50 1.73  44 1.94  16 2.29  13 2.29   9 2.48
  76  0.670  0.733  0.284-  38 1.67  49 1.83   6 2.37
  77  0.625  0.066  0.980-  29 1.63  14 2.04  18 2.18  22 2.27
  78  0.487  0.392  0.496-  51 1.72  21 1.80   1 2.18  19 2.31  25 2.39
  79  0.683  0.216  0.825-  41 1.77  29 2.11   2 2.14  17 2.38   4 2.44
  80  0.753  0.480  0.030-  43 1.76  35 1.76   6 2.16   4 2.22
  81  0.896  0.672  0.289-  49 1.62   8 2.00  39 2.18  10 2.47  12 2.54
  82  0.333  0.250  0.494-  34 1.68  51 1.81   1 2.11  20 2.39  25 2.55
  83  0.774  0.115  0.385-  45 1.67  54 1.87  26 2.37   7 2.39  12 2.45
  84  0.738  0.835  0.900-  48 1.71  14 2.11  27 2.32  17 2.33   6 2.48
  85  0.350  0.927  0.861-  33 1.81  37 1.85  22 1.92   3 2.45
  86  0.809  0.967  0.530-  28 1.65  45 1.71   7 2.15  12 2.35
  87  0.884  0.377  0.628-  42 1.65  41 1.73  15 2.21
  88  0.080  0.852  0.246-  39 1.71  32 1.76  24 2.16
  89  0.456  0.738  0.365-  31 1.64  38 1.85  19 2.17  46 2.26
  90  0.824  0.516  0.461-  49 1.59  42 2.12  15 2.34  26 2.36
  91  0.700  0.395  0.671-  41 1.63  21 1.92  15 2.24   4 2.28  26 2.49
  92  0.932  0.291  0.414-  42 1.71  54 1.81   7 2.21  26 2.34
  93  0.082  0.531  0.601-  44 1.68  42 1.90   8 2.37   1 2.50
  94  0.843  0.085  0.176-  54 1.67  14 2.03  18 2.34  12 2.42  24 2.43   2 2.53
  95  0.136  0.809  0.058-  37 1.55  39 1.65  24 2.33
  96  0.555  0.327  0.283-  51 1.56  35 2.01  19 2.39  18 2.41  26 2.42   5 2.53
  97  0.336  0.629  0.207-  31 1.52  30 1.94  47 2.25  19 2.37
  98  0.450  0.106  0.044-  29 1.54  36 2.07  22 2.08  18 2.36   5 2.40
  99  0.270  0.821  0.401-  31 1.60  46 1.72  32 2.06  23 2.18
 100  0.997  0.275  0.185-  40 1.57  54 1.73  10 2.19  20 2.51
 101  0.952  0.955  0.678-  28 1.68  52 2.09   7 2.31  11 2.48  17 2.53
 102  0.528  0.743  0.124-  30 1.59  38 1.68   6 2.22  22 2.36
 103  0.740  0.799  0.671-  53 1.76  48 1.81  28 2.32  17 2.39  15 2.56
 104  0.096  0.626  0.213-  39 1.72  47 1.92  10 2.09  16 2.33
 105  0.296  0.328  0.712-  34 1.81  50 1.83   1 2.29   3 2.53
 106  0.231  0.601  0.414-  47 1.52  46 1.83   1 2.16  31 2.40   8 2.43
 107  0.778  0.300  0.207-  54 1.70  35 1.84  18 2.32   2 2.55
 108  0.408  0.611  0.528-  46 1.51   1 2.18  21 2.22  19 2.38
 109  0.330  0.747  0.027-  30 1.78  37 1.87  22 2.35
 110  0.096  0.159  0.703-  34 1.81  52 1.87   3 2.25   7 2.42   9 2.42
 111  0.822  0.737  0.514-  28 1.70  49 1.95  53 2.10   8 2.27  15 2.45
 112  0.198  0.179  0.140-  40 1.64  20 2.02  36 2.03   5 2.31  24 2.43
 113  0.990  0.576  0.827-  44 1.71  43 1.72  15 2.42   9 2.42  27 2.54
 114  0.480  0.110  0.815-  33 1.57  29 1.67  25 2.21   3 2.47
 115  0.441  0.486  0.778-  50 1.65  21 2.13  13 2.17   4 2.23
 116  0.888  0.028  0.917-  52 1.61  14 2.14   2 2.30  17 2.32  27 2.46
 117  0.397  0.887  0.216-  31 1.72  38 1.76  36 1.83  22 2.48
 118  0.185  0.403  0.177-  47 1.80  40 2.00  16 2.30  20 2.33   5 2.34  10 2.44
 119  0.019  0.076  0.312-  32 1.87  54 1.98  24 2.26  20 2.45  12 2.50
 120  0.140  0.307  0.510-  34 1.75  42 1.95   1 2.13  20 2.19
 121  0.789  0.611  0.845-  43 1.71  15 1.87  48 2.11   4 2.56
 122  0.903  0.853  0.130-  39 1.64  14 1.99  12 2.15  24 2.23
 123  0.266  1.000  0.044-  36 1.60  37 1.97  22 2.39  24 2.40   3 2.53
 124  0.010  0.423  0.989-  43 1.74  40 2.02  16 2.02   9 2.06  10 2.12
 125  0.179  0.722  0.600-  46 1.62  44 1.81  11 2.23   8 2.52
 126  0.561  0.664  0.912-  48 1.67  30 2.02   6 2.39  13 2.53   4 2.55
 127  0.985  0.745  0.655-  28 1.73  44 1.87   8 2.44  27 2.47  15 2.55
 128  0.167  0.042  0.510-  32 1.80  34 2.14  11 2.15  23 2.22
 129  0.925  0.641  0.051-  39 1.76  43 1.93  10 2.20   6 2.21  27 2.57
 130  0.039  0.868  0.460-  32 1.56  28 1.64   8 2.13  12 2.48
 131  0.150  0.752  0.823-  44 1.75  37 1.77  27 2.23  11 2.42  13 2.44
 132  0.393  0.155  0.279-  36 1.78  51 1.85   5 2.27  20 2.38  23 2.52
 133  0.746  0.524  0.259-  49 1.65  35 1.79  10 2.54   6 2.56
 134  0.059  0.462  0.392-  42 1.60  47 1.74   8 2.31  10 2.48
 135  0.538  0.698  0.675-  53 1.75  48 1.84  13 2.15  21 2.27
 

IMPORTANT INFORMATION: All symmetrisations will be switched off!
NOSYMM: (Re-)initialisation of all symmetry stuff for point group C_1.

 
 

Automatic generation of k-mesh.
 generate k-points for:    2    2    2
Space group operators:
 irot       det(A)        alpha          n_x          n_y          n_z        tau_x        tau_y        tau_z
    1     1.000000     0.000000     1.000000     0.000000     0.000000     0.000000     0.000000     0.000000
 
 Subroutine IBZKPT returns following result:
 ===========================================
 
 Found      8 irreducible k-points:
 
 Following reciprocal coordinates:
            Coordinates               Weight
  0.000000  0.000000  0.000000      1.000000
  0.500000  0.000000  0.000000      1.000000
  0.000000  0.500000  0.000000      1.000000
  0.500000  0.500000  0.000000      1.000000
  0.000000  0.000000  0.500000      1.000000
  0.500000  0.000000  0.500000      1.000000
  0.000000  0.500000  0.500000      1.000000
  0.500000  0.500000  0.500000      1.000000
 
 Following cartesian coordinates:
            Coordinates               Weight
  0.000000  0.000000  0.000000      1.000000
  0.047327  0.000000  0.000000      1.000000
  0.000000  0.047327  0.000000      1.000000
  0.047327  0.047327  0.000000      1.000000
  0.000000  0.000000  0.047327      1.000000
  0.047327  0.000000  0.047327      1.000000
  0.000000  0.047327  0.047327      1.000000
  0.047327  0.047327  0.047327      1.000000
 


--------------------------------------------------------------------------------------------------------




 Dimension of arrays:
   k-points           NKPTS =      8   k-points in BZ     NKDIM =      8   number of bands    NBANDS=    520
   number of dos      NEDOS =    301   number of ions     NIONS =    135
   non local maximal  LDIM  =      6   non local SUM 2l+1 LMDIM =     18
   total plane-waves  NPLWV = 592704
   max r-space proj   IRMAX =   6747   max aug-charges    IRDMAX= 192025
   dimension x,y,z NGX =    84 NGY =   84 NGZ =   84
   dimension x,y,z NGXF=   168 NGYF=  168 NGZF=  168
   support grid    NGXF=   336 NGYF=  336 NGZF=  336
   ions per type =              27  27  81
   NGX,Y,Z   is equivalent  to a cutoff of  13.22, 13.22, 13.22 a.u.
   NGXF,Y,Z  is equivalent  to a cutoff of  26.44, 26.44, 26.44 a.u.

 SYSTEM =  unknown system                          
 POSCAR =  Ca Si  O                                

 Startparameter for this run:
   NWRITE =      2    write-flag & timer
   PREC   = a         normal or accurate (medium, high low for compatibility)
   ISTART =      0    job   : 0-new  1-cont  2-samecut
   ICHARG =      2    charge: 1-file 2-atom 10-const
   ISPIN  =      1    spin polarized calculation?
   LNONCOLLINEAR =      F non collinear calculations
   LSORBIT =      F    spin-orbit coupling
   INIWAV =      1    electr: 0-lowe 1-rand  2-diag
   LASPH  =      F    aspherical Exc in radial PAW
   METAGGA=      F    non-selfconsistent MetaGGA calc.

 Electronic Relaxation 1
   ENCUT  =  600.0 eV  44.10 Ry    6.64 a.u.  21.10 21.10 21.10*2*pi/ulx,y,z
   ENINI  =  600.0     initial cutoff
   ENAUG  =  605.4 eV  augmentation charge cutoff
   NELM   =     60;   NELMIN=  2; NELMDL= -5     # of ELM steps 
   EDIFF  = 0.1E-05   stopping-criterion for ELM
   LREAL  =      T    real-space projection
   NLSPLINE    = F    spline interpolate recip. space projectors
   LCOMPAT=      F    compatible to vasp.4.4
   GGA_COMPAT  = T    GGA compatible to vasp.4.4-vasp.4.6
   LMAXPAW     = -100 max onsite density
   LMAXMIX     =    2 max onsite mixed and CHGCAR
   VOSKOWN=      0    Vosko Wilk Nusair interpolation
   ROPT   =   -0.00025  -0.00025  -0.00025
 Ionic relaxation
   EDIFFG = -.1E-01   stopping-criterion for IOM
   NSW    =      1    number of steps for IOM
   NBLOCK =      1;   KBLOCK =      1    inner block; outer block 
   IBRION =     -1    ionic relax: 0-MD 1-quasi-New 2-CG
   NFREE  =      0    steps in history (QN), initial steepest desc. (CG)
   ISIF   =      2    stress and relaxation
   IWAVPR =     10    prediction:  0-non 1-charg 2-wave 3-comb
   ISYM   =      0    0-nonsym 1-usesym 2-fastsym
   LCORR  =      T    Harris-Foulkes like correction to forces

   POTIM  = 1.0000    time-step for ionic-motion
   TEIN   =    0.0    initial temperature
   TEBEG  =    0.0;   TEEND  =   0.0 temperature during run
   SMASS  =  -3.00    Nose mass-parameter (am)
   estimated Nose-frequenzy (Omega)   =  0.10E-29 period in steps =****** mass=  -0.255E-26a.u.
   SCALEE = 1.0000    scale energy and forces
   NPACO  =    256;   APACO  = 16.0  distance and # of slots for P.C.
   PSTRESS=    0.0 pullay stress

  Mass of Ions in am
   POMASS =  40.08 28.09 16.00
  Ionic Valenz
   ZVAL   =  10.00  4.00  6.00
  Atomic Wigner-Seitz radii
   RWIGS  =  -1.00 -1.00 -1.00
  virtual crystal weights 
   VCA    =   1.00  1.00  1.00
   NELECT =     864.0000    total number of electrons
   NUPDOWN=      -1.0000    fix difference up-down

 DOS related values:
   EMIN   =  10.00;   EMAX   =-10.00  energy-range for DOS
   EFERMI =   0.00
   ISMEAR =     0;   SIGMA  =   0.05  broadening in eV -4-tet -1-fermi 0-gaus

 Electronic relaxation 2 (details)
   IALGO  =     38    algorithm
   LDIAG  =      T    sub-space diagonalisation (order eigenvalues)
   LSUBROT=      F    optimize rotation matrix (better conditioning)
   TURBO    =      0    0=normal 1=particle mesh
   IRESTART =      0    0=no restart 2=restart with 2 vectors
   NREBOOT  =      0    no. of reboots
   NMIN     =      0    reboot dimension
   EREF     =   0.00    reference energy to select bands
   IMIX   =      4    mixing-type and parameters
     AMIX     =   0.40;   BMIX     =  1.00
     AMIX_MAG =   1.60;   BMIX_MAG =  1.00
     AMIN     =   0.10
     WC   =   100.;   INIMIX=   1;  MIXPRE=   1;  MAXMIX= -45

 Intra band minimization:
   WEIMIN = 0.0000     energy-eigenvalue tresh-hold
   EBREAK =  0.48E-09  absolut break condition
   DEPER  =   0.30     relativ break condition  

   TIME   =   0.40     timestep for ELM

  volume/ion in A,a.u.               =       8.73        58.95
  Fermi-wavevector in a.u.,A,eV,Ry     =   1.475868  2.788986 29.636021  2.178186
  Thomas-Fermi vector in A             =   2.590464
 
 Write flags
   LWAVE        =      F    write WAVECAR
   LDOWNSAMPLE  =      F    k-point downsampling of WAVECAR
   LCHARG       =      F    write CHGCAR
   LVTOT        =      F    write LOCPOT, total local potential
   LVHAR        =      F    write LOCPOT, Hartree potential only
   LELF         =      F    write electronic localiz. function (ELF)
   LORBIT       =      0    0 simple, 1 ext, 2 COOP (PROOUT), +10 PAW based schemes


 Dipole corrections
   LMONO  =      F    monopole corrections only (constant potential shift)
   LDIPOL =      F    correct potential (dipole corrections)
   IDIPOL =      0    1-x, 2-y, 3-z, 4-all directions 
   EPSILON=  1.0000000 bulk dielectric constant

 Exchange correlation treatment:
   GGA     =    --    GGA type
   LEXCH   =     8    internal setting for exchange type
   VOSKOWN=      0    Vosko Wilk Nusair interpolation
   LHFCALC =     F    Hartree Fock is set to
   LHFONE  =     F    Hartree Fock one center treatment
   AEXX    =    0.0000 exact exchange contribution

 Linear response parameters
   LEPSILON=     F    determine dielectric tensor
   LRPA    =     F    only Hartree local field effects (RPA)
   LNABLA  =     F    use nabla operator in PAW spheres
   LVEL    =     F    velocity operator in full k-point grid
   LINTERFAST=   F  fast interpolation
   KINTER  =     0    interpolate to denser k-point grid
   CSHIFT  =0.1000    complex shift for real part using Kramers Kronig
   OMEGAMAX=  -1.0    maximum frequency
   DEG_THRESHOLD= 0.2000000E-02 threshold for treating states as degnerate
   RTIME   =   -0.100 relaxation time in fs
  (WPLASMAI=    0.000 imaginary part of plasma frequency in eV, 0.658/RTIME)
   DFIELD  = 0.0000000 0.0000000 0.0000000 field for delta impulse in time
 
 Orbital magnetization related:
   ORBITALMAG=     F  switch on orbital magnetization
   LCHIMAG   =     F  perturbation theory with respect to B field
   DQ        =  0.001000  dq finite difference perturbation B field
   LLRAUG    =     F  two centre corrections for induced B field



--------------------------------------------------------------------------------------------------------


 Static calculation
 charge density and potential will be updated during run
 non-spin polarized calculation
 Variant of blocked Davidson
 Davidson routine will perform the subspace rotation
 perform sub-space diagonalisation
    after iterative eigenvector-optimisation
 modified Broyden-mixing scheme, WC =      100.0
 initial mixing is a Kerker type mixing with AMIX =  0.4000 and BMIX =      1.0000
 Hartree-type preconditioning will be used
 using additional bands           88
 real space projection scheme for non local part
 use partial core corrections
 calculate Harris-corrections to forces 
   (improved forces if not selfconsistent)
 use gradient corrections 
 use of overlap-Matrix (Vanderbilt PP)
 Gauss-broadening in eV      SIGMA  =   0.05


--------------------------------------------------------------------------------------------------------


  energy-cutoff  :      600.00
  volume of cell :     1179.22
      direct lattice vectors                 reciprocal lattice vectors
    10.564896610  0.000000000  0.000000000     0.094653080  0.000000000  0.000000000
     0.000000000 10.564896610  0.000000000     0.000000000  0.094653080  0.000000000
     0.000000000  0.000000000 10.564896610     0.000000000  0.000000000  0.094653080

  length of vectors
    10.564896610 10.564896610 10.564896610     0.094653080  0.094653080  0.094653080


 
 k-points in units of 2pi/SCALE and weight: read from INCAR                         
   0.00000000  0.00000000  0.00000000       0.125
   0.04732654  0.00000000  0.00000000       0.125
   0.00000000  0.04732654  0.00000000       0.125
   0.04732654  0.04732654  0.00000000       0.125
   0.00000000  0.00000000  0.04732654       0.125
   0.04732654  0.00000000  0.04732654       0.125
   0.00000000  0.04732654  0.04732654       0.125
   0.04732654  0.04732654  0.04732654       0.125
 
 k-points in reciprocal lattice and weights: read from INCAR                         
   0.00000000  0.00000000  0.00000000       0.125
   0.50000000  0.00000000  0.00000000       0.125
   0.00000000  0.50000000  0.00000000       0.125
   0.50000000  0.50000000  0.00000000       0.125
   0.00000000  0.00000000  0.50000000       0.125
   0.50000000  0.00000000  0.50000000       0.125
   0.00000000  0.50000000  0.50000000       0.125
   0.50000000  0.50000000  0.50000000       0.125
 
 position of ions in fractional coordinates (direct lattice) 
   0.28879269  0.44197250  0.52824831
   0.81308774  0.22199789  0.98145666
   0.25070053  0.13571296  0.84756079
   0.62441135  0.43500086  0.86920215
   0.37606893  0.30450818  0.12576199
   0.72019191  0.67701210  0.07259153
   0.93407462  0.12717592  0.54438997
   0.01207892  0.66992687  0.43844850
   0.04904202  0.35569130  0.81042762
   0.96733163  0.47987712  0.17656475
   0.18408706  0.92049766  0.67172799
   0.85343132  0.90708397  0.32005458
   0.36350241  0.67618732  0.77715997
   0.76254129  0.95574333  0.05800966
   0.81891500  0.57055108  0.67516052
   0.15327026  0.54575423  0.01613105
   0.73353638  0.00641213  0.76166311
   0.62908776  0.14205370  0.17197414
   0.49764067  0.53943598  0.33416599
   0.18728565  0.23606004  0.32191349
   0.55848207  0.49231237  0.61375839
   0.47115774  0.91677106  0.99575230
   0.36428422  0.99623857  0.45470431
   0.04967046  0.00435024  0.11299136
   0.52019607  0.22469187  0.64431983
   0.71465828  0.32190210  0.44749687
   0.95427407  0.80827349  0.87760315
   0.91795395  0.85782715  0.55697273
   0.52855105  0.18229712  0.94694200
   0.44788815  0.63150773  0.06185164
   0.32758754  0.75392063  0.27765594
   0.12636331  0.94938196  0.37272532
   0.45258372  0.98668194  0.73702715
   0.23051619  0.20791639  0.60824885
   0.66225802  0.41935036  0.15543657
   0.32373250  0.03930690  0.17770231
   0.21517923  0.85170258  0.94202013
   0.55099685  0.83290177  0.25303933
   0.01733794  0.74725036  0.13958214
   0.09435849  0.27365158  0.07288208
   0.78650653  0.27216590  0.70528019
   0.98550673  0.40743676  0.51217392
   0.88334488  0.51022740  0.93051640
   0.10148068  0.63027571  0.72297199
   0.67634414  0.05212851  0.49364414
   0.30897264  0.71466326  0.51906449
   0.19495485  0.50825601  0.31097687
   0.64617678  0.74305293  0.80353518
   0.77520453  0.62713909  0.37281882
   0.33100123  0.41145236  0.85962435
   0.46378441  0.27423994  0.38618131
   0.00223834  0.07482849  0.82686899
   0.62870961  0.76384060  0.55272312
   0.88385120  0.20037901  0.27623446
   0.53308105  0.85798168  0.81583474
   0.31653848  0.40861266  0.32947388
   0.36054798  0.50762592  0.00192392
   0.34252453  0.09011029  0.65744799
   0.63440505  0.87715404  0.44945866
   0.54555624  0.50389764  0.14160281
   0.09294998  0.94834117  0.88028112
   0.38436375  0.84541807  0.59724312
   0.63406426  0.61977870  0.48224134
   0.21780105  0.30626293  0.97100366
   0.22866016  0.02767893  0.30234275
   0.63245714  0.95813351  0.20138030
   0.89318732  0.17400636  0.76211167
   0.70521613  0.19037524  0.58215517
   0.45121717  0.32343920  0.91485504
   0.58526721  0.02354180  0.63438573
   0.83873945  0.37277033  0.86945258
   0.54464871  0.14379838  0.42182737
   0.03337694  0.19230836  0.96117072
   0.61201358  0.29690354  0.04514463
   0.21754583  0.51908670  0.81125675
   0.67005677  0.73318897  0.28429860
   0.62531857  0.06618340  0.97967982
   0.48664944  0.39230580  0.49606371
   0.68333286  0.21639218  0.82545964
   0.75319276  0.47998652  0.02958628
   0.89572804  0.67234086  0.28884001
   0.33298548  0.25043842  0.49429717
   0.77356444  0.11493429  0.38548779
   0.73791163  0.83535270  0.90043988
   0.35007485  0.92707309  0.86051395
   0.80926058  0.96663524  0.53000428
   0.88416539  0.37747157  0.62759295
   0.07996194  0.85189287  0.24630718
   0.45551835  0.73773809  0.36490165
   0.82447644  0.51581188  0.46101846
   0.70044631  0.39500337  0.67091809
   0.93178471  0.29073654  0.41407977
   0.08157989  0.53115620  0.60066451
   0.84323991  0.08484318  0.17572995
   0.13559714  0.80908531  0.05786811
   0.55521704  0.32685272  0.28276219
   0.33587410  0.62879216  0.20684992
   0.44961346  0.10639600  0.04361405
   0.27018936  0.82061722  0.40141525
   0.99729671  0.27540294  0.18518848
   0.95159826  0.95462303  0.67821694
   0.52766812  0.74265012  0.12426964
   0.73973906  0.79933301  0.67136917
   0.09633584  0.62571006  0.21313822
   0.29556638  0.32764393  0.71190493
   0.23059685  0.60103256  0.41448647
   0.77762619  0.30014707  0.20706417
   0.40757669  0.61117458  0.52781212
   0.33033733  0.74703264  0.02717984
   0.09639619  0.15905628  0.70252981
   0.82192821  0.73654639  0.51387210
   0.19753688  0.17907415  0.13987966
   0.99016044  0.57628415  0.82669066
   0.48032267  0.11015540  0.81477532
   0.44098489  0.48642094  0.77767075
   0.88794182  0.02789931  0.91682728
   0.39741270  0.88723432  0.21634500
   0.18478918  0.40268349  0.17712274
   0.01939391  0.07616802  0.31193884
   0.14045152  0.30711202  0.51041981
   0.78940573  0.61093442  0.84532391
   0.90349874  0.85302152  0.13009267
   0.26594319  0.99972894  0.04366334
   0.00956506  0.42282281  0.98926011
   0.17949556  0.72153720  0.60033182
   0.56127269  0.66423942  0.91171608
   0.98466585  0.74503986  0.65467311
   0.16695824  0.04248278  0.50999357
   0.92476994  0.64080919  0.05106445
   0.03853420  0.86819662  0.45978643
   0.15035532  0.75237875  0.82340742
   0.39345127  0.15500976  0.27873920
   0.74602661  0.52441093  0.25850770
   0.05876058  0.46158346  0.39151144
   0.53797483  0.69754553  0.67465506
 
 position of ions in cartesian coordinates  (Angst):
   3.05106489  4.66939377  5.58088882
   8.59018795  2.34538476 10.36898809
   2.64862513  1.43379337  8.95439216
   6.59684132  4.59573906  9.18303090
   3.97312932  3.21709741  1.32866245
   7.60875308  7.15256281  0.76692202
   9.86840178  1.34360042  5.75142380
   0.12761250  7.07770813  4.63216307
   0.51812384  3.75784185  8.56208404
  10.21975862  5.06985213  1.86538831
   1.94486075  9.72496264  7.09673672
   9.01641363  9.58324837  3.38134356
   3.84036538  7.14384912  8.21061468
   8.05616988 10.09732947  0.61286601
   8.65175229  6.02781322  7.13300106
   1.61928446  5.76583705  0.17042283
   7.74973606  0.06774347  8.04689206
   6.64624712  1.50078262  1.81688904
   5.25752226  5.69908539  3.53042912
   1.97865358  2.49394994  3.40098279
   5.90030532  5.20122934  6.48429391
   4.97773278  9.68559144 10.52002011
   3.84862514 10.52515747  4.80390401
   0.52476331  0.04595985  1.19374203
   5.49581770  2.37384635  6.80717234
   7.55029082  3.40086236  4.72775813
  10.08180688  8.53932586  9.27178650
   9.69808854  9.06285517  5.88435926
   5.58408717  1.92595023 10.00434430
   4.73189195  6.67181388  0.65345615
   3.46092844  7.96509347  2.93340635
   1.33501529 10.03012225  3.93780450
   4.78150023 10.42419267  7.78661562
   2.43537970  2.19661517  6.42608620
   6.99668747  4.43039322  1.64217127
   3.42020039  0.41527337  1.87740656
   2.27334632  8.99814970  9.95234526
   5.82122473  8.79952107  2.67333440
   0.18317354  7.89462278  1.47467087
   0.99688769  2.89110069  0.76999165
   8.30936019  2.87540464  7.45121232
  10.41177675  4.30452721  5.41106447
   9.33244738  5.39049970  9.83080960
   1.07213286  6.65879770  7.63812431
   7.14550596  0.55073233  5.21529933
   3.26426402  7.55034347  5.48386266
   2.05967781  5.36967224  3.28543843
   6.82679083  7.85027735  8.48926613
   8.18995575  6.62565960  3.93879231
   3.49699375  4.34695162  9.08184233
   4.89983437  2.89731656  4.07996559
   0.02364787  0.79055522  8.73578534
   6.64225198  8.06989695  5.83946261
   9.33779653  2.11698357  2.91838853
   5.63194623  9.06448775  8.61920968
   3.34419636  4.31695051  3.48085744
   3.80915208  5.36301532  0.02032600
   3.61873623  0.95200586  6.94587005
   6.70242380  9.26704177  4.74848431
   5.76374523  5.32362652  1.49601901
   0.98200693 10.01912645  9.30007907
   4.06076331  8.93175455  6.30981177
   6.69882334  6.54789789  5.09482987
   2.30104561  3.23563622 10.25855332
   2.41577094  0.29242508  3.19421990
   6.68184434 10.12258152  2.12756205
   9.43643167  1.83835917  8.05163099
   7.45053555  2.01129477  6.15040921
   4.76706273  3.41710169  9.66534892
   6.18328759  0.24871664  6.70221970
   8.86119555  3.93828004  9.18567657
   5.75415730  1.51921498  4.45656250
   0.35262393  2.03171795 10.15466928
   6.46586024  3.13675518  0.47694832
   2.29834919  5.48409734  8.57084367
   7.07908049  7.74606571  3.00358536
   6.60642603  0.69922080 10.35021599
   5.14140097  4.14467025  5.24086186
   7.21934099  2.28616104  8.72089578
   7.95740366  5.07100791  0.31257597
   9.46327409  7.10321168  3.05156486
   3.51795722  2.64585603  5.22219853
   8.17262835  1.21426891  4.07263866
   7.79596007  8.82541495  9.51305427
   3.69850464  9.79443138  9.09124089
   8.54975436 10.21240140  5.59944043
   9.34111597  3.98794815  6.63045459
   0.84478966  9.00016011  2.60220989
   4.81250432  7.79412660  3.85514824
   8.71050839  5.44949920  4.87061232
   7.40014280  4.17316981  7.08818022
   9.84420917  3.07160150  4.37470998
   0.86188307  5.61161037  6.34595845
   8.90874246  0.89635942  1.85656873
   1.43256978  8.54790267  0.61137060
   5.86581064  3.45316516  2.98735332
   3.54847512  6.64312419  2.18534803
   4.75011976  1.12406277  0.46077788
   2.85452263  8.66973611  4.24091060
  10.53633666  2.90960356  1.95649713
  10.05353725 10.08549363  7.16529183
   5.57475910  7.84602172  1.31289589
   7.81526672  8.44487061  7.09294582
   1.01777822  6.61056214  2.25178331
   3.12262823  3.46152420  7.52120194
   2.43623191  6.34984687  4.37900665
   8.21554026  3.17102275  2.18761160
   4.30600563  6.45699627  5.57628047
   3.48997978  7.89232263  0.28715222
   1.01841583  1.68041313  7.42215480
   8.68358656  7.78153642  5.42900563
   2.08695672  1.89189985  1.47781412
  10.46094271  6.08838246  8.73390131
   5.07455934  1.16378039  8.60801704
   4.65895972  5.13898690  8.21601102
   9.38101352  0.29475337  9.68618539
   4.19862408  9.37353883  2.28566254
   1.95227863  4.25430948  1.87128341
   0.20489469  0.80470724  3.29560162
   1.48385575  3.24460674  5.39253257
   8.33998996  6.45445896  8.93075972
   9.54537075  9.01208413  1.37441558
   2.80966226 10.56203285  0.46129864
   0.10105392  4.46707926 10.45143079
   1.89635205  7.62296597  6.34244361
   5.92978795  7.01762077  9.63218610
  10.40289292  7.87126908  6.91655371
   1.76389654  0.44882620  5.38802931
   9.77009885  6.77008288  0.53949068
   0.40710988  9.17240755  4.85759610
   1.58848837  7.94880367  8.69921421
   4.15677204  1.63766208  2.94485087
   7.88169404  5.54034730  2.73110708
   0.62079945  4.87658156  4.13627790
   5.68364841  7.36949645  7.12766095
 


--------------------------------------------------------------------------------------------------------


 k-point  1 :   0.0000 0.0000 0.0000  plane waves:   39223
 k-point  2 :   0.5000 0.0000 0.0000  plane waves:   39210
 k-point  3 :   0.0000 0.5000 0.0000  plane waves:   39210
 k-point  4 :   0.5000 0.5000 0.0000  plane waves:   39356
 k-point  5 :   0.0000 0.0000 0.5000  plane waves:   39210
 k-point  6 :   0.5000 0.0000 0.5000  plane waves:   39356
 k-point  7 :   0.0000 0.5000 0.5000  plane waves:   39356
 k-point  8 :   0.5000 0.5000 0.5000  plane waves:   39456

 maximum and minimum number of plane-waves per node :      3318     3238

 maximum number of plane-waves:     39456
 maximum index in each direction: 
   IXMAX=   21   IYMAX=   21   IZMAX=   21
   IXMIN=  -21   IYMIN=  -21   IZMIN=  -21


 real space projection operators:
  total allocation   :      46267.69 KBytes
  max/ min on nodes  :       3918.95       3804.80


 parallel 3D FFT for wavefunctions:
    minimum data exchange during FFTs selected (reduces bandwidth)
 parallel 3D FFT for charge:
    minimum data exchange during FFTs selected (reduces bandwidth)


 total amount of memory used by VASP MPI-rank0   132678. kBytes
=======================================================================

   base      :      30000. kBytes
   nonlr-proj:      20254. kBytes
   fftplans  :      16056. kBytes
   grid      :       9274. kBytes
   one-center:        186. kBytes
   wavefun   :      56908. kBytes
 
     INWAV:  cpu time    0.0001: real time    0.0004
 Broyden mixing: mesh for mixing (old mesh)
   NGX = 43   NGY = 43   NGZ = 43
  (NGX  =168   NGY  =168   NGZ  =168)
  gives a total of  79507 points

 initial charge density was supplied:
 charge density of overlapping atoms calculated
 number of electron     864.0000000 magnetization 
 keeping initial charge density in first step


--------------------------------------------------------------------------------------------------------


 Maximum index for non-local projection operator          615
 Maximum index for augmentation-charges         4256 (set IRDMAX)


--------------------------------------------------------------------------------------------------------


 First call to EWALD:  gamma=   0.168
 Maximum number of real-space cells 3x 3x 3
 Maximum number of reciprocal cells 3x 3x 3

    FEWALD:  cpu time    0.0056: real time    0.0056


--------------------------------------- Iteration      1(   1)  ---------------------------------------


    POTLOK:  cpu time    0.0734: real time    0.0768
    SETDIJ:  cpu time    0.2632: real time    0.2644
     EDDAV:  cpu time   25.0930: real time   25.1819
       DOS:  cpu time    0.0022: real time    0.0023
    --------------------------------------------
      LOOP:  cpu time   25.4318: real time   25.5254

 eigenvalue-minimisations  :  8320
 total energy-change (2. order) : 0.1027949E+05  (-0.4942524E+05)
 number of electron     864.0000000 magnetization 
 augmentation part      864.0000000 magnetization 

 Free energy of the ion-electron system (eV)
  ---------------------------------------------------
  alpha Z        PSCENC =      4052.29761577
  Ewald energy   TEWEN  =    -56561.74928891
  -Hartree energ DENC   =    -11877.68854752
  -exchange      EXHF   =         0.00000000
  -V(xc)+E(xc)   XCENC  =      3269.90585255
  PAW double counting   =     50594.51003143   -49994.65612350
  entropy T*S    EENTRO =        -0.03026421
  eigenvalues    EBANDS =      5828.35862398
  atomic energy  EATOM  =     64968.54023382
  Solvation  Ediel_sol  =         0.00000000
  ---------------------------------------------------
  free energy    TOTEN  =     10279.48813342 eV

  energy without entropy =    10279.51839763  energy(sigma->0) =    10279.50326553


--------------------------------------------------------------------------------------------------------




--------------------------------------- Iteration      1(   2)  ---------------------------------------


     EDDAV:  cpu time   27.4116: real time   27.8294
       DOS:  cpu time    0.0010: real time    0.0010
    --------------------------------------------
      LOOP:  cpu time   27.4126: real time   27.8304

 eigenvalue-minimisations  :  9448
 total energy-change (2. order) :-0.1011421E+05  (-0.9737778E+04)
 number of electron     864.0000000 magnetization 
 augmentation part      864.0000000 magnetization 

 Free energy of the ion-electron system (eV)
  ---------------------------------------------------
  alpha Z        PSCENC =      4052.29761577
  Ewald energy   TEWEN  =    -56561.74928891
  -Hartree energ DENC   =    -11877.68854752
  -exchange      EXHF   =         0.00000000
  -V(xc)+E(xc)   XCENC  =      3269.90585255
  PAW double counting   =     50594.51003143   -49994.65612350
  entropy T*S    EENTRO =        -0.00000000
  eigenvalues    EBANDS =     -4285.88216434
  atomic energy  EATOM  =     64968.54023382
  Solvation  Ediel_sol  =         0.00000000
  ---------------------------------------------------
  free energy    TOTEN  =       165.27760932 eV

  energy without entropy =      165.27760932  energy(sigma->0) =      165.27760932


--------------------------------------------------------------------------------------------------------




--------------------------------------- Iteration      1(   3)  ---------------------------------------


     EDDAV:  cpu time   28.1548: real time   28.2804
       DOS:  cpu time    0.0010: real time    0.0010
    --------------------------------------------
      LOOP:  cpu time   28.1558: real time   28.2814

 eigenvalue-minimisations  :  9592
 total energy-change (2. order) :-0.1128008E+04  (-0.1119759E+04)
 number of electron     864.0000000 magnetization 
 augmentation part      864.0000000 magnetization 

 Free energy of the ion-electron system (eV)
  ---------------------------------------------------
  alpha Z        PSCENC =      4052.29761577
  Ewald energy   TEWEN  =    -56561.74928891
  -Hartree energ DENC   =    -11877.68854752
  -exchange      EXHF   =         0.00000000
  -V(xc)+E(xc)   XCENC  =      3269.90585255
  PAW double counting   =     50594.51003143   -49994.65612350
  entropy T*S    EENTRO =        -0.00000000
  eigenvalues    EBANDS =     -5413.88988805
  atomic energy  EATOM  =     64968.54023382
  Solvation  Ediel_sol  =         0.00000000
  ---------------------------------------------------
  free energy    TOTEN  =      -962.73011440 eV

  energy without entropy =     -962.73011440  energy(sigma->0) =     -962.73011440


--------------------------------------------------------------------------------------------------------




--------------------------------------- Iteration      1(   4)  ---------------------------------------


     EDDAV:  cpu time   33.4471: real time   33.5717
       DOS:  cpu time    0.0009: real time    0.0009
    --------------------------------------------
      LOOP:  cpu time   33.4480: real time   33.5726

 eigenvalue-minimisations  : 12056
 total energy-change (2. order) :-0.5904449E+02  (-0.5882539E+02)
 number of electron     864.0000000 magnetization 
 augmentation part      864.0000000 magnetization 

 Free energy of the ion-electron system (eV)
  ---------------------------------------------------
  alpha Z        PSCENC =      4052.29761577
  Ewald energy   TEWEN  =    -56561.74928891
  -Hartree energ DENC   =    -11877.68854752
  -exchange      EXHF   =         0.00000000
  -V(xc)+E(xc)   XCENC  =      3269.90585255
  PAW double counting   =     50594.51003143   -49994.65612350
  entropy T*S    EENTRO =        -0.00000000
  eigenvalues    EBANDS =     -5472.93437935
  atomic energy  EATOM  =     64968.54023382
  Solvation  Ediel_sol  =         0.00000000
  ---------------------------------------------------
  free energy    TOTEN  =     -1021.77460570 eV

  energy without entropy =    -1021.77460570  energy(sigma->0) =    -1021.77460570


--------------------------------------------------------------------------------------------------------




--------------------------------------- Iteration      1(   5)  ---------------------------------------


     EDDAV:  cpu time   36.6294: real time   36.8090
       DOS:  cpu time    0.0010: real time    0.0010
    CHARGE:  cpu time    0.8543: real time    0.8572
    MIXING:  cpu time    0.0038: real time    0.0038
    --------------------------------------------
      LOOP:  cpu time   37.4886: real time   37.6711

 eigenvalue-minimisations  : 13576
 total energy-change (2. order) :-0.4112572E+01  (-0.4110194E+01)
 number of electron     864.0000007 magnetization 
 augmentation part      134.1315750 magnetization 

 Broyden mixing:
  rms(total) = 0.84584E+01    rms(broyden)= 0.84578E+01
  rms(prec ) = 0.10088E+02
  weight for this iteration     100.00

 Free energy of the ion-electron system (eV)
  ---------------------------------------------------
  alpha Z        PSCENC =      4052.29761577
  Ewald energy   TEWEN  =    -56561.74928891
  -Hartree energ DENC   =    -11877.68854752
  -exchange      EXHF   =         0.00000000
  -V(xc)+E(xc)   XCENC  =      3269.90585255
  PAW double counting   =     50594.51003143   -49994.65612350
  entropy T*S    EENTRO =        -0.00000000
  eigenvalues    EBANDS =     -5477.04695144
  atomic energy  EATOM  =     64968.54023382
  Solvation  Ediel_sol  =         0.00000000
  ---------------------------------------------------
  free energy    TOTEN  =     -1025.88717779 eV

  energy without entropy =    -1025.88717779  energy(sigma->0) =    -1025.88717779


--------------------------------------------------------------------------------------------------------




--------------------------------------- Iteration      1(   6)  ---------------------------------------


    POTLOK:  cpu time    0.0709: real time    0.0764
    SETDIJ:  cpu time    0.2582: real time    0.2590
     EDDAV:  cpu time   29.4376: real time   29.5528
       DOS:  cpu time    0.0011: real time    0.0011
    CHARGE:  cpu time    0.8560: real time    0.8587
    MIXING:  cpu time    0.0056: real time    0.0056
    --------------------------------------------
      LOOP:  cpu time   30.6294: real time   30.7536

 eigenvalue-minimisations  : 10152
 total energy-change (2. order) : 0.1270020E+03  (-0.5101212E+02)
 number of electron     864.0000006 magnetization 
 augmentation part      123.5930290 magnetization 

 Broyden mixing:
  rms(total) = 0.35300E+01    rms(broyden)= 0.35293E+01
  rms(prec ) = 0.37502E+01
  weight for this iteration     100.00

 eigenvalues of (default mixing * dielectric matrix)
  average eigenvalue GAMMA=   1.1535
  1.1535

 Free energy of the ion-electron system (eV)
  ---------------------------------------------------
  alpha Z        PSCENC =      4052.29761577
  Ewald energy   TEWEN  =    -56561.74928891
  -Hartree energ DENC   =    -12954.76665465
  -exchange      EXHF   =         0.00000000
  -V(xc)+E(xc)   XCENC  =      3346.97152116
  PAW double counting   =     67171.99308225   -66708.82210748
  entropy T*S    EENTRO =        -0.00000000
  eigenvalues    EBANDS =     -4213.34960318
  atomic energy  EATOM  =     64968.54023382
  Solvation  Ediel_sol  =         0.00000000
  ---------------------------------------------------
  free energy    TOTEN  =      -898.88520121 eV

  energy without entropy =     -898.88520121  energy(sigma->0) =     -898.88520121


--------------------------------------------------------------------------------------------------------




--------------------------------------- Iteration      1(   7)  ---------------------------------------


    POTLOK:  cpu time    0.0693: real time    0.0764
    SETDIJ:  cpu time    0.2556: real time    0.2600
     EDDAV:  cpu time   29.5240: real time   30.2238
       DOS:  cpu time    0.0009: real time    0.0009
    CHARGE:  cpu time    0.8417: real time    0.8587
    MIXING:  cpu time    0.0049: real time    0.0050
    --------------------------------------------
      LOOP:  cpu time   30.6965: real time   31.4250

 eigenvalue-minimisations  : 10592
 total energy-change (2. order) :-0.1623886E+01  (-0.6649525E+01)
 number of electron     864.0000006 magnetization 
 augmentation part      121.3164520 magnetization 

 Broyden mixing:
  rms(total) = 0.15865E+01    rms(broyden)= 0.15864E+01
  rms(prec ) = 0.17336E+01
  weight for this iteration     100.00

 eigenvalues of (default mixing * dielectric matrix)
  average eigenvalue GAMMA=   1.2585
  1.2585  1.2585

 Free energy of the ion-electron system (eV)
  ---------------------------------------------------
  alpha Z        PSCENC =      4052.29761577
  Ewald energy   TEWEN  =    -56561.74928891
  -Hartree energ DENC   =    -13070.95515791
  -exchange      EXHF   =         0.00000000
  -V(xc)+E(xc)   XCENC  =      3355.64845038
  PAW double counting   =     83649.41508118   -83251.24532642
  entropy T*S    EENTRO =        -0.00000000
  eigenvalues    EBANDS =     -4042.46069523
  atomic energy  EATOM  =     64968.54023382
  Solvation  Ediel_sol  =         0.00000000
  ---------------------------------------------------
  free energy    TOTEN  =      -900.50908731 eV

  energy without entropy =     -900.50908731  energy(sigma->0) =     -900.50908731


--------------------------------------------------------------------------------------------------------




--------------------------------------- Iteration      1(   8)  ---------------------------------------


    POTLOK:  cpu time    0.0702: real time    0.0760
    SETDIJ:  cpu time    0.2586: real time    0.2604
     EDDAV:  cpu time   31.2942: real time   31.4201
       DOS:  cpu time    0.0010: real time    0.0010
    CHARGE:  cpu time    0.8556: real time    0.8582
    MIXING:  cpu time    0.0058: real time    0.0059
    --------------------------------------------
      LOOP:  cpu time   32.4854: real time   32.6216

 eigenvalue-minimisations  : 11072
 total energy-change (2. order) : 0.7269639E+00  (-0.9580795E+00)
 number of electron     864.0000006 magnetization 
 augmentation part      121.5331267 magnetization 

 Broyden mixing:
  rms(total) = 0.67714E+00    rms(broyden)= 0.67707E+00
  rms(prec ) = 0.77574E+00
  weight for this iteration     100.00

 eigenvalues of (default mixing * dielectric matrix)
  average eigenvalue GAMMA=   1.4061
  2.1574  1.0305  1.0305

 Free energy of the ion-electron system (eV)
  ---------------------------------------------------
  alpha Z        PSCENC =      4052.29761577
  Ewald energy   TEWEN  =    -56561.74928891
  -Hartree energ DENC   =    -13020.39361244
  -exchange      EXHF   =         0.00000000
  -V(xc)+E(xc)   XCENC  =      3352.68202943
  PAW double counting   =     90853.68666940   -90485.71502431
  entropy T*S    EENTRO =        -0.00000000
  eigenvalues    EBANDS =     -4059.13074615
  atomic energy  EATOM  =     64968.54023382
  Solvation  Ediel_sol  =         0.00000000
  ---------------------------------------------------
  free energy    TOTEN  =      -899.78212338 eV

  energy without entropy =     -899.78212338  energy(sigma->0) =     -899.78212338


--------------------------------------------------------------------------------------------------------




--------------------------------------- Iteration      1(   9)  ---------------------------------------


    POTLOK:  cpu time    0.0762: real time    0.0770
    SETDIJ:  cpu time    0.2591: real time    0.2599
     EDDAV:  cpu time   28.8086: real time   28.9334
       DOS:  cpu time    0.0010: real time    0.0010
    CHARGE:  cpu time    0.8536: real time    0.8560
    MIXING:  cpu time    0.0053: real time    0.0053
    --------------------------------------------
      LOOP:  cpu time   30.0038: real time   30.1326

 eigenvalue-minimisations  : 10048
 total energy-change (2. order) : 0.1877791E+00  (-0.2040216E+00)
 number of electron     864.0000006 magnetization 
 augmentation part      120.9272814 magnetization 

 Broyden mixing:
  rms(total) = 0.18656E+00    rms(broyden)= 0.18654E+00
  rms(prec ) = 0.21821E+00
  weight for this iteration     100.00

 eigenvalues of (default mixing * dielectric matrix)
  average eigenvalue GAMMA=   1.3957
  2.1863  1.4199  0.9884  0.9884

 Free energy of the ion-electron system (eV)
  ---------------------------------------------------
  alpha Z        PSCENC =      4052.29761577
  Ewald energy   TEWEN  =    -56561.74928891
  -Hartree energ DENC   =    -13078.63680760
  -exchange      EXHF   =         0.00000000
  -V(xc)+E(xc)   XCENC  =      3357.28662332
  PAW double counting   =     97329.02438119   -96983.98183486
  entropy T*S    EENTRO =        -0.00000000
  eigenvalues    EBANDS =     -3982.37526705
  atomic energy  EATOM  =     64968.54023382
  Solvation  Ediel_sol  =         0.00000000
  ---------------------------------------------------
  free energy    TOTEN  =      -899.59434432 eV

  energy without entropy =     -899.59434432  energy(sigma->0) =     -899.59434432


--------------------------------------------------------------------------------------------------------




--------------------------------------- Iteration      1(  10)  ---------------------------------------


    POTLOK:  cpu time    0.0688: real time    0.0765
    SETDIJ:  cpu time    0.2553: real time    0.2601
     EDDAV:  cpu time   31.8739: real time   32.6420
       DOS:  cpu time    0.0010: real time    0.0010
    CHARGE:  cpu time    0.8440: real time    0.8607
    MIXING:  cpu time    0.0056: real time    0.0057
    --------------------------------------------
      LOOP:  cpu time   33.0486: real time   33.8460

 eigenvalue-minimisations  : 11528
 total energy-change (2. order) :-0.6064022E-01  (-0.9282332E-01)
 number of electron     864.0000006 magnetization 
 augmentation part      120.7689302 magnetization 

 Broyden mixing:
  rms(total) = 0.15157E+00    rms(broyden)= 0.15155E+00
  rms(prec ) = 0.16950E+00
  weight for this iteration     100.00

 eigenvalues of (default mixing * dielectric matrix)
  average eigenvalue GAMMA=   1.3472
  2.3400  1.5225  1.1443  0.8645  0.8645

 Free energy of the ion-electron system (eV)
  ---------------------------------------------------
  alpha Z        PSCENC =      4052.29761577
  Ewald energy   TEWEN  =    -56561.74928891
  -Hartree energ DENC   =    -13081.90394576
  -exchange      EXHF   =         0.00000000
  -V(xc)+E(xc)   XCENC  =      3357.63284616
  PAW double counting   =     97631.83884817   -97287.01460443
  entropy T*S    EENTRO =        -0.00000000
  eigenvalues    EBANDS =     -3979.29668938
  atomic energy  EATOM  =     64968.54023382
  Solvation  Ediel_sol  =         0.00000000
  ---------------------------------------------------
  free energy    TOTEN  =      -899.65498455 eV

  energy without entropy =     -899.65498455  energy(sigma->0) =     -899.65498455


--------------------------------------------------------------------------------------------------------




--------------------------------------- Iteration      1(  11)  ---------------------------------------


    POTLOK:  cpu time    0.0717: real time    0.0757
    SETDIJ:  cpu time    0.2592: real time    0.2600
     EDDAV:  cpu time   31.0930: real time   31.2056
       DOS:  cpu time    0.0011: real time    0.0011
    CHARGE:  cpu time    0.8731: real time    0.8756
    MIXING:  cpu time    0.0052: real time    0.0052
    --------------------------------------------
      LOOP:  cpu time   32.3033: real time   32.4232

 eigenvalue-minimisations  : 11088
 total energy-change (2. order) : 0.1605820E-03  (-0.1485318E-01)
 number of electron     864.0000006 magnetization 
 augmentation part      120.7168546 magnetization 

 Broyden mixing:
  rms(total) = 0.79479E-01    rms(broyden)= 0.79472E-01
  rms(prec ) = 0.88075E-01
  weight for this iteration     100.00

 eigenvalues of (default mixing * dielectric matrix)
  average eigenvalue GAMMA=   1.3975
  2.2503  2.2503  1.0204  1.0204  0.9219  0.9219

 Free energy of the ion-electron system (eV)
  ---------------------------------------------------
  alpha Z        PSCENC =      4052.29761577
  Ewald energy   TEWEN  =    -56561.74928891
  -Hartree energ DENC   =    -13089.28303546
  -exchange      EXHF   =         0.00000000
  -V(xc)+E(xc)   XCENC  =      3358.18078211
  PAW double counting   =     97560.52389726   -97215.16115159
  entropy T*S    EENTRO =        -0.00000000
  eigenvalues    EBANDS =     -3973.00387698
  atomic energy  EATOM  =     64968.54023382
  Solvation  Ediel_sol  =         0.00000000
  ---------------------------------------------------
  free energy    TOTEN  =      -899.65482397 eV

  energy without entropy =     -899.65482397  energy(sigma->0) =     -899.65482397


--------------------------------------------------------------------------------------------------------




--------------------------------------- Iteration      1(  12)  ---------------------------------------


    POTLOK:  cpu time    0.0686: real time    0.0759
    SETDIJ:  cpu time    0.2551: real time    0.2598
     EDDAV:  cpu time   31.5757: real time   31.9254
       DOS:  cpu time    0.0010: real time    0.0010
    CHARGE:  cpu time    0.8586: real time    0.8614
    MIXING:  cpu time    0.0051: real time    0.0051
    --------------------------------------------
      LOOP:  cpu time   32.7640: real time   33.1286

 eigenvalue-minimisations  : 11280
 total energy-change (2. order) : 0.5176446E-03  (-0.3101332E-02)
 number of electron     864.0000006 magnetization 
 augmentation part      120.7460502 magnetization 

 Broyden mixing:
  rms(total) = 0.22995E-01    rms(broyden)= 0.22989E-01
  rms(prec ) = 0.26183E-01
  weight for this iteration     100.00

 eigenvalues of (default mixing * dielectric matrix)
  average eigenvalue GAMMA=   1.4338
  2.6287  2.4184  1.1421  1.0073  1.0073  0.9162  0.9162

 Free energy of the ion-electron system (eV)
  ---------------------------------------------------
  alpha Z        PSCENC =      4052.29761577
  Ewald energy   TEWEN  =    -56561.74928891
  -Hartree energ DENC   =    -13087.55075082
  -exchange      EXHF   =         0.00000000
  -V(xc)+E(xc)   XCENC  =      3358.04906944
  PAW double counting   =     97236.30929723   -96889.13707825
  entropy T*S    EENTRO =        -0.00000000
  eigenvalues    EBANDS =     -3976.41340460
  atomic energy  EATOM  =     64968.54023382
  Solvation  Ediel_sol  =         0.00000000
  ---------------------------------------------------
  free energy    TOTEN  =      -899.65430632 eV

  energy without entropy =     -899.65430632  energy(sigma->0) =     -899.65430632


--------------------------------------------------------------------------------------------------------




--------------------------------------- Iteration      1(  13)  ---------------------------------------


    POTLOK:  cpu time    0.0699: real time    0.0756
    SETDIJ:  cpu time    0.2592: real time    0.2602
     EDDAV:  cpu time   33.1539: real time   33.2779
       DOS:  cpu time    0.0010: real time    0.0010
    CHARGE:  cpu time    0.8750: real time    0.8803
    MIXING:  cpu time    0.0049: real time    0.0049
    --------------------------------------------
      LOOP:  cpu time   34.3639: real time   34.4999

 eigenvalue-minimisations  : 12040
 total energy-change (2. order) :-0.5717607E-03  (-0.4890280E-03)
 number of electron     864.0000006 magnetization 
 augmentation part      120.7470551 magnetization 

 Broyden mixing:
  rms(total) = 0.94469E-02    rms(broyden)= 0.94453E-02
  rms(prec ) = 0.10759E-01
  weight for this iteration     100.00

 eigenvalues of (default mixing * dielectric matrix)
  average eigenvalue GAMMA=   1.4126
  2.6921  2.4718  1.3850  0.9306  0.9306  1.0280  0.9311  0.9311

 Free energy of the ion-electron system (eV)
  ---------------------------------------------------
  alpha Z        PSCENC =      4052.29761577
  Ewald energy   TEWEN  =    -56561.74928891
  -Hartree energ DENC   =    -13089.26126638
  -exchange      EXHF   =         0.00000000
  -V(xc)+E(xc)   XCENC  =      3358.15829212
  PAW double counting   =     97123.53248937   -96775.53953044
  entropy T*S    EENTRO =        -0.00000000
  eigenvalues    EBANDS =     -3975.63342344
  atomic energy  EATOM  =     64968.54023382
  Solvation  Ediel_sol  =         0.00000000
  ---------------------------------------------------
  free energy    TOTEN  =      -899.65487808 eV

  energy without entropy =     -899.65487808  energy(sigma->0) =     -899.65487808


--------------------------------------------------------------------------------------------------------




--------------------------------------- Iteration      1(  14)  ---------------------------------------


    POTLOK:  cpu time    0.0682: real time    0.0756
    SETDIJ:  cpu time    0.2546: real time    0.2593
     EDDAV:  cpu time   31.7934: real time   32.2025
       DOS:  cpu time    0.0010: real time    0.0010
    CHARGE:  cpu time    0.8585: real time    0.8611
    MIXING:  cpu time    0.0055: real time    0.0055
    --------------------------------------------
      LOOP:  cpu time   32.9812: real time   33.4050

 eigenvalue-minimisations  : 11368
 total energy-change (2. order) :-0.8759648E-04  (-0.1411971E-03)
 number of electron     864.0000006 magnetization 
 augmentation part      120.7476158 magnetization 

 Broyden mixing:
  rms(total) = 0.72732E-02    rms(broyden)= 0.72727E-02
  rms(prec ) = 0.80320E-02
  weight for this iteration     100.00

 eigenvalues of (default mixing * dielectric matrix)
  average eigenvalue GAMMA=   1.3505
  2.7955  2.4114  1.5007  0.9313  0.9313  0.9553  0.9553  0.8370  0.8370

 Free energy of the ion-electron system (eV)
  ---------------------------------------------------
  alpha Z        PSCENC =      4052.29761577
  Ewald energy   TEWEN  =    -56561.74928891
  -Hartree energ DENC   =    -13089.57111897
  -exchange      EXHF   =         0.00000000
  -V(xc)+E(xc)   XCENC  =      3358.17408447
  PAW double counting   =     97116.68139313   -96768.57861412
  entropy T*S    EENTRO =        -0.00000000
  eigenvalues    EBANDS =     -3975.44927087
  atomic energy  EATOM  =     64968.54023382
  Solvation  Ediel_sol  =         0.00000000
  ---------------------------------------------------
  free energy    TOTEN  =      -899.65496568 eV

  energy without entropy =     -899.65496568  energy(sigma->0) =     -899.65496568


--------------------------------------------------------------------------------------------------------




--------------------------------------- Iteration      1(  15)  ---------------------------------------


    POTLOK:  cpu time    0.0701: real time    0.0755
    SETDIJ:  cpu time    0.2547: real time    0.2590
     EDDAV:  cpu time   31.4010: real time   31.5065
       DOS:  cpu time    0.0010: real time    0.0010
    CHARGE:  cpu time    0.8608: real time    0.8673
    MIXING:  cpu time    0.0059: real time    0.0059
    --------------------------------------------
      LOOP:  cpu time   32.5936: real time   32.7152

 eigenvalue-minimisations  : 11152
 total energy-change (2. order) : 0.1289140E-04  (-0.1899492E-04)
 number of electron     864.0000006 magnetization 
 augmentation part      120.7477116 magnetization 

 Broyden mixing:
  rms(total) = 0.46025E-02    rms(broyden)= 0.46019E-02
  rms(prec ) = 0.50384E-02
  weight for this iteration     100.00

 eigenvalues of (default mixing * dielectric matrix)
  average eigenvalue GAMMA=   1.4164
  2.7898  2.3259  2.3259  0.9150  1.0210  1.0210  0.9505  0.9505  0.9322  0.9322

 Free energy of the ion-electron system (eV)
  ---------------------------------------------------
  alpha Z        PSCENC =      4052.29761577
  Ewald energy   TEWEN  =    -56561.74928891
  -Hartree energ DENC   =    -13089.71387970
  -exchange      EXHF   =         0.00000000
  -V(xc)+E(xc)   XCENC  =      3358.18334055
  PAW double counting   =     97127.00622104   -96778.91780621
  entropy T*S    EENTRO =        -0.00000000
  eigenvalues    EBANDS =     -3975.30138915
  atomic energy  EATOM  =     64968.54023382
  Solvation  Ediel_sol  =         0.00000000
  ---------------------------------------------------
  free energy    TOTEN  =      -899.65495279 eV

  energy without entropy =     -899.65495279  energy(sigma->0) =     -899.65495279


--------------------------------------------------------------------------------------------------------




--------------------------------------- Iteration      1(  16)  ---------------------------------------


    POTLOK:  cpu time    0.0684: real time    0.0764
    SETDIJ:  cpu time    0.2563: real time    0.2613
     EDDAV:  cpu time   28.1037: real time   28.5771
       DOS:  cpu time    0.0011: real time    0.0011
[...]
   -.885E+02 0.584E+02 -.449E+02   0.922E+02 -.602E+02 0.438E+02   -.174E+01 0.271E+01 0.525E+01   0.866E-03 0.166E-03 0.418E-03
   -.678E+02 -.906E+02 -.514E+02   0.836E+02 0.827E+02 0.754E+02   -.137E+02 0.103E+02 -.260E+02   -.912E-03 -.236E-04 0.157E-03
   -.231E+02 0.520E+02 0.200E+02   0.230E+02 -.679E+02 -.845E+01   0.415E+01 0.124E+02 -.877E+01   -.147E-03 0.962E-03 0.279E-04
   0.104E+02 -.169E+02 -.936E+01   -.166E+02 0.304E+02 0.493E+01   0.359E+01 -.146E+02 0.580E+01   -.113E-02 0.411E-03 -.814E-03
   -.153E+02 -.133E+02 0.296E+02   0.187E+02 0.114E+02 -.326E+02   -.583E+01 -.353E-01 0.185E+01   0.946E-03 -.299E-03 0.474E-03
   -.855E+01 0.638E+02 -.627E+02   0.164E+02 -.670E+02 0.495E+02   -.991E+01 0.146E+00 0.139E+02   0.148E-02 0.731E-03 -.810E-03
   -.317E+02 -.254E+02 -.302E+02   0.295E+02 0.127E+02 0.213E+02   0.305E+01 0.142E+02 0.840E+01   0.604E-04 -.848E-03 0.673E-03
   -.594E+02 0.692E+02 -.243E+01   0.675E+02 -.697E+02 0.197E+02   -.123E+02 -.168E+01 -.178E+02   0.813E-03 0.146E-03 0.546E-03
   -.406E+02 -.139E+02 0.323E+02   0.543E+02 0.182E+02 -.478E+02   -.117E+02 -.240E+01 0.133E+02   -.161E-02 -.271E-03 0.114E-02
   0.438E+02 0.232E+02 0.691E+02   -.492E+02 -.512E+02 -.816E+02   0.528E+01 0.238E+02 0.101E+02   -.483E-04 0.371E-03 0.103E-02
   0.103E+03 -.133E+02 -.657E+02   -.114E+03 0.163E+00 0.766E+02   0.416E+01 0.149E+02 -.435E+01   -.620E-03 -.527E-03 0.220E-03
   0.378E+02 -.115E+02 0.165E+02   -.464E+02 0.269E+02 -.768E+01   0.409E+01 -.135E+02 -.830E+01   0.723E-03 0.473E-04 0.303E-03
   0.592E+02 0.135E+02 -.412E+02   -.648E+02 -.706E+01 0.538E+02   0.353E+01 -.743E+01 -.111E+02   0.146E-02 0.733E-04 0.606E-03
   -.342E+02 -.148E+01 -.427E+02   0.340E+02 0.598E+01 0.536E+02   0.230E+01 -.188E+01 -.796E+01   0.851E-03 -.448E-03 -.988E-03
   -.127E+02 -.396E+01 0.171E+02   0.227E+02 0.115E+02 -.225E+02   -.843E+01 -.609E+01 0.553E+01   -.893E-03 0.318E-03 0.617E-03
   0.179E+02 -.179E+02 -.373E+02   0.354E+01 0.253E+02 0.378E+02   -.255E+02 -.767E+01 0.305E+01   -.547E-03 -.454E-04 -.660E-03
   -.980E+02 -.708E+02 -.158E+02   0.103E+03 0.701E+02 0.224E+02   -.282E+01 0.297E+00 -.666E+01   0.864E-03 0.314E-03 0.521E-03
   0.262E+02 -.127E+02 -.472E+02   -.193E+02 0.228E+02 0.434E+02   -.843E+01 -.136E+02 0.450E+01   0.197E-03 0.313E-03 -.970E-03
   0.209E+02 -.872E+02 0.153E+02   -.202E+02 0.995E+02 0.981E+00   -.702E+00 -.758E+01 -.151E+02   0.528E-03 0.305E-05 0.230E-03
   -.205E+02 -.652E+02 -.434E+02   0.201E+02 0.697E+02 0.374E+02   -.622E+00 -.334E+01 0.652E+01   -.168E-03 -.443E-03 0.701E-03
   -.673E+01 -.628E+02 -.604E+02   0.323E+02 0.453E+02 0.614E+02   -.247E+02 0.148E+02 0.140E+01   -.115E-02 0.412E-03 -.192E-03
   0.328E+02 0.439E+02 0.262E+02   -.399E+02 -.421E+02 -.164E+02   0.716E+01 -.161E+01 -.139E+02   -.847E-04 0.148E-03 0.355E-03
   -.126E+02 -.227E+02 0.365E+02   0.584E+00 0.265E+02 -.441E+02   0.143E+02 -.450E+01 0.918E+01   0.110E-02 -.393E-03 -.882E-03
   0.489E+02 -.415E+01 0.305E+02   -.585E+02 -.735E+01 -.232E+02   0.110E+02 0.114E+02 -.135E+02   0.236E-03 0.107E-03 -.305E-03
   -.190E+02 0.709E+02 0.664E+02   0.280E+02 -.813E+02 -.638E+02   -.801E+01 0.811E+01 -.342E+01   0.649E-03 -.253E-03 0.111E-02
   -.563E+02 -.374E+02 0.266E+02   0.537E+02 0.413E+02 -.249E+02   0.464E+01 -.440E+01 -.266E+01   0.104E-02 0.460E-03 -.447E-03
   0.292E+02 -.190E+02 0.587E+01   -.282E+02 0.321E+02 -.656E+01   -.169E+01 -.109E+02 0.242E+01   -.123E-02 -.476E-03 -.779E-03
   0.267E+02 -.237E+02 -.964E+01   -.145E+02 0.321E+02 0.270E+00   -.119E+02 -.788E+01 0.818E+01   -.738E-03 0.523E-03 -.851E-03
   -.269E+02 0.451E+02 -.344E+01   0.106E+02 -.516E+02 0.172E+02   0.165E+02 0.496E+01 -.135E+02   0.539E-03 -.538E-03 -.164E-03
   0.405E+01 -.440E+02 -.193E+02   -.320E+01 0.498E+02 0.111E+02   -.202E+01 -.230E+01 0.816E+01   -.395E-03 -.159E-03 0.885E-03
   -.290E+02 -.603E+02 0.214E+02   0.374E+02 0.547E+02 -.272E+02   -.109E+02 0.767E+01 0.483E+01   0.935E-03 0.255E-03 0.682E-03
   0.264E+02 -.282E+02 -.692E+02   -.257E+02 0.336E+02 0.649E+02   -.197E+01 -.563E+01 0.683E+01   0.141E-02 -.708E-03 0.395E-03
   0.116E+03 0.395E+02 -.888E+02   -.119E+03 -.341E+02 0.757E+02   -.769E+00 -.704E+01 0.175E+02   0.151E-02 0.291E-04 -.538E-03
   0.662E+02 -.923E+02 -.385E+02   -.701E+02 0.105E+03 0.371E+02   0.564E-01 -.107E+02 0.524E+01   0.953E-04 0.286E-03 -.878E-03
   0.340E+02 0.715E+02 0.244E+02   -.487E+02 -.618E+02 -.253E+02   0.153E+02 -.117E+02 -.800E+00   0.627E-03 0.984E-04 0.745E-03
   0.307E+02 0.240E+02 0.113E+02   -.375E+02 -.188E+02 -.313E+02   0.455E+01 -.869E+01 0.188E+02   0.374E-03 -.231E-03 0.613E-03
   0.106E+02 0.261E+02 -.685E+01   -.513E+01 -.330E+02 0.740E+01   -.626E+01 0.552E+01 0.165E+01   0.145E-02 0.777E-03 0.146E-03
   -.394E+02 0.564E+01 -.280E+02   0.194E+02 0.145E+01 0.279E+02   0.229E+02 -.754E+01 0.153E+01   0.116E-02 0.304E-03 -.668E-03
   0.484E+02 0.371E+02 -.200E+02   -.550E+02 -.437E+02 0.252E+02   0.533E+01 0.385E+01 -.293E+01   -.107E-02 0.546E-03 -.387E-03
   0.105E+02 0.137E+02 -.565E+02   -.119E+02 -.164E+02 0.633E+02   0.790E+00 0.689E+00 -.496E+01   0.983E-03 0.185E-03 -.841E-03
   0.432E+02 -.496E+02 -.278E+02   -.468E+02 0.564E+02 0.356E+02   0.326E+01 -.626E+01 -.827E+01   0.114E-02 -.683E-03 -.226E-03
   -.423E+01 -.579E+02 0.392E+02   -.575E+01 0.580E+02 -.404E+02   0.121E+02 -.931E-03 -.850E+00   0.763E-03 0.564E-03 0.733E-03
   -.297E+02 -.280E+02 -.162E+02   0.361E+02 0.158E+02 0.198E+02   -.989E+01 0.118E+02 -.108E+01   0.100E-02 -.294E-03 -.240E-03
   -.675E+02 0.472E+02 -.270E+02   0.639E+02 -.442E+02 0.252E+02   0.605E+01 -.376E+01 0.276E+01   0.918E-03 0.237E-03 -.652E-03
   -.822E+02 0.751E+02 -.829E+01   0.866E+02 -.761E+02 0.136E+02   -.427E+01 0.947E+00 -.721E+01   -.767E-03 -.547E-03 0.740E-03
   0.107E+02 0.428E+02 -.759E+01   -.220E+01 -.462E+02 0.174E+01   -.114E+02 -.186E+00 0.377E+01   -.292E-03 0.996E-03 0.718E-03
   0.505E+02 0.179E+02 0.226E+02   -.544E+02 -.177E+02 -.338E+02   0.572E+01 0.196E+01 0.624E+01   0.122E-02 0.698E-03 0.396E-03
   0.159E+01 -.546E+02 -.290E+01   -.210E+02 0.467E+02 0.473E+01   0.238E+02 0.797E+01 -.175E+01   -.133E-02 -.725E-04 -.648E-03
 -----------------------------------------------------------------------------------------------
   0.421E+02 -.235E+02 0.103E+02   -.355E-12 -.604E-12 -.158E-12   -.421E+02 0.235E+02 -.103E+02   0.161E-02 0.156E-02 0.263E-02
 
 
 POSITION                                       TOTAL-FORCE (eV/Angst)
 -----------------------------------------------------------------------------------
      3.05106      4.66939      5.58089        -0.300824      1.937844      3.537356
      8.59019      2.34538     10.36899         0.280197     -1.627697      2.371292
      2.64863      1.43379      8.95439         2.136950      0.000110      3.704397
      6.59684      4.59574      9.18303        -0.328636      0.644869      1.020581
      3.97313      3.21710      1.32866         0.020980      2.432093     -0.840871
      7.60875      7.15256      0.76692         0.436433      1.030213      0.693051
      9.86840      1.34360      5.75142         2.713479      0.132063     -0.484439
      0.12761      7.07771      4.63216         3.441531     -2.623031      1.079671
      0.51812      3.75784      8.56208         0.653831     -0.203476     -2.923502
     10.21976      5.06985      1.86539        -4.258877     -0.636380      4.402464
      1.94486      9.72496      7.09674        -1.118238     -1.085215      0.174409
      9.01641      9.58325      3.38134        -1.503487     -0.032418     -1.311683
      3.84037      7.14385      8.21061         1.438423      0.775161      0.932645
      8.05617     10.09733      0.61287        -0.213462     -1.353626     -2.481588
      8.65175      6.02781      7.13300         2.197068      1.061978     -5.490711
      1.61928      5.76584      0.17042         3.560396      3.095898     -0.147259
      7.74974      0.06774      8.04689         1.289496     -1.172948      2.542920
      6.64625      1.50078      1.81689        -0.470897      1.913752      3.785126
      5.25752      5.69909      3.53043         0.239857      0.726633      1.253059
      1.97865      2.49395      3.40098        -1.911047     -0.061433      2.352934
      5.90031      5.20123      6.48429        -0.996795      7.098250      4.070681
      4.97773      9.68559     10.52002         3.776525     -2.344767      3.231280
      3.84863     10.52516      4.80390         3.376367      1.742591      0.515507
      0.52476      0.04596      1.19374        -0.449275      2.146382     -0.897202
      5.49582      2.37385      6.80717        -2.039822      1.262364      1.574003
      7.55029      3.40086      4.72776         1.065480      3.744475     -3.394976
     10.08181      8.53933      9.27179        -3.707482     -1.644487     -0.842724
      9.69809      9.06286      5.88436        -1.440742     -2.118533      7.127686
      5.58409      1.92595     10.00434         3.916821      2.959908     -3.769199
      4.73189      6.67181      0.65346        -2.771028     -2.051419     -2.541605
      3.46093      7.96509      2.93341         0.418670      2.120915      0.618091
      1.33502     10.03012      3.93780        -2.893356      1.710682     -1.361844
      4.78150     10.42419      7.78662         1.019980     -5.722293     -1.507242
      2.43538      2.19662      6.42609        -0.751913      0.130876     -1.946619
      6.99669      4.43039      1.64217         6.125444     -3.384464      0.902327
      3.42020      0.41527      1.87741        -0.005872      3.752365      0.052449
      2.27335      8.99815      9.95235         4.447294      0.581139     -0.689457
      5.82122      8.79952      2.67333         3.584128     -2.168328      2.163764
      0.18317      7.89462      1.47467        -1.268738     -1.242699      3.894049
      0.99689      2.89110      0.76999         4.362654      2.505475     -0.580225
      8.30936      2.87540      7.45121        -1.603488      1.494500      4.102876
     10.41178      4.30453      5.41106         1.196516     -0.108208     -0.658424
      9.33245      5.39050      9.83081        -1.249725      1.611049      0.600645
      1.07213      6.65880      7.63812        -1.357534      1.074685     -1.298352
      7.14551      0.55073      5.21530        -1.873779     -1.491481     -0.352889
      3.26426      7.55034      5.48386        -0.623982      2.723177     -0.527723
      2.05968      5.36967      3.28544        -2.358402     -2.453290     -6.429848
      6.82679      7.85028      8.48927         0.083655      2.406761      0.880087
      8.18996      6.62566      3.93879        -3.671628      2.399961     -1.135571
      3.49699      4.34695      9.08184         0.926988      1.148191     -0.299318
      4.89983      2.89732      4.07997        -4.585619     -1.984053      1.853490
      0.02365      0.79056      8.73579        -2.293978     -0.126569     -0.588166
      6.64225      8.06990      5.83946         1.126002     -2.146983      1.527834
      9.33780      2.11698      2.91839         1.367995     -1.180679     -0.081382
      5.63195      9.06449      8.61921         0.252802      3.667681     -2.849778
      3.34420      4.31695      3.48086         2.615972     -0.560776      0.441416
      3.80915      5.36302      0.02033         0.102173      0.613246     -0.215709
      3.61874      0.95201      6.94587        -1.148689     -1.484191     -0.354822
      6.70242      9.26704      4.74848        -2.721154      3.491830     -0.809197
      5.76375      5.32363      1.49602        -4.676646      4.218458     -2.802213
      0.98201     10.01913      9.30008         2.782600      4.326994     -0.751381
      4.06076      8.93175      6.30981        -0.890098      0.892987      1.017641
      6.69882      6.54790      5.09483         1.668831      1.919782     -1.355037
      2.30105      3.23564     10.25855         2.048630      2.935096     -3.901259
      2.41577      0.29243      3.19422         2.964292     -0.780420     -2.967017
      6.68184     10.12258      2.12756        -3.335388     -4.501922      3.209200
      9.43643      1.83836      8.05163        -0.121391      0.678097     -2.252308
      7.45054      2.01129      6.15041         4.198789     -1.483609      2.746724
      4.76706      3.41710      9.66535        -0.947685     -3.934814     -0.290999
      6.18329      0.24872      6.70222        -3.024609     -1.249662     -1.572302
      8.86120      3.93828      9.18568         1.061526      1.445763     -4.538807
      5.75416      1.51921      4.45656         2.177909     -1.936007      2.970609
      0.35262      2.03172     10.15467        -1.042035     -3.118679     -3.334428
      6.46586      3.13676      0.47695         0.392142      0.506851      0.431268
      2.29835      5.48410      8.57084        -1.806567      0.802192     -0.542741
      7.07908      7.74607      3.00359         2.038001      0.415934     -0.172814
      6.60643      0.69922     10.35022         4.048438     -0.116240     -1.753213
      5.14140      4.14467      5.24086         0.833825     -5.620247     -5.309280
      7.21934      2.28616      8.72090        -1.494710      0.751313     -2.533526
      7.95740      5.07101      0.31258         0.531446     -0.357707      2.180308
      9.46327      7.10321      3.05156         0.412429      2.072719     -1.252359
      3.51796      2.64586      5.22220         2.461272     -4.153191     -1.267651
      8.17263      1.21427      4.07264         0.075179      1.139022     -1.860284
      7.79596      8.82541      9.51305         0.181428     -1.734967      0.167363
      3.69850      9.79443      9.09124        -7.307218      0.244769     -5.425083
      8.54975     10.21240      5.59944        -0.218423      1.143613     -0.378693
      9.34112      3.98795      6.63045         5.425316     -2.914125     -0.252996
      0.84479      9.00016      2.60221         1.970434      0.894559      4.159489
      4.81250      7.79413      3.85515         2.045218      2.344814     -1.922542
      8.71051      5.44950      4.87061         4.098502     -3.546273      2.747508
      7.40014      4.17317      7.08818        -2.616386     -1.094193      1.375867
      9.84421      3.07160      4.37471        -2.496876     -1.934744     -1.202119
      0.86188      5.61161      6.34596        -2.014346     -3.108510      0.684227
      8.90874      0.89636      1.85657         0.786103      1.551154     -0.562888
      1.43257      8.54790      0.61137        -4.200890     -2.193565     -0.499289
      5.86581      3.45317      2.98735         1.982396      1.859949     -2.242952
      3.54848      6.64312      2.18535        -0.086370     -4.199904     -2.297238
      4.75012      1.12406      0.46078        -6.729358      1.676334      6.577966
      2.85452      8.66974      4.24091        -4.570669      1.832618      0.477207
     10.53634      2.90960      1.95650        -2.056988     -0.940837      1.555938
     10.05354     10.08549      7.16529         2.114500      2.619915      2.909807
      5.57476      7.84602      1.31290         1.567015      1.441187      0.173339
      7.81527      8.44487      7.09295        -4.100020     -0.229867      3.519729
      1.01778      6.61056      2.25178         2.508010     -0.366384      0.007582
      3.12263      3.46152      7.52120        -1.566455     -3.424197      0.676956
      2.43623      6.34985      4.37901        -0.053330      4.799463      1.185411
      8.21554      3.17102      2.18761        -1.045272      1.084577      0.524434
      4.30601      6.45700      5.57628         0.927830     -2.724417      2.398479
      3.48998      7.89232      0.28715         0.102441      0.230485     -4.140715
      1.01842      1.68041      7.42215         2.217418     -0.622473      1.548205
      8.68359      7.78154      5.42901         1.437083     -0.108941     -6.239107
      2.08696      1.89190      1.47781         0.904087     -2.256591     -0.757792
     10.46094      6.08838      8.73390         2.053853     -0.480463     -0.960353
      5.07456      1.16378      8.60802        -0.650654      2.120868      1.725314
      4.65896      5.13899      8.21601         0.386830      0.452078     -1.195156
      9.38101      0.29475      9.68619         0.259812     -1.612618      0.303057
      4.19862      9.37354      2.28566        -1.172751      3.531869     -0.087133
      1.95228      4.25431      1.87128        -2.498045      2.006608     -1.004808
      0.20489      0.80471      3.29560        -1.225585     -0.304060      2.572548
      1.48386      3.24461      5.39253        -3.752460     -1.675529      4.452916
      8.33999      6.45446      8.93076        -3.881472      1.649979      3.786640
      9.54537      9.01208      1.37442         0.595333     -2.016516     -1.695475
      2.80966     10.56203      0.46130        -2.237413     -3.453664     -1.122498
      0.10105      4.46708     10.45143        -0.783073     -1.386173      2.199683
      1.89635      7.62297      6.34244         2.840186     -0.462320      1.453895
      5.92979      7.01762      9.63219        -1.294636     -2.718125      2.208421
     10.40289      7.87127      6.91655        -0.616185     -1.961781      1.790868
      1.76390      0.44883      5.38803        -0.278622      0.496858     -0.402329
      9.77010      6.77008      0.53949         2.082046      0.084224     -2.040970
      0.40711      9.17241      4.85760        -3.547014     -0.417262      2.479339
      1.58849      7.94880      8.69921         2.490057     -0.759250      0.930417
      4.15677      1.63766      2.94485         0.041857     -0.099805     -1.869019
      7.88169      5.54035      2.73111        -2.892449     -3.503077     -2.086740
      0.62080      4.87658      4.13628         1.890819      2.132197     -4.971921
      5.68365      7.36950      7.12766         4.372567      0.072134      0.073313
 -----------------------------------------------------------------------------------
    total drift:                                0.002703      0.031427     -0.000584


--------------------------------------------------------------------------------------------------------



  FREE ENERGIE OF THE ION-ELECTRON SYSTEM (eV)
  ---------------------------------------------------
  free  energy   TOTEN  =      -899.65493997 eV

  energy  without entropy=     -899.65493997  energy(sigma->0) =     -899.65493997
 


--------------------------------------------------------------------------------------------------------


    POTLOK:  cpu time    0.3338: real time    0.3348


--------------------------------------------------------------------------------------------------------


     LOOP+:  cpu time  592.5358: real time  597.4573
    4ORBIT:  cpu time    0.0000: real time    0.0000

 total amount of memory used by VASP MPI-rank0   132678. kBytes
=======================================================================

   base      :      30000. kBytes
   nonlr-proj:      20254. kBytes
   fftplans  :      16056. kBytes
   grid      :       9274. kBytes
   one-center:        186. kBytes
   wavefun   :      56908. kBytes
 
  
  
 General timing and accounting informations for this job:
 ========================================================
  
                  Total CPU time used (sec):      606.779
                            User time (sec):      603.586
                          System time (sec):        3.193
                         Elapsed time (sec):      611.809
  
                   Maximum memory used (kb):      241056.
                   Average memory used (kb):           0.
  
                          Minor page faults:       155107
                          Major page faults:            0
                 Voluntary context switches:          368
