 running on   52 total cores
 distrk:  each k-point on   52 cores,    1 groups
 distr:  one band on   13 cores,    4 groups
 using from now: INCAR     
 vasp.5.4.4.18Apr17-6-g9f103f2a35 (build Oct 31 2019 15:01:46) complex          
  
 POSCAR found type information on POSCAR  Ca Si O 
 POSCAR found :  3 types and     135 ions
 scaLAPACK is switched off
 LDA part: xc-table for Pade appr. of Perdew
 generate k-points for:    2    2    2
 POSCAR, INCAR and KPOINTS ok, starting setup
 FFT: planning ...
 WAVECAR not read
 entering main loop
       N       E                     dE             d eps       ncg     rms          rms(c)
DAV:   1     0.103414101597E+05    0.10341E+05   -0.49427E+05  8320   0.192E+03
DAV:   2     0.204308533120E+03   -0.10137E+05   -0.97608E+04  9440   0.536E+02
DAV:   3    -0.934713961743E+03   -0.11390E+04   -0.11299E+04  9976   0.181E+02
DAV:   4    -0.992808395692E+03   -0.58094E+02   -0.57899E+02 11856   0.349E+01
DAV:   5    -0.997186435072E+03   -0.43780E+01   -0.43758E+01 14000   0.805E+00    0.878E+01
DAV:   6    -0.865373936877E+03    0.13181E+03   -0.53061E+02 10000   0.374E+01    0.373E+01
DAV:   7    -0.867037101587E+03   -0.16632E+01   -0.63321E+01 10840   0.128E+01    0.166E+01
DAV:   8    -0.866430298336E+03    0.60680E+00   -0.90642E+00 11336   0.565E+00    0.705E+00
DAV:   9    -0.866287547864E+03    0.14275E+00   -0.20164E+00 10312   0.292E+00    0.215E+00
DAV:  10    -0.866326450002E+03   -0.38902E-01   -0.54348E-01 11048   0.137E+00    0.126E+00
DAV:  11    -0.866333083031E+03   -0.66330E-02   -0.93141E-02 11024   0.564E-01    0.698E-01
DAV:  12    -0.866334317184E+03   -0.12342E-02   -0.28065E-02 11272   0.300E-01    0.217E-01
DAV:  13    -0.866334975586E+03   -0.65840E-03   -0.44002E-03 11752   0.138E-01    0.980E-02
DAV:  14    -0.866335037042E+03   -0.61456E-04   -0.11264E-03 11400   0.610E-02    0.683E-02
DAV:  15    -0.866335029954E+03    0.70877E-05   -0.20947E-04  9904   0.261E-02    0.320E-02
DAV:  16    -0.866335030823E+03   -0.86943E-06   -0.51512E-05 13104   0.163E-02    0.972E-03
DAV:  17    -0.866335029984E+03    0.83982E-06   -0.25063E-05 11112   0.979E-03    0.726E-03
DAV:  18    -0.866335029490E+03    0.49370E-06   -0.31041E-06  6784   0.340E-03
   1 F= -.86633503E+03 E0= -.86633503E+03  d E =-.946088E-12
