 vasp.5.4.4.18Apr17-6-g9f103f2a35 (build Oct 31 2019 15:01:46) complex          
  
 executed on             LinuxIFC date 2024.04.29  20:21:52
 running on   52 total cores
 distrk:  each k-point on   52 cores,    1 groups
 distr:  one band on NCORES_PER_BAND=  13 cores,    4 groups


--------------------------------------------------------------------------------------------------------


 INCAR:
 POTCAR:    PAW_PBE Ca_sv 06Sep2000               
 POTCAR:    PAW_PBE Si 05Jan2001                  
 POTCAR:    PAW_PBE O 08Apr2002                   
 POTCAR:    PAW_PBE Ca_sv 06Sep2000               
   SHA256 =  a47365830e737f14e0e6c5cf1ed81b94e081eecf0a33df105380881bc9da05d5 Ca
   COPYR  = (c) Copyright 06Sep2000 Georg Kresse                                
   COPYR  = This file is part of the software VASP. Any use, copying, and all ot
   COPYR  = If you do not have a valid VASP license, you may not use, copy or di
   VRHFIN =Ca: 3s3p4s                                                           
   LEXCH  = PE                                                                  
   EATOM  =  1006.0909 eV,   73.9456 Ry                                         
                                                                                
   TITEL  = PAW_PBE Ca_sv 06Sep2000                                             
   LULTRA =        F    use ultrasoft PP ?                                      
   IUNSCR =        1    unscreen: 0-lin 1-nonlin 2-no                           
   RPACOR =    2.000    partial core radius                                     
   POMASS =   40.078; ZVAL   =   10.000    mass and valenz                      
   RCORE  =    2.300    outmost cutoff radius                                   
   RWIGS  =    2.500; RWIGS  =    1.323    wigner-seitz radius (au A)           
   ENMAX  =  266.622; ENMIN  =  199.967 eV                                      
   RCLOC  =    1.808    cutoff for local pot                                    
   LCOR   =        T    correct aug charges                                     
   LPAW   =        T    paw PP                                                  
   EAUG   =  420.852                                                            
   RMAX   =    2.359    core radius for proj-oper                               
   RAUG   =    1.300    factor for augmentation sphere                          
   RDEP   =    2.392    radius for radial grids                                 
   RDEPT  =    1.987    core radius for aug-charge                              
                                                                                
   Atomic configuration                                                         
    7 entries                                                                   
     n  l   j            E        occ.                                          
     1  0  0.50     -3949.1705   2.0000                                         
     2  0  0.50      -414.3434   2.0000                                         
     2  1  1.50      -334.7047   6.0000                                         
     3  0  0.50       -47.0896   2.0000                                         
     4  0  0.50        -3.7663   2.0000                                         
     3  1  1.50       -28.0061   6.0000                                         
     3  2  1.50        -4.0817   0.0000                                         
   Description                                                                  
     l       E           TYP  RCUT    TYP  RCUT                                 
     0    -47.0896403     23  2.300                                             
     0     -3.7663320     23  2.300                                             
     1    -28.0060855     23  2.300                                             
     1      6.8029130     23  2.300                                             
     2     -4.0817478     23  2.300                                             
     2      0.4464412     23  2.300                                             
  local pseudopotential read in
  partial core-charges read in
  partial kinetic energy density read in
  atomic valenz-charges read in
  non local Contribution for L=           0  read in
    real space projection operators read in
  non local Contribution for L=           0  read in
    real space projection operators read in
  non local Contribution for L=           1  read in
    real space projection operators read in
  non local Contribution for L=           1  read in
    real space projection operators read in
  non local Contribution for L=           2  read in
    real space projection operators read in
  non local Contribution for L=           2  read in
    real space projection operators read in
    PAW grid and wavefunctions read in
 
   number of l-projection  operators is LMAX  =           6
   number of lm-projection operators is LMMAX =          18
 
 POTCAR:    PAW_PBE Si 05Jan2001                  
   SHA256 =  79d9987ad8750f624c4d6acb2a16d13abf6a777132adc04dc6c8399be72b42bb Si
   COPYR  = (c) Copyright 05Jan2001 Georg Kresse                                
   COPYR  = This file is part of the software VASP. Any use, copying, and all ot
   COPYR  = If you do not have a valid VASP license, you may not use, copy or di
   VRHFIN =Si: s2p2                                                             
   LEXCH  = PE                                                                  
   EATOM  =   103.0669 eV,    7.5752 Ry                                         
                                                                                
   TITEL  = PAW_PBE Si 05Jan2001                                                
   LULTRA =        F    use ultrasoft PP ?                                      
   IUNSCR =        1    unscreen: 0-lin 1-nonlin 2-no                           
   RPACOR =    1.500    partial core radius                                     
   POMASS =   28.085; ZVAL   =    4.000    mass and valenz                      
   RCORE  =    1.900    outmost cutoff radius                                   
   RWIGS  =    2.480; RWIGS  =    1.312    wigner-seitz radius (au A)           
   ENMAX  =  245.345; ENMIN  =  184.009 eV                                      
   ICORE  =        2    local potential                                         
   LCOR   =        T    correct aug charges                                     
   LPAW   =        T    paw PP                                                  
   EAUG   =  322.069                                                            
   DEXC   =    0.000                                                            
   RMAX   =    1.950    core radius for proj-oper                               
   RAUG   =    1.300    factor for augmentation sphere                          
   RDEP   =    1.993    radius for radial grids                                 
   RDEPT  =    1.837    core radius for aug-charge                              
                                                                                
   Atomic configuration                                                         
    6 entries                                                                   
     n  l   j            E        occ.                                          
     1  0  0.50     -1785.8828   2.0000                                         
     2  0  0.50      -139.4969   2.0000                                         
     2  1  1.50       -95.5546   6.0000                                         
     3  0  0.50       -10.8127   2.0000                                         
     3  1  0.50        -4.0811   2.0000                                         
     3  2  1.50        -4.0817   0.0000                                         
   Description                                                                  
     l       E           TYP  RCUT    TYP  RCUT                                 
     0    -10.8127223     23  1.900                                             
     0     -7.6451159     23  1.900                                             
     1     -4.0811372     23  1.900                                             
     1      2.4879257     23  1.900                                             
     2     -4.0817478      7  1.900                                             
  local pseudopotential read in
  partial core-charges read in
  partial kinetic energy density read in
  atomic valenz-charges read in
  non local Contribution for L=           0  read in
    real space projection operators read in
  non local Contribution for L=           0  read in
    real space projection operators read in
  non local Contribution for L=           1  read in
    real space projection operators read in
  non local Contribution for L=           1  read in
    real space projection operators read in
    PAW grid and wavefunctions read in
 
   number of l-projection  operators is LMAX  =           4
   number of lm-projection operators is LMMAX =           8
 
 POTCAR:    PAW_PBE O 08Apr2002                   
   SHA256 =  818f92134a0a090dccd8ba1447fa70422a3b330e708bb4f08108d8ae51209ddf O/
   COPYR  = (c) Copyright 08Apr2002 Georg Kresse                                
   COPYR  = This file is part of the software VASP. Any use, copying, and all ot
   COPYR  = If you do not have a valid VASP license, you may not use, copy or di
   VRHFIN =O: s2p4                                                              
   LEXCH  = PE                                                                  
   EATOM  =   432.3788 eV,   31.7789 Ry                                         
                                                                                
   TITEL  = PAW_PBE O 08Apr2002                                                 
   LULTRA =        F    use ultrasoft PP ?                                      
   IUNSCR =        1    unscreen: 0-lin 1-nonlin 2-no                           
   RPACOR =    1.200    partial core radius                                     
   POMASS =   16.000; ZVAL   =    6.000    mass and valenz                      
   RCORE  =    1.520    outmost cutoff radius                                   
   RWIGS  =    1.550; RWIGS  =    0.820    wigner-seitz radius (au A)           
   ENMAX  =  400.000; ENMIN  =  300.000 eV                                      
   ICORE  =        2    local potential                                         
   LCOR   =        T    correct aug charges                                     
   LPAW   =        T    paw PP                                                  
   EAUG   =  605.392                                                            
   DEXC   =    0.000                                                            
   RMAX   =    1.553    core radius for proj-oper                               
   RAUG   =    1.300    factor for augmentation sphere                          
   RDEP   =    1.550    radius for radial grids                                 
   RDEPT  =    1.329    core radius for aug-charge                              
                                                                                
   Atomic configuration                                                         
    4 entries                                                                   
     n  l   j            E        occ.                                          
     1  0  0.50      -514.6923   2.0000                                         
     2  0  0.50       -23.9615   2.0000                                         
     2  1  0.50        -9.0305   4.0000                                         
     3  2  1.50        -9.5241   0.0000                                         
   Description                                                                  
     l       E           TYP  RCUT    TYP  RCUT                                 
     0    -23.9615318     23  1.200                                             
     0     -9.5240782     23  1.200                                             
     1     -9.0304911     23  1.520                                             
     1      8.1634956     23  1.520                                             
     2     -9.5240782      7  1.500                                             
  local pseudopotential read in
  partial core-charges read in
  partial kinetic energy density read in
  kinetic energy density of atom read in
  atomic valenz-charges read in
  non local Contribution for L=           0  read in
    real space projection operators read in
  non local Contribution for L=           0  read in
    real space projection operators read in
  non local Contribution for L=           1  read in
    real space projection operators read in
  non local Contribution for L=           1  read in
    real space projection operators read in
    PAW grid and wavefunctions read in
 
   number of l-projection  operators is LMAX  =           4
   number of lm-projection operators is LMMAX =           8
 
 Optimization of the real space projectors (new method)

 maximal supplied QI-value         = 16.25
 optimisation between [QCUT,QGAM] = [ 12.51, 25.03] = [ 43.85,175.40] Ry 
 Optimized for a Real-space Cutoff    1.47 Angstroem

   l    n(q)    QCUT    max X(q) W(low)/X(q) W(high)/X(q)  e(spline) 
   0     11    12.514    11.817    0.25E-04    0.32E-05    0.87E-07
   0     11    12.514     8.461    0.39E-04    0.59E-05    0.18E-06
   1     11    12.514     3.957    0.97E-05    0.57E-05    0.28E-07
   1     11    12.514     4.314    0.42E-04    0.14E-04    0.23E-06
   2     10    12.514    14.565    0.79E-04    0.50E-03    0.16E-05
   2     10    12.514    14.552    0.75E-04    0.48E-03    0.15E-05
 Optimization of the real space projectors (new method)

 maximal supplied QI-value         = 19.84
 optimisation between [QCUT,QGAM] = [ 12.50, 25.00] = [ 43.76,175.03] Ry 
 Optimized for a Real-space Cutoff    1.16 Angstroem

   l    n(q)    QCUT    max X(q) W(low)/X(q) W(high)/X(q)  e(spline) 
   0      9    12.501   159.560    0.10E-03    0.83E-04    0.71E-07
   0      9    12.501   115.863    0.99E-04    0.81E-04    0.70E-07
   1      8    12.501    88.339    0.20E-03    0.25E-03    0.76E-07
   1      8    12.501    48.592    0.20E-03    0.24E-03    0.75E-07
 Optimization of the real space projectors (new method)

 maximal supplied QI-value         = 24.76
 optimisation between [QCUT,QGAM] = [ 12.38, 25.00] = [ 42.90,175.06] Ry 
 Optimized for a Real-space Cutoff    1.16 Angstroem

   l    n(q)    QCUT    max X(q) W(low)/X(q) W(high)/X(q)  e(spline) 
   0      9    12.378    20.381    0.16E-03    0.67E-05    0.31E-06
   0      9    12.378    15.268    0.17E-03    0.81E-05    0.33E-06
   1      8    12.378     5.964    0.20E-03    0.16E-03    0.30E-06
   1      8    12.378     5.382    0.18E-03    0.14E-03    0.26E-06
  PAW_PBE Ca_sv 06Sep2000               :
 energy of atom  1       EATOM=-1006.0909
 kinetic energy error for atom=    0.0012 (will be added to EATOM!!)
  PAW_PBE Si 05Jan2001                  :
 energy of atom  2       EATOM= -103.0669
 kinetic energy error for atom=    0.0003 (will be added to EATOM!!)
  PAW_PBE O 08Apr2002                   :
 energy of atom  3       EATOM= -432.3788
 kinetic energy error for atom=    0.0168 (will be added to EATOM!!)
 
 
 POSCAR: Ca Si  O                                
  positions in direct lattice
  No initial velocities read in
 exchange correlation table for  LEXCH =        8
   RHO(1)=    0.500       N(1)  =     2000
   RHO(2)=  100.500       N(2)  =     4000
 


--------------------------------------------------------------------------------------------------------


 ion  position               nearest neighbor table
   1  0.194  0.820  0.084-  74 1.85  55 2.05  56 2.21  84 2.22 134 2.24 135 2.33 102 2.36  63 2.52
                            35 2.70  51 2.83  39 2.84  46 2.95  43 2.96  16 2.98  37 3.15
   2  0.884  0.220  0.601-  69 2.17  82 2.23 118 2.33  75 2.34 100 2.40  96 2.42  18 2.74  44 2.90
                            36 2.97
   3  0.576  0.014  0.343- 132 2.17  76 2.23 105 2.25  94 2.31  90 2.32  77 2.38  71 2.38  38 2.86
                            54 2.88  41 2.99  11 3.06  48 3.10  37 3.12
   4  0.017  0.060  0.205- 129 2.13  59 2.20  98 2.31 104 2.38  96 2.44  81 2.46 135 2.49  89 2.52
                            84 2.55  49 2.64  41 2.74  51 2.94  30 2.95   5 2.97  37 2.98  35 3.04
   5  0.969  0.143  0.941-  81 1.92 135 2.11  59 2.18  68 2.34 100 2.36  97 2.38  98 2.39  57 2.53
                            66 2.56  51 2.81  49 2.88  53 2.95   4 2.97  40 3.04  41 3.10
   6  0.382  0.168  0.768-  70 2.10 119 2.13  99 2.25 103 2.25  91 2.38  97 2.40  65 2.52  36 2.65
                            33 2.78  45 3.00  28 3.00  26 3.09
   7  0.535  0.575  0.200- 112 2.21  87 2.24 130 2.28 117 2.42  48 2.86  21 2.88  43 3.00  29 3.03
                            32 3.03  52 3.05  38 3.14
   8  0.090  0.505  0.629- 133 2.06  67 2.06  75 2.18  72 2.46  78 2.46  85 2.49 120 2.52  13 2.63
                            34 2.90  40 3.06  36 3.12  39 3.13  15 3.17
   9  0.989  0.554  0.072-  66 2.01 102 2.12 107 2.27 108 2.38  72 2.39  60 2.47  64 2.48  40 2.80
                            49 2.80  39 2.83  46 2.93  43 2.93  22 3.01
  10  0.794  0.801  0.234- 110 2.20 105 2.25 129 2.29 134 2.29  83 2.31  64 2.42  90 2.42 111 2.42
                           112 2.45 130 2.51 117 2.53  46 2.60  50 2.83  35 2.88  41 2.99  29 3.04
  11  0.492  0.106  0.082- 121 2.08 116 2.10  94 2.18  76 2.18 125 2.36 132 2.44  55 2.56  80 2.56
                           105 2.57  54 2.89  48 2.94  41 2.99  51 3.02  53 3.03  32 3.03   3 3.06
  12  0.273  0.310  0.202-  60 1.78 104 2.11 116 2.17  80 2.46  76 2.50  87 2.51  43 2.65  49 2.73
                            30 2.91  37 3.07  54 3.13  20 3.14  26 3.17
  13  0.045  0.477  0.386- 107 2.07 126 2.17  64 2.25  89 2.29  75 2.32 114 2.36 120 2.45   8 2.63
                            52 2.81  30 2.81  46 2.86  49 3.05  34 3.15
  14  0.596  0.529  0.502- 101 2.01 115 2.06  93 2.10  83 2.28 131 2.29 127 2.43 113 2.43  86 2.51
                            34 2.51  38 2.60  42 2.74  28 2.90  52 2.97  31 2.97
  15  0.905  0.704  0.756-  95 2.02  78 2.25  73 2.33  61 2.34  67 2.39 127 2.42  92 2.43 124 2.49
                            34 2.77  31 2.84  44 2.85  39 2.87  50 3.03   8 3.17
  16  0.304  0.766  0.338-  84 2.01 120 2.19  93 2.24  74 2.40 126 2.45 132 2.53 106 2.56  38 2.80
                            37 2.87  42 2.89   1 2.98  48 3.04  46 3.04  43 3.06
  17  0.140  0.933  0.740- 118 2.03  61 2.25  78 2.35  97 2.36 106 2.39  73 2.43  63 2.50  23 2.62
                            45 2.84  44 2.92  33 2.98  27 3.04  36 3.11
  18  0.812  0.218  0.353-  71 2.20  79 2.22  96 2.31 129 2.37  94 2.41  89 2.41  86 2.48   2 2.74
                            41 2.80  54 2.88  52 3.00  49 3.15   4 3.15
  19  0.680  0.915  0.932- 111 2.09 121 2.14 124 2.29  57 2.30  88 2.32 105 2.42  70 2.50  98 2.55
                           128 2.56  29 2.71  53 2.84  41 2.87  48 3.03  35 3.06  25 3.06  33 3.08
  20  0.365  0.214  0.468-  62 1.89 119 1.93  65 2.23  76 2.29 131 2.31 114 2.40  45 2.65  28 2.67
                            30 2.71  54 2.88  37 2.94  12 3.14
  21  0.439  0.656  0.958-  88 2.12  74 2.13 109 2.26  63 2.40  58 2.42 122 2.51 112 2.55  48 2.65
                             7 2.88  29 2.89  43 2.97  32 3.01  33 3.04  47 3.08
  22  0.770  0.371  0.070- 108 1.99  79 2.15  66 2.22  59 2.24  68 2.26 117 2.37 122 2.39 125 2.43
                           107 2.51  52 2.82  53 2.83  49 2.87  40 2.89   9 3.01  32 3.04
  23  0.081  0.977  0.503-  96 2.01  61 2.01 106 2.04  65 2.32 118 2.46  17 2.62  45 2.73  30 2.79
                            50 3.07  44 3.12
  24  0.632  0.432  0.789- 122 2.07 127 2.17  58 2.27  91 2.34 101 2.40 113 2.48  32 2.68  28 2.76
                            47 2.79  53 2.96  31 3.08
  25  0.640  0.007  0.660-  69 2.09  57 2.29 119 2.33  70 2.35  82 2.41 128 2.48  44 2.49  95 2.50
                            28 2.94  19 3.06  53 3.15  31 3.16
  26  0.217  0.362  0.913- 103 2.07  91 2.33  85 2.34 109 2.34  60 2.38 116 2.48  81 2.51  72 2.53
                            36 2.73  47 2.79  32 3.05   6 3.09  40 3.12  12 3.17
  27  0.310  0.721  0.648- 106 2.07  78 2.23 133 2.46  63 2.47 120 2.48  85 2.49  47 2.83  45 2.93
                            17 3.04  33 3.06  39 3.09
  28  0.580  0.270  0.591- 113 1.59  69 1.78  71 1.80 119 1.81 101 1.91  20 2.67  24 2.76  14 2.90
                            25 2.94   6 3.00
  29  0.710  0.668  0.993- 124 1.45 111 1.56 112 1.61 117 1.90 108 2.09 122 2.36  19 2.71  21 2.89
                             7 3.03  10 3.04  31 3.11
  30  0.115  0.221  0.411-  96 1.59  89 1.62 104 1.70  75 1.76 114 2.45  20 2.71  23 2.79  13 2.81
                            12 2.91   4 2.95  49 3.01  37 3.09  36 3.13
  31  0.640  0.712  0.710- 115 1.56 127 1.65  95 1.68 124 1.72 128 1.85  58 1.98  15 2.84  14 2.97
                            34 3.04  24 3.08  29 3.11  38 3.13  25 3.16
  32  0.493  0.379  0.994- 122 1.50  91 1.61 125 1.62  80 1.72 109 1.85  24 2.68  21 3.01  11 3.03
                             7 3.03  22 3.04  26 3.05
  33  0.403  0.916  0.841-  99 1.55 123 1.63  88 1.72  63 1.74 128 1.76  70 2.41   6 2.78  17 2.98
                            21 3.04  27 3.06  19 3.08
  34  0.822  0.534  0.576-  67 1.58 127 1.63  92 1.76  86 1.79 101 1.88  14 2.51  15 2.77   8 2.90
                            52 2.91  31 3.04  50 3.06  13 3.15
  35  0.950  0.853  0.016-  56 1.64  98 1.66 111 1.72 134 1.78  73 1.85 135 2.00   1 2.70  10 2.88
                             4 3.04  19 3.06
  36  0.146  0.225  0.705- 103 1.54  97 1.74 100 1.89  65 1.95 118 2.15  75 2.19   6 2.65  26 2.73
                             2 2.97  17 3.11   8 3.12  30 3.13
  37  0.289  0.029  0.275-  62 1.51 104 1.57  55 1.74 132 1.79  76 1.81  84 1.92  16 2.87  51 2.93
                            20 2.94   4 2.98  12 3.07  45 3.07  11 3.07  30 3.09   3 3.12   1 3.15
  38  0.551  0.760  0.432- 130 1.69  93 1.72 115 1.79  77 2.00  83 2.22  90 2.25  14 2.60  16 2.80
                             3 2.86  31 3.13   7 3.14
  39  0.143  0.656  0.878-  72 1.61  78 1.67  56 1.67  85 1.84 102 1.87  63 2.16   9 2.83   1 2.84
                            15 2.87  27 3.09   8 3.13
  40  0.932  0.415  0.854- 100 1.63  72 1.80 108 1.86  67 1.91  66 1.94  68 2.01   9 2.80  22 2.89
                             5 3.04   8 3.06  26 3.12
  41  0.767  0.067  0.139-  98 1.65 121 1.66  94 1.74 105 1.87 129 1.88  59 2.01   4 2.74  18 2.80
                            19 2.87  53 2.94  10 2.99  11 2.99   3 2.99   5 3.10
  42  0.349  0.510  0.426- 114 1.52  93 1.68  87 1.69 131 2.01 120 2.04 133 2.10  14 2.74  16 2.89

  43  0.257  0.554  0.146- 102 1.44  87 1.57  60 1.64 109 1.73 126 1.88  74 2.16  12 2.65   9 2.93
                             1 2.96  21 2.97   7 3.00  16 3.06
  44  0.867  0.967  0.707-  57 1.59  82 1.75  73 1.82 118 1.89  61 2.01  95 2.04  25 2.49  50 2.78
                            15 2.85   2 2.90  17 2.92  23 3.12  19 3.14
  45  0.332  0.983  0.558- 106 1.55  99 1.63  77 1.65  62 1.70  65 1.73 119 2.22  20 2.65  23 2.73
                            17 2.84  27 2.93   6 3.00  37 3.07
  46  0.023  0.728  0.285- 134 1.47  64 1.60 110 1.61 126 1.74  84 2.33  10 2.60  13 2.86   9 2.93
                             1 2.95  16 3.04  50 3.07
  47  0.377  0.477  0.737- 133 1.64  85 1.64  91 1.78  58 1.79 113 1.93 103 2.09  26 2.79  24 2.79
                            27 2.83  21 3.08
  48  0.489  0.832  0.129-  88 1.67 132 1.67 112 1.76 130 1.80  74 1.84 105 2.03  21 2.65   7 2.86
                            11 2.94  19 3.03  16 3.04   3 3.10
  49  0.019  0.304  0.156-  81 1.54  89 1.55  66 1.59  59 1.71 107 1.75  60 2.09   4 2.64  12 2.73
                             9 2.80  22 2.87   5 2.88  30 3.01  13 3.05  18 3.15
  50  0.842  0.811  0.497-  90 1.59 110 1.63  92 1.89  61 2.02  95 2.07  82 2.27  44 2.78  10 2.83
                            15 3.03  34 3.06  23 3.07  46 3.07
  51  0.217  0.076  0.011- 123 1.53  55 1.60 116 1.67 135 1.73  97 1.98  81 2.13   5 2.81   1 2.83
                            37 2.93   4 2.94  11 3.02
  52  0.793  0.497  0.304-  86 1.56  79 1.61 107 1.84  64 1.85  83 1.89 117 1.95  13 2.81  22 2.82
                            34 2.91  14 2.97  18 3.00   7 3.05
  53  0.697  0.181  0.895-  68 1.52 121 1.54 125 1.60  70 1.91  57 1.94  69 2.24  22 2.83  19 2.84
                            41 2.94   5 2.95  24 2.96  11 3.03  25 3.15
  54  0.556  0.280  0.284-  80 1.65 131 1.73  94 1.80  71 1.86  79 1.93  76 2.06  18 2.88   3 2.88
                            20 2.88  11 2.89  12 3.13
  55  0.283  0.989  0.115-  51 1.60  37 1.74   1 2.05  11 2.56
  56  0.057  0.777  0.933-  35 1.64  39 1.67   1 2.21
  57  0.793  0.052  0.806-  44 1.59  53 1.94  25 2.29  19 2.30   5 2.53
  58  0.499  0.595  0.746-  47 1.79  31 1.98  24 2.27  21 2.42
  59  0.894  0.207  0.123-  49 1.71  41 2.01   5 2.18   4 2.20  22 2.24
  60  0.175  0.423  0.126-  43 1.64  12 1.78  49 2.09  26 2.38   9 2.47
  61  0.988  0.853  0.614-  44 2.01  23 2.01  50 2.02  17 2.25  15 2.34
  62  0.323  0.049  0.412-  37 1.51  45 1.70  20 1.89
  63  0.288  0.800  0.867-  33 1.74  39 2.16  21 2.40  27 2.47  17 2.50   1 2.52
  64  0.919  0.618  0.287-  46 1.60  52 1.85  13 2.25  10 2.42   9 2.48
  65  0.232  0.108  0.592-  45 1.73  36 1.95  20 2.23  23 2.32   6 2.52
  66  0.976  0.369  0.027-  49 1.59  40 1.94  81 1.94   9 2.01  22 2.22   5 2.56
  67  0.906  0.488  0.691-  34 1.58  40 1.91   8 2.06  15 2.39
  68  0.804  0.276  0.880-  53 1.52  40 2.01  22 2.26   5 2.34
  69  0.698  0.195  0.684-  28 1.78  25 2.09   2 2.17  53 2.24
  70  0.548  0.091  0.844-  53 1.91   6 2.10  25 2.35  33 2.41  19 2.50
  71  0.621  0.215  0.435-  28 1.80  54 1.86  18 2.20   3 2.38
  72  0.056  0.532  0.858-  39 1.61  40 1.80   9 2.39   8 2.46  26 2.53
  73  0.940  0.901  0.849-  44 1.82  35 1.85  15 2.33  17 2.43
  74  0.344  0.737  0.117-  48 1.84   1 1.85  21 2.13  43 2.16  16 2.40
  75  0.071  0.321  0.537-  30 1.76   8 2.18  36 2.19  13 2.32   2 2.34
  76  0.421  0.139  0.273-  37 1.81  54 2.06  11 2.18   3 2.23  20 2.29  12 2.50
  77  0.459  0.909  0.504-  45 1.65  38 2.00   3 2.38
  78  0.117  0.712  0.732-  39 1.67  27 2.23  15 2.25  17 2.35   8 2.46
  79  0.708  0.377  0.263-  52 1.61  54 1.93  22 2.15  18 2.22
  80  0.498  0.338  0.151-  54 1.65  32 1.72  12 2.46  11 2.56
  81  0.086  0.224  0.054-  49 1.54   5 1.92  66 1.94  51 2.13   4 2.46  26 2.51
  82  0.840  0.019  0.552-  44 1.75   2 2.23  50 2.27  25 2.41
  83  0.715  0.646  0.366-  52 1.89  38 2.22  14 2.28  10 2.31
  84  0.172  0.890  0.281-  37 1.92  16 2.01   1 2.22  46 2.33   4 2.55
  85  0.251  0.547  0.795-  47 1.64  39 1.84  26 2.34  27 2.49   8 2.49
  86  0.805  0.437  0.438-  52 1.56  34 1.79 101 1.85  18 2.48  14 2.51
  87  0.339  0.529  0.268-  43 1.57  42 1.69   7 2.24  12 2.51
  88  0.473  0.853  0.973-  48 1.67  33 1.72  21 2.12  19 2.32
  89  0.026  0.278  0.300-  49 1.55  30 1.62 107 1.95  13 2.29  18 2.41   4 2.52
  90  0.725  0.883  0.436-  50 1.59  38 2.25   3 2.32  10 2.42
  91  0.430  0.370  0.856-  32 1.61  47 1.78  26 2.33  24 2.34   6 2.38
  92  0.925  0.657  0.532-  34 1.76  50 1.89  15 2.43
  93  0.446  0.636  0.427-  42 1.68  38 1.72  14 2.10  16 2.24
  94  0.650  0.164  0.202-  41 1.74  54 1.80  11 2.18   3 2.31  18 2.41
  95  0.764  0.806  0.677-  31 1.68  15 2.02  44 2.04  50 2.07  25 2.50
  96  0.998  0.128  0.424-  30 1.59  23 2.01  18 2.31   2 2.42   4 2.44
  97  0.169  0.131  0.838-  36 1.74  51 1.98  17 2.36   5 2.38   6 2.40
  98  0.871  0.980  0.063-  41 1.65  35 1.66   4 2.31   5 2.39  19 2.55
  99  0.381  0.965  0.704-  33 1.55  45 1.63   6 2.25
 100  1.000  0.296  0.781-  40 1.63  36 1.89   5 2.36   2 2.40
 101  0.709  0.396  0.578-  86 1.85  34 1.88  28 1.91  14 2.01  24 2.40
 102  0.182  0.601  0.042-  43 1.44  39 1.87   9 2.12   1 2.36
 103  0.248  0.328  0.722-  36 1.54  26 2.07  47 2.09   6 2.25
 104  0.203  0.148  0.297-  37 1.57  30 1.70  12 2.11   4 2.38
 105  0.649  0.936  0.158-  41 1.87  48 2.03  10 2.25   3 2.25  19 2.42  11 2.57
 106  0.237  0.872  0.546-  45 1.55  23 2.04  27 2.07  17 2.39  16 2.56
 107  0.934  0.424  0.234-  49 1.75  52 1.84  89 1.95  13 2.07   9 2.27  22 2.51
 108  0.811  0.505  0.944-  40 1.86  22 1.99  29 2.09   9 2.38
 109  0.356  0.477  0.042-  43 1.73  32 1.85  21 2.26  26 2.34
 110  0.942  0.816  0.380-  46 1.61  50 1.63  10 2.20
 111  0.804  0.780  0.006-  29 1.56  35 1.72  19 2.09  10 2.42
 112  0.620  0.735  0.096-  29 1.61  48 1.76   7 2.21  10 2.45  21 2.55
 113  0.476  0.374  0.623-  28 1.59  47 1.93  14 2.43  24 2.48
 114  0.249  0.408  0.443-  42 1.52  13 2.36  20 2.40  30 2.45
 115  0.557  0.699  0.589-  31 1.56  38 1.79  14 2.06
 116  0.319  0.194  0.040-  51 1.67  11 2.10  12 2.17  26 2.48
 117  0.757  0.582  0.144-  29 1.90  52 1.95  22 2.37   7 2.42  10 2.53
 118  0.012  0.072  0.705-  44 1.89  17 2.03  36 2.15   2 2.33  23 2.46
 119  0.473  0.135  0.592-  28 1.81  20 1.93   6 2.13  45 2.22  25 2.33
 120  0.202  0.631  0.460-  42 2.04  16 2.19  13 2.45  27 2.48   8 2.52
 121  0.678  0.099  0.015-  53 1.54  41 1.66  11 2.08  19 2.14
 122  0.594  0.477  0.976-  32 1.50  24 2.07  29 2.36  22 2.39  21 2.51
 123  0.300  0.998  0.923-  51 1.53  33 1.63
 124  0.695  0.710  0.863-  29 1.45  31 1.72  19 2.29  15 2.49
 125  0.594  0.268  0.964-  53 1.60  32 1.62  11 2.36  22 2.43
 126  0.142  0.615  0.269-  46 1.74  43 1.88  13 2.17  16 2.45
 127  0.724  0.584  0.684-  34 1.63  31 1.65  24 2.17  15 2.42  14 2.43
 128  0.525  0.831  0.765-  33 1.76  31 1.85  25 2.48  19 2.56
 129  0.843  0.005  0.288-  41 1.88   4 2.13  10 2.29  18 2.37
 130  0.561  0.776  0.273-  38 1.69  48 1.80   7 2.28  10 2.51
 131  0.483  0.381  0.390-  54 1.73  42 2.01  14 2.29  20 2.31
 132  0.425  0.940  0.227-  48 1.67  37 1.79   3 2.17  11 2.44  16 2.53
 133  0.284  0.492  0.613-  47 1.64   8 2.06  42 2.10  27 2.46
 134  1.000  0.797  0.167-  46 1.47  35 1.78   1 2.24  10 2.29
 135  0.082  0.986  0.991-  51 1.73  35 2.00   5 2.11   1 2.33   4 2.49
 

IMPORTANT INFORMATION: All symmetrisations will be switched off!
NOSYMM: (Re-)initialisation of all symmetry stuff for point group C_1.

 
 

Automatic generation of k-mesh.
 generate k-points for:    2    2    2
Space group operators:
 irot       det(A)        alpha          n_x          n_y          n_z        tau_x        tau_y        tau_z
    1     1.000000     0.000000     1.000000     0.000000     0.000000     0.000000     0.000000     0.000000
 
 Subroutine IBZKPT returns following result:
 ===========================================
 
 Found      8 irreducible k-points:
 
 Following reciprocal coordinates:
            Coordinates               Weight
  0.000000  0.000000  0.000000      1.000000
  0.500000  0.000000  0.000000      1.000000
  0.000000  0.500000  0.000000      1.000000
  0.500000  0.500000  0.000000      1.000000
  0.000000  0.000000  0.500000      1.000000
  0.500000  0.000000  0.500000      1.000000
  0.000000  0.500000  0.500000      1.000000
  0.500000  0.500000  0.500000      1.000000
 
 Following cartesian coordinates:
            Coordinates               Weight
  0.000000  0.000000  0.000000      1.000000
  0.047327  0.000000  0.000000      1.000000
  0.000000  0.047327  0.000000      1.000000
  0.047327  0.047327  0.000000      1.000000
  0.000000  0.000000  0.047327      1.000000
  0.047327  0.000000  0.047327      1.000000
  0.000000  0.047327  0.047327      1.000000
  0.047327  0.047327  0.047327      1.000000
 


--------------------------------------------------------------------------------------------------------




 Dimension of arrays:
   k-points           NKPTS =      8   k-points in BZ     NKDIM =      8   number of bands    NBANDS=    520
   number of dos      NEDOS =    301   number of ions     NIONS =    135
   non local maximal  LDIM  =      6   non local SUM 2l+1 LMDIM =     18
   total plane-waves  NPLWV = 592704
   max r-space proj   IRMAX =   6747   max aug-charges    IRDMAX= 192025
   dimension x,y,z NGX =    84 NGY =   84 NGZ =   84
   dimension x,y,z NGXF=   168 NGYF=  168 NGZF=  168
   support grid    NGXF=   336 NGYF=  336 NGZF=  336
   ions per type =              27  27  81
   NGX,Y,Z   is equivalent  to a cutoff of  13.22, 13.22, 13.22 a.u.
   NGXF,Y,Z  is equivalent  to a cutoff of  26.44, 26.44, 26.44 a.u.

 SYSTEM =  unknown system                          
 POSCAR =  Ca Si  O                                

 Startparameter for this run:
   NWRITE =      2    write-flag & timer
   PREC   = a         normal or accurate (medium, high low for compatibility)
   ISTART =      0    job   : 0-new  1-cont  2-samecut
   ICHARG =      2    charge: 1-file 2-atom 10-const
   ISPIN  =      1    spin polarized calculation?
   LNONCOLLINEAR =      F non collinear calculations
   LSORBIT =      F    spin-orbit coupling
   INIWAV =      1    electr: 0-lowe 1-rand  2-diag
   LASPH  =      F    aspherical Exc in radial PAW
   METAGGA=      F    non-selfconsistent MetaGGA calc.

 Electronic Relaxation 1
   ENCUT  =  600.0 eV  44.10 Ry    6.64 a.u.  21.10 21.10 21.10*2*pi/ulx,y,z
   ENINI  =  600.0     initial cutoff
   ENAUG  =  605.4 eV  augmentation charge cutoff
   NELM   =     60;   NELMIN=  2; NELMDL= -5     # of ELM steps 
   EDIFF  = 0.1E-05   stopping-criterion for ELM
   LREAL  =      T    real-space projection
   NLSPLINE    = F    spline interpolate recip. space projectors
   LCOMPAT=      F    compatible to vasp.4.4
   GGA_COMPAT  = T    GGA compatible to vasp.4.4-vasp.4.6
   LMAXPAW     = -100 max onsite density
   LMAXMIX     =    2 max onsite mixed and CHGCAR
   VOSKOWN=      0    Vosko Wilk Nusair interpolation
   ROPT   =   -0.00025  -0.00025  -0.00025
 Ionic relaxation
   EDIFFG = -.1E-01   stopping-criterion for IOM
   NSW    =      1    number of steps for IOM
   NBLOCK =      1;   KBLOCK =      1    inner block; outer block 
   IBRION =     -1    ionic relax: 0-MD 1-quasi-New 2-CG
   NFREE  =      0    steps in history (QN), initial steepest desc. (CG)
   ISIF   =      2    stress and relaxation
   IWAVPR =     10    prediction:  0-non 1-charg 2-wave 3-comb
   ISYM   =      0    0-nonsym 1-usesym 2-fastsym
   LCORR  =      T    Harris-Foulkes like correction to forces

   POTIM  = 1.0000    time-step for ionic-motion
   TEIN   =    0.0    initial temperature
   TEBEG  =    0.0;   TEEND  =   0.0 temperature during run
   SMASS  =  -3.00    Nose mass-parameter (am)
   estimated Nose-frequenzy (Omega)   =  0.10E-29 period in steps =****** mass=  -0.255E-26a.u.
   SCALEE = 1.0000    scale energy and forces
   NPACO  =    256;   APACO  = 16.0  distance and # of slots for P.C.
   PSTRESS=    0.0 pullay stress

  Mass of Ions in am
   POMASS =  40.08 28.09 16.00
  Ionic Valenz
   ZVAL   =  10.00  4.00  6.00
  Atomic Wigner-Seitz radii
   RWIGS  =  -1.00 -1.00 -1.00
  virtual crystal weights 
   VCA    =   1.00  1.00  1.00
   NELECT =     864.0000    total number of electrons
   NUPDOWN=      -1.0000    fix difference up-down

 DOS related values:
   EMIN   =  10.00;   EMAX   =-10.00  energy-range for DOS
   EFERMI =   0.00
   ISMEAR =     0;   SIGMA  =   0.05  broadening in eV -4-tet -1-fermi 0-gaus

 Electronic relaxation 2 (details)
   IALGO  =     38    algorithm
   LDIAG  =      T    sub-space diagonalisation (order eigenvalues)
   LSUBROT=      F    optimize rotation matrix (better conditioning)
   TURBO    =      0    0=normal 1=particle mesh
   IRESTART =      0    0=no restart 2=restart with 2 vectors
   NREBOOT  =      0    no. of reboots
   NMIN     =      0    reboot dimension
   EREF     =   0.00    reference energy to select bands
   IMIX   =      4    mixing-type and parameters
     AMIX     =   0.40;   BMIX     =  1.00
     AMIX_MAG =   1.60;   BMIX_MAG =  1.00
     AMIN     =   0.10
     WC   =   100.;   INIMIX=   1;  MIXPRE=   1;  MAXMIX= -45

 Intra band minimization:
   WEIMIN = 0.0000     energy-eigenvalue tresh-hold
   EBREAK =  0.48E-09  absolut break condition
   DEPER  =   0.30     relativ break condition  

   TIME   =   0.40     timestep for ELM

  volume/ion in A,a.u.               =       8.73        58.95
  Fermi-wavevector in a.u.,A,eV,Ry     =   1.475868  2.788986 29.636021  2.178186
  Thomas-Fermi vector in A             =   2.590464
 
 Write flags
   LWAVE        =      F    write WAVECAR
   LDOWNSAMPLE  =      F    k-point downsampling of WAVECAR
   LCHARG       =      F    write CHGCAR
   LVTOT        =      F    write LOCPOT, total local potential
   LVHAR        =      F    write LOCPOT, Hartree potential only
   LELF         =      F    write electronic localiz. function (ELF)
   LORBIT       =      0    0 simple, 1 ext, 2 COOP (PROOUT), +10 PAW based schemes


 Dipole corrections
   LMONO  =      F    monopole corrections only (constant potential shift)
   LDIPOL =      F    correct potential (dipole corrections)
   IDIPOL =      0    1-x, 2-y, 3-z, 4-all directions 
   EPSILON=  1.0000000 bulk dielectric constant

 Exchange correlation treatment:
   GGA     =    --    GGA type
   LEXCH   =     8    internal setting for exchange type
   VOSKOWN=      0    Vosko Wilk Nusair interpolation
   LHFCALC =     F    Hartree Fock is set to
   LHFONE  =     F    Hartree Fock one center treatment
   AEXX    =    0.0000 exact exchange contribution

 Linear response parameters
   LEPSILON=     F    determine dielectric tensor
   LRPA    =     F    only Hartree local field effects (RPA)
   LNABLA  =     F    use nabla operator in PAW spheres
   LVEL    =     F    velocity operator in full k-point grid
   LINTERFAST=   F  fast interpolation
   KINTER  =     0    interpolate to denser k-point grid
   CSHIFT  =0.1000    complex shift for real part using Kramers Kronig
   OMEGAMAX=  -1.0    maximum frequency
   DEG_THRESHOLD= 0.2000000E-02 threshold for treating states as degnerate
   RTIME   =   -0.100 relaxation time in fs
  (WPLASMAI=    0.000 imaginary part of plasma frequency in eV, 0.658/RTIME)
   DFIELD  = 0.0000000 0.0000000 0.0000000 field for delta impulse in time
 
 Orbital magnetization related:
   ORBITALMAG=     F  switch on orbital magnetization
   LCHIMAG   =     F  perturbation theory with respect to B field
   DQ        =  0.001000  dq finite difference perturbation B field
   LLRAUG    =     F  two centre corrections for induced B field



--------------------------------------------------------------------------------------------------------


 Static calculation
 charge density and potential will be updated during run
 non-spin polarized calculation
 Variant of blocked Davidson
 Davidson routine will perform the subspace rotation
 perform sub-space diagonalisation
    after iterative eigenvector-optimisation
 modified Broyden-mixing scheme, WC =      100.0
 initial mixing is a Kerker type mixing with AMIX =  0.4000 and BMIX =      1.0000
 Hartree-type preconditioning will be used
 using additional bands           88
 real space projection scheme for non local part
 use partial core corrections
 calculate Harris-corrections to forces 
   (improved forces if not selfconsistent)
 use gradient corrections 
 use of overlap-Matrix (Vanderbilt PP)
 Gauss-broadening in eV      SIGMA  =   0.05


--------------------------------------------------------------------------------------------------------


  energy-cutoff  :      600.00
  volume of cell :     1179.22
      direct lattice vectors                 reciprocal lattice vectors
    10.564896610  0.000000000  0.000000000     0.094653080  0.000000000  0.000000000
     0.000000000 10.564896610  0.000000000     0.000000000  0.094653080  0.000000000
     0.000000000  0.000000000 10.564896610     0.000000000  0.000000000  0.094653080

  length of vectors
    10.564896610 10.564896610 10.564896610     0.094653080  0.094653080  0.094653080


 
 k-points in units of 2pi/SCALE and weight: read from INCAR                         
   0.00000000  0.00000000  0.00000000       0.125
   0.04732654  0.00000000  0.00000000       0.125
   0.00000000  0.04732654  0.00000000       0.125
   0.04732654  0.04732654  0.00000000       0.125
   0.00000000  0.00000000  0.04732654       0.125
   0.04732654  0.00000000  0.04732654       0.125
   0.00000000  0.04732654  0.04732654       0.125
   0.04732654  0.04732654  0.04732654       0.125
 
 k-points in reciprocal lattice and weights: read from INCAR                         
   0.00000000  0.00000000  0.00000000       0.125
   0.50000000  0.00000000  0.00000000       0.125
   0.00000000  0.50000000  0.00000000       0.125
   0.50000000  0.50000000  0.00000000       0.125
   0.00000000  0.00000000  0.50000000       0.125
   0.50000000  0.00000000  0.50000000       0.125
   0.00000000  0.50000000  0.50000000       0.125
   0.50000000  0.50000000  0.50000000       0.125
 
 position of ions in fractional coordinates (direct lattice) 
   0.19355208  0.82007854  0.08433274
   0.88445716  0.21957051  0.60140866
   0.57646935  0.01431028  0.34267868
   0.01745989  0.05953969  0.20474014
   0.96935942  0.14321841  0.94107898
   0.38175378  0.16818168  0.76796985
   0.53501080  0.57470665  0.20000288
   0.09003368  0.50484340  0.62877798
   0.98901159  0.55396195  0.07210119
   0.79397743  0.80131041  0.23360950
   0.49245121  0.10616406  0.08163191
   0.27306149  0.30985812  0.20237501
   0.04532538  0.47705939  0.38579437
   0.59598974  0.52885987  0.50172242
   0.90501155  0.70442128  0.75596590
   0.30363319  0.76573126  0.33836723
   0.13988145  0.93322166  0.73998031
   0.81218658  0.21821557  0.35252231
   0.67993486  0.91497142  0.93169154
   0.36525707  0.21416669  0.46803130
   0.43852521  0.65606784  0.95821418
   0.77039404  0.37076048  0.06987645
   0.08052065  0.97670020  0.50301658
   0.63237119  0.43228899  0.78882076
   0.63999829  0.00701960  0.65980463
   0.21696618  0.36231394  0.91264162
   0.31017014  0.72072831  0.64759736
   0.57954413  0.26971388  0.59090113
   0.70972006  0.66775018  0.99284662
   0.11534565  0.22139551  0.41054776
   0.64045952  0.71243163  0.71006105
   0.49322430  0.37913390  0.99400978
   0.40258339  0.91593504  0.84058361
   0.82211620  0.53361120  0.57567147
   0.94974533  0.85280899  0.01614885
   0.14568528  0.22517219  0.70520557
   0.28940041  0.02904067  0.27484242
   0.55114603  0.76033837  0.43190468
   0.14273060  0.65589212  0.87798651
   0.93212586  0.41494253  0.85394870
   0.76682716  0.06672252  0.13940456
   0.34870135  0.51034790  0.42623759
   0.25658617  0.55400660  0.14612943
   0.86713700  0.96717595  0.70691847
   0.33242052  0.98264585  0.55849651
   0.02317693  0.72762183  0.28519900
   0.37692501  0.47678883  0.73664601
   0.48941034  0.83244394  0.12913858
   0.01902101  0.30430240  0.15576189
   0.84216810  0.81123125  0.49681135
   0.21650736  0.07643717  0.01148776
   0.79287844  0.49713429  0.30389699
   0.69686953  0.18099938  0.89544687
   0.55595387  0.27952738  0.28393996
   0.28347564  0.98904871  0.11494985
   0.05680163  0.77732892  0.93256808
   0.79340623  0.05236808  0.80635157
   0.49850840  0.59475832  0.74575625
   0.89431106  0.20664521  0.12305778
   0.17479951  0.42312397  0.12580404
   0.98753900  0.85289301  0.61414346
   0.32319061  0.04907183  0.41244849
   0.28837922  0.79955392  0.86689303
   0.91935931  0.61768296  0.28676162
   0.23212178  0.10816976  0.59224220
   0.97611689  0.36947167  0.02656190
   0.90598514  0.48790835  0.69052186
   0.80368334  0.27646164  0.88027835
   0.69803872  0.19465067  0.68411913
   0.54800560  0.09126961  0.84433590
   0.62130569  0.21522156  0.43465049
   0.05644034  0.53167187  0.85779063
   0.93960681  0.90108591  0.84852538
   0.34410938  0.73675749  0.11670170
   0.07073984  0.32055327  0.53730321
   0.42133737  0.13873659  0.27270832
   0.45917112  0.90943596  0.50411424
   0.11663095  0.71201445  0.73240511
   0.70836117  0.37746078  0.26343706
   0.49842292  0.33834177  0.15121575
   0.08568059  0.22434554  0.05433616
   0.84046311  0.01928189  0.55152012
   0.71486445  0.64633785  0.36556158
   0.17201498  0.89027744  0.28099518
   0.25127026  0.54731628  0.79521926
   0.80520298  0.43671107  0.43785655
   0.33911299  0.52868109  0.26754437
   0.47328010  0.85337041  0.97299855
   0.02607124  0.27849416  0.30006409
   0.72488681  0.88272381  0.43608152
   0.43041741  0.37020337  0.85593597
   0.92512856  0.65725269  0.53218905
   0.44640028  0.63563611  0.42682025
   0.65010761  0.16419469  0.20158499
   0.76407787  0.80615001  0.67680962
   0.99783096  0.12833089  0.42401680
   0.16897753  0.13135565  0.83832435
   0.87146198  0.98026178  0.06308552
   0.38055023  0.96542391  0.70392935
   0.99989671  0.29644562  0.78107013
   0.70870574  0.39599777  0.57765600
   0.18218664  0.60061722  0.04188295
   0.24804964  0.32797977  0.72207371
   0.20305509  0.14821419  0.29732317
   0.64852469  0.93635748  0.15770189
   0.23738864  0.87182778  0.54562709
   0.93421367  0.42386330  0.23357018
   0.81063385  0.50494353  0.94395460
   0.35599178  0.47702090  0.04190551
   0.94196410  0.81604268  0.37959636
   0.80416182  0.78019661  0.00558318
   0.62029256  0.73478778  0.09578626
   0.47634433  0.37392539  0.62290490
   0.24938433  0.40802581  0.44323520
   0.55698015  0.69902803  0.58925915
   0.31913447  0.19358224  0.03950387
   0.75721139  0.58224816  0.14417813
   0.01180615  0.07174570  0.70456759
   0.47337361  0.13481439  0.59179073
   0.20200697  0.63100447  0.45952614
   0.67752197  0.09918228  0.01481988
   0.59434720  0.47706197  0.97621852
   0.30026478  0.99803958  0.92256312
   0.69497137  0.70954067  0.86312791
   0.59370552  0.26769228  0.96447507
   0.14237341  0.61451198  0.26852365
   0.72417933  0.58357855  0.68414906
   0.52497569  0.83138641  0.76518356
   0.84275015  0.00502944  0.28843441
   0.56131188  0.77567222  0.27308238
   0.48296134  0.38067880  0.39019278
   0.42491980  0.93959762  0.22655265
   0.28370855  0.49175812  0.61312653
   0.99994442  0.79699224  0.16680672
   0.08219038  0.98586983  0.99077883
 
 position of ions in cartesian coordinates  (Angst):
   2.04485774  8.66404494  0.89096672
   9.34419845  2.31973978  6.35382035
   6.09033907  0.15118660  3.62036487
   0.18446193  0.62903071  2.16305836
  10.24118210  1.51308772  9.94240213
   4.03318919  1.77682203  8.11352207
   5.65233379  6.07171630  2.11300970
   0.95119650  5.33361836  6.64297438
  10.44880523  5.85255072  0.76174161
   8.38828946  8.46576160  2.46806021
   5.20269607  1.12161234  0.86243273
   2.88486639  3.27361897  2.13807105
   0.47885799  5.04008316  4.07587758
   6.29656997  5.58734990  5.30064545
   9.56135347  7.44213798  7.98670157
   3.20785324  8.08987155  3.57481477
   1.47783308  9.85939040  7.81781545
   8.58066728  2.30542495  3.72436175
   7.18344150  9.66657850  9.84322475
   3.85890323  2.26264895  4.94470231
   4.63297350  6.93128886 10.12343379
   8.13913336  3.91704618  0.73823746
   0.85069233 10.31873666  5.31431815
   6.68093625  4.56708846  8.33380978
   6.76151573  0.07416134  6.97076771
   2.29222528  3.82780927  9.64196433
   3.27691544  7.61442004  6.84179916
   6.12282386  2.84949921  6.24280935
   7.49811905  7.05471166 10.48932184
   1.21861490  2.33902064  4.33739465
   6.76638866  7.52676654  7.50172162
   5.21086369  4.00551050 10.50161058
   4.25325184  9.67675905  8.88067897
   8.68557263  5.63754719  6.08190959
  10.03396120  9.00983876  0.17061098
   1.53914997  2.37892089  7.45042393
   3.05748543  0.30681168  2.90368177
   5.82280082  8.03289623  4.56302834
   1.50793401  6.92943247  9.27583673
   9.84781337  4.38382490  9.02187971
   8.10144968  0.70491656  1.47279479
   3.68399373  5.39177285  4.50315611
   2.71080639  5.85302250  1.54384235
   9.16121271 10.21811389  7.46852055
   3.51198842 10.38155182  5.90045786
   0.24486186  7.68724943  3.01309798
   3.98217376  5.03722473  7.78258898
   5.17056965  8.79468414  1.36433577
   0.20095498  3.21492335  1.64560822
   8.89741886  8.57057433  5.24876058
   2.28737792  0.80755077  0.12136704
   8.37667875  5.25217233  3.21064025
   7.36235456  1.91223974  9.46030360
   5.87359520  2.95317790  2.99979636
   2.99489080 10.44919736  1.21443329
   0.60010337  8.21239964  9.85248534
   8.38225481  0.55326340  8.51902102
   5.26668967  6.28356019  7.87883769
   9.44830391  2.18318533  1.30009276
   1.84673873  4.47026096  1.32910663
  10.43324748  9.01072648  6.48836218
   3.41447534  0.51843878  4.35747561
   3.04669668  8.44720455  9.15863522
   9.71293608  6.52575665  3.02960683
   2.45234265  1.14280229  6.25697759
  10.31257403  3.90342998  0.28062378
   9.57163938  5.15470123  7.29529201
   8.49083141  2.92078866  9.30004976
   7.37470693  2.05646421  7.22764792
   5.78962252  0.96425404  8.92032146
   6.56403042  2.27379352  4.59203749
   0.59628636  5.61705833  9.06246937
   9.92684881  9.51987950  8.96458291
   3.63548006  7.78376676  1.23294141
   0.74735908  3.38661213  5.67655285
   4.45138579  1.46573769  2.88113521
   4.85109545  9.60809684  5.32591483
   1.23219390  7.52235909  7.73778423
   7.48376250  3.98783407  2.78318529
   5.26578664  3.57454585  1.59757879
   0.90520657  2.37018745  0.57405594
   8.87940590  0.20371118  5.82675309
   7.55246901  6.82849257  3.86212026
   1.81732048  9.40568906  2.96868502
   2.65464435  5.78233992  8.40140927
   8.50688627  4.61380726  4.62590918
   3.58269364  5.58546103  2.82657860
   5.00015528  9.01577015 10.27962913
   0.27543994  2.94226200  3.17014614
   7.65835419  9.32588577  4.60715618
   4.54731544  3.91116034  9.04287501
   9.77388756  6.94380671  5.62252229
   4.71617277  6.71542975  4.50931179
   6.86831965  1.73469992  2.12972460
   8.07240365  8.51689153  7.15042370
  10.54198089  1.35580254  4.47969364
   1.78523018  1.38775882  8.85681013
   9.20690569 10.35636436  0.66649202
   4.02047385 10.19960379  7.43694078
  10.56380538  3.13191730  8.25192522
   7.48740287  4.18367552  6.10287594
   1.92478303  6.34545879  0.44248903
   2.62061880  3.46507236  7.62863413
   2.14525600  1.56586762  3.14118858
   6.85159626  9.89251997  1.66610415
   2.50798643  9.21077040  5.76449381
   9.86987081  4.47807189  2.46764478
   8.56426285  5.33467617  9.97278274
   3.76101637  5.03967654  0.44272734
   9.95175332  8.62140657  4.01039633
   8.49588644  8.24269656  0.05898572
   6.55332678  7.76295692  1.01197193
   5.03252859  3.95048311  6.58092589
   2.63471971  4.31075051  4.68273411
   5.88443771  7.38515886  6.22546200
   3.37162272  2.04517630  0.41735426
   7.99986007  6.15139165  1.52322702
   0.12473071  0.75798591  7.44368378
   5.00114323  1.42430008  6.25220785
   2.13418277  6.66649702  4.85484621
   7.15794956  1.04785049  0.15657051
   6.27921674  5.04011041 10.31364777
   3.17226640 10.54418495  9.74678399
   7.34230063  7.49622386  9.11885713
   6.27243740  2.82814126 10.18957943
   1.50416034  6.49225553  2.83692461
   7.65087970  6.16544708  7.22796413
   5.54631385  8.78351143  8.08408525
   8.90356824  0.05313549  3.04727971
   5.93020198  8.19489684  2.88508715
   5.10243663  4.02183219  4.12234638
   4.48923380  9.92675167  2.39350532
   2.99735149  5.19537370  6.47761837
  10.56430939  8.42014062  1.76229577
   0.86833286 10.41561282 10.46747594
 


--------------------------------------------------------------------------------------------------------


 k-point  1 :   0.0000 0.0000 0.0000  plane waves:   39223
 k-point  2 :   0.5000 0.0000 0.0000  plane waves:   39210
 k-point  3 :   0.0000 0.5000 0.0000  plane waves:   39210
 k-point  4 :   0.5000 0.5000 0.0000  plane waves:   39356
 k-point  5 :   0.0000 0.0000 0.5000  plane waves:   39210
 k-point  6 :   0.5000 0.0000 0.5000  plane waves:   39356
 k-point  7 :   0.0000 0.5000 0.5000  plane waves:   39356
 k-point  8 :   0.5000 0.5000 0.5000  plane waves:   39456

 maximum and minimum number of plane-waves per node :      3064     2970

 maximum number of plane-waves:     39456
 maximum index in each direction: 
   IXMAX=   21   IYMAX=   21   IZMAX=   21
   IXMIN=  -21   IYMIN=  -21   IZMIN=  -21


 real space projection operators:
  total allocation   :      46254.55 KBytes
  max/ min on nodes  :       3899.98       3227.45


 parallel 3D FFT for wavefunctions:
    minimum data exchange during FFTs selected (reduces bandwidth)
 parallel 3D FFT for charge:
    minimum data exchange during FFTs selected (reduces bandwidth)


 total amount of memory used by VASP MPI-rank0   128278. kBytes
=======================================================================

   base      :      30000. kBytes
   nonlr-proj:      20266. kBytes
   fftplans  :      15852. kBytes
   grid      :       9274. kBytes
   one-center:        171. kBytes
   wavefun   :      52715. kBytes
 
     INWAV:  cpu time    0.0000: real time    0.0002
 Broyden mixing: mesh for mixing (old mesh)
   NGX = 43   NGY = 43   NGZ = 43
  (NGX  =168   NGY  =168   NGZ  =168)
  gives a total of  79507 points

 initial charge density was supplied:
 charge density of overlapping atoms calculated
 number of electron     864.0000000 magnetization 
 keeping initial charge density in first step


--------------------------------------------------------------------------------------------------------


 Maximum index for non-local projection operator          783
 Maximum index for augmentation-charges         6956 (set IRDMAX)


--------------------------------------------------------------------------------------------------------


 First call to EWALD:  gamma=   0.168
 Maximum number of real-space cells 3x 3x 3
 Maximum number of reciprocal cells 3x 3x 3

    FEWALD:  cpu time    0.0048: real time    0.0048


--------------------------------------- Iteration      1(   1)  ---------------------------------------


    POTLOK:  cpu time    0.0899: real time    0.1010
    SETDIJ:  cpu time    0.3193: real time    0.3215
     EDDAV:  cpu time   24.5519: real time   24.5525
       DOS:  cpu time    0.0025: real time    0.0025
    --------------------------------------------
      LOOP:  cpu time   24.9636: real time   24.9775

 eigenvalue-minimisations  :  8320
 total energy-change (2. order) : 0.1034141E+05  (-0.4942671E+05)
 number of electron     864.0000000 magnetization 
 augmentation part      864.0000000 magnetization 

 Free energy of the ion-electron system (eV)
  ---------------------------------------------------
  alpha Z        PSCENC =      4052.29761577
  Ewald energy   TEWEN  =    -56177.15611193
  -Hartree energ DENC   =    -12201.58855703
  -exchange      EXHF   =         0.00000000
  -V(xc)+E(xc)   XCENC  =      3271.17018320
  PAW double counting   =     50594.51003143   -49994.65612350
  entropy T*S    EENTRO =        -0.03277733
  eigenvalues    EBANDS =      5828.32566525
  atomic energy  EATOM  =     64968.54023382
  Solvation  Ediel_sol  =         0.00000000
  ---------------------------------------------------
  free energy    TOTEN  =     10341.41015969 eV

  energy without entropy =    10341.44293701  energy(sigma->0) =    10341.42654835


--------------------------------------------------------------------------------------------------------




--------------------------------------- Iteration      1(   2)  ---------------------------------------


     EDDAV:  cpu time   27.1487: real time   27.1701
       DOS:  cpu time    0.0011: real time    0.0011
    --------------------------------------------
      LOOP:  cpu time   27.1498: real time   27.1711

 eigenvalue-minimisations  :  9440
 total energy-change (2. order) :-0.1013710E+05  (-0.9760775E+04)
 number of electron     864.0000000 magnetization 
 augmentation part      864.0000000 magnetization 

 Free energy of the ion-electron system (eV)
  ---------------------------------------------------
  alpha Z        PSCENC =      4052.29761577
  Ewald energy   TEWEN  =    -56177.15611193
  -Hartree energ DENC   =    -12201.58855703
  -exchange      EXHF   =         0.00000000
  -V(xc)+E(xc)   XCENC  =      3271.17018320
  PAW double counting   =     50594.51003143   -49994.65612350
  entropy T*S    EENTRO =        -0.00000000
  eigenvalues    EBANDS =     -4308.80873865
  atomic energy  EATOM  =     64968.54023382
  Solvation  Ediel_sol  =         0.00000000
  ---------------------------------------------------
  free energy    TOTEN  =       204.30853312 eV

  energy without entropy =      204.30853312  energy(sigma->0) =      204.30853312


--------------------------------------------------------------------------------------------------------




--------------------------------------- Iteration      1(   3)  ---------------------------------------


     EDDAV:  cpu time   27.9380: real time   27.9397
       DOS:  cpu time    0.0011: real time    0.0011
    --------------------------------------------
      LOOP:  cpu time   27.9391: real time   27.9408

 eigenvalue-minimisations  :  9976
 total energy-change (2. order) :-0.1139022E+04  (-0.1129899E+04)
 number of electron     864.0000000 magnetization 
 augmentation part      864.0000000 magnetization 

 Free energy of the ion-electron system (eV)
  ---------------------------------------------------
  alpha Z        PSCENC =      4052.29761577
  Ewald energy   TEWEN  =    -56177.15611193
  -Hartree energ DENC   =    -12201.58855703
  -exchange      EXHF   =         0.00000000
  -V(xc)+E(xc)   XCENC  =      3271.17018320
  PAW double counting   =     50594.51003143   -49994.65612350
  entropy T*S    EENTRO =        -0.00000000
  eigenvalues    EBANDS =     -5447.83123351
  atomic energy  EATOM  =     64968.54023382
  Solvation  Ediel_sol  =         0.00000000
  ---------------------------------------------------
  free energy    TOTEN  =      -934.71396174 eV

  energy without entropy =     -934.71396174  energy(sigma->0) =     -934.71396174


--------------------------------------------------------------------------------------------------------




--------------------------------------- Iteration      1(   4)  ---------------------------------------


     EDDAV:  cpu time   32.4333: real time   32.4481
       DOS:  cpu time    0.0011: real time    0.0011
    --------------------------------------------
      LOOP:  cpu time   32.4343: real time   32.4492

 eigenvalue-minimisations  : 11856
 total energy-change (2. order) :-0.5809443E+02  (-0.5789942E+02)
 number of electron     864.0000000 magnetization 
 augmentation part      864.0000000 magnetization 

 Free energy of the ion-electron system (eV)
  ---------------------------------------------------
  alpha Z        PSCENC =      4052.29761577
  Ewald energy   TEWEN  =    -56177.15611193
  -Hartree energ DENC   =    -12201.58855703
  -exchange      EXHF   =         0.00000000
  -V(xc)+E(xc)   XCENC  =      3271.17018320
  PAW double counting   =     50594.51003143   -49994.65612350
  entropy T*S    EENTRO =        -0.00000000
  eigenvalues    EBANDS =     -5505.92566746
  atomic energy  EATOM  =     64968.54023382
  Solvation  Ediel_sol  =         0.00000000
  ---------------------------------------------------
  free energy    TOTEN  =      -992.80839569 eV

  energy without entropy =     -992.80839569  energy(sigma->0) =     -992.80839569


--------------------------------------------------------------------------------------------------------




--------------------------------------- Iteration      1(   5)  ---------------------------------------


     EDDAV:  cpu time   36.7208: real time   36.7318
       DOS:  cpu time    0.0011: real time    0.0011
    CHARGE:  cpu time    0.8323: real time    0.8323
    MIXING:  cpu time    0.0043: real time    0.0046
    --------------------------------------------
      LOOP:  cpu time   37.5585: real time   37.5698

 eigenvalue-minimisations  : 14000
 total energy-change (2. order) :-0.4378039E+01  (-0.4375819E+01)
 number of electron     864.0000007 magnetization 
 augmentation part      133.9599789 magnetization 

 Broyden mixing:
  rms(total) = 0.87797E+01    rms(broyden)= 0.87791E+01
  rms(prec ) = 0.10435E+02
  weight for this iteration     100.00

 Free energy of the ion-electron system (eV)
  ---------------------------------------------------
  alpha Z        PSCENC =      4052.29761577
  Ewald energy   TEWEN  =    -56177.15611193
  -Hartree energ DENC   =    -12201.58855703
  -exchange      EXHF   =         0.00000000
  -V(xc)+E(xc)   XCENC  =      3271.17018320
  PAW double counting   =     50594.51003143   -49994.65612350
  entropy T*S    EENTRO =        -0.00000000
  eigenvalues    EBANDS =     -5510.30370684
  atomic energy  EATOM  =     64968.54023382
  Solvation  Ediel_sol  =         0.00000000
  ---------------------------------------------------
  free energy    TOTEN  =      -997.18643507 eV

  energy without entropy =     -997.18643507  energy(sigma->0) =     -997.18643507


--------------------------------------------------------------------------------------------------------




--------------------------------------- Iteration      1(   6)  ---------------------------------------


    POTLOK:  cpu time    0.0832: real time    0.1026
    SETDIJ:  cpu time    0.3102: real time    0.3102
     EDDAV:  cpu time   28.0134: real time   28.0132
       DOS:  cpu time    0.0010: real time    0.0010
    CHARGE:  cpu time    0.8232: real time    0.8232
    MIXING:  cpu time    0.0045: real time    0.0046
    --------------------------------------------
      LOOP:  cpu time   29.2356: real time   29.2549

 eigenvalue-minimisations  : 10000
 total energy-change (2. order) : 0.1318125E+03  (-0.5306103E+02)
 number of electron     864.0000006 magnetization 
 augmentation part      123.0588286 magnetization 

 Broyden mixing:
  rms(total) = 0.37333E+01    rms(broyden)= 0.37326E+01
  rms(prec ) = 0.39261E+01
  weight for this iteration     100.00

 eigenvalues of (default mixing * dielectric matrix)
  average eigenvalue GAMMA=   1.1453
  1.1453

 Free energy of the ion-electron system (eV)
  ---------------------------------------------------
  alpha Z        PSCENC =      4052.29761577
  Ewald energy   TEWEN  =    -56177.15611193
  -Hartree energ DENC   =    -13317.31881223
  -exchange      EXHF   =         0.00000000
  -V(xc)+E(xc)   XCENC  =      3349.95858029
  PAW double counting   =     68310.43649554   -67846.48091736
  entropy T*S    EENTRO =        -0.00000000
  eigenvalues    EBANDS =     -4205.65102079
  atomic energy  EATOM  =     64968.54023382
  Solvation  Ediel_sol  =         0.00000000
  ---------------------------------------------------
  free energy    TOTEN  =      -865.37393688 eV

  energy without entropy =     -865.37393688  energy(sigma->0) =     -865.37393688


--------------------------------------------------------------------------------------------------------




--------------------------------------- Iteration      1(   7)  ---------------------------------------


    POTLOK:  cpu time    0.0680: real time    0.0704
    SETDIJ:  cpu time    0.3080: real time    0.3080
     EDDAV:  cpu time   29.7745: real time   29.7743
       DOS:  cpu time    0.0009: real time    0.0009
    CHARGE:  cpu time    0.8250: real time    0.8250
    MIXING:  cpu time    0.0042: real time    0.0042
    --------------------------------------------
      LOOP:  cpu time   30.9806: real time   30.9828

 eigenvalue-minimisations  : 10840
 total energy-change (2. order) :-0.1663165E+01  (-0.6332059E+01)
 number of electron     864.0000006 magnetization 
 augmentation part      121.0380126 magnetization 

 Broyden mixing:
  rms(total) = 0.16575E+01    rms(broyden)= 0.16574E+01
  rms(prec ) = 0.17911E+01
  weight for this iteration     100.00

 eigenvalues of (default mixing * dielectric matrix)
  average eigenvalue GAMMA=   1.2553
  1.2553  1.2553

 Free energy of the ion-electron system (eV)
  ---------------------------------------------------
  alpha Z        PSCENC =      4052.29761577
  Ewald energy   TEWEN  =    -56177.15611193
  -Hartree energ DENC   =    -13417.68835461
  -exchange      EXHF   =         0.00000000
  -V(xc)+E(xc)   XCENC  =      3357.40395018
  PAW double counting   =     86022.16298853   -85621.67262293
  entropy T*S    EENTRO =        -0.00000000
  eigenvalues    EBANDS =     -4050.92480043
  atomic energy  EATOM  =     64968.54023382
  Solvation  Ediel_sol  =         0.00000000
  ---------------------------------------------------
  free energy    TOTEN  =      -867.03710159 eV

  energy without entropy =     -867.03710159  energy(sigma->0) =     -867.03710159


--------------------------------------------------------------------------------------------------------




--------------------------------------- Iteration      1(   8)  ---------------------------------------


    POTLOK:  cpu time    0.0852: real time    0.1028
    SETDIJ:  cpu time    0.3266: real time    0.3266
     EDDAV:  cpu time   31.0616: real time   31.0674
       DOS:  cpu time    0.0009: real time    0.0009
    CHARGE:  cpu time    0.8305: real time    0.8305
    MIXING:  cpu time    0.0048: real time    0.0048
    --------------------------------------------
      LOOP:  cpu time   32.3098: real time   32.3331

 eigenvalue-minimisations  : 11336
 total energy-change (2. order) : 0.6068033E+00  (-0.9064158E+00)
 number of electron     864.0000006 magnetization 
 augmentation part      121.0486065 magnetization 

 Broyden mixing:
  rms(total) = 0.70538E+00    rms(broyden)= 0.70532E+00
  rms(prec ) = 0.79558E+00
  weight for this iteration     100.00

 eigenvalues of (default mixing * dielectric matrix)
  average eigenvalue GAMMA=   1.3795
  2.0985  1.0200  1.0200

 Free energy of the ion-electron system (eV)
  ---------------------------------------------------
  alpha Z        PSCENC =      4052.29761577
  Ewald energy   TEWEN  =    -56177.15611193
  -Hartree energ DENC   =    -13381.45454927
  -exchange      EXHF   =         0.00000000
  -V(xc)+E(xc)   XCENC  =      3355.49081404
  PAW double counting   =     94980.68304765   -94613.03315656
  entropy T*S    EENTRO =        -0.00000000
  eigenvalues    EBANDS =     -4051.79819185
  atomic energy  EATOM  =     64968.54023382
  Solvation  Ediel_sol  =         0.00000000
  ---------------------------------------------------
  free energy    TOTEN  =      -866.43029834 eV

  energy without entropy =     -866.43029834  energy(sigma->0) =     -866.43029834


--------------------------------------------------------------------------------------------------------




--------------------------------------- Iteration      1(   9)  ---------------------------------------


    POTLOK:  cpu time    0.0885: real time    0.1043
    SETDIJ:  cpu time    0.3398: real time    0.3398
     EDDAV:  cpu time   29.0361: real time   29.0466
       DOS:  cpu time    0.0011: real time    0.0011
    CHARGE:  cpu time    0.8364: real time    0.8364
    MIXING:  cpu time    0.0049: real time    0.0049
    --------------------------------------------
      LOOP:  cpu time   30.3068: real time   30.3331

 eigenvalue-minimisations  : 10312
 total energy-change (2. order) : 0.1427505E+00  (-0.2016448E+00)
 number of electron     864.0000006 magnetization 
 augmentation part      120.4381520 magnetization 

 Broyden mixing:
  rms(total) = 0.21519E+00    rms(broyden)= 0.21517E+00
  rms(prec ) = 0.24392E+00
  weight for this iteration     100.00

 eigenvalues of (default mixing * dielectric matrix)
  average eigenvalue GAMMA=   1.3544
  2.2498  1.2674  0.9502  0.9502

 Free energy of the ion-electron system (eV)
  ---------------------------------------------------
  alpha Z        PSCENC =      4052.29761577
  Ewald energy   TEWEN  =    -56177.15611193
  -Hartree energ DENC   =    -13432.52486766
  -exchange      EXHF   =         0.00000000
  -V(xc)+E(xc)   XCENC  =      3359.52683913
  PAW double counting   =    101497.41583661  -101149.50538069
  entropy T*S    EENTRO =        -0.00000000
  eigenvalues    EBANDS =     -3984.88171291
  atomic energy  EATOM  =     64968.54023382
  Solvation  Ediel_sol  =         0.00000000
  ---------------------------------------------------
  free energy    TOTEN  =      -866.28754786 eV

  energy without entropy =     -866.28754786  energy(sigma->0) =     -866.28754786


--------------------------------------------------------------------------------------------------------




--------------------------------------- Iteration      1(  10)  ---------------------------------------


    POTLOK:  cpu time    0.0749: real time    0.0946
    SETDIJ:  cpu time    0.3187: real time    0.3187
     EDDAV:  cpu time   30.1558: real time   30.1579
       DOS:  cpu time    0.0011: real time    0.0011
    CHARGE:  cpu time    0.8385: real time    0.8385
    MIXING:  cpu time    0.0053: real time    0.0053
    --------------------------------------------
      LOOP:  cpu time   31.3943: real time   31.4160

 eigenvalue-minimisations  : 11048
 total energy-change (2. order) :-0.3890214E-01  (-0.5434814E-01)
 number of electron     864.0000006 magnetization 
 augmentation part      120.3592533 magnetization 

 Broyden mixing:
  rms(total) = 0.12609E+00    rms(broyden)= 0.12608E+00
  rms(prec ) = 0.13901E+00
  weight for this iteration     100.00

 eigenvalues of (default mixing * dielectric matrix)
  average eigenvalue GAMMA=   1.3333
  2.3406  1.4592  1.1506  0.8580  0.8580

 Free energy of the ion-electron system (eV)
  ---------------------------------------------------
  alpha Z        PSCENC =      4052.29761577
  Ewald energy   TEWEN  =    -56177.15611193
  -Hartree energ DENC   =    -13435.34360245
  -exchange      EXHF   =         0.00000000
  -V(xc)+E(xc)   XCENC  =      3359.84851416
  PAW double counting   =    102402.36604832  -102055.72543542
  entropy T*S    EENTRO =        -0.00000000
  eigenvalues    EBANDS =     -3981.15371228
  atomic energy  EATOM  =     64968.54023382
  Solvation  Ediel_sol  =         0.00000000
  ---------------------------------------------------
  free energy    TOTEN  =      -866.32645000 eV

  energy without entropy =     -866.32645000  energy(sigma->0) =     -866.32645000


--------------------------------------------------------------------------------------------------------




--------------------------------------- Iteration      1(  11)  ---------------------------------------


    POTLOK:  cpu time    0.0818: real time    0.0933
    SETDIJ:  cpu time    0.3118: real time    0.3118
     EDDAV:  cpu time   30.1322: real time   30.1340
       DOS:  cpu time    0.0009: real time    0.0009
    CHARGE:  cpu time    0.8347: real time    0.8347
    MIXING:  cpu time    0.0052: real time    0.0052
    --------------------------------------------
      LOOP:  cpu time   31.3666: real time   31.3799

 eigenvalue-minimisations  : 11024
 total energy-change (2. order) :-0.6633030E-02  (-0.9314065E-02)
 number of electron     864.0000006 magnetization 
 augmentation part      120.2936015 magnetization 

 Broyden mixing:
  rms(total) = 0.69753E-01    rms(broyden)= 0.69750E-01
  rms(prec ) = 0.76930E-01
  weight for this iteration     100.00

 eigenvalues of (default mixing * dielectric matrix)
  average eigenvalue GAMMA=   1.3690
  2.2278  2.2278  0.9738  0.9738  0.9053  0.9053

 Free energy of the ion-electron system (eV)
  ---------------------------------------------------
  alpha Z        PSCENC =      4052.29761577
  Ewald energy   TEWEN  =    -56177.15611193
  -Hartree energ DENC   =    -13442.85745639
  -exchange      EXHF   =         0.00000000
  -V(xc)+E(xc)   XCENC  =      3360.40881955
  PAW double counting   =    102349.69862268  -102002.02826051
  entropy T*S    EENTRO =        -0.00000000
  eigenvalues    EBANDS =     -3975.23654603
  atomic energy  EATOM  =     64968.54023382
  Solvation  Ediel_sol  =         0.00000000
  ---------------------------------------------------
  free energy    TOTEN  =      -866.33308303 eV

  energy without entropy =     -866.33308303  energy(sigma->0) =     -866.33308303


--------------------------------------------------------------------------------------------------------




--------------------------------------- Iteration      1(  12)  ---------------------------------------


    POTLOK:  cpu time    0.0811: real time    0.0975
    SETDIJ:  cpu time    0.3113: real time    0.3113
     EDDAV:  cpu time   30.7722: real time   30.7765
       DOS:  cpu time    0.0009: real time    0.0009
    CHARGE:  cpu time    0.8358: real time    0.8360
    MIXING:  cpu time    0.0055: real time    0.0055
    --------------------------------------------
      LOOP:  cpu time   32.0067: real time   32.0277

 eigenvalue-minimisations  : 11272
 total energy-change (2. order) :-0.1234153E-02  (-0.2806538E-02)
 number of electron     864.0000006 magnetization 
 augmentation part      120.3092072 magnetization 

 Broyden mixing:
  rms(total) = 0.21651E-01    rms(broyden)= 0.21646E-01
  rms(prec ) = 0.24698E-01
  weight for this iteration     100.00

 eigenvalues of (default mixing * dielectric matrix)
  average eigenvalue GAMMA=   1.3733
  2.4852  2.4346  0.9547  0.9847  0.9847  0.8847  0.8847

 Free energy of the ion-electron system (eV)
  ---------------------------------------------------
  alpha Z        PSCENC =      4052.29761577
  Ewald energy   TEWEN  =    -56177.15611193
  -Hartree energ DENC   =    -13442.85489842
  -exchange      EXHF   =         0.00000000
  -V(xc)+E(xc)   XCENC  =      3360.40170239
  PAW double counting   =    102070.74518528  -101721.27761088
  entropy T*S    EENTRO =        -0.00000000
  eigenvalues    EBANDS =     -3977.03043322
  atomic energy  EATOM  =     64968.54023382
  Solvation  Ediel_sol  =         0.00000000
  ---------------------------------------------------
  free energy    TOTEN  =      -866.33431718 eV

  energy without entropy =     -866.33431718  energy(sigma->0) =     -866.33431718


--------------------------------------------------------------------------------------------------------




--------------------------------------- Iteration      1(  13)  ---------------------------------------


    POTLOK:  cpu time    0.0770: real time    0.0893
    SETDIJ:  cpu time    0.3329: real time    0.3329
     EDDAV:  cpu time   31.9234: real time   31.9279
       DOS:  cpu time    0.0010: real time    0.0010
    CHARGE:  cpu time    0.8397: real time    0.8398
    MIXING:  cpu time    0.0046: real time    0.0046
    --------------------------------------------
      LOOP:  cpu time   33.1785: real time   33.1955

 eigenvalue-minimisations  : 11752
 total energy-change (2. order) :-0.6584019E-03  (-0.4400152E-03)
 number of electron     864.0000006 magnetization 
 augmentation part      120.3070082 magnetization 

 Broyden mixing:
  rms(total) = 0.97955E-02    rms(broyden)= 0.97946E-02
  rms(prec ) = 0.11542E-01
  weight for this iteration     100.00

 eigenvalues of (default mixing * dielectric matrix)
  average eigenvalue GAMMA=   1.3425
  2.5220  2.5220  1.1407  1.1407  0.8877  0.8877  0.8195  0.8195

 Free energy of the ion-electron system (eV)
  ---------------------------------------------------
  alpha Z        PSCENC =      4052.29761577
  Ewald energy   TEWEN  =    -56177.15611193
  -Hartree energ DENC   =    -13444.33215185
  -exchange      EXHF   =         0.00000000
  -V(xc)+E(xc)   XCENC  =      3360.49060203
  PAW double counting   =    101959.77675189  -101609.41500820
  entropy T*S    EENTRO =        -0.00000000
  eigenvalues    EBANDS =     -3976.53690712
  atomic energy  EATOM  =     64968.54023382
  Solvation  Ediel_sol  =         0.00000000
  ---------------------------------------------------
  free energy    TOTEN  =      -866.33497559 eV

  energy without entropy =     -866.33497559  energy(sigma->0) =     -866.33497559


--------------------------------------------------------------------------------------------------------




--------------------------------------- Iteration      1(  14)  ---------------------------------------


    POTLOK:  cpu time    0.0941: real time    0.1144
    SETDIJ:  cpu time    0.3295: real time    0.3336
     EDDAV:  cpu time   31.0673: real time   31.0692
       DOS:  cpu time    0.0011: real time    0.0011
    CHARGE:  cpu time    0.8510: real time    0.8511
    MIXING:  cpu time    0.0053: real time    0.0053
    --------------------------------------------
      LOOP:  cpu time   32.3483: real time   32.3747

 eigenvalue-minimisations  : 11400
 total energy-change (2. order) :-0.6145569E-04  (-0.1126420E-03)
 number of electron     864.0000006 magnetization 
 augmentation part      120.3091256 magnetization 

 Broyden mixing:
  rms(total) = 0.68315E-02    rms(broyden)= 0.68308E-02
  rms(prec ) = 0.77183E-02
  weight for this iteration     100.00

 eigenvalues of (default mixing * dielectric matrix)
  average eigenvalue GAMMA=   1.3298
  2.7204  2.3872  1.4796  0.9001  0.9001  1.0227  0.8471  0.8555  0.8555

 Free energy of the ion-electron system (eV)
  ---------------------------------------------------
  alpha Z        PSCENC =      4052.29761577
  Ewald energy   TEWEN  =    -56177.15611193
  -Hartree energ DENC   =    -13444.59894769
  -exchange      EXHF   =         0.00000000
  -V(xc)+E(xc)   XCENC  =      3360.50112184
  PAW double counting   =    101943.97455031  -101593.39996160
  entropy T*S    EENTRO =        -0.00000000
  eigenvalues    EBANDS =     -3976.49353756
  atomic energy  EATOM  =     64968.54023382
  Solvation  Ediel_sol  =         0.00000000
  ---------------------------------------------------
  free energy    TOTEN  =      -866.33503704 eV

  energy without entropy =     -866.33503704  energy(sigma->0) =     -866.33503704


--------------------------------------------------------------------------------------------------------




--------------------------------------- Iteration      1(  15)  ---------------------------------------


    POTLOK:  cpu time    0.0842: real time    0.0958
    SETDIJ:  cpu time    0.3102: real time    0.3102
     EDDAV:  cpu time   27.7206: real time   27.7220
       DOS:  cpu time    0.0010: real time    0.0010
    CHARGE:  cpu time    0.8366: real time    0.8367
    MIXING:  cpu time    0.0052: real time    0.0052
    --------------------------------------------
      LOOP:  cpu time   28.9579: real time   28.9710

 eigenvalue-minimisations  :  9904
 total energy-change (2. order) : 0.7087656E-05  (-0.2094662E-04)
 number of electron     864.0000006 magnetization 
 augmentation part      120.3070138 magnetization 

 Broyden mixing:
  rms(total) = 0.32044E-02    rms(broyden)= 0.32036E-02
  rms(prec ) = 0.35702E-02
  weight for this iteration     100.00

 eigenvalues of (default mixing * dielectric matrix)
  average eigenvalue GAMMA=   1.3699
  2.8009  2.2943  2.2943  0.8748  0.8748  0.9546  0.9366  0.9366  0.8662  0.8662

 Free energy of the ion-electron system (eV)
  ---------------------------------------------------
  alpha Z        PSCENC =      4052.29761577
  Ewald energy   TEWEN  =    -56177.15611193
  -Hartree energ DENC   =    -13445.09552149
  -exchange      EXHF   =         0.00000000
  -V(xc)+E(xc)   XCENC  =      3360.53172354
  PAW double counting   =    101961.31328099  -101610.70691003
  entropy T*S    EENTRO =        -0.00000000
  eigenvalues    EBANDS =     -3976.05934062
  atomic energy  EATOM  =     64968.54023382
  Solvation  Ediel_sol  =         0.00000000
  ---------------------------------------------------
  free energy    TOTEN  =      -866.33502995 eV

  energy without entropy =     -866.33502995  energy(sigma->0) =     -866.33502995


--------------------------------------------------------------------------------------------------------




--------------------------------------- Iteration      1(  16)  ---------------------------------------


    POTLOK:  cpu time    0.0704: real time    0.0740
    SETDIJ:  cpu time    0.3105: real time    0.3105
[...]
   -.170E+02 -.409E+02 0.417E+02   0.204E+02 0.377E+02 -.503E+02   -.139E+01 0.629E+01 0.111E+02   0.122E-02 -.103E-02 -.379E-03
   -.154E+02 -.408E+01 -.111E+03   -.155E+01 0.710E+01 0.122E+03   0.213E+02 -.396E+01 -.920E+01   -.650E-03 0.466E-03 0.100E-02
   0.589E+02 -.130E+02 -.892E+02   -.722E+02 0.351E+02 0.789E+02   0.849E+01 -.251E+02 0.104E+02   -.364E-03 -.627E-03 0.690E-03
   -.646E+01 0.203E+02 0.572E+02   0.328E+01 -.341E+02 -.683E+02   0.132E+01 0.143E+02 0.787E+01   0.135E-02 0.539E-03 -.657E-03
   -.377E+02 -.807E+01 0.484E+02   0.606E+02 0.159E+02 -.535E+02   -.268E+02 -.104E+02 0.613E+01   -.113E-02 -.477E-03 0.658E-04
   0.171E+02 -.251E+02 -.402E+02   -.199E+02 0.289E+02 0.394E+02   0.258E+01 -.343E+01 -.201E+00   0.144E-02 -.180E-03 0.447E-03
   -.378E+02 -.550E+02 -.819E+02   0.340E+02 0.566E+02 0.755E+02   0.447E+01 0.663E+00 0.102E+02   0.948E-04 0.449E-03 0.659E-03
   0.579E+02 -.604E+02 0.104E+03   -.498E+02 0.671E+02 -.106E+03   -.937E+01 -.293E+01 -.174E+01   -.392E-03 -.898E-03 -.584E-03
   0.676E+02 0.376E+02 -.657E+02   -.916E+02 -.536E+02 0.665E+02   0.234E+02 0.151E+02 0.737E+00   -.355E-04 0.708E-03 0.492E-03
   -.132E+02 -.394E+02 0.419E+02   0.123E+02 0.263E+02 -.349E+02   0.147E+01 0.168E+02 -.776E+01   -.702E-04 0.437E-03 -.110E-02
   0.114E+02 0.287E+02 0.761E+01   -.904E+01 -.239E+02 -.142E+02   -.219E+01 -.474E+01 0.603E+01   -.875E-03 -.904E-04 0.111E-03
   -.479E+02 0.448E+02 0.303E+02   0.559E+02 -.425E+02 -.369E+02   -.108E+02 -.379E+00 0.518E+01   0.106E-02 -.346E-03 -.575E-03
   0.134E+02 -.235E+02 0.968E+02   -.156E+02 0.673E+01 -.102E+03   0.490E+01 0.169E+02 0.471E+01   -.129E-02 0.722E-03 -.728E-03
   -.424E+02 0.107E+03 -.479E+02   0.484E+02 -.114E+03 0.465E+02   -.897E+01 0.331E+01 0.778E+01   -.596E-03 0.588E-03 0.153E-03
   -.152E+01 -.569E+02 0.861E+02   -.141E+02 0.611E+02 -.104E+03   0.104E+02 0.429E+01 0.614E+01   -.252E-03 -.538E-03 0.348E-03
   -.437E+01 -.301E+01 0.101E+03   0.221E+02 0.240E+02 -.106E+03   -.170E+02 -.218E+02 0.463E+01   0.167E-03 0.675E-04 -.429E-03
   0.578E+02 -.647E+01 -.322E+02   -.623E+02 0.159E+02 0.223E+02   -.603E+00 -.634E+01 0.958E+01   0.432E-04 0.803E-03 0.122E-02
   -.355E+01 0.111E+02 -.346E+02   0.246E+01 -.183E+02 0.385E+02   0.119E+01 0.887E+01 -.527E+01   0.365E-03 -.280E-03 0.631E-03
   0.264E+02 0.128E+03 0.645E+02   -.444E+02 -.153E+03 -.713E+02   0.166E+02 0.233E+02 0.660E+01   0.543E-03 -.129E-03 0.900E-04
   0.528E+02 -.309E+02 -.590E+02   -.519E+02 0.356E+02 0.609E+02   -.475E+01 -.351E+01 -.509E+01   -.796E-03 0.499E-03 0.884E-03
   0.410E+01 -.108E+03 0.142E+03   -.128E+02 0.112E+03 -.137E+03   0.116E+02 -.995E+00 -.107E+02   -.521E-03 -.293E-03 -.403E-03
   -.739E+02 -.275E+01 0.353E+02   0.705E+02 -.422E+00 -.438E+02   0.730E+01 0.317E+01 0.776E+01   0.892E-03 0.294E-03 -.188E-03
   -.674E+02 -.365E+02 -.104E+03   0.712E+02 0.543E+02 0.102E+03   -.194E+01 -.156E+02 0.279E+01   -.140E-02 -.938E-03 0.604E-03
   -.987E+02 0.654E+02 0.145E+02   0.100E+03 -.530E+02 -.145E+02   0.693E+01 -.114E+02 0.329E+01   -.892E-03 -.399E-03 -.260E-03
   0.174E+02 0.450E+02 0.192E+02   -.116E+02 -.384E+02 -.933E+00   -.105E+02 -.794E+01 -.213E+02   0.483E-03 -.875E-03 0.268E-03
   0.241E+02 -.135E+02 0.368E+01   -.419E+02 0.265E+02 -.767E+01   0.170E+02 -.123E+02 0.611E+01   0.155E-02 0.265E-03 -.401E-03
   0.550E+01 0.597E+02 -.597E+01   -.279E+02 -.765E+02 0.205E+02   0.178E+02 0.849E+01 -.181E+02   0.151E-03 -.273E-03 0.403E-03
   0.225E+02 -.108E+03 0.363E+02   -.454E+02 0.103E+03 -.394E+02   0.229E+02 0.940E+01 -.346E+01   0.877E-03 -.761E-03 -.616E-03
   -.329E+02 -.617E+02 0.716E+02   0.446E+02 0.738E+02 -.691E+02   -.123E+02 -.916E+01 -.424E+01   0.710E-03 0.369E-03 0.287E-03
   0.169E+02 -.664E+01 -.127E+02   -.134E+02 0.906E+01 0.151E+02   -.393E+01 -.353E+01 -.305E+01   -.450E-03 -.279E-03 0.599E-03
   0.512E+02 -.869E+02 0.498E+02   -.474E+02 0.902E+02 -.447E+02   -.544E+01 -.305E+00 -.711E+01   -.720E-03 0.630E-04 -.824E-03
   -.117E+03 0.294E+02 -.109E+02   0.116E+03 -.433E+02 0.127E+02   0.413E+01 0.142E+02 -.360E+00   0.956E-03 0.705E-03 -.343E-03
   0.635E+02 -.743E+02 -.756E+02   -.724E+02 0.794E+02 0.778E+02   0.104E+02 -.491E+01 -.440E-01   0.125E-03 -.943E-04 0.294E-03
   -.408E+02 -.181E+01 0.346E+02   0.237E+02 -.594E+01 -.264E+02   0.229E+02 0.454E+01 -.716E+01   -.184E-03 0.298E-03 -.247E-03
   -.122E+02 -.109E+03 -.130E+02   0.375E+02 0.127E+03 0.113E+02   -.228E+02 -.945E+01 0.352E+01   0.374E-03 -.210E-03 -.617E-03
   -.589E+02 -.288E+01 0.671E+02   0.581E+02 -.447E+01 -.703E+02   0.610E+01 0.638E+01 -.259E+01   0.499E-03 -.103E-03 -.348E-03
   0.272E+02 0.553E+02 0.750E+02   -.228E+02 -.436E+02 -.938E+02   -.831E+01 -.117E+02 0.944E+01   0.154E-03 -.527E-03 -.387E-03
   0.402E+02 -.245E+02 0.620E+02   -.413E+02 0.188E+02 -.538E+02   -.477E+00 0.806E+01 -.858E+01   0.846E-03 0.739E-03 -.270E-03
   -.122E+01 -.473E+02 -.541E+02   0.927E+01 0.364E+02 0.645E+02   -.924E+01 0.143E+02 -.147E+02   -.570E-03 -.501E-03 0.674E-03
   -.202E+02 -.217E+01 0.337E+01   0.198E+02 -.100E+02 0.120E+02   -.178E+00 0.142E+02 -.164E+02   -.136E-03 -.350E-03 -.550E-03
   -.153E+02 0.220E+02 0.804E+02   0.141E+02 -.227E+02 -.870E+02   0.383E+01 0.318E+00 0.648E+01   0.959E-03 -.438E-03 -.945E-03
   0.229E+02 0.171E+02 -.151E+03   -.190E+02 -.259E+02 0.169E+03   -.621E+01 0.123E+02 -.208E+02   -.708E-03 0.403E-04 0.464E-03
   0.157E+02 0.146E+02 -.130E+03   -.131E+01 -.152E+02 0.120E+03   -.173E+02 0.231E+00 0.149E+02   0.915E-03 -.939E-03 0.110E-02
   -.101E+02 -.455E+02 -.417E+01   0.887E+01 0.487E+02 0.153E+02   0.656E+00 -.133E+01 -.123E+02   0.135E-02 0.214E-03 0.594E-03
   -.110E+02 0.784E+02 -.621E+02   0.135E+02 -.708E+02 0.703E+02   -.106E+01 -.107E+02 -.635E+01   0.121E-02 -.345E-03 0.900E-03
   -.700E+02 -.182E+02 0.684E+02   0.548E+02 0.154E+02 -.825E+02   0.222E+02 0.629E+01 0.113E+02   0.362E-03 0.203E-03 0.174E-03
   0.935E+01 -.600E+01 -.683E+01   -.101E+02 0.192E+02 -.594E+01   -.138E+01 -.928E+01 0.361E+01   -.102E-02 -.977E-03 0.938E-03
   -.517E+01 0.401E+02 0.143E+02   -.257E+01 -.475E+02 -.259E+02   0.870E+01 0.714E+01 0.146E+02   -.755E-03 -.440E-04 -.133E-03
 -----------------------------------------------------------------------------------------------
   -.100E+03 -.138E+02 -.143E+03   -.981E-12 -.533E-12 0.284E-13   0.100E+03 0.138E+02 0.143E+03   0.183E-02 -.314E-03 0.993E-03
 
 
 POSITION                                       TOTAL-FORCE (eV/Angst)
 -----------------------------------------------------------------------------------
      2.04486      8.66404      0.89097        -3.682356      1.879481     -2.486597
      9.34420      2.31974      6.35382         0.219432      0.153477      1.201586
      6.09034      0.15119      3.62036         1.070457     -0.712561      1.185595
      0.18446      0.62903      2.16306         1.150688     -2.625537      1.348978
     10.24118      1.51309      9.94240        -2.955411     -1.915716     -5.611889
      4.03319      1.77682      8.11352         0.070787      0.273598      2.020516
      5.65233      6.07172      2.11301         1.503263     -1.721424      0.986592
      0.95120      5.33362      6.64297         3.312034      2.751602      0.741881
     10.44881      5.85255      0.76174        -1.757152      2.514931      2.042206
      8.38829      8.46576      2.46806        -3.108188     -0.123285     -0.321432
      5.20270      1.12161      0.86243        -1.564073     -1.333585     -1.221879
      2.88487      3.27362      2.13807         7.076602     -3.884698      3.047945
      0.47886      5.04008      4.07588         1.317267      1.305814      0.612434
      6.29657      5.58735      5.30065        -0.460526     -2.536342     -0.315897
      9.56135      7.44214      7.98670         3.662685     -0.688368      2.077415
      3.20785      8.08987      3.57481         0.075993     -1.058420      1.735890
      1.47783      9.85939      7.81782         0.759050     -2.378472      3.797440
      8.58067      2.30542      3.72436         0.886622     -1.070528     -0.442568
      7.18344      9.66658      9.84322        -1.128425      0.509877     -0.976809
      3.85890      2.26265      4.94470        -0.548763      7.118715     -1.391870
      4.63297      6.93129     10.12343        -0.788983     -1.083827     -4.455659
      8.13913      3.91705      0.73824        -1.801337     -1.181782      1.539313
      0.85069     10.31874      5.31432        -2.144444     -1.353571     -2.271477
      6.68094      4.56709      8.33381         2.252356     -0.974728     -0.998811
      6.76152      0.07416      6.97077        -3.686034     -1.081939     -1.636139
      2.29223      3.82781      9.64196        -1.581583      0.211647      3.510945
      3.27692      7.61442      6.84180         0.550571     -1.976734      0.348749
      6.12282      2.84950      6.24281         5.503247     -3.087610     -1.644296
      7.49812      7.05471     10.48932         3.326324     -9.207591      9.445840
      1.21861      2.33902      4.33739        -1.581875      1.275605      1.609956
      6.76639      7.52677      7.50172        -3.487896      2.049596      4.735618
      5.21086      4.00551     10.50161        -4.479484     -2.418424      4.747627
      4.25325      9.67676      8.88068         0.512362     -4.075340      3.941277
      8.68557      5.63755      6.08191         0.012671     -2.144539     -1.975744
     10.03396      9.00984      0.17061        -0.356516      2.647019     -4.081027
      1.53915      2.37892      7.45042        -5.107780     -4.769333      0.501955
      3.05749      0.30681      2.90368         3.184881     -5.330775     -6.504129
      5.82280      8.03290      4.56303         1.673051      2.044599      1.963173
      1.50793      6.92943      9.27584         4.072505      1.728365     -2.469947
      9.84781      4.38382      9.02188        -1.283407      1.671534      1.760960
      8.10145      0.70492      1.47279        -0.977698     -1.964748      3.835341
      3.68399      5.39177      4.50316        -2.351645      3.260850      0.688449
      2.71081      5.85302      1.54384         2.326921     -2.187962      5.606952
      9.16121     10.21811      7.46852         8.423015     -0.922047     -0.796368
      3.51199     10.38155      5.90046         3.378062      0.942338     -1.455635
      0.24486      7.68725      3.01310         3.651169     -4.942727      6.913223
      3.98217      5.03722      7.78259         0.697972     -0.234813     -2.089751
      5.17057      8.79468      1.36434         1.493470      2.061252      2.444089
      0.20095      3.21492      1.64561        -3.562526      5.437311     -1.072820
      8.89742      8.57057      5.24876         4.653158      0.330975      3.678541
      2.28738      0.80755      0.12137        -2.226649      3.553667     -2.149758
      8.37668      5.25217      3.21064         2.812372      6.588316     -6.013703
      7.36235      1.91224      9.46030        -4.541331     -4.130665     -7.193044
      5.87360      2.95318      2.99980         1.466408     -0.302411      0.584113
      2.99489     10.44920      1.21443        -2.723381      3.551762      4.158269
      0.60010      8.21240      9.85249         0.827830     -5.420023      2.841932
      8.38225      0.55326      8.51902        -2.947183      1.233687      1.996813
      5.26669      6.28356      7.87884        -2.549619     -3.290347      2.417850
      9.44830      2.18319      1.30009        -5.324992     -3.049853      3.001447
      1.84674      4.47026      1.32911        -7.739271      0.602336      0.197735
     10.43325      9.01073      6.48836        -5.306687     -0.356831      0.689876
      3.41448      0.51844      4.35748        -0.185292     -6.936588      7.380712
      3.04670      8.44720      9.15864        -0.052928     -3.342795     -1.293393
      9.71294      6.52576      3.02961        -0.700549     -0.019681      0.794234
      2.45234      1.14280      6.25698        -2.533584      2.930689      1.749111
     10.31257      3.90343      0.28062        -2.902718      4.630199     -7.782066
      9.57164      5.15470      7.29529         0.851967     -3.215962      2.849441
      8.49083      2.92079      9.30005         3.111433      3.719490     -0.561077
      7.37471      2.05646      7.22765        -3.992740      3.493941     -0.902403
      5.78962      0.96425      8.92032         0.690029     -1.751212     -0.305690
      6.56403      2.27379      4.59204        -0.662681      0.003477     -0.049053
      0.59629      5.61706      9.06247        -4.939756     -3.647048      1.239232
      9.92685      9.51988      8.96458        -3.379883      0.389873     -2.953683
      3.63548      7.78377      1.23294         7.340544     -3.701742      3.869815
      0.74736      3.38661      5.67655         0.276153     -3.221841      0.476168
      4.45139      1.46574      2.88114         3.224948      6.012821     -1.011558
      4.85110      9.60810      5.32591         4.822740     -4.348802     -2.541514
      1.23219      7.52236      7.73778        -0.161654     -0.844648     -0.536427
      7.48376      3.98783      2.78319        -4.415386     -0.763297     -0.207086
      5.26579      3.57455      1.59758        -0.729088      0.791465      0.186782
      0.90521      2.37019      0.57406        10.765081     -6.207744      1.365748
      8.87941      0.20371      5.82675        -1.573618     -0.502104      2.891544
      7.55247      6.82849      3.86212        -1.652188     -2.036967      2.436482
      1.81732      9.40569      2.96869        -1.241783      2.950768      1.366741
      2.65464      5.78234      8.40141         1.964735      1.496905      5.362175
      8.50689      4.61381      4.62591         6.998691      2.155919      0.576888
      3.58269      5.58546      2.82658         2.550947     -0.530089      0.579670
      5.00016      9.01577     10.27963         2.017379      3.057983      2.494889
      0.27544      2.94226      3.17015         4.369922     -0.943145      2.397121
      7.65835      9.32589      4.60716        -4.811910     -2.911637      0.108954
      4.54732      3.91116      9.04288        -1.855924      0.406111     -3.204297
      9.77389      6.94381      5.62252        -3.839408     -2.592323      0.969259
      4.71617      6.71543      4.50931        -0.203208      0.429891     -0.986279
      6.86832      1.73470      2.12972         0.605397      2.182211      3.856951
      8.07240      8.51689      7.15042        -1.313984      3.752536     -2.935758
     10.54198      1.35580      4.47969        -0.665527     -0.987730      1.513885
      1.78523      1.38776      8.85681         0.650810      3.745881     -0.805694
      9.20691     10.35636      0.66649         0.201225      0.021680     -0.541811
      4.02047     10.19960      7.43694        -2.712550      1.903304     -1.460589
     10.56381      3.13192      8.25193         2.632009      0.167514     -0.909198
      7.48740      4.18368      6.10288        -2.956643     -4.098151      6.370030
      1.92478      6.34546      0.44249        -5.185908      8.435135    -11.656379
      2.62062      3.46507      7.62863         0.665603     -0.844158     -0.681708
      2.14526      1.56587      3.14119        -5.178009      3.089292     -0.362701
      6.85160      9.89252      1.66610         0.103529      1.617359     -1.301515
      2.50799      9.21077      5.76449        -1.466331     -1.946763     -0.178372
      9.86987      4.47807      2.46764        -3.916582      1.133720     -3.127861
      8.56426      5.33468      9.97278         2.947957      2.777329     -5.416894
      3.76102      5.03968      0.44273         3.898227      0.002318     -0.802043
      9.95175      8.62141      4.01040         1.814941      2.122925      0.877258
      8.49589      8.24270      0.05899         8.173940      1.077745      3.236360
      6.55333      7.76296      1.01197        -4.759872     -1.370834     -3.100433
      5.03253      3.95048      6.58093        -0.829351      0.740295      2.119052
      2.63472      4.31075      4.68273        -4.608323     -8.297737     -3.610259
      5.88444      7.38516      6.22546        -0.014407      3.857474     -6.603976
      3.37162      2.04518      0.41735        -0.689793      2.892616     -1.811550
      7.99986      6.15139      1.52323        -0.357631     -1.101099     -0.674334
      0.12473      0.75799      7.44368        -1.588777      2.941819     -2.041316
      5.00114      1.42430      6.25221         3.451599      0.229491      1.450206
      2.13418      6.66650      4.85485         1.559922      0.251872      2.212902
      7.15795      1.04785      0.15657         5.739610     -3.217641      1.058857
      6.27922      5.04011     10.31365         2.534130      8.327827      1.813679
      3.17227     10.54418      9.74678         5.306627     -0.966000     -5.783561
      7.34230      7.49622      9.11886        -3.976728      0.006837     -9.368616
      6.27244      2.82814     10.18958        -1.580943      2.321293     -0.388437
      1.50416      6.49226      2.83692        -1.185172      3.344288     -4.395526
      7.65088      6.16545      7.22796        -0.648487      2.061335     -0.990024
      5.54631      8.78351      8.08409         2.608057     -0.432194     -0.107665
      8.90357      0.05314      3.04728        -2.333559      3.514633     -2.649327
      5.93020      8.19490      2.88509        -2.920282     -0.386248      4.261813
      5.10244      4.02183      4.12235        -0.539812      1.821053     -1.154506
      4.48923      9.92675      2.39351         1.473206     -3.030470      1.900749
      2.99735      5.19537      6.47762         6.955992      3.526551     -2.824694
     10.56431      8.42014      1.76230        -2.166578      3.957154     -9.166393
      0.86833     10.41561     10.46748         0.954179     -0.257169      3.037691
 -----------------------------------------------------------------------------------
    total drift:                               -0.004161     -0.034806     -0.005248


--------------------------------------------------------------------------------------------------------



  FREE ENERGIE OF THE ION-ELECTRON SYSTEM (eV)
  ---------------------------------------------------
  free  energy   TOTEN  =      -866.33502949 eV

  energy  without entropy=     -866.33502949  energy(sigma->0) =     -866.33502949
 


--------------------------------------------------------------------------------------------------------


    POTLOK:  cpu time    0.3767: real time    0.3767


--------------------------------------------------------------------------------------------------------


     LOOP+:  cpu time  581.7027: real time  582.0031
    4ORBIT:  cpu time    0.0000: real time    0.0000

 total amount of memory used by VASP MPI-rank0   128278. kBytes
=======================================================================

   base      :      30000. kBytes
   nonlr-proj:      20266. kBytes
   fftplans  :      15852. kBytes
   grid      :       9274. kBytes
   one-center:        171. kBytes
   wavefun   :      52715. kBytes
 
  
  
 General timing and accounting informations for this job:
 ========================================================
  
                  Total CPU time used (sec):      599.521
                            User time (sec):      595.734
                          System time (sec):        3.787
                         Elapsed time (sec):      600.104
  
                   Maximum memory used (kb):      247908.
                   Average memory used (kb):           0.
  
                          Minor page faults:        79340
                          Major page faults:            0
                 Voluntary context switches:         1614
