 vasp.5.4.4.18Apr17-6-g9f103f2a35 (build Oct 31 2019 15:01:46) complex          
  
 executed on             LinuxIFC date 2024.04.30  02:22:44
 running on   52 total cores
 distrk:  each k-point on   52 cores,    1 groups
 distr:  one band on NCORES_PER_BAND=  13 cores,    4 groups


--------------------------------------------------------------------------------------------------------


 INCAR:
 POTCAR:    PAW_PBE Sc_sv 07Sep2000               
 POTCAR:    PAW_PBE Cl 06Sep2000                  
 POTCAR:    PAW_PBE C 08Apr2002                   
 POTCAR:    PAW_PBE Sc_sv 07Sep2000               
   VRHFIN =Sc: 3p4s3d                                                           
   LEXCH  = PE                                                                  
   EATOM  =  1273.2868 eV,   93.5839 Ry                                         
                                                                                
   TITEL  = PAW_PBE Sc_sv 07Sep2000                                             
   LULTRA =        F    use ultrasoft PP ?                                      
   IUNSCR =        1    unscreen: 0-lin 1-nonlin 2-no                           
   RPACOR =    2.200    partial core radius                                     
   POMASS =   44.956; ZVAL   =   11.000    mass and valenz                      
   RCORE  =    2.500    outmost cutoff radius                                   
   RWIGS  =    2.700; RWIGS  =    1.429    wigner-seitz radius (au A)           
   ENMAX  =  222.660; ENMIN  =  166.995 eV                                      
   RCLOC  =    1.805    cutoff for local pot                                    
   LCOR   =        T    correct aug charges                                     
   LPAW   =        T    paw PP                                                  
   EAUG   =  443.063                                                            
   RMAX   =    2.551    core radius for proj-oper                               
   RAUG   =    1.300    factor for augmentation sphere                          
   RDEP   =    2.650    radius for radial grids                                 
   RDEPT  =    2.038    core radius for aug-charge                              
                                                                                
   Atomic configuration                                                         
    8 entries                                                                   
     n  l   j            E        occ.                                          
     1  0  0.50     -4394.2533   2.0000                                         
     2  0  0.50      -471.0040   2.0000                                         
     2  1  1.50      -384.9788   6.0000                                         
     3  0  0.50       -52.1410   2.0000                                         
     4  0  0.50        -3.5584   1.0000                                         
     3  1  1.50       -30.8841   6.0000                                         
     3  2  2.50        -1.3655   2.0000                                         
     4  3  2.50        -1.3606   0.0000                                         
   Description                                                                  
     l       E           TYP  RCUT    TYP  RCUT                                 
     0    -52.1409870     23  1.800                                             
     0     -3.5583698     23  2.500                                             
     1    -30.8840697     23  2.300                                             
     1      4.0817478     23  2.300                                             
     2     -1.3655397     23  2.500                                             
     2      0.3564476     23  2.500                                             
  local pseudopotential read in
  partial core-charges read in
  partial kinetic energy density read in
  atomic valenz-charges read in
  non local Contribution for L=           0  read in
    real space projection operators read in
  non local Contribution for L=           0  read in
    real space projection operators read in
  non local Contribution for L=           1  read in
    real space projection operators read in
  non local Contribution for L=           1  read in
    real space projection operators read in
  non local Contribution for L=           2  read in
    real space projection operators read in
  non local Contribution for L=           2  read in
    real space projection operators read in
    PAW grid and wavefunctions read in
 
   number of l-projection  operators is LMAX  =           6
   number of lm-projection operators is LMMAX =          18
 
 POTCAR:    PAW_PBE Cl 06Sep2000                  
   VRHFIN =Cl: s2p5                                                             
   LEXCH  = PE                                                                  
   EATOM  =   409.7259 eV,   30.1140 Ry                                         
                                                                                
   TITEL  = PAW_PBE Cl 06Sep2000                                                
   LULTRA =        F    use ultrasoft PP ?                                      
   IUNSCR =        1    unscreen: 0-lin 1-nonlin 2-no                           
   RPACOR =    1.500    partial core radius                                     
   POMASS =   35.453; ZVAL   =    7.000    mass and valenz                      
   RCORE  =    1.900    outmost cutoff radius                                   
   RWIGS  =    2.100; RWIGS  =    1.111    wigner-seitz radius (au A)           
   ENMAX  =  262.472; ENMIN  =  196.854 eV                                      
   ICORE  =        2    local potential                                         
   LCOR   =        T    correct aug charges                                     
   LPAW   =        T    paw PP                                                  
   EAUG   =  356.192                                                            
   DEXC   =    0.000                                                            
   RMAX   =    1.945    core radius for proj-oper                               
   RAUG   =    1.300    factor for augmentation sphere                          
   RDEP   =    2.020    radius for radial grids                                 
   RDEPT  =    1.678    core radius for aug-charge                              
                                                                                
   Atomic configuration                                                         
    6 entries                                                                   
     n  l   j            E        occ.                                          
     1  0  0.50     -2751.1850   2.0000                                         
     2  0  0.50      -252.6861   2.0000                                         
     2  1  1.50      -191.6157   6.0000                                         
     3  0  0.50       -20.6916   2.0000                                         
     3  1  0.50        -8.5949   5.0000                                         
     3  2  1.50        -8.1635   0.0000                                         
   Description                                                                  
     l       E           TYP  RCUT    TYP  RCUT                                 
     0    -20.6915656     23  1.900                                             
     0    -22.0521482     23  1.900                                             
     1     -8.5948577     23  1.900                                             
     1     -5.3847331     23  1.900                                             
     2     -8.1634956     23  1.900                                             
  local pseudopotential read in
  partial core-charges read in
  partial kinetic energy density read in
  atomic valenz-charges read in
  non local Contribution for L=           0  read in
    real space projection operators read in
  non local Contribution for L=           0  read in
    real space projection operators read in
  non local Contribution for L=           1  read in
    real space projection operators read in
  non local Contribution for L=           1  read in
    real space projection operators read in
    PAW grid and wavefunctions read in
 
   number of l-projection  operators is LMAX  =           4
   number of lm-projection operators is LMMAX =           8
 
 POTCAR:    PAW_PBE C 08Apr2002                   
   VRHFIN =C: s2p2                                                              
   LEXCH  = PE                                                                  
   EATOM  =   147.1560 eV,   10.8157 Ry                                         
                                                                                
   TITEL  = PAW_PBE C 08Apr2002                                                 
   LULTRA =        F    use ultrasoft PP ?                                      
   IUNSCR =        1    unscreen: 0-lin 1-nonlin 2-no                           
   RPACOR =    1.200    partial core radius                                     
   POMASS =   12.011; ZVAL   =    4.000    mass and valenz                      
   RCORE  =    1.500    outmost cutoff radius                                   
   RWIGS  =    1.630; RWIGS  =    0.863    wigner-seitz radius (au A)           
   ENMAX  =  400.000; ENMIN  =  300.000 eV                                      
   ICORE  =        2    local potential                                         
   LCOR   =        T    correct aug charges                                     
   LPAW   =        T    paw PP                                                  
   EAUG   =  644.873                                                            
   DEXC   =    0.000                                                            
   RMAX   =    1.529    core radius for proj-oper                               
   RAUG   =    1.300    factor for augmentation sphere                          
   RDEP   =    1.501    radius for radial grids                                 
   RDEPT  =    1.300    core radius for aug-charge                              
                                                                                
   Atomic configuration                                                         
    4 entries                                                                   
     n  l   j            E        occ.                                          
     1  0  0.50      -273.3789   2.0000                                         
     2  0  0.50       -13.7508   2.0000                                         
     2  1  0.50        -5.2854   2.0000                                         
     3  2  1.50        -5.4423   0.0000                                         
   Description                                                                  
     l       E           TYP  RCUT    TYP  RCUT                                 
     0    -13.7508458     23  1.200                                             
     0     -8.2022199     23  1.200                                             
     1     -5.2854383     23  1.500                                             
     1     34.0145650     23  1.500                                             
     2     -5.4423304      7  1.500                                             
  local pseudopotential read in
  partial core-charges read in
  partial kinetic energy density read in
  atomic valenz-charges read in
  non local Contribution for L=           0  read in
    real space projection operators read in
  non local Contribution for L=           0  read in
    real space projection operators read in
  non local Contribution for L=           1  read in
    real space projection operators read in
  non local Contribution for L=           1  read in
    real space projection operators read in
    PAW grid and wavefunctions read in
 
   number of l-projection  operators is LMAX  =           4
   number of lm-projection operators is LMMAX =           8
 
 Optimization of the real space projectors (new method)

 maximal supplied QI-value         = 15.12
 optimisation between [QCUT,QGAM] = [ 12.55, 25.10] = [ 44.09,176.36] Ry 
 Optimized for a Real-space Cutoff    1.56 Angstroem

   l    n(q)    QCUT    max X(q) W(low)/X(q) W(high)/X(q)  e(spline) 
   0     12    12.548     2.962    0.12E-05    0.11E-06    0.46E-07
   0     12    12.548    26.414    0.30E-04    0.15E-05    0.76E-07
   1     11    12.548     3.969    0.45E-05    0.12E-05    0.60E-07
   1     11    12.548     5.137    0.15E-04    0.18E-04    0.36E-06
   2     11    12.548   143.970    0.20E-03    0.19E-03    0.76E-06
   2     11    12.548   121.201    0.20E-03    0.19E-03    0.76E-06
 Optimization of the real space projectors (new method)

 maximal supplied QI-value         = 19.84
 optimisation between [QCUT,QGAM] = [ 12.50, 25.00] = [ 43.76,175.03] Ry 
 Optimized for a Real-space Cutoff    1.20 Angstroem

   l    n(q)    QCUT    max X(q) W(low)/X(q) W(high)/X(q)  e(spline) 
   0      9    12.501   168.010    0.44E-04    0.61E-04    0.77E-07
   0      9    12.501   164.674    0.43E-04    0.60E-04    0.75E-07
   1      8    12.501    69.222    0.11E-03    0.13E-03    0.91E-07
   1      8    12.501    56.786    0.11E-03    0.13E-03    0.90E-07
 Optimization of the real space projectors (new method)

 maximal supplied QI-value         = 25.13
 optimisation between [QCUT,QGAM] = [ 12.32, 24.88] = [ 42.47,173.37] Ry 
 Optimized for a Real-space Cutoff    1.16 Angstroem

   l    n(q)    QCUT    max X(q) W(low)/X(q) W(high)/X(q)  e(spline) 
   0      9    12.315   115.676    0.19E-03    0.80E-05    0.34E-06
   0      9    12.315    87.132    0.19E-03    0.82E-05    0.34E-06
   1      8    12.315     4.429    0.18E-03    0.13E-03    0.22E-06
   1      8    12.315     2.733    0.14E-03    0.10E-03    0.18E-06
  PAW_PBE Sc_sv 07Sep2000               :
 energy of atom  1       EATOM=-1273.2868
 kinetic energy error for atom=    0.0014 (will be added to EATOM!!)
  PAW_PBE Cl 06Sep2000                  :
 energy of atom  2       EATOM= -409.7259
 kinetic energy error for atom=    0.0013 (will be added to EATOM!!)
  PAW_PBE C 08Apr2002                   :
 energy of atom  3       EATOM= -147.1560
 kinetic energy error for atom=    0.0057 (will be added to EATOM!!)
 
 
 POSCAR: Sc Cl  C                                
  positions in cartesian coordinates
  No initial velocities read in
 exchange correlation table for  LEXCH =        8
   RHO(1)=    0.500       N(1)  =     2000
   RHO(2)=  100.500       N(2)  =     4000
 


--------------------------------------------------------------------------------------------------------


 ion  position               nearest neighbor table
   1  0.082  0.155  0.543-  70 2.32  66 2.41  49 2.43  65 2.49  50 2.54  61 2.71  17 3.09  29 3.14
                            18 3.25   4 3.29   5 3.34  13 3.38
   2  0.099  0.428  0.546-  71 2.25  50 2.46  51 2.48  67 2.50  66 2.63  62 2.72   7 3.19  18 3.21
                            19 3.27   6 3.32  30 3.34   3 3.37
   3  0.083  0.664  0.546-  68 2.29  72 2.50  67 2.51  51 2.57  52 2.60  63 2.63  31 3.13  20 3.23
                            19 3.33   2 3.37
   4  0.074  0.913  0.538-  65 2.20  68 2.27  69 2.32  64 2.60  52 2.63  49 2.70  17 3.06  32 3.15
                            20 3.22   1 3.29  15 3.34
   5  0.335  0.179  0.544-  70 2.22  69 2.43  74 2.44  49 2.57  54 2.59  53 2.72  17 2.98  21 3.22
                            22 3.24   6 3.33   1 3.34
   6  0.335  0.419  0.538-  71 2.13  75 2.31  70 2.37  50 2.81  55 2.83  54 2.87  22 3.05  23 3.12
                            18 3.21   7 3.30   2 3.32   5 3.33
   7  0.332  0.657  0.546-  71 2.21  76 2.29  72 2.52  51 2.56  55 2.61  56 2.70  23 3.07   2 3.19
                             6 3.30  24 3.37  19 3.41  11 3.42
   8  0.336  0.912  0.545-  73 2.30  69 2.32  56 2.45  72 2.54  52 2.59  53 2.66  21 3.14  24 3.24
                            12 3.34  20 3.38
   9  0.595  0.169  0.543-  78 2.16  73 2.25  74 2.48  53 2.67  57 2.69  58 2.75  25 2.98  21 3.15
                            26 3.21  14 3.34  10 3.39
  10  0.598  0.417  0.546-  74 2.24  79 2.27  75 2.57  58 2.58  54 2.70  59 2.84  26 3.03  27 3.12
                            14 3.28  22 3.37   9 3.39  15 3.40
  11  0.586  0.671  0.549-  80 2.26  75 2.32  76 2.47  60 2.50  59 2.54  55 2.58  28 3.17  27 3.22
                            16 3.30  23 3.34  12 3.39  15 3.41   7 3.42
  12  0.577  0.912  0.549-  77 2.27  76 2.34  73 2.48  56 2.51  57 2.61  60 2.65  28 3.17   8 3.34
                            25 3.35  11 3.39  24 3.42  16 3.43
  13  0.842  0.165  0.541-  77 2.26  66 2.31  78 2.42  62 2.49  61 2.71  57 2.85  29 3.05  25 3.06
                            30 3.21   1 3.38  16 3.41
  14  0.834  0.414  0.538-  78 2.21  79 2.36  67 2.39  58 2.56  63 2.61  62 2.74  31 3.04  26 3.05
                            30 3.13  10 3.28   9 3.34
  15  0.834  0.671  0.552-  68 2.42  79 2.45  80 2.48  59 2.51  63 2.54  64 2.59  32 3.28  31 3.31
                            27 3.32   4 3.34  16 3.36  10 3.40  11 3.41
  16  0.825  0.910  0.550-  60 2.39  65 2.42  80 2.43  77 2.45  61 2.51  64 2.56  28 3.06  11 3.30
                            29 3.36  15 3.36  32 3.40  13 3.41  12 3.43
  17  0.184  0.090  0.459-  70 2.14  69 2.29  37 2.52  65 2.62  33 2.62  36 2.77   5 2.98   4 3.06
                             1 3.09  21 3.30  22 3.40
  18  0.152  0.325  0.453-  66 2.13  33 2.42  70 2.48  38 2.53  71 2.54  34 2.68  30 3.21   2 3.21
                             6 3.21   1 3.25  29 3.28
  19  0.160  0.579  0.448-  67 2.23  72 2.26  35 2.53  39 2.56  71 2.60  34 2.67   2 3.27  30 3.29
                            20 3.32   3 3.33  31 3.38  23 3.41   7 3.41
  20  0.157  0.819  0.450-  72 2.32  68 2.37  35 2.39  36 2.58  69 2.62  40 2.64   4 3.22   3 3.23
                            31 3.24  19 3.32   8 3.38  24 3.43
  21  0.420  0.082  0.459-  73 2.18  69 2.38  74 2.45  37 2.52  41 2.60  40 2.67   8 3.14   9 3.15
                             5 3.22  17 3.30  25 3.40
  22  0.420  0.345  0.452-  75 2.41  74 2.42  70 2.46  42 2.58  38 2.58  37 2.63   6 3.05   5 3.24
                            27 3.29  10 3.37  17 3.40  26 3.40
  23  0.414  0.595  0.455-  76 2.28  71 2.30  75 2.45  43 2.47  38 2.72  39 2.75   7 3.07   6 3.12
                            24 3.26  11 3.34  19 3.41
  24  0.410  0.829  0.450-  72 2.24  76 2.39  44 2.56  39 2.57  73 2.59  40 2.59   8 3.24  23 3.26
                             7 3.37  12 3.42  20 3.43
  25  0.673  0.095  0.458-  78 2.20  77 2.32  73 2.40  41 2.51  45 2.56  44 2.65   9 2.98  13 3.06
                            12 3.35  21 3.40  30 3.41
  26  0.665  0.342  0.456-  74 2.21  79 2.31  78 2.43  46 2.53  41 2.55  42 2.56  10 3.03  14 3.05
                             9 3.21  27 3.27  22 3.40
  27  0.663  0.578  0.458-  75 2.19  79 2.22  80 2.29  43 2.57  42 2.64  47 2.65  10 3.12  11 3.22
                            26 3.27  22 3.29  32 3.29  15 3.32
  28  0.673  0.840  0.461-  80 2.22  77 2.24  76 2.42  48 2.55  43 2.67  44 2.71  16 3.06  11 3.17
                            12 3.17  32 3.33  29 3.38
  29  0.919  0.083  0.455-  66 2.21  65 2.35  48 2.51  33 2.56  45 2.58  77 2.58  13 3.05   1 3.14
                            18 3.28  16 3.36  28 3.38
  30  0.925  0.337  0.452-  67 2.21  66 2.38  46 2.52  78 2.53  45 2.57  34 2.63  14 3.13  13 3.21
                            18 3.21  19 3.29   2 3.34  25 3.41
  31  0.919  0.588  0.458-  68 2.22  67 2.28  79 2.29  35 2.52  47 2.57  46 2.59  14 3.04   3 3.13
                            20 3.24  32 3.28  15 3.31  19 3.38
  32  0.901  0.816  0.452-  65 2.28  80 2.37  47 2.46  68 2.48  36 2.61  48 2.78   4 3.15  15 3.28
                            31 3.28  27 3.29  28 3.33  16 3.40
  33  0.091  0.166  0.400-  18 2.42  29 2.56  17 2.62
  34  0.080  0.412  0.385-  30 2.63  19 2.67  18 2.68
  35  0.072  0.664  0.396-  20 2.39  31 2.52  19 2.53
  36  0.075  0.912  0.396-  20 2.58  32 2.61  17 2.77
  37  0.342  0.163  0.399-  17 2.52  21 2.52  22 2.63
  38  0.317  0.413  0.396-  18 2.53  22 2.58  23 2.72
  39  0.320  0.670  0.388-  19 2.56  24 2.57  23 2.75
  40  0.331  0.921  0.393-  24 2.59  20 2.64  21 2.67
  41  0.589  0.172  0.400-  25 2.51  26 2.55  21 2.60
  42  0.586  0.419  0.393-  26 2.56  22 2.58  27 2.64
  43  0.579  0.664  0.402-  23 2.47  27 2.57  28 2.67
  44  0.586  0.925  0.398-  24 2.56  25 2.65  28 2.71
  45  0.832  0.165  0.397-  25 2.56  30 2.57  29 2.58
  46  0.833  0.418  0.400-  30 2.52  26 2.53  31 2.59
  47  0.831  0.658  0.396-  32 2.46  31 2.57  27 2.65
  48  0.821  0.927  0.395-  29 2.51  28 2.55  32 2.78
  49  0.166  0.085  0.601-   1 2.43   5 2.57   4 2.70
  50  0.150  0.320  0.600-   2 2.46   1 2.54   6 2.81
  51  0.168  0.584  0.605-   2 2.48   7 2.56   3 2.57
  52  0.164  0.840  0.601-   8 2.59   3 2.60   4 2.63
  53  0.422  0.086  0.604-   8 2.66   9 2.67   5 2.72
  54  0.425  0.335  0.608-   5 2.59  10 2.70   6 2.87
  55  0.423  0.587  0.609-  11 2.58   7 2.61   6 2.83
  56  0.411  0.837  0.604-   8 2.45  12 2.51   7 2.70
  57  0.667  0.078  0.610-  12 2.61   9 2.69  13 2.85
  58  0.691  0.346  0.607-  14 2.56  10 2.58   9 2.75
  59  0.673  0.600  0.610-  15 2.51  11 2.54  10 2.84
  60  0.675  0.831  0.606-  16 2.39  11 2.50  12 2.65
  61  0.912  0.071  0.608-  16 2.51  13 2.71   1 2.71
  62  0.912  0.318  0.602-  13 2.49   2 2.72  14 2.74
  63  0.909  0.571  0.603-  15 2.54  14 2.61   3 2.63
  64  0.927  0.847  0.607-  16 2.56  15 2.59   4 2.60
  65  0.983  0.978  0.496-   4 2.20  32 2.28  29 2.35  16 2.42   1 2.49  17 2.62
  66  0.004  0.244  0.495-  18 2.13  29 2.21  13 2.31  30 2.38   1 2.41   2 2.63
  67  0.002  0.497  0.491-  30 2.21  19 2.23  31 2.28  14 2.39   2 2.50   3 2.51
  68  0.999  0.743  0.502-  31 2.22   4 2.27   3 2.29  20 2.37  15 2.42  32 2.48
  69  0.251  0.998  0.505-  17 2.29   8 2.32   4 2.32  21 2.38   5 2.43  20 2.62
  70  0.246  0.242  0.499-  17 2.14   5 2.22   1 2.32   6 2.37  22 2.46  18 2.48
  71  0.258  0.502  0.503-   6 2.13   7 2.21   2 2.25  23 2.30  18 2.54  19 2.60
  72  0.248  0.740  0.491-  24 2.24  19 2.26  20 2.32   3 2.50   7 2.52   8 2.54
  73  0.499  0.009  0.502-  21 2.18   9 2.25   8 2.30  25 2.40  12 2.48  24 2.59
  74  0.511  0.265  0.499-  26 2.21  10 2.24  22 2.42   5 2.44  21 2.45   9 2.48
  75  0.508  0.513  0.500-  27 2.19   6 2.31  11 2.32  22 2.41  23 2.45  10 2.57
  76  0.493  0.751  0.501-  23 2.28   7 2.29  12 2.34  24 2.39  28 2.42  11 2.47
  77  0.736  0.997  0.505-  28 2.24  13 2.26  12 2.27  25 2.32  16 2.45  29 2.58
  78  0.747  0.250  0.501-   9 2.16  25 2.20  14 2.21  13 2.42  26 2.43  30 2.53
  79  0.753  0.508  0.499-  27 2.22  10 2.27  31 2.29  26 2.31  14 2.36  15 2.45
  80  0.738  0.743  0.500-  28 2.22  11 2.26  27 2.29  32 2.37  16 2.43  15 2.48
 
  LATTYP: Found a hexagonal cell.
 ALAT       =    13.7939866762
 C/A-ratio  =     2.0161119278
  
  Lattice vectors:
  
 A1 = (  13.7939866800,   0.0000000000,   0.0000000000)
 A2 = (  -6.8969933400,  11.9459428800,   0.0000000000)
 A3 = (   0.0000000000,   0.0000000000,  27.8102210700)


Analysis of symmetry for initial positions (statically):
=====================================================================
 Subroutine PRICEL returns:
 Original cell was already a primitive cell.
 

 Routine SETGRP: Setting up the symmetry group for a 
 hexagonal supercell.


 Subroutine GETGRP returns: Found  1 space group operations
 (whereof  1 operations were pure point group operations)
 out of a pool of 24 trial point group operations.


The static configuration has the point symmetry C_1 .


Analysis of symmetry for dynamics (positions and initial velocities):
=====================================================================
 Subroutine PRICEL returns:
 Original cell was already a primitive cell.
 

 Routine SETGRP: Setting up the symmetry group for a 
 hexagonal supercell.


 Subroutine GETGRP returns: Found  1 space group operations
 (whereof  1 operations were pure point group operations)
 out of a pool of 24 trial point group operations.


The dynamic configuration has the point symmetry C_1 .


 Subroutine INISYM returns: Found  1 space group operations
 (whereof  1 operations are pure point group operations),
 and found     1 'primitive' translations

 
 

Automatic generation of k-mesh.
 generate k-points for:    3    3    1
Space group operators:
 irot       det(A)        alpha          n_x          n_y          n_z        tau_x        tau_y        tau_z
    1     1.000000     0.000000     1.000000     0.000000     0.000000     0.000000     0.000000     0.000000
 
 Subroutine IBZKPT returns following result:
 ===========================================
 
 Found      5 irreducible k-points:
 
 Following reciprocal coordinates:
            Coordinates               Weight
  0.000000  0.000000  0.000000      1.000000
  0.333333 -0.000000  0.000000      2.000000
  0.000000  0.333333  0.000000      2.000000
  0.333333  0.333333  0.000000      2.000000
 -0.333333  0.333333  0.000000      2.000000
 
 Following cartesian coordinates:
            Coordinates               Weight
  0.000000  0.000000  0.000000      1.000000
  0.024165  0.013952  0.000000      2.000000
  0.000000  0.027903  0.000000      2.000000
  0.024165  0.041855  0.000000      2.000000
 -0.024165  0.013952  0.000000      2.000000
 


--------------------------------------------------------------------------------------------------------




 Dimension of arrays:
   k-points           NKPTS =      5   k-points in BZ     NKDIM =      5   number of bands    NBANDS=    384
   number of dos      NEDOS =    301   number of ions     NIONS =     80
   non local maximal  LDIM  =      6   non local SUM 2l+1 LMDIM =     18
   total plane-waves  NPLWV = ******
   max r-space proj   IRMAX =   9806   max aug-charges    IRDMAX= 216835
   dimension x,y,z NGX =   112 NGY =  112 NGZ =  224
   dimension x,y,z NGXF=   224 NGYF=  224 NGZF=  448
   support grid    NGXF=   448 NGYF=  448 NGZF=  896
   ions per type =              32  32  16
   NGX,Y,Z   is equivalent  to a cutoff of  13.50, 13.50, 13.39 a.u.
   NGXF,Y,Z  is equivalent  to a cutoff of  27.00, 27.00, 26.78 a.u.

 SYSTEM =  unknown system                          
 POSCAR =  Sc Cl  C                                

 Startparameter for this run:
   NWRITE =      2    write-flag & timer
   PREC   = anorma    normal or accurate (medium, high low for compatibility)
   ISTART =      0    job   : 0-new  1-cont  2-samecut
   ICHARG =      2    charge: 1-file 2-atom 10-const
   ISPIN  =      1    spin polarized calculation?
   LNONCOLLINEAR =      F non collinear calculations
   LSORBIT =      F    spin-orbit coupling
   INIWAV =      1    electr: 0-lowe 1-rand  2-diag
   LASPH  =      F    aspherical Exc in radial PAW
   METAGGA=      F    non-selfconsistent MetaGGA calc.

 Electronic Relaxation 1
   ENCUT  =  600.0 eV  44.10 Ry    6.64 a.u.  27.55 27.55 55.54*2*pi/ulx,y,z
   ENINI  =  600.0     initial cutoff
   ENAUG  =  644.9 eV  augmentation charge cutoff
   NELM   =     60;   NELMIN=  2; NELMDL= -5     # of ELM steps 
   EDIFF  = 0.1E-05   stopping-criterion for ELM
   LREAL  =      T    real-space projection
   NLSPLINE    = F    spline interpolate recip. space projectors
   LCOMPAT=      F    compatible to vasp.4.4
   GGA_COMPAT  = T    GGA compatible to vasp.4.4-vasp.4.6
   LMAXPAW     = -100 max onsite density
   LMAXMIX     =    2 max onsite mixed and CHGCAR
   VOSKOWN=      0    Vosko Wilk Nusair interpolation
   ROPT   =   -0.00025  -0.00025  -0.00025
 Ionic relaxation
   EDIFFG = -.1E-01   stopping-criterion for IOM
   NSW    =      1    number of steps for IOM
   NBLOCK =      1;   KBLOCK =      1    inner block; outer block 
   IBRION =     -1    ionic relax: 0-MD 1-quasi-New 2-CG
   NFREE  =      0    steps in history (QN), initial steepest desc. (CG)
   ISIF   =      2    stress and relaxation
   IWAVPR =     10    prediction:  0-non 1-charg 2-wave 3-comb
   ISYM   =      2    0-nonsym 1-usesym 2-fastsym
   LCORR  =      T    Harris-Foulkes like correction to forces

   POTIM  = 1.0000    time-step for ionic-motion
   TEIN   =    0.0    initial temperature
   TEBEG  =    0.0;   TEEND  =   0.0 temperature during run
   SMASS  =  -3.00    Nose mass-parameter (am)
   estimated Nose-frequenzy (Omega)   =  0.10E-29 period in steps =****** mass=  -0.435E-26a.u.
   SCALEE = 1.0000    scale energy and forces
   NPACO  =    256;   APACO  = 16.0  distance and # of slots for P.C.
   PSTRESS=    0.0 pullay stress

  Mass of Ions in am
   POMASS =  44.96 35.45 12.01
  Ionic Valenz
   ZVAL   =  11.00  7.00  4.00
  Atomic Wigner-Seitz radii
   RWIGS  =  -1.00 -1.00 -1.00
  virtual crystal weights 
   VCA    =   1.00  1.00  1.00
   NELECT =     640.0000    total number of electrons
   NUPDOWN=      -1.0000    fix difference up-down

 DOS related values:
   EMIN   =  10.00;   EMAX   =-10.00  energy-range for DOS
   EFERMI =   0.00
   ISMEAR =     0;   SIGMA  =   0.05  broadening in eV -4-tet -1-fermi 0-gaus

 Electronic relaxation 2 (details)
   IALGO  =     38    algorithm
   LDIAG  =      T    sub-space diagonalisation (order eigenvalues)
   LSUBROT=      F    optimize rotation matrix (better conditioning)
   TURBO    =      0    0=normal 1=particle mesh
   IRESTART =      0    0=no restart 2=restart with 2 vectors
   NREBOOT  =      0    no. of reboots
   NMIN     =      0    reboot dimension
   EREF     =   0.00    reference energy to select bands
   IMIX   =      4    mixing-type and parameters
     AMIX     =   0.40;   BMIX     =  1.00
     AMIX_MAG =   1.60;   BMIX_MAG =  1.00
     AMIN     =   0.10
     WC   =   100.;   INIMIX=   1;  MIXPRE=   1;  MAXMIX= -45

 Intra band minimization:
   WEIMIN = 0.0000     energy-eigenvalue tresh-hold
   EBREAK =  0.65E-09  absolut break condition
   DEPER  =   0.30     relativ break condition  

   TIME   =   0.40     timestep for ELM

  volume/ion in A,a.u.               =      57.28       386.56
  Fermi-wavevector in a.u.,A,eV,Ry     =   0.849369  1.605075  9.815628  0.721428
  Thomas-Fermi vector in A             =   1.965179
 
 Write flags
   LWAVE        =      F    write WAVECAR
   LDOWNSAMPLE  =      F    k-point downsampling of WAVECAR
   LCHARG       =      F    write CHGCAR
   LVTOT        =      F    write LOCPOT, total local potential
   LVHAR        =      F    write LOCPOT, Hartree potential only
   LELF         =      F    write electronic localiz. function (ELF)
   LORBIT       =      0    0 simple, 1 ext, 2 COOP (PROOUT), +10 PAW based schemes


 Dipole corrections
   LMONO  =      F    monopole corrections only (constant potential shift)
   LDIPOL =      F    correct potential (dipole corrections)
   IDIPOL =      0    1-x, 2-y, 3-z, 4-all directions 
   EPSILON=  1.0000000 bulk dielectric constant

 Exchange correlation treatment:
   GGA     =    --    GGA type
   LEXCH   =     8    internal setting for exchange type
   VOSKOWN=      0    Vosko Wilk Nusair interpolation
   LHFCALC =     F    Hartree Fock is set to
   LHFONE  =     F    Hartree Fock one center treatment
   AEXX    =    0.0000 exact exchange contribution

 Linear response parameters
   LEPSILON=     F    determine dielectric tensor
   LRPA    =     F    only Hartree local field effects (RPA)
   LNABLA  =     F    use nabla operator in PAW spheres
   LVEL    =     F    velocity operator in full k-point grid
   LINTERFAST=   F  fast interpolation
   KINTER  =     0    interpolate to denser k-point grid
   CSHIFT  =0.1000    complex shift for real part using Kramers Kronig
   OMEGAMAX=  -1.0    maximum frequency
   DEG_THRESHOLD= 0.2000000E-02 threshold for treating states as degnerate
   RTIME   =   -0.100 relaxation time in fs
  (WPLASMAI=    0.000 imaginary part of plasma frequency in eV, 0.658/RTIME)
   DFIELD  = 0.0000000 0.0000000 0.0000000 field for delta impulse in time
 
 Orbital magnetization related:
   ORBITALMAG=     F  switch on orbital magnetization
   LCHIMAG   =     F  perturbation theory with respect to B field
   DQ        =  0.001000  dq finite difference perturbation B field
   LLRAUG    =     F  two centre corrections for induced B field



--------------------------------------------------------------------------------------------------------


 Static calculation
 charge density and potential will be updated during run
 non-spin polarized calculation
 Variant of blocked Davidson
 Davidson routine will perform the subspace rotation
 perform sub-space diagonalisation
    after iterative eigenvector-optimisation
 modified Broyden-mixing scheme, WC =      100.0
 initial mixing is a Kerker type mixing with AMIX =  0.4000 and BMIX =      1.0000
 Hartree-type preconditioning will be used
 using additional bands           64
 real space projection scheme for non local part
 use partial core corrections
 calculate Harris-corrections to forces 
   (improved forces if not selfconsistent)
 use gradient corrections 
 use of overlap-Matrix (Vanderbilt PP)
 Gauss-broadening in eV      SIGMA  =   0.05


--------------------------------------------------------------------------------------------------------


  energy-cutoff  :      600.00
  volume of cell :     4582.63
      direct lattice vectors                 reciprocal lattice vectors
    13.793986680  0.000000000  0.000000000     0.072495358  0.041855214  0.000000000
    -6.896993340 11.945942880  0.000000000     0.000000000  0.083710429  0.000000000
     0.000000000  0.000000000 27.810221070     0.000000000  0.000000000  0.035958003

  length of vectors
    13.793986680 13.793986676 27.810221070     0.083710429  0.083710429  0.035958003


 
 k-points in units of 2pi/SCALE and weight: read from INCAR                         
   0.00000000  0.00000000  0.00000000       0.111
   0.02416512  0.01395174  0.00000000       0.222
   0.00000000  0.02790348  0.00000000       0.222
   0.02416512  0.04185521  0.00000000       0.222
  -0.02416512  0.01395174  0.00000000       0.222
 
 k-points in reciprocal lattice and weights: read from INCAR                         
   0.00000000  0.00000000  0.00000000       0.111
   0.33333333 -0.00000000  0.00000000       0.222
   0.00000000  0.33333333  0.00000000       0.222
   0.33333333  0.33333333  0.00000000       0.222
  -0.33333333  0.33333333  0.00000000       0.222
 
 position of ions in fractional coordinates (direct lattice) 
   0.08190817  0.15480239  0.54316696
   0.09891275  0.42812044  0.54604221
   0.08310305  0.66439404  0.54603117
   0.07369784  0.91277174  0.53789585
   0.33514484  0.17887634  0.54408501
   0.33468539  0.41936427  0.53752108
   0.33245528  0.65697632  0.54597205
   0.33554321  0.91227193  0.54475092
   0.59515314  0.16946365  0.54342578
   0.59789085  0.41653329  0.54591826
   0.58649595  0.67053788  0.54885523
   0.57718176  0.91181496  0.54949609
   0.84206961  0.16515818  0.54069206
   0.83373927  0.41424761  0.53788292
   0.83380959  0.67133277  0.55228215
   0.82493096  0.91041436  0.54972360
   0.18440525  0.08978178  0.45891028
   0.15196724  0.32540558  0.45267088
   0.15960742  0.57943822  0.44829941
   0.15660031  0.81863741  0.45044081
   0.42001952  0.08212305  0.45881534
   0.42016057  0.34491349  0.45201301
   0.41358844  0.59456163  0.45453804
   0.40969582  0.82850083  0.44988008
   0.67294525  0.09533309  0.45839416
   0.66528137  0.34239667  0.45557608
   0.66284637  0.57823980  0.45840224
   0.67325838  0.84006488  0.46125516
   0.91855710  0.08343188  0.45470249
   0.92497490  0.33676876  0.45189870
   0.91939424  0.58782621  0.45804973
   0.90140859  0.81607277  0.45218633
   0.09073869  0.16627112  0.39966866
   0.07986177  0.41161094  0.38473157
   0.07193944  0.66446731  0.39559587
   0.07536356  0.91178748  0.39564765
   0.34216822  0.16312512  0.39893662
   0.31728773  0.41280457  0.39578801
   0.32047271  0.67036027  0.38751193
   0.33068048  0.92057645  0.39264084
   0.58944464  0.17222357  0.40014548
   0.58570010  0.41907033  0.39263475
   0.57918156  0.66426142  0.40179736
   0.58629887  0.92471775  0.39769150
   0.83197002  0.16485682  0.39668488
   0.83337598  0.41806349  0.40017367
   0.83068488  0.65789484  0.39597653
   0.82117813  0.92687012  0.39545405
   0.16551750  0.08503089  0.60058424
   0.15029199  0.32019976  0.60004085
   0.16844574  0.58351645  0.60480050
   0.16407954  0.83978454  0.60108372
   0.42219731  0.08633967  0.60445839
   0.42512774  0.33481208  0.60828591
   0.42297140  0.58724143  0.60947544
   0.41122098  0.83744761  0.60443298
   0.66653473  0.07785628  0.61016164
   0.69097098  0.34638505  0.60662707
   0.67287206  0.60029937  0.61034885
   0.67464480  0.83142677  0.60619479
   0.91197791  0.07144567  0.60776851
   0.91212986  0.31766051  0.60158669
   0.90854793  0.57091606  0.60343073
   0.92724537  0.84660510  0.60682048
   0.98334161  0.97787036  0.49592533
   0.00357214  0.24351068  0.49480461
   0.00239155  0.49690031  0.49137921
   0.99912423  0.74251880  0.50209400
   0.25131807  0.99782951  0.50458013
   0.24626530  0.24234396  0.49880065
   0.25820282  0.50172840  0.50298418
   0.24832979  0.74046591  0.49072352
   0.49924848  0.00891461  0.50158773
   0.51051189  0.26475031  0.49887710
   0.50751292  0.51285398  0.50007758
   0.49292124  0.75148648  0.50124577
   0.73603299  0.99746887  0.50453413
   0.74661892  0.25036960  0.50106569
   0.75251642  0.50802210  0.49870732
   0.73758743  0.74331063  0.50018102
 
 position of ions in cartesian coordinates  (Angst):
   0.06216917  1.84926056 15.10559325
  -1.58834265  5.11430235 15.18555456
  -3.43599895  7.93681326 15.18524768
  -5.27879361 10.90391912 14.95900239
   3.38927455  2.13684653 15.13112439
   1.72429323  5.00970162 14.94858007
   0.05472246  7.84820155 15.18360353
  -1.66345489 10.89794839 15.14964347
   7.04074478  2.02440310 15.11279095
   5.37447106  4.97588286 15.18210754
   3.46542203  8.01020721 15.26378535
   1.67285574 10.89248942 15.28160786
  10.47640211  1.97297022 15.03676576
   8.64352537  4.94857827 14.95864300
   6.87138082  8.01970288 15.35908864
   5.09996488 10.87575792 15.28793481
   1.92445927  1.07252798 12.76239621
  -0.14808599  3.88727646 12.58887738
  -1.79475892  6.92193583 12.46730568
  -3.48599418  9.77939572 12.52685838
   5.22734148  0.98103725 12.75975615
   3.41682323  4.12031686 12.57058165
   1.60434583  7.10259924 12.64080347
  -0.06282598  9.89722354 12.51126439
   8.62508611  1.13884367 12.74804280
   6.81537477  4.09025112 12.66967156
   5.15517798  6.90761958 12.74826760
   3.49299519 10.03536711 12.82760786
  12.09513522  0.99667251 12.64537684
  10.43639951  4.02302042 12.56740272
   8.62787836  7.02213836 12.73846417
   6.80556959  9.74875874 12.57540187
   0.10487740  1.98626534 11.11487388
  -1.73726569  4.91708080 10.69947014
  -3.59049492  7.93768859 11.00160866
  -5.24902829 10.89216115 11.00304868
   3.59479107  1.94868335 11.09451569
   1.52955237  4.93133979 11.00695209
  -0.20287408  8.00808548 10.77679232
  -1.78780747 10.99715371 10.91942847
   6.94296672  2.05737290 11.12813427
   5.18881407  5.00619019 10.91925909
   3.40781613  7.93522903 11.17407335
   1.70962666 11.04662547 11.05988866
  10.33916697  1.96937011 11.03189418
   8.61219606  4.99416263 11.12891815
   6.92095986  7.85917417 11.01219478
   4.93470311 11.07233746 10.99766442
   1.69668872  1.01577414 16.70238058
  -0.13528993  3.82508810 16.68726860
  -1.70097078  6.97065415 16.81963571
  -3.52867735 10.03201814 16.71627124
   5.22830001  1.03140872 16.81012142
   3.55500969  3.99964601 16.91656554
   1.78426165  7.01515260 16.94964659
  -0.10349381 10.00410127 16.80941480
   8.65719696  0.93006668 16.96873012
   7.14222911  4.13789600 16.87043295
   5.14132751  7.17114204 16.97393654
   3.57169643  9.93217675 16.85841122
  12.08705080  0.85348585 16.90217663
  10.39100470  3.79475428 16.73025873
   8.59489379  6.82013062 16.78154208
   6.95138056 10.11349617 16.87581163
   6.81983570 11.68158341 13.79179319
  -1.63021741  2.90896466 13.76062560
  -3.39412918  5.93594277 13.66536447
   8.66075906  8.87008722 13.96334514
  -3.41534535 11.92001431 14.03248489
   1.72553558  2.89502716 13.87175638
   0.10122883  5.99361875 13.98810119
  -1.68153063  8.84556349 13.64712951
   6.82514284  0.10649343 13.94926558
   5.21601307  3.16269212 13.87388240
   3.46347603  6.12652436 13.90726801
   1.61635169  8.97721459 13.93975576
   3.27329306 11.91570619 14.03120572
   8.57205400  2.99090091 13.93474764
   6.87637637  6.06880301 13.86916093
   5.04766268  8.87954630 13.91014464
 


--------------------------------------------------------------------------------------------------------


 k-point  1 :   0.0000 0.0000 0.0000  plane waves:  153003
 k-point  2 :   0.3333-0.0000 0.0000  plane waves:  152954
 k-point  3 :   0.0000 0.3333 0.0000  plane waves:  152954
 k-point  4 :   0.3333 0.3333 0.0000  plane waves:  152898
 k-point  5 :  -0.3333 0.3333 0.0000  plane waves:  152954

 maximum and minimum number of plane-waves per node :     11814    11730

 maximum number of plane-waves:    153003
 maximum index in each direction: 
   IXMAX=   27   IYMAX=   27   IZMAX=   55
   IXMIN=  -27   IYMIN=  -27   IZMIN=  -55


 real space projection operators:
  total allocation   :      55021.58 KBytes
  max/ min on nodes  :       4440.09       3918.41


 parallel 3D FFT for wavefunctions:
    minimum data exchange during FFTs selected (reduces bandwidth)
 parallel 3D FFT for charge:
    minimum data exchange during FFTs selected (reduces bandwidth)


 total amount of memory used by VASP MPI-rank0   253908. kBytes
=======================================================================

   base      :      30000. kBytes
   nonlr-proj:      18724. kBytes
   fftplans  :      72602. kBytes
   grid      :      41267. kBytes
   one-center:        108. kBytes
   wavefun   :      91207. kBytes
 
     INWAV:  cpu time    0.0000: real time    0.0000
 Broyden mixing: mesh for mixing (old mesh)
   NGX = 55   NGY = 55   NGZ =111
  (NGX  =224   NGY  =224   NGZ  =448)
  gives a total of 335775 points

 initial charge density was supplied:
 charge density of overlapping atoms calculated
 number of electron     640.0000000 magnetization 
 keeping initial charge density in first step


--------------------------------------------------------------------------------------------------------


 Maximum index for non-local projection operator          945
 Maximum index for augmentation-charges         5097 (set IRDMAX)


--------------------------------------------------------------------------------------------------------


 First call to EWALD:  gamma=   0.107
 Maximum number of real-space cells 4x 4x 2
 Maximum number of reciprocal cells 2x 2x 4

    FEWALD:  cpu time    0.0029: real time    0.0029


--------------------------------------- Iteration      1(   1)  ---------------------------------------


    POTLOK:  cpu time    0.4089: real time    0.4155
    SETDIJ:  cpu time    0.4252: real time    0.4253
     EDDAV:  cpu time   50.2927: real time   50.2968
       DOS:  cpu time    0.0014: real time    0.0014
    --------------------------------------------
      LOOP:  cpu time   51.1281: real time   51.1389

 eigenvalue-minimisations  :  4432
 total energy-change (2. order) : 0.1222831E+05  (-0.2678982E+05)
 number of electron     640.0000000 magnetization 
 augmentation part      640.0000000 magnetization 

 Free energy of the ion-electron system (eV)
  ---------------------------------------------------
  alpha Z        PSCENC =       784.57699423
  Ewald energy   TEWEN  =    252626.20596129
  -Hartree energ DENC   =   -300273.79684942
  -exchange      EXHF   =         0.00000000
  -V(xc)+E(xc)   XCENC  =      2503.53447573
  PAW double counting   =     43679.68029659   -43417.33247688
  entropy T*S    EENTRO =        -0.06303772
  eigenvalues    EBANDS =       114.78187625
  atomic energy  EATOM  =     56210.72393729
  Solvation  Ediel_sol  =         0.00000000
  ---------------------------------------------------
  free energy    TOTEN  =     12228.31117736 eV

  energy without entropy =    12228.37421508  energy(sigma->0) =    12228.34269622


--------------------------------------------------------------------------------------------------------




--------------------------------------- Iteration      1(   2)  ---------------------------------------


     EDDAV:  cpu time   57.3787: real time   57.3923
       DOS:  cpu time    0.0013: real time    0.0013
    --------------------------------------------
      LOOP:  cpu time   57.3800: real time   57.3936

 eigenvalue-minimisations  :  5248
 total energy-change (2. order) :-0.1049407E+05  (-0.1022866E+05)
 number of electron     640.0000000 magnetization 
 augmentation part      640.0000000 magnetization 

 Free energy of the ion-electron system (eV)
  ---------------------------------------------------
  alpha Z        PSCENC =       784.57699423
  Ewald energy   TEWEN  =    252626.20596129
  -Hartree energ DENC   =   -300273.79684942
  -exchange      EXHF   =         0.00000000
  -V(xc)+E(xc)   XCENC  =      2503.53447573
  PAW double counting   =     43679.68029659   -43417.33247688
  entropy T*S    EENTRO =        -0.04489047
  eigenvalues    EBANDS =    -10379.30645696
  atomic energy  EATOM  =     56210.72393729
  Solvation  Ediel_sol  =         0.00000000
  ---------------------------------------------------
  free energy    TOTEN  =      1734.24099140 eV

  energy without entropy =     1734.28588187  energy(sigma->0) =     1734.26343664


--------------------------------------------------------------------------------------------------------




--------------------------------------- Iteration      1(   3)  ---------------------------------------


     EDDAV:  cpu time   71.1181: real time   71.1287
       DOS:  cpu time    0.0008: real time    0.0008
    --------------------------------------------
      LOOP:  cpu time   71.1189: real time   71.1295

 eigenvalue-minimisations  :  6800
 total energy-change (2. order) :-0.2141179E+04  (-0.2054757E+04)
 number of electron     640.0000000 magnetization 
 augmentation part      640.0000000 magnetization 

 Free energy of the ion-electron system (eV)
  ---------------------------------------------------
  alpha Z        PSCENC =       784.57699423
  Ewald energy   TEWEN  =    252626.20596129
  -Hartree energ DENC   =   -300273.79684942
  -exchange      EXHF   =         0.00000000
  -V(xc)+E(xc)   XCENC  =      2503.53447573
  PAW double counting   =     43679.68029659   -43417.33247688
  entropy T*S    EENTRO =        -0.00000009
  eigenvalues    EBANDS =    -12520.53036451
  atomic energy  EATOM  =     56210.72393729
  Solvation  Ediel_sol  =         0.00000000
  ---------------------------------------------------
  free energy    TOTEN  =      -406.93802577 eV

  energy without entropy =     -406.93802568  energy(sigma->0) =     -406.93802573


--------------------------------------------------------------------------------------------------------




--------------------------------------- Iteration      1(   4)  ---------------------------------------


     EDDAV:  cpu time   64.8640: real time   64.8724
       DOS:  cpu time    0.0005: real time    0.0005
    --------------------------------------------
      LOOP:  cpu time   64.8644: real time   64.8729

 eigenvalue-minimisations  :  6088
 total energy-change (2. order) :-0.2355895E+03  (-0.2312653E+03)
 number of electron     640.0000000 magnetization 
 augmentation part      640.0000000 magnetization 

 Free energy of the ion-electron system (eV)
  ---------------------------------------------------
  alpha Z        PSCENC =       784.57699423
  Ewald energy   TEWEN  =    252626.20596129
  -Hartree energ DENC   =   -300273.79684942
  -exchange      EXHF   =         0.00000000
  -V(xc)+E(xc)   XCENC  =      2503.53447573
  PAW double counting   =     43679.68029659   -43417.33247688
  entropy T*S    EENTRO =        -0.00000000
  eigenvalues    EBANDS =    -12756.11988860
  atomic energy  EATOM  =     56210.72393729
  Solvation  Ediel_sol  =         0.00000000
  ---------------------------------------------------
  free energy    TOTEN  =      -642.52754977 eV

  energy without entropy =     -642.52754977  energy(sigma->0) =     -642.52754977


--------------------------------------------------------------------------------------------------------




--------------------------------------- Iteration      1(   5)  ---------------------------------------


     EDDAV:  cpu time   64.7816: real time   64.7908
       DOS:  cpu time    0.0006: real time    0.0006
    CHARGE:  cpu time    3.8786: real time    3.8786
    MIXING:  cpu time    0.0202: real time    0.0203
    --------------------------------------------
      LOOP:  cpu time   68.6810: real time   68.6903

 eigenvalue-minimisations  :  6080
 total energy-change (2. order) :-0.1038353E+02  (-0.1032809E+02)
 number of electron     640.0000004 magnetization 
 augmentation part       59.2824930 magnetization 

 Broyden mixing:
  rms(total) = 0.70019E+01    rms(broyden)= 0.70017E+01
  rms(prec ) = 0.73649E+01
  weight for this iteration     100.00

 Free energy of the ion-electron system (eV)
  ---------------------------------------------------
  alpha Z        PSCENC =       784.57699423
  Ewald energy   TEWEN  =    252626.20596129
  -Hartree energ DENC   =   -300273.79684942
  -exchange      EXHF   =         0.00000000
  -V(xc)+E(xc)   XCENC  =      2503.53447573
  PAW double counting   =     43679.68029659   -43417.33247688
  entropy T*S    EENTRO =        -0.00000000
  eigenvalues    EBANDS =    -12766.50341895
  atomic energy  EATOM  =     56210.72393729
  Solvation  Ediel_sol  =         0.00000000
  ---------------------------------------------------
  free energy    TOTEN  =      -652.91108013 eV

  energy without entropy =     -652.91108013  energy(sigma->0) =     -652.91108013


--------------------------------------------------------------------------------------------------------




--------------------------------------- Iteration      1(   6)  ---------------------------------------


    POTLOK:  cpu time    0.3843: real time    0.3931
    SETDIJ:  cpu time    0.4197: real time    0.4197
     EDDAV:  cpu time   62.7298: real time   62.7324
       DOS:  cpu time    0.0008: real time    0.0008
    CHARGE:  cpu time    3.8794: real time    3.8795
    MIXING:  cpu time    0.0207: real time    0.0207
    --------------------------------------------
      LOOP:  cpu time   67.4347: real time   67.4463

 eigenvalue-minimisations  :  5848
 total energy-change (2. order) : 0.1314628E+03  (-0.6948241E+02)
 number of electron     640.0000004 magnetization 
 augmentation part       70.1514085 magnetization 

 Broyden mixing:
  rms(total) = 0.30880E+01    rms(broyden)= 0.30878E+01
  rms(prec ) = 0.31206E+01
  weight for this iteration     100.00

 eigenvalues of (default mixing * dielectric matrix)
  average eigenvalue GAMMA=   0.9527
  0.9527

 Free energy of the ion-electron system (eV)
  ---------------------------------------------------
  alpha Z        PSCENC =       784.57699423
  Ewald energy   TEWEN  =    252626.20596129
  -Hartree energ DENC   =   -300094.30015084
  -exchange      EXHF   =         0.00000000
  -V(xc)+E(xc)   XCENC  =      2493.26432836
  PAW double counting   =     49337.02217267   -49129.32050082
  entropy T*S    EENTRO =        -0.00000003
  eigenvalues    EBANDS =    -12749.62103543
  atomic energy  EATOM  =     56210.72393729
  Solvation  Ediel_sol  =         0.00000000
  ---------------------------------------------------
  free energy    TOTEN  =      -521.44829327 eV

  energy without entropy =     -521.44829324  energy(sigma->0) =     -521.44829326


--------------------------------------------------------------------------------------------------------




--------------------------------------- Iteration      1(   7)  ---------------------------------------


    POTLOK:  cpu time    0.3846: real time    0.3933
    SETDIJ:  cpu time    0.4196: real time    0.4196
     EDDAV:  cpu time   63.0862: real time   63.0868
       DOS:  cpu time    0.0005: real time    0.0005
    CHARGE:  cpu time    3.8896: real time    3.8897
    MIXING:  cpu time    0.0206: real time    0.0206
    --------------------------------------------
      LOOP:  cpu time   67.8011: real time   67.8105

 eigenvalue-minimisations  :  5888
 total energy-change (2. order) :-0.5425237E+01  (-0.9339401E+01)
 number of electron     640.0000004 magnetization 
 augmentation part       69.5791730 magnetization 

 Broyden mixing:
  rms(total) = 0.15580E+01    rms(broyden)= 0.15580E+01
  rms(prec ) = 0.15954E+01
  weight for this iteration     100.00

 eigenvalues of (default mixing * dielectric matrix)
  average eigenvalue GAMMA=   0.9891
  0.9891  0.9891

 Free energy of the ion-electron system (eV)
  ---------------------------------------------------
  alpha Z        PSCENC =       784.57699423
  Ewald energy   TEWEN  =    252626.20596129
  -Hartree energ DENC   =   -300199.42059294
  -exchange      EXHF   =         0.00000000
  -V(xc)+E(xc)   XCENC  =      2489.37369529
  PAW double counting   =     54486.45042683   -54292.84240206
  entropy T*S    EENTRO =        -0.00000000
  eigenvalues    EBANDS =    -12631.94154980
  atomic energy  EATOM  =     56210.72393729
  Solvation  Ediel_sol  =         0.00000000
  ---------------------------------------------------
  free energy    TOTEN  =      -526.87352987 eV

  energy without entropy =     -526.87352987  energy(sigma->0) =     -526.87352987


--------------------------------------------------------------------------------------------------------




--------------------------------------- Iteration      1(   8)  ---------------------------------------


    POTLOK:  cpu time    0.3856: real time    0.3938
    SETDIJ:  cpu time    0.4190: real time    0.4190
     EDDAV:  cpu time   63.9720: real time   63.9782
       DOS:  cpu time    0.0006: real time    0.0006
    CHARGE:  cpu time    3.8788: real time    3.8789
    MIXING:  cpu time    0.0216: real time    0.0216
    --------------------------------------------
      LOOP:  cpu time   68.6777: real time   68.6921

 eigenvalue-minimisations  :  5992
 total energy-change (2. order) : 0.2388740E+01  (-0.1038324E+01)
 number of electron     640.0000004 magnetization 
 augmentation part       69.2812079 magnetization 

 Broyden mixing:
  rms(total) = 0.96636E+00    rms(broyden)= 0.96636E+00
  rms(prec ) = 0.98242E+00
  weight for this iteration     100.00

 eigenvalues of (default mixing * dielectric matrix)
  average eigenvalue GAMMA=   1.4296
  2.5577  0.8655  0.8655

 Free energy of the ion-electron system (eV)
  ---------------------------------------------------
  alpha Z        PSCENC =       784.57699423
  Ewald energy   TEWEN  =    252626.20596129
  -Hartree energ DENC   =   -300270.53273887
  -exchange      EXHF   =         0.00000000
  -V(xc)+E(xc)   XCENC  =      2489.51184642
  PAW double counting   =     56369.34950935   -56186.06510460
  entropy T*S    EENTRO =        -0.00000000
  eigenvalues    EBANDS =    -12548.25519504
  atomic energy  EATOM  =     56210.72393729
  Solvation  Ediel_sol  =         0.00000000
  ---------------------------------------------------
  free energy    TOTEN  =      -524.48478992 eV

  energy without entropy =     -524.48478992  energy(sigma->0) =     -524.48478992


--------------------------------------------------------------------------------------------------------




--------------------------------------- Iteration      1(   9)  ---------------------------------------


    POTLOK:  cpu time    0.3850: real time    0.3938
    SETDIJ:  cpu time    0.4189: real time    0.4190
     EDDAV:  cpu time   58.0556: real time   58.0573
       DOS:  cpu time    0.0006: real time    0.0006
    CHARGE:  cpu time    3.8726: real time    3.8727
    MIXING:  cpu time    0.0216: real time    0.0216
    --------------------------------------------
      LOOP:  cpu time   62.7543: real time   62.7649

 eigenvalue-minimisations  :  5320
 total energy-change (2. order) : 0.5492823E+00  (-0.4218876E+00)
 number of electron     640.0000004 magnetization 
 augmentation part       70.0161985 magnetization 

 Broyden mixing:
  rms(total) = 0.31619E+00    rms(broyden)= 0.31618E+00
  rms(prec ) = 0.32982E+00
  weight for this iteration     100.00

 eigenvalues of (default mixing * dielectric matrix)
  average eigenvalue GAMMA=   1.2170
  2.1614  0.8569  0.8569  0.9925

 Free energy of the ion-electron system (eV)
  ---------------------------------------------------
  alpha Z        PSCENC =       784.57699423
  Ewald energy   TEWEN  =    252626.20596129
  -Hartree energ DENC   =   -300405.40947458
  -exchange      EXHF   =         0.00000000
  -V(xc)+E(xc)   XCENC  =      2489.09541947
  PAW double counting   =     60313.83686070   -60147.98852193
  entropy T*S    EENTRO =        -0.00000000
  eigenvalues    EBANDS =    -12394.97668411
  atomic energy  EATOM  =     56210.72393729
  Solvation  Ediel_sol  =         0.00000000
  ---------------------------------------------------
  free energy    TOTEN  =      -523.93550764 eV

  energy without entropy =     -523.93550764  energy(sigma->0) =     -523.93550764


--------------------------------------------------------------------------------------------------------




--------------------------------------- Iteration      1(  10)  ---------------------------------------


    POTLOK:  cpu time    0.3853: real time    0.3939
    SETDIJ:  cpu time    0.4199: real time    0.4199
     EDDAV:  cpu time   60.1142: real time   60.1164
       DOS:  cpu time    0.0006: real time    0.0006
    CHARGE:  cpu time    3.8706: real time    3.8707
    MIXING:  cpu time    0.0220: real time    0.0220
    --------------------------------------------
      LOOP:  cpu time   64.8126: real time   64.8235

 eigenvalue-minimisations  :  5552
 total energy-change (2. order) : 0.1472985E+00  (-0.6378342E-01)
 number of electron     640.0000004 magnetization 
 augmentation part       69.8119079 magnetization 

 Broyden mixing:
  rms(total) = 0.17685E+00    rms(broyden)= 0.17685E+00
  rms(prec ) = 0.18425E+00
  weight for this iteration     100.00

 eigenvalues of (default mixing * dielectric matrix)
  average eigenvalue GAMMA=   1.2036
  2.1539  1.3899  0.9082  0.9082  0.6577

 Free energy of the ion-electron system (eV)
  ---------------------------------------------------
  alpha Z        PSCENC =       784.57699423
  Ewald energy   TEWEN  =    252626.20596129
  -Hartree energ DENC   =   -300431.16972066
  -exchange      EXHF   =         0.00000000
  -V(xc)+E(xc)   XCENC  =      2489.68492058
  PAW double counting   =     59728.79464700   -59560.47115183
  entropy T*S    EENTRO =        -0.00000000
  eigenvalues    EBANDS =    -12372.13379709
  atomic energy  EATOM  =     56210.72393729
  Solvation  Ediel_sol  =         0.00000000
  ---------------------------------------------------
  free energy    TOTEN  =      -523.78820918 eV

  energy without entropy =     -523.78820918  energy(sigma->0) =     -523.78820918


--------------------------------------------------------------------------------------------------------




--------------------------------------- Iteration      1(  11)  ---------------------------------------


    POTLOK:  cpu time    0.3853: real time    0.3946
    SETDIJ:  cpu time    0.4193: real time    0.4193
     EDDAV:  cpu time   62.8259: real time   62.8282
       DOS:  cpu time    0.0005: real time    0.0005
    CHARGE:  cpu time    3.9068: real time    3.9068
    MIXING:  cpu time    0.0209: real time    0.0209
    --------------------------------------------
      LOOP:  cpu time   67.5587: real time   67.5703

 eigenvalue-minimisations  :  5856
 total energy-change (2. order) : 0.2095086E-01  (-0.2575134E-01)
 number of electron     640.0000004 magnetization 
 augmentation part       69.7777650 magnetization 

 Broyden mixing:
  rms(total) = 0.80574E-01    rms(broyden)= 0.80572E-01
  rms(prec ) = 0.87092E-01
  weight for this iteration     100.00

 eigenvalues of (default mixing * dielectric matrix)
  average eigenvalue GAMMA=   1.2606
  2.3818  1.8013  0.8996  0.8996  0.7907  0.7907

 Free energy of the ion-electron system (eV)
  ---------------------------------------------------
  alpha Z        PSCENC =       784.57699423
  Ewald energy   TEWEN  =    252626.20596129
  -Hartree energ DENC   =   -300478.94736231
  -exchange      EXHF   =         0.00000000
  -V(xc)+E(xc)   XCENC  =      2490.21477555
  PAW double counting   =     59846.44283401   -59678.37184806
  entropy T*S    EENTRO =        -0.00000000
  eigenvalues    EBANDS =    -12324.61255033
  atomic energy  EATOM  =     56210.72393729
  Solvation  Ediel_sol  =         0.00000000
  ---------------------------------------------------
  free energy    TOTEN  =      -523.76725832 eV

  energy without entropy =     -523.76725832  energy(sigma->0) =     -523.76725832


--------------------------------------------------------------------------------------------------------




--------------------------------------- Iteration      1(  12)  ---------------------------------------


    POTLOK:  cpu time    0.3840: real time    0.3923
    SETDIJ:  cpu time    0.4183: real time    0.4183
     EDDAV:  cpu time   63.4089: real time   63.4106
       DOS:  cpu time    0.0005: real time    0.0005
    CHARGE:  cpu time    3.9284: real time    3.9285
    MIXING:  cpu time    0.0171: real time    0.0171
    --------------------------------------------
      LOOP:  cpu time   68.1572: real time   68.1672

 eigenvalue-minimisations  :  5920
 total energy-change (2. order) : 0.1525258E-01  (-0.3951046E-02)
 number of electron     640.0000004 magnetization 
 augmentation part       69.7535298 magnetization 

 Broyden mixing:
  rms(total) = 0.32380E-01    rms(broyden)= 0.32379E-01
  rms(prec ) = 0.39579E-01
  weight for this iteration     100.00

 eigenvalues of (default mixing * dielectric matrix)
  average eigenvalue GAMMA=   1.2596
  2.3208  2.1208  0.9180  0.9180  0.9137  0.9137  0.7124

 Free energy of the ion-electron system (eV)
  ---------------------------------------------------
  alpha Z        PSCENC =       784.57699423
  Ewald energy   TEWEN  =    252626.20596129
  -Hartree energ DENC   =   -300515.54945237
  -exchange      EXHF   =         0.00000000
  -V(xc)+E(xc)   XCENC  =      2490.65568264
  PAW double counting   =     59917.93888971   -59750.02478334
  entropy T*S    EENTRO =        -0.00000000
  eigenvalues    EBANDS =    -12288.27923519
  atomic energy  EATOM  =     56210.72393729
  Solvation  Ediel_sol  =         0.00000000
  ---------------------------------------------------
  free energy    TOTEN  =      -523.75200574 eV

  energy without entropy =     -523.75200574  energy(sigma->0) =     -523.75200574


--------------------------------------------------------------------------------------------------------




--------------------------------------- Iteration      1(  13)  ---------------------------------------


    POTLOK:  cpu time    0.3866: real time    0.3955
    SETDIJ:  cpu time    0.4181: real time    0.4200
     EDDAV:  cpu time   58.1602: real time   58.1607
       DOS:  cpu time    0.0006: real time    0.0006
    CHARGE:  cpu time    3.9013: real time    3.9013
    MIXING:  cpu time    0.0182: real time    0.0182
    --------------------------------------------
      LOOP:  cpu time   62.8850: real time   62.8962

 eigenvalue-minimisations  :  5328
 total energy-change (2. order) : 0.3970002E-02  (-0.1090871E-02)
 number of electron     640.0000004 magnetization 
 augmentation part       69.7639430 magnetization 

 Broyden mixing:
  rms(total) = 0.20012E-01    rms(broyden)= 0.20012E-01
  rms(prec ) = 0.26592E-01
  weight for this iteration     100.00

 eigenvalues of (default mixing * dielectric matrix)
  average eigenvalue GAMMA=   1.2936
  2.6984  1.8471  1.5672  0.9042  0.9042  0.8807  0.8807  0.6663

 Free energy of the ion-electron system (eV)
  ---------------------------------------------------
  alpha Z        PSCENC =       784.57699423
  Ewald energy   TEWEN  =    252626.20596129
  -Hartree energ DENC   =   -300539.22448721
  -exchange      EXHF   =         0.00000000
  -V(xc)+E(xc)   XCENC  =      2490.84924691
  PAW double counting   =     59907.94368872   -59739.99709412
  entropy T*S    EENTRO =        -0.00000000
  eigenvalues    EBANDS =    -12264.82628285
  atomic energy  EATOM  =     56210.72393729
  Solvation  Ediel_sol  =         0.00000000
  ---------------------------------------------------
  free energy    TOTEN  =      -523.74803574 eV

  energy without entropy =     -523.74803574  energy(sigma->0) =     -523.74803574


--------------------------------------------------------------------------------------------------------




--------------------------------------- Iteration      1(  14)  ---------------------------------------


    POTLOK:  cpu time    0.3841: real time    0.3934
    SETDIJ:  cpu time    0.4185: real time    0.4185
     EDDAV:  cpu time   59.6022: real time   59.6042
       DOS:  cpu time    0.0005: real time    0.0005
    CHARGE:  cpu time    3.8738: real time    3.8739
    MIXING:  cpu time    0.0178: real time    0.0178
    --------------------------------------------
      LOOP:  cpu time   64.2969: real time   64.3083

 eigenvalue-minimisations  :  5488
 total energy-change (2. order) : 0.1526422E-02  (-0.5676502E-03)
 number of electron     640.0000004 magnetization 
 augmentation part       69.7749245 magnetization 

 Broyden mixing:
  rms(total) = 0.17588E-01    rms(broyden)= 0.17588E-01
  rms(prec ) = 0.21563E-01
  weight for this iteration     100.00

 eigenvalues of (default mixing * dielectric matrix)
  average eigenvalue GAMMA=   1.3313
  2.5946  2.5946  1.6361  0.9304  0.9304  1.0160  0.7831  0.7831  0.7134

 Free energy of the ion-electron system (eV)
  ---------------------------------------------------
  alpha Z        PSCENC =       784.57699423
  Ewald energy   TEWEN  =    252626.20596129
  -Hartree energ DENC   =   -300563.20037793
  -exchange      EXHF   =         0.00000000
  -V(xc)+E(xc)   XCENC  =      2490.99421091
  PAW double counting   =     59908.03963665   -59740.12217713
  entropy T*S    EENTRO =        -0.00000000
  eigenvalues    EBANDS =    -12240.96469464
  atomic energy  EATOM  =     56210.72393729
  Solvation  Ediel_sol  =         0.00000000
  ---------------------------------------------------
  free energy    TOTEN  =      -523.74650932 eV

  energy without entropy =     -523.74650932  energy(sigma->0) =     -523.74650932


--------------------------------------------------------------------------------------------------------




--------------------------------------- Iteration      1(  15)  ---------------------------------------


    POTLOK:  cpu time    0.3849: real time    0.3935
    SETDIJ:  cpu time    0.4184: real time    0.4184
     EDDAV:  cpu time   60.5651: real time   60.5704
       DOS:  cpu time    0.0005: real time    0.0005
    CHARGE:  cpu time    3.8841: real time    3.8842
    MIXING:  cpu time    0.0195: real time    0.0195
    --------------------------------------------
      LOOP:  cpu time   65.2725: real time   65.2865

 eigenvalue-minimisations  :  5592
 total energy-change (2. order) :-0.1550417E-02  (-0.2617382E-03)
 number of electron     640.0000004 magnetization 
 augmentation part       69.7771760 magnetization 

 Broyden mixing:
  rms(total) = 0.10498E-01    rms(broyden)= 0.10498E-01
  rms(prec ) = 0.13780E-01
  weight for this iteration     100.00

 eigenvalues of (default mixing * dielectric matrix)
  average eigenvalue GAMMA=   1.3463
  2.7682  2.7682  1.4062  1.4062  0.9064  0.9064  0.9044  0.9044  0.8471  0.6451

 Free energy of the ion-electron system (eV)
  ---------------------------------------------------
  alpha Z        PSCENC =       784.57699423
  Ewald energy   TEWEN  =    252626.20596129
  -Hartree energ DENC   =   -300582.01822403
  -exchange      EXHF   =         0.00000000
  -V(xc)+E(xc)   XCENC  =      2491.08656462
  PAW double counting   =     59865.73827023   -59697.69090278
  entropy T*S    EENTRO =        -0.00000000
  eigenvalues    EBANDS =    -12222.37066059
  atomic energy  EATOM  =     56210.72393729
  Solvation  Ediel_sol  =         0.00000000
  ---------------------------------------------------
  free energy    TOTEN  =      -523.74805974 eV

  energy without entropy =     -523.74805974  energy(sigma->0) =     -523.74805974


--------------------------------------------------------------------------------------------------------




--------------------------------------- Iteration      1(  16)  ---------------------------------------


    POTLOK:  cpu time    0.3864: real time    0.3947
    SETDIJ:  cpu time    0.4181: real time    0.4181
     EDDAV:  cpu time   61.8047: real time   61.8068
       DOS:  cpu time    0.0006: real time    0.0006
    CHARGE:  cpu time    3.8781: real time    3.8782
    MIXING:  cpu time    0.0182: real time    0.0182
    --------------------------------------------
      LOOP:  cpu time   66.5062: real time   66.5165

 eigenvalue-minimisations  :  5736
 total energy-change (2. order) :-0.1869874E-02  (-0.1300675E-03)
 number of electron     640.0000004 magnetization 
 augmentation part       69.7761179 magnetization 

 Broyden mixing:
  rms(total) = 0.62124E-02    rms(broyden)= 0.62123E-02
  rms(prec ) = 0.87025E-02
  weight for this iteration     100.00

 eigenvalues of (default mixing * dielectric matrix)
  average eigenvalue GAMMA=   1.3916
  3.2831  2.6063  1.9890  1.3310  0.9033  0.9033  0.9854  0.9854  0.9269  0.7463
  0.6476

 Free energy of the ion-electron system (eV)
  ---------------------------------------------------
  alpha Z        PSCENC =       784.57699423
  Ewald energy   TEWEN  =    252626.20596129
  -Hartree energ DENC   =   -300595.39322521
  -exchange      EXHF   =         0.00000000
  -V(xc)+E(xc)   XCENC  =      2491.14976038
  PAW double counting   =     59859.17561957   -59691.13763675
  entropy T*S    EENTRO =        -0.00000000
  eigenvalues    EBANDS =    -12209.05134041
  atomic energy  EATOM  =     56210.72393729
  Solvation  Ediel_sol  =         0.00000000
  ---------------------------------------------------
  free energy    TOTEN  =      -523.74992961 eV

  energy without entropy =     -523.74992961  energy(sigma->0) =     -523.74992961


--------------------------------------------------------------------------------------------------------




--------------------------------------- Iteration      1(  17)  ---------------------------------------


    POTLOK:  cpu time    0.3879: real time    0.3958
    SETDIJ:  cpu time    0.4184: real time    0.4184
     EDDAV:  cpu time   59.4127: real time   59.4145
       DOS:  cpu time    0.0006: real time    0.0006
    CHARGE:  cpu time    3.8973: real time    3.8975
    MIXING:  cpu time    0.0207: real time    0.0207
    --------------------------------------------
      LOOP:  cpu time   64.1376: real time   64.1474

 eigenvalue-minimisations  :  5464
 total energy-change (2. order) :-0.3246843E-02  (-0.8894904E-04)
 number of electron     640.0000004 magnetization 
 augmentation part       69.7737433 magnetization 

 Broyden mixing:
  rms(total) = 0.36292E-02    rms(broyden)= 0.36290E-02
  rms(prec ) = 0.52889E-02
  weight for this iteration     100.00

 eigenvalues of (default mixing * dielectric matrix)
  average eigenvalue GAMMA=   1.4460
  4.0712  2.6483  2.3174  1.2882  1.1592  0.9338  0.9338  0.9223  0.9223  0.7614
  0.7614  0.6333

 Free energy of the ion-electron system (eV)
  ---------------------------------------------------
  alpha Z        PSCENC =       784.57699423
  Ewald energy   TEWEN  =    252626.20596129
  -Hartree energ DENC   =   -300608.19519133
  -exchange      EXHF   =         0.00000000
  -V(xc)+E(xc)   XCENC  =      2491.19611008
  PAW double counting   =     59855.81903859   -59687.80715779
  entropy T*S    EENTRO =        -0.00000000
  eigenvalues    EBANDS =    -12196.27286881
  atomic energy  EATOM  =     56210.72393729
  Solvation  Ediel_sol  =         0.00000000
  ---------------------------------------------------
  free energy    TOTEN  =      -523.75317645 eV

  energy without entropy =     -523.75317645  energy(sigma->0) =     -523.75317645


--------------------------------------------------------------------------------------------------------




--------------------------------------- Iteration      1(  18)  ---------------------------------------


    POTLOK:  cpu time    0.3899: real time    0.3992
    SETDIJ:  cpu time    0.4185: real time    0.4185
     EDDAV:  cpu time   55.5348: real time   55.5370
       DOS:  cpu time    0.0005: real time    0.0005
    CHARGE:  cpu time    3.8787: real time    3.8788
    MIXING:  cpu time    0.0196: real time    0.0196
    --------------------------------------------
      LOOP:  cpu time   60.2419: real time   60.2536

 eigenvalue-minimisations  :  5024
 total energy-change (2. order) :-0.2491028E-02  (-0.2561641E-04)
 number of electron     640.0000004 magnetization 
 augmentation part       69.7746089 magnetization 

 Broyden mixing:
  rms(total) = 0.24167E-02    rms(broyden)= 0.24166E-02
  rms(prec ) = 0.33524E-02
  weight for this iteration     100.00

 eigenvalues of (default mixing * dielectric matrix)
  average eigenvalue GAMMA=   1.4448
  4.3025  2.6161  2.2929  1.5713  1.0603  1.0603  0.9145  0.9145  0.9994  0.8590
  0.8590  0.6974  0.6352

 Free energy of the ion-electron system (eV)
  ---------------------------------------------------
  alpha Z        PSCENC =       784.57699423
  Ewald energy   TEWEN  =    252626.20596129
  -Hartree energ DENC   =   -300617.06567577
  -exchange      EXHF   =         0.00000000
  -V(xc)+E(xc)   XCENC  =      2491.22290971
  PAW double counting   =     59852.12940533   -59684.12990281
  entropy T*S    EENTRO =        -0.00000000
  eigenvalues    EBANDS =    -12187.41929675
  atomic energy  EATOM  =     56210.72393729
  Solvation  Ediel_sol  =         0.00000000
  ---------------------------------------------------
  free energy    TOTEN  =      -523.75566748 eV

  energy without entropy =     -523.75566748  energy(sigma->0) =     -523.75566748


--------------------------------------------------------------------------------------------------------




--------------------------------------- Iteration      1(  19)  ---------------------------------------


    POTLOK:  cpu time    0.3896: real time    0.3986
    SETDIJ:  cpu time    0.4176: real time    0.4176
     EDDAV:  cpu time   51.8395: real time   51.8399
       DOS:  cpu time    0.0006: real time    0.0006
    CHARGE:  cpu time    3.8790: real time    3.8791
    MIXING:  cpu time    0.0186: real time    0.0186
    --------------------------------------------
      LOOP:  cpu time   56.5450: real time   56.5544

 eigenvalue-minimisations  :  4600
 total energy-change (2. order) :-0.1173927E-02  (-0.1072756E-04)
 number of electron     640.0000004 magnetization 
 augmentation part       69.7748584 magnetization 

 Broyden mixing:
  rms(total) = 0.15030E-02    rms(broyden)= 0.15029E-02
  rms(prec ) = 0.22762E-02
  weight for this iteration     100.00

 eigenvalues of (default mixing * dielectric matrix)
  average eigenvalue GAMMA=   1.5539
  5.2828  2.8504  2.2180  2.2180  1.2103  1.2103  0.9945  0.9945  0.9149  0.9149
  0.8077  0.8077  0.7031  0.6278

 Free energy of the ion-electron system (eV)
  ---------------------------------------------------
  alpha Z        PSCENC =       784.57699423
  Ewald energy   TEWEN  =    252626.20596129
  -Hartree energ DENC   =   -300620.61650494
  -exchange      EXHF   =         0.00000000
  -V(xc)+E(xc)   XCENC  =      2491.23188008
  PAW double counting   =     59851.99030501   -59683.99385400
  entropy T*S    EENTRO =        -0.00000000
  eigenvalues    EBANDS =    -12183.87556037
  atomic energy  EATOM  =     56210.72393729
  Solvation  Ediel_sol  =         0.00000000
  ---------------------------------------------------
  free energy    TOTEN  =      -523.75684141 eV

  energy without entropy =     -523.75684141  energy(sigma->0) =     -523.75684141


--------------------------------------------------------------------------------------------------------




--------------------------------------- Iteration      1(  20)  ---------------------------------------


    POTLOK:  cpu time    0.3920: real time    0.4018
    SETDIJ:  cpu time    0.4183: real time    0.4183
     EDDAV:  cpu time   47.5218: real time   47.5233
       DOS:  cpu time    0.0006: real time    0.0006
    CHARGE:  cpu time    3.8811: real time    3.8812
    MIXING:  cpu time    0.0193: real time    0.0193
    --------------------------------------------
      LOOP:  cpu time   52.2331: real time   52.2445

 eigenvalue-minimisations  :  4112
 total energy-change (2. order) :-0.1441020E-02  (-0.7746786E-05)
 number of electron     640.0000004 magnetization 
 augmentation part       69.7742521 magnetization 

 Broyden mixing:
  rms(total) = 0.98111E-03    rms(broyden)= 0.98097E-03
  rms(prec ) = 0.13493E-02
  weight for this iteration     100.00

 eigenvalues of (default mixing * dielectric matrix)
  average eigenvalue GAMMA=   1.5889
  6.1399  2.9801  2.4619  2.1066  1.3557  1.0232  1.0232  0.9083  0.9083  0.9802
  0.9802  0.8502  0.7775  0.7124  0.6263

 Free energy of the ion-electron system (eV)
  ---------------------------------------------------
  alpha Z        PSCENC =       784.57699423
  Ewald energy   TEWEN  =    252626.20596129
  -Hartree energ DENC   =   -300625.33074450
  -exchange      EXHF   =         0.00000000
  -V(xc)+E(xc)   XCENC  =      2491.23987807
  PAW double counting   =     59850.67718728   -59682.67888726
  entropy T*S    EENTRO =        -0.00000000
  eigenvalues    EBANDS =    -12179.17260883
  atomic energy  EATOM  =     56210.72393729
  Solvation  Ediel_sol  =         0.00000000
  ---------------------------------------------------
  free energy    TOTEN  =      -523.75828243 eV

  energy without entropy =     -523.75828243  energy(sigma->0) =     -523.75828243


--------------------------------------------------------------------------------------------------------




--------------------------------------- Iteration      1(  21)  ---------------------------------------


    POTLOK:  cpu time    0.3932: real time    0.4025
    SETDIJ:  cpu time    0.4191: real time    0.4191
     EDDAV:  cpu time   49.7165: real time   49.7188
       DOS:  cpu time    0.0006: real time    0.0006
    CHARGE:  cpu time    3.8829: real time    3.8829
    MIXING:  cpu time    0.0215: real time    0.0215
    --------------------------------------------
      LOOP:  cpu time   54.4338: real time   54.4455

 eigenvalue-minimisations  :  4360
 total energy-change (2. order) :-0.4853159E-03  (-0.2038207E-05)
 number of electron     640.0000004 magnetization 
 augmentation part       69.7745092 magnetization 

 Broyden mixing:
  rms(total) = 0.78158E-03    rms(broyden)= 0.78140E-03
  rms(prec ) = 0.10323E-02
  weight for this iteration     100.00

 eigenvalues of (default mixing * dielectric matrix)
  average eigenvalue GAMMA=   1.5698
  6.3777  2.9955  2.4749  1.8524  1.4323  1.2117  1.2117  0.9799  0.9799  0.9100
  0.9100  0.8891  0.7899  0.7899  0.6839  0.6270

 Free energy of the ion-electron system (eV)
  ---------------------------------------------------
  alpha Z        PSCENC =       784.57699423
  Ewald energy   TEWEN  =    252626.20596129
  -Hartree energ DENC   =   -300626.75722981
  -exchange      EXHF   =         0.00000000
[...]
    -6.896993340 11.945942880  0.000000000     0.000000000  0.083710429  0.000000000
     0.000000000  0.000000000 27.810221070     0.000000000  0.000000000  0.035958003

  length of vectors
    13.793986680 13.793986676 27.810221070     0.083710429  0.083710429  0.035958003


 FORCES acting on ions
    electron-ion (+dipol)            ewald-force                    non-local-force                 convergence-correction
 -----------------------------------------------------------------------------------------------
   0.179E+02 -.128E+02 -.104E+04   -.177E+02 0.134E+02 0.103E+04   -.791E+00 -.204E+00 0.345E+01   -.117E-04 -.906E-04 0.978E-04
   0.417E+02 0.255E+02 -.110E+04   -.412E+02 -.265E+02 0.110E+04   -.134E+01 -.274E+00 0.350E+01   -.160E-04 -.599E-05 0.148E-03
   -.384E+02 -.110E+02 -.113E+04   0.374E+02 0.124E+02 0.112E+04   0.847E+00 -.807E+00 0.452E+01   0.260E-04 0.163E-04 0.106E-03
   -.479E+02 -.114E+02 -.919E+03   0.491E+02 0.112E+02 0.915E+03   -.572E-01 0.166E+00 0.481E+01   0.217E-04 0.757E-04 0.118E-04
   -.537E+02 -.860E-01 -.109E+04   0.549E+02 -.568E+00 0.109E+04   0.187E+00 -.790E-01 0.371E+01   0.667E-04 -.872E-04 0.820E-04
   -.390E+02 0.350E+02 -.978E+03   0.399E+02 -.345E+02 0.974E+03   -.204E+00 -.698E+00 0.535E+01   0.671E-04 0.190E-04 0.105E-03
   0.297E+02 -.412E+02 -.111E+04   -.283E+02 0.422E+02 0.110E+04   -.133E+01 0.465E+00 0.486E+01   -.234E-05 0.673E-04 0.805E-04
   0.314E+02 0.122E+02 -.105E+04   -.326E+02 -.915E+01 0.105E+04   0.327E+00 -.199E+01 0.382E+01   -.396E-04 0.365E-04 0.310E-04
   0.540E+02 0.121E+02 -.111E+04   -.547E+02 -.132E+02 0.110E+04   -.400E+00 0.706E+00 0.440E+01   -.578E-04 -.611E-04 0.727E-04
   0.776E+02 0.969E+01 -.115E+04   -.784E+02 -.108E+02 0.115E+04   -.679E+00 0.113E+01 0.489E+01   -.198E-04 0.962E-05 0.564E-04
   0.462E+02 0.530E+02 -.113E+04   -.461E+02 -.545E+02 0.112E+04   -.514E+00 0.508E+00 0.442E+01   -.341E-04 -.142E-05 0.443E-04
   0.404E+02 -.519E+01 -.115E+04   -.405E+02 0.679E+01 0.114E+04   0.141E+00 -.721E+00 0.448E+01   -.225E-04 -.139E-04 0.525E-04
   -.489E+01 -.145E+02 -.101E+04   0.373E+01 0.139E+02 0.101E+04   0.266E+00 0.460E+00 0.391E+01   -.183E-05 -.383E-04 0.104E-03
   -.571E+02 -.831E+01 -.962E+03   0.569E+02 0.706E+01 0.958E+03   0.808E+00 0.122E+01 0.419E+01   -.264E-04 0.344E-04 0.960E-04
   -.224E+02 -.186E+01 -.122E+04   0.225E+02 0.113E+01 0.121E+04   0.105E+00 0.358E+00 0.374E+01   -.999E-05 -.223E-05 0.108E-03
   -.286E+02 -.380E+02 -.111E+04   0.293E+02 0.390E+02 0.111E+04   0.213E+00 -.218E+00 0.335E+01   0.186E-04 0.230E-04 0.608E-04
   0.122E+02 0.566E+02 0.103E+04   -.115E+02 -.575E+02 -.103E+04   -.127E+01 -.632E+00 -.464E+01   0.394E-04 -.113E-03 -.683E-04
   -.382E+02 -.462E+02 0.109E+04   0.392E+02 0.451E+02 -.109E+04   0.138E+00 0.172E+01 -.367E+01   0.262E-04 0.255E-04 -.142E-03
   -.593E+02 0.199E+02 0.117E+04   0.585E+02 -.183E+02 -.117E+04   0.124E+01 -.111E+01 -.436E+01   0.195E-04 0.370E-04 -.773E-04
   -.125E+02 -.984E+02 0.112E+04   0.134E+02 0.994E+02 -.112E+04   -.373E+00 0.645E+00 -.364E+01   0.172E-04 0.621E-04 -.493E-04
   0.244E+02 0.163E+02 0.983E+03   -.242E+02 -.166E+02 -.978E+03   -.371E+00 0.381E+00 -.463E+01   -.184E-04 -.231E-05 -.569E-04
   0.147E+02 0.654E+01 0.113E+04   -.134E+02 -.680E+01 -.113E+04   -.604E+00 -.178E+00 -.400E+01   0.526E-04 0.337E-04 -.119E-03
   -.427E+01 0.930E+01 0.111E+04   0.596E+01 -.907E+01 -.111E+04   -.781E+00 -.604E+00 -.518E+01   0.467E-04 0.265E-04 -.500E-04
   -.303E+02 -.456E+02 0.115E+04   0.300E+02 0.457E+02 -.114E+04   0.513E+00 0.439E+00 -.370E+01   0.705E-05 0.367E-04 -.333E-04
   0.539E+01 0.609E+02 0.102E+04   -.620E+01 -.621E+02 -.102E+04   0.573E+00 -.348E+00 -.433E+01   -.380E-04 -.563E-04 -.127E-03
   0.108E+02 0.284E+02 0.109E+04   -.114E+02 -.293E+02 -.108E+04   0.908E+00 0.295E+00 -.416E+01   -.323E-04 0.104E-04 -.128E-03
   0.256E+02 -.149E+02 0.103E+04   -.267E+02 0.158E+02 -.102E+04   0.704E+00 0.141E+00 -.518E+01   -.168E-04 -.166E-04 -.960E-04
   0.363E+02 0.648E+01 0.985E+03   -.377E+02 -.658E+01 -.981E+03   0.370E-01 -.364E+00 -.461E+01   -.351E-04 -.156E-05 -.688E-04
   -.161E+02 0.510E+02 0.108E+04   0.172E+02 -.519E+02 -.107E+04   -.820E+00 0.450E-01 -.361E+01   0.126E-04 -.892E-04 -.746E-04
   -.277E+01 0.264E+02 0.111E+04   0.226E+01 -.259E+02 -.111E+04   0.149E+00 -.710E+00 -.367E+01   -.254E-04 -.163E-04 -.131E-03
   0.179E+02 -.395E+01 0.990E+03   -.185E+02 0.343E+01 -.986E+03   0.112E+00 -.167E+00 -.455E+01   -.472E-04 -.244E-04 -.103E-03
   0.148E+02 -.466E+02 0.116E+04   -.148E+02 0.488E+02 -.115E+04   -.146E+00 -.666E+00 -.431E+01   -.367E-05 0.367E-04 -.715E-04
   -.274E+02 0.449E+02 0.144E+04   0.276E+02 -.449E+02 -.144E+04   -.267E+00 -.651E+00 0.118E+01   0.203E-04 -.482E-05 -.671E-04
   -.101E+02 0.513E+01 0.152E+04   0.101E+02 -.521E+01 -.152E+04   -.162E+00 0.101E+00 0.287E+01   -.101E-05 -.192E-04 -.276E-04
   0.828E+01 0.650E+00 0.148E+04   -.852E+01 -.504E+00 -.149E+04   0.433E+00 -.534E+00 0.662E+00   -.244E-04 -.563E-05 -.404E-04
   0.151E+02 -.429E+02 0.143E+04   -.152E+02 0.431E+02 -.144E+04   0.101E+00 -.125E+00 0.214E+01   0.846E-05 0.256E-04 -.453E-04
   0.294E+01 -.141E+01 0.143E+04   -.285E+01 0.110E+01 -.144E+04   -.589E+00 0.710E+00 0.153E+01   0.125E-04 -.114E-04 -.765E-04
   -.248E+02 -.138E+02 0.144E+04   0.246E+02 0.137E+02 -.144E+04   0.813E+00 0.518E+00 0.199E+01   0.150E-04 -.222E-04 -.646E-04
   -.384E+02 -.243E+01 0.150E+04   0.383E+02 0.248E+01 -.150E+04   0.745E+00 -.257E+00 0.234E+01   0.662E-05 0.641E-05 -.406E-04
   0.388E+01 -.315E+02 0.146E+04   -.391E+01 0.317E+02 -.146E+04   0.446E-01 -.311E+00 0.239E+01   -.235E-05 0.406E-04 -.553E-04
   0.132E+02 0.151E+02 0.143E+04   -.131E+02 -.151E+02 -.143E+04   -.312E+00 0.624E-02 0.150E+01   0.256E-05 -.389E-05 -.733E-04
   0.176E+02 -.235E+00 0.149E+04   -.175E+02 0.289E+00 -.149E+04   -.432E+00 -.298E-01 0.205E+01   0.106E-04 -.258E-05 -.602E-04
   -.360E+01 -.176E+02 0.141E+04   0.356E+01 0.177E+02 -.142E+04   0.969E-01 0.364E+00 0.124E+01   0.359E-04 -.711E-05 -.405E-04
   -.652E+01 0.609E+01 0.142E+04   0.671E+01 -.593E+01 -.142E+04   -.262E+00 -.404E+00 0.214E+01   0.657E-05 0.411E-04 -.524E-04
   0.881E+01 0.167E+02 0.146E+04   -.898E+01 -.169E+02 -.146E+04   0.117E+00 0.404E+00 0.181E+01   -.345E-04 -.216E-04 -.734E-04
   0.116E+02 0.107E+02 0.143E+04   -.118E+02 -.107E+02 -.144E+04   0.165E+00 0.456E-01 0.132E+01   -.325E-04 -.724E-06 -.676E-04
   0.281E+02 -.395E+00 0.147E+04   -.281E+02 0.378E+00 -.148E+04   -.348E+00 -.297E-01 0.139E+01   -.136E-04 -.311E-04 -.424E-04
   -.154E+02 0.216E+02 0.146E+04   0.149E+02 -.214E+02 -.146E+04   0.115E+01 -.940E+00 0.189E+01   -.140E-04 0.155E-05 -.511E-04
   -.373E+02 0.550E+01 -.143E+04   0.372E+02 -.556E+01 0.144E+04   0.357E+00 -.141E+00 -.148E+01   0.120E-04 -.169E-04 0.545E-04
   -.321E+02 -.667E+01 -.142E+04   0.320E+02 0.651E+01 0.142E+04   0.853E+00 0.503E+00 -.172E+01   -.103E-04 0.166E-05 0.780E-04
   0.133E+02 -.932E+01 -.147E+04   -.133E+02 0.927E+01 0.147E+04   -.222E+00 0.839E-01 -.154E+01   -.253E-05 0.465E-05 0.736E-04
   -.475E+01 -.110E+02 -.142E+04   0.461E+01 0.113E+02 0.142E+04   0.369E+00 -.864E+00 -.192E+01   0.501E-06 0.841E-05 0.767E-04
   0.180E+02 -.918E+01 -.143E+04   -.179E+02 0.929E+01 0.143E+04   -.213E+00 -.152E-01 -.256E+01   -.896E-06 0.110E-05 0.451E-04
   0.179E+02 -.793E+01 -.145E+04   -.179E+02 0.783E+01 0.145E+04   -.265E+00 0.305E+00 -.283E+01   0.128E-05 -.116E-04 0.423E-04
   0.152E+02 0.429E+02 -.148E+04   -.150E+02 -.430E+02 0.148E+04   -.551E+00 -.220E+00 -.258E+01   -.679E-05 0.981E-05 0.713E-04
   0.178E+02 0.181E+02 -.145E+04   -.180E+02 -.178E+02 0.146E+04   0.502E+00 -.104E+01 -.129E+01   0.211E-05 -.379E-05 0.768E-04
   0.524E+01 -.216E+02 -.147E+04   -.522E+01 0.218E+02 0.148E+04   -.871E-01 0.376E-01 -.280E+01   -.146E-04 -.723E-05 0.585E-04
   0.118E+02 0.267E+02 -.147E+04   -.116E+02 -.266E+02 0.148E+04   -.934E+00 -.668E+00 -.240E+01   0.939E-07 0.103E-06 0.565E-04
   0.571E+01 0.524E+02 -.149E+04   -.586E+01 -.523E+02 0.149E+04   0.487E+00 -.722E+00 -.211E+01   0.700E-05 0.847E-05 0.552E-04
   0.400E+02 -.684E+01 -.149E+04   -.398E+02 0.684E+01 0.149E+04   -.129E+01 0.231E-01 -.993E+00   -.564E-05 -.642E-05 0.800E-04
   -.335E+01 -.442E+02 -.147E+04   0.327E+01 0.443E+02 0.147E+04   0.685E-01 0.574E+00 -.262E+01   0.637E-05 0.525E-05 0.588E-04
   -.468E+01 -.244E+02 -.142E+04   0.451E+01 0.240E+02 0.142E+04   0.288E+00 0.127E+01 -.228E+01   0.771E-05 0.345E-05 0.710E-04
   -.337E+02 0.299E+01 -.145E+04   0.336E+02 -.346E+01 0.145E+04   0.691E+00 0.105E+01 -.207E+01   0.539E-05 0.845E-07 0.684E-04
   -.431E+02 -.826E+01 -.147E+04   0.433E+02 0.861E+01 0.148E+04   -.174E+00 -.964E+00 -.201E+01   0.571E-05 0.137E-05 0.665E-04
   0.320E+01 -.153E+02 0.578E+02   -.335E+01 0.145E+02 -.583E+02   -.174E-01 0.211E+01 0.121E+01   0.802E-05 0.334E-05 -.615E-05
   0.713E+01 -.172E+02 0.502E+01   -.693E+01 0.169E+02 -.524E+01   -.101E+01 0.288E+00 0.956E+00   -.987E-06 -.348E-05 -.133E-05
   -.154E+02 -.106E+01 0.323E+02   0.153E+02 0.944E+00 -.331E+02   0.218E+00 0.155E+00 0.240E+01   -.134E-04 0.444E-05 -.961E-05
   0.436E+01 -.187E+02 -.319E+02   -.405E+01 0.186E+02 0.322E+02   -.673E+00 0.147E+00 -.600E+00   -.316E-05 0.103E-05 -.559E-05
   -.142E+02 0.155E+02 -.462E+02   0.143E+02 -.156E+02 0.468E+02   -.404E+00 0.648E+00 -.184E+01   -.111E-05 0.796E-05 0.227E-05
   0.639E+01 -.343E+02 0.894E+01   -.644E+01 0.341E+02 -.882E+01   0.219E-01 0.141E+01 0.122E+00   0.838E-05 -.124E-04 -.412E-05
   0.179E+02 0.712E+01 0.228E+01   -.176E+02 -.705E+01 -.198E+01   -.149E+01 -.400E+00 -.111E+01   0.848E-05 -.972E-06 0.428E-05
   -.369E+01 -.128E+02 0.395E+02   0.387E+01 0.127E+02 -.402E+02   -.893E+00 0.175E+00 0.199E+01   -.187E-06 0.590E-05 -.680E-06
   -.132E+02 0.351E+02 -.115E+02   0.128E+02 -.347E+02 0.117E+02   0.966E+00 -.111E+01 -.105E+00   0.336E-05 0.115E-04 -.514E-05
   0.291E+02 0.304E+02 -.343E+01   -.291E+02 -.301E+02 0.335E+01   -.536E+00 -.575E+00 0.490E+00   0.227E-05 -.123E-04 -.634E-05
   0.108E+02 0.173E+02 -.164E+02   -.107E+02 -.168E+02 0.165E+02   -.856E+00 -.189E+01 -.986E-01   0.165E-04 0.524E-05 -.527E-05
   0.999E+00 -.145E+02 -.388E+01   -.125E+01 0.145E+02 0.379E+01   0.411E+00 -.167E+00 0.219E+00   0.110E-04 0.121E-04 0.604E-05
   -.443E+01 -.312E+01 -.325E+02   0.365E+01 0.304E+01 0.327E+02   0.203E+01 0.370E+00 -.262E+00   -.106E-04 -.276E-05 -.671E-05
   -.211E+02 -.839E+01 -.654E+01   0.208E+02 0.829E+01 0.682E+01   0.143E+01 0.597E+00 -.737E+00   -.140E-04 -.139E-04 -.771E-05
   -.353E+01 -.163E+02 -.323E+01   0.341E+01 0.165E+02 0.291E+01   0.614E+00 -.827E+00 0.128E+01   -.607E-05 0.543E-05 -.214E-04
   -.196E+02 -.133E+01 0.621E+01   0.191E+02 0.959E+00 -.670E+01   0.156E+01 0.945E+00 0.131E+01   -.801E-05 -.949E-05 -.132E-04
 -----------------------------------------------------------------------------------------------
   -.138E+00 0.115E+01 0.371E+00   0.220E-12 0.391E-13 -.578E-11   0.143E+00 -.115E+01 -.373E+00   -.335E-04 -.852E-04 -.657E-04
 
 
 POSITION                                       TOTAL-FORCE (eV/Angst)
 -----------------------------------------------------------------------------------
      0.06217      1.84926     15.10559        -0.634810      0.408627     -0.455618
     -1.58834      5.11430     15.18555        -0.843734     -1.248528     -1.192898
     -3.43600      7.93681     15.18525        -0.192503      0.591703     -1.056989
     -5.27879     10.90392     14.95900         1.134914      0.011624      0.839003
      3.38927      2.13685     15.13112         1.342995     -0.732755      0.677667
      1.72429      5.00970     14.94858         0.766029     -0.207959      1.735229
      0.05472      7.84820     15.18360         0.135225      1.418607     -0.839061
     -1.66345     10.89795     15.14964        -0.918177      1.089248     -0.889698
      7.04074      2.02440     15.11279        -1.150522     -0.317475      1.337310
      5.37447      4.97588     15.18211        -1.488580     -0.007639      0.318046
      3.46542      8.01021     15.26379        -0.430145     -0.936335     -1.162331
      1.67286     10.89249     15.28161         0.070256      0.883012     -1.033379
     10.47640      1.97297     15.03677        -0.899367     -0.195727      1.128864
      8.64353      4.94858     14.95864         0.548629     -0.027686      1.104674
      6.87138      8.01970     15.35909         0.251579     -0.365783     -1.460332
      5.09996     10.87576     15.28793         0.938088      0.790542     -1.794888
      1.92446      1.07253     12.76240        -0.572092     -1.525905     -1.300626
     -0.14809      3.88728     12.58888         1.228020      0.619016      0.455891
     -1.79476      6.92194     12.46731         0.377844      0.489393      0.973931
     -3.48599      9.77940     12.52686         0.533574      1.630271      1.407632
      5.22734      0.98104     12.75976        -0.092473      0.068669      0.044978
      3.41682      4.12032     12.57058         0.634710     -0.432749      0.672900
      1.60435      7.10260     12.64080         0.901729     -0.377885      0.311981
     -0.06283      9.89722     12.51126         0.285535      0.520900      1.007978
      8.62509      1.13884     12.74804        -0.237266     -1.540074     -0.337081
      6.81537      4.09025     12.66967         0.318362     -0.685435     -0.222502
      5.15518      6.90762     12.74827        -0.367121      0.970352     -0.088545
      3.49300     10.03537     12.82761        -1.336193     -0.464489     -0.797657
     12.09514      0.99667     12.64538         0.275980     -0.786282      0.063150
     10.43640      4.02302     12.56740        -0.358283     -0.245634      0.143279
      8.62788      7.02214     12.73846        -0.508799     -0.683079     -0.186822
      6.80557      9.74876     12.57540        -0.147421      1.578554      0.948884
      0.10488      1.98627     11.11487        -0.105157     -0.652202     -0.847493
     -1.73727      4.91708     10.69947        -0.074972      0.012088      0.728152
     -3.59049      7.93769     11.00161         0.190991     -0.387856     -1.217702
     -5.24903     10.89216     11.00305         0.061562      0.083230     -0.018072
      3.59479      1.94868     11.09452        -0.501774      0.406273     -0.486225
      1.52955      4.93134     11.00695         0.636964      0.454813     -0.193988
     -0.20287      8.00809     10.77679         0.683201     -0.200438      0.179952
     -1.78781     10.99715     10.91943         0.015057     -0.026877      0.231359
      6.94297      2.05737     11.12813        -0.244934     -0.038606     -0.582461
      5.18881      5.00619     10.91926        -0.295775      0.025009      0.014194
      3.40782      7.93523     11.17407         0.054260      0.385504     -0.828116
      1.70963     11.04663     11.05989        -0.071297     -0.244291      0.009419
     10.33917      1.96937     11.03189        -0.053018      0.175429     -0.291938
      8.61220      4.99416     11.12892         0.022660     -0.004745     -0.837866
      6.92096      7.85917     11.01219        -0.281878     -0.046630     -0.507768
      4.93470     11.07234     10.99766         0.669718     -0.743022     -0.163537
      1.69669      1.01577     16.70238         0.269365     -0.193579      0.512137
     -0.13529      3.82509     16.68727         0.741847      0.344958      0.386542
     -1.70097      6.97065     16.81964        -0.209868      0.034404      0.436608
     -3.52868     10.03202     16.71627         0.226752     -0.564493      0.200055
      5.22830      1.03141     16.81012        -0.145416      0.088828     -0.284719
      3.55501      3.99965     16.91657        -0.225820      0.207610     -0.663280
      1.78426      7.01515     16.94965        -0.379901     -0.333786     -0.422298
     -0.10349     10.00410     16.80941         0.274551     -0.728712      0.662794
      8.65720      0.93007     16.96873        -0.068361      0.190696     -0.608523
      7.14223      4.13790     16.87043        -0.684916     -0.532680     -0.372543
      5.14133      7.17114     16.97394         0.338819     -0.659906     -0.062306
      3.57170      9.93218     16.85841        -1.078145      0.019103      0.979214
     12.08705      0.85349     16.90218        -0.008726      0.610521     -0.470254
     10.39100      3.79475     16.73026         0.110828      0.874681     -0.162163
      8.59489      6.82013     16.78154         0.574188      0.577768      0.093588
      6.95138     10.11350     16.87581         0.038463     -0.616474      0.030212
      6.81984     11.68158     13.79179        -0.167360      1.343785      0.708835
     -1.63022      2.90896     13.76063        -0.805648      0.054574      0.730250
     -3.39413      5.93594     13.66536         0.121941      0.043437      1.687413
      8.66076      8.87009     13.96335        -0.355220      0.095984     -0.320538
     -3.41535     11.92001     14.03248        -0.291702      0.524276     -1.171900
      1.72554      2.89503     13.87176        -0.030357      1.217358      0.244168
      0.10123      5.99362     13.98810        -1.209310     -0.332219     -0.818272
     -1.68153      8.84556     13.64713        -0.712512      0.058932      1.275563
      6.82514      0.10649     13.94927         0.515753     -0.719318      0.103878
      5.21601      3.16269     13.87388        -0.464054     -0.303656      0.410868
      3.46348      6.12652     13.90727        -0.745891     -1.386609     -0.009497
      1.61635      8.97721     13.93976         0.163938     -0.110199      0.127946
      3.27329     11.91571     14.03121         1.251843      0.287428     -0.098110
      8.57205      2.99090     13.93475         1.123403      0.497318     -0.450409
      6.87638      6.06880     13.86916         0.496332     -0.655793      0.965353
      5.04766      8.87955     13.91014         1.063596      0.578987      0.818503
 -----------------------------------------------------------------------------------
    total drift:                                0.004239     -0.001859     -0.002554


--------------------------------------------------------------------------------------------------------



  FREE ENERGIE OF THE ION-ELECTRON SYSTEM (eV)
  ---------------------------------------------------
  free  energy   TOTEN  =      -523.76015816 eV

  energy  without entropy=     -523.76015816  energy(sigma->0) =     -523.76015816
 


--------------------------------------------------------------------------------------------------------


    POTLOK:  cpu time    0.8115: real time    0.8116


--------------------------------------------------------------------------------------------------------


     LOOP+:  cpu time 1901.2130: real time 1901.5764
    4ORBIT:  cpu time    0.0000: real time    0.0000

 total amount of memory used by VASP MPI-rank0   253908. kBytes
=======================================================================

   base      :      30000. kBytes
   nonlr-proj:      18724. kBytes
   fftplans  :      72602. kBytes
   grid      :      41267. kBytes
   one-center:        108. kBytes
   wavefun   :      91207. kBytes
 
  
  
 General timing and accounting informations for this job:
 ========================================================
  
                  Total CPU time used (sec):     1932.130
                            User time (sec):     1927.261
                          System time (sec):        4.869
                         Elapsed time (sec):     1932.609
  
                   Maximum memory used (kb):      458856.
                   Average memory used (kb):           0.
  
                          Minor page faults:       134324
                          Major page faults:            0
                 Voluntary context switches:         2143
