 vasp.5.4.4.18Apr17-6-g9f103f2a35 (build Oct 31 2019 15:01:46) complex          
  
 executed on             LinuxIFC date 2024.05.01  14:20:43
 running on   52 total cores
 distrk:  each k-point on   52 cores,    1 groups
 distr:  one band on NCORES_PER_BAND=  13 cores,    4 groups


--------------------------------------------------------------------------------------------------------


 INCAR:
 POTCAR:    PAW_PBE Sc_sv 07Sep2000               
 POTCAR:    PAW_PBE Cl 06Sep2000                  
 POTCAR:    PAW_PBE C 08Apr2002                   
 POTCAR:    PAW_PBE Sc_sv 07Sep2000               
   VRHFIN =Sc: 3p4s3d                                                           
   LEXCH  = PE                                                                  
   EATOM  =  1273.2868 eV,   93.5839 Ry                                         
                                                                                
   TITEL  = PAW_PBE Sc_sv 07Sep2000                                             
   LULTRA =        F    use ultrasoft PP ?                                      
   IUNSCR =        1    unscreen: 0-lin 1-nonlin 2-no                           
   RPACOR =    2.200    partial core radius                                     
   POMASS =   44.956; ZVAL   =   11.000    mass and valenz                      
   RCORE  =    2.500    outmost cutoff radius                                   
   RWIGS  =    2.700; RWIGS  =    1.429    wigner-seitz radius (au A)           
   ENMAX  =  222.660; ENMIN  =  166.995 eV                                      
   RCLOC  =    1.805    cutoff for local pot                                    
   LCOR   =        T    correct aug charges                                     
   LPAW   =        T    paw PP                                                  
   EAUG   =  443.063                                                            
   RMAX   =    2.551    core radius for proj-oper                               
   RAUG   =    1.300    factor for augmentation sphere                          
   RDEP   =    2.650    radius for radial grids                                 
   RDEPT  =    2.038    core radius for aug-charge                              
                                                                                
   Atomic configuration                                                         
    8 entries                                                                   
     n  l   j            E        occ.                                          
     1  0  0.50     -4394.2533   2.0000                                         
     2  0  0.50      -471.0040   2.0000                                         
     2  1  1.50      -384.9788   6.0000                                         
     3  0  0.50       -52.1410   2.0000                                         
     4  0  0.50        -3.5584   1.0000                                         
     3  1  1.50       -30.8841   6.0000                                         
     3  2  2.50        -1.3655   2.0000                                         
     4  3  2.50        -1.3606   0.0000                                         
   Description                                                                  
     l       E           TYP  RCUT    TYP  RCUT                                 
     0    -52.1409870     23  1.800                                             
     0     -3.5583698     23  2.500                                             
     1    -30.8840697     23  2.300                                             
     1      4.0817478     23  2.300                                             
     2     -1.3655397     23  2.500                                             
     2      0.3564476     23  2.500                                             
  local pseudopotential read in
  partial core-charges read in
  partial kinetic energy density read in
  atomic valenz-charges read in
  non local Contribution for L=           0  read in
    real space projection operators read in
  non local Contribution for L=           0  read in
    real space projection operators read in
  non local Contribution for L=           1  read in
    real space projection operators read in
  non local Contribution for L=           1  read in
    real space projection operators read in
  non local Contribution for L=           2  read in
    real space projection operators read in
  non local Contribution for L=           2  read in
    real space projection operators read in
    PAW grid and wavefunctions read in
 
   number of l-projection  operators is LMAX  =           6
   number of lm-projection operators is LMMAX =          18
 
 POTCAR:    PAW_PBE Cl 06Sep2000                  
   VRHFIN =Cl: s2p5                                                             
   LEXCH  = PE                                                                  
   EATOM  =   409.7259 eV,   30.1140 Ry                                         
                                                                                
   TITEL  = PAW_PBE Cl 06Sep2000                                                
   LULTRA =        F    use ultrasoft PP ?                                      
   IUNSCR =        1    unscreen: 0-lin 1-nonlin 2-no                           
   RPACOR =    1.500    partial core radius                                     
   POMASS =   35.453; ZVAL   =    7.000    mass and valenz                      
   RCORE  =    1.900    outmost cutoff radius                                   
   RWIGS  =    2.100; RWIGS  =    1.111    wigner-seitz radius (au A)           
   ENMAX  =  262.472; ENMIN  =  196.854 eV                                      
   ICORE  =        2    local potential                                         
   LCOR   =        T    correct aug charges                                     
   LPAW   =        T    paw PP                                                  
   EAUG   =  356.192                                                            
   DEXC   =    0.000                                                            
   RMAX   =    1.945    core radius for proj-oper                               
   RAUG   =    1.300    factor for augmentation sphere                          
   RDEP   =    2.020    radius for radial grids                                 
   RDEPT  =    1.678    core radius for aug-charge                              
                                                                                
   Atomic configuration                                                         
    6 entries                                                                   
     n  l   j            E        occ.                                          
     1  0  0.50     -2751.1850   2.0000                                         
     2  0  0.50      -252.6861   2.0000                                         
     2  1  1.50      -191.6157   6.0000                                         
     3  0  0.50       -20.6916   2.0000                                         
     3  1  0.50        -8.5949   5.0000                                         
     3  2  1.50        -8.1635   0.0000                                         
   Description                                                                  
     l       E           TYP  RCUT    TYP  RCUT                                 
     0    -20.6915656     23  1.900                                             
     0    -22.0521482     23  1.900                                             
     1     -8.5948577     23  1.900                                             
     1     -5.3847331     23  1.900                                             
     2     -8.1634956     23  1.900                                             
  local pseudopotential read in
  partial core-charges read in
  partial kinetic energy density read in
  atomic valenz-charges read in
  non local Contribution for L=           0  read in
    real space projection operators read in
  non local Contribution for L=           0  read in
    real space projection operators read in
  non local Contribution for L=           1  read in
    real space projection operators read in
  non local Contribution for L=           1  read in
    real space projection operators read in
    PAW grid and wavefunctions read in
 
   number of l-projection  operators is LMAX  =           4
   number of lm-projection operators is LMMAX =           8
 
 POTCAR:    PAW_PBE C 08Apr2002                   
   VRHFIN =C: s2p2                                                              
   LEXCH  = PE                                                                  
   EATOM  =   147.1560 eV,   10.8157 Ry                                         
                                                                                
   TITEL  = PAW_PBE C 08Apr2002                                                 
   LULTRA =        F    use ultrasoft PP ?                                      
   IUNSCR =        1    unscreen: 0-lin 1-nonlin 2-no                           
   RPACOR =    1.200    partial core radius                                     
   POMASS =   12.011; ZVAL   =    4.000    mass and valenz                      
   RCORE  =    1.500    outmost cutoff radius                                   
   RWIGS  =    1.630; RWIGS  =    0.863    wigner-seitz radius (au A)           
   ENMAX  =  400.000; ENMIN  =  300.000 eV                                      
   ICORE  =        2    local potential                                         
   LCOR   =        T    correct aug charges                                     
   LPAW   =        T    paw PP                                                  
   EAUG   =  644.873                                                            
   DEXC   =    0.000                                                            
   RMAX   =    1.529    core radius for proj-oper                               
   RAUG   =    1.300    factor for augmentation sphere                          
   RDEP   =    1.501    radius for radial grids                                 
   RDEPT  =    1.300    core radius for aug-charge                              
                                                                                
   Atomic configuration                                                         
    4 entries                                                                   
     n  l   j            E        occ.                                          
     1  0  0.50      -273.3789   2.0000                                         
     2  0  0.50       -13.7508   2.0000                                         
     2  1  0.50        -5.2854   2.0000                                         
     3  2  1.50        -5.4423   0.0000                                         
   Description                                                                  
     l       E           TYP  RCUT    TYP  RCUT                                 
     0    -13.7508458     23  1.200                                             
     0     -8.2022199     23  1.200                                             
     1     -5.2854383     23  1.500                                             
     1     34.0145650     23  1.500                                             
     2     -5.4423304      7  1.500                                             
  local pseudopotential read in
  partial core-charges read in
  partial kinetic energy density read in
  atomic valenz-charges read in
  non local Contribution for L=           0  read in
    real space projection operators read in
  non local Contribution for L=           0  read in
    real space projection operators read in
  non local Contribution for L=           1  read in
    real space projection operators read in
  non local Contribution for L=           1  read in
    real space projection operators read in
    PAW grid and wavefunctions read in
 
   number of l-projection  operators is LMAX  =           4
   number of lm-projection operators is LMMAX =           8
 
 Optimization of the real space projectors (new method)

 maximal supplied QI-value         = 15.12
 optimisation between [QCUT,QGAM] = [ 12.55, 25.10] = [ 44.09,176.36] Ry 
 Optimized for a Real-space Cutoff    1.56 Angstroem

   l    n(q)    QCUT    max X(q) W(low)/X(q) W(high)/X(q)  e(spline) 
   0     12    12.548     2.962    0.12E-05    0.11E-06    0.46E-07
   0     12    12.548    26.414    0.30E-04    0.15E-05    0.76E-07
   1     11    12.548     3.969    0.45E-05    0.12E-05    0.60E-07
   1     11    12.548     5.137    0.15E-04    0.18E-04    0.36E-06
   2     11    12.548   143.970    0.20E-03    0.19E-03    0.76E-06
   2     11    12.548   121.201    0.20E-03    0.19E-03    0.76E-06
 Optimization of the real space projectors (new method)

 maximal supplied QI-value         = 19.84
 optimisation between [QCUT,QGAM] = [ 12.50, 25.00] = [ 43.76,175.03] Ry 
 Optimized for a Real-space Cutoff    1.20 Angstroem

   l    n(q)    QCUT    max X(q) W(low)/X(q) W(high)/X(q)  e(spline) 
   0      9    12.501   168.010    0.44E-04    0.61E-04    0.77E-07
   0      9    12.501   164.674    0.43E-04    0.60E-04    0.75E-07
   1      8    12.501    69.222    0.11E-03    0.13E-03    0.91E-07
   1      8    12.501    56.786    0.11E-03    0.13E-03    0.90E-07
 Optimization of the real space projectors (new method)

 maximal supplied QI-value         = 25.13
 optimisation between [QCUT,QGAM] = [ 12.32, 24.88] = [ 42.47,173.37] Ry 
 Optimized for a Real-space Cutoff    1.16 Angstroem

   l    n(q)    QCUT    max X(q) W(low)/X(q) W(high)/X(q)  e(spline) 
   0      9    12.315   115.676    0.19E-03    0.80E-05    0.34E-06
   0      9    12.315    87.132    0.19E-03    0.82E-05    0.34E-06
   1      8    12.315     4.429    0.18E-03    0.13E-03    0.22E-06
   1      8    12.315     2.733    0.14E-03    0.10E-03    0.18E-06
  PAW_PBE Sc_sv 07Sep2000               :
 energy of atom  1       EATOM=-1273.2868
 kinetic energy error for atom=    0.0014 (will be added to EATOM!!)
  PAW_PBE Cl 06Sep2000                  :
 energy of atom  2       EATOM= -409.7259
 kinetic energy error for atom=    0.0013 (will be added to EATOM!!)
  PAW_PBE C 08Apr2002                   :
 energy of atom  3       EATOM= -147.1560
 kinetic energy error for atom=    0.0057 (will be added to EATOM!!)
 
 
 POSCAR: Sc Cl  C                                
  positions in cartesian coordinates
  No initial velocities read in
 exchange correlation table for  LEXCH =        8
   RHO(1)=    0.500       N(1)  =     2000
   RHO(2)=  100.500       N(2)  =     4000
 


--------------------------------------------------------------------------------------------------------


 ion  position               nearest neighbor table
   1  0.092  0.172  0.544-  70 2.20  66 2.29  50 2.42  65 2.45  49 2.63  61 2.73  17 3.20  18 3.23
                             6 3.35   2 3.37  29 3.40   5 3.41  16 3.41
   2  0.080  0.410  0.543-  66 2.25  71 2.30  67 2.45  51 2.50  62 2.58  50 2.63  30 3.05  18 3.21
                            13 3.34  19 3.36   1 3.37   6 3.40   3 3.40
   3  0.084  0.659  0.543-  67 2.20  72 2.32  51 2.49  52 2.52  68 2.55  63 2.65  31 3.21  19 3.22
                            20 3.38   2 3.40   8 3.41
   4  0.070  0.912  0.540-  65 2.09  68 2.22  69 2.50  64 2.68  52 2.68  49 2.74  32 2.88  17 3.20
                            20 3.20  16 3.33  15 3.35
   5  0.336  0.166  0.547-  74 2.23  69 2.35  70 2.41  53 2.49  49 2.60  54 2.70  17 3.15  21 3.17
                            22 3.27  10 3.33   9 3.35   1 3.41
   6  0.331  0.419  0.544-  75 2.23  70 2.32  71 2.32  50 2.57  55 2.58  54 2.79  22 3.16  23 3.17
                            18 3.31   1 3.35  11 3.35  10 3.37   7 3.38   2 3.40
   7  0.337  0.667  0.545-  76 2.31  71 2.37  72 2.43  55 2.58  56 2.62  51 2.64  23 3.12  11 3.30
                            24 3.32   6 3.38  12 3.41
   8  0.326  0.911  0.545-  72 2.27  52 2.33  73 2.42  69 2.43  53 2.64  56 2.67  20 3.12  21 3.22
                            24 3.25   3 3.41
   9  0.579  0.166  0.549-  73 2.35  78 2.40  53 2.43  57 2.44  74 2.45  58 2.62  26 3.20  21 3.20
                            25 3.27   5 3.35
  10  0.572  0.413  0.546-  75 2.19  74 2.27  79 2.46  59 2.67  54 2.67  58 2.73  22 3.04  27 3.13
                            26 3.26   5 3.33   6 3.37  11 3.42
  11  0.574  0.662  0.544-  76 2.15  75 2.27  80 2.29  59 2.56  55 2.66  60 2.88  27 3.11  23 3.12
                            28 3.15  12 3.30   7 3.30   6 3.35  10 3.42
  12  0.590  0.908  0.547-  76 2.26  60 2.45  77 2.50  73 2.58  56 2.65  57 2.77  28 3.06  25 3.25
                            11 3.30  16 3.30  24 3.38   7 3.41
  13  0.836  0.170  0.541-  77 2.29  78 2.31  66 2.41  57 2.47  62 2.54  61 2.63  25 3.13  30 3.17
                            29 3.17  16 3.32   2 3.34  14 3.43
  14  0.831  0.415  0.551-  78 2.31  79 2.42  67 2.47  62 2.50  63 2.52  58 2.60  26 3.28  30 3.30
                            15 3.37  31 3.42  13 3.43
  15  0.837  0.662  0.550-  79 2.38  68 2.39  80 2.51  63 2.57  64 2.58  59 2.63  27 3.18  32 3.21
                            31 3.22   4 3.35  14 3.37
  16  0.839  0.931  0.545-  65 2.29  61 2.37  77 2.38  80 2.47  64 2.74  60 2.77  28 3.12  29 3.18
                            32 3.19  12 3.30  13 3.32   4 3.33   1 3.41
  17  0.182  0.092  0.456-  69 2.19  70 2.31  65 2.51  37 2.56  33 2.63  36 2.69   5 3.15   1 3.20
                             4 3.20  21 3.29  20 3.35  22 3.39
  18  0.160  0.330  0.450-  66 2.22  71 2.44  34 2.47  70 2.47  33 2.62  38 2.69   2 3.21   1 3.23
                             6 3.31  30 3.35
  19  0.159  0.582  0.447-  67 2.40  71 2.51  72 2.52  39 2.56  34 2.56  35 2.60   3 3.22  30 3.25
                             2 3.36
  20  0.178  0.847  0.453-  69 2.28  72 2.36  68 2.53  40 2.53  36 2.55  35 2.77   8 3.12   4 3.20
                            21 3.29  24 3.33  17 3.35   3 3.38
  21  0.417  0.085  0.457-  69 2.24  73 2.30  74 2.37  40 2.67  37 2.73  41 2.79   5 3.17   9 3.20
                             8 3.22  20 3.29  17 3.29  24 3.38  26 3.40
  22  0.423  0.341  0.457-  74 2.25  75 2.27  70 2.45  42 2.50  38 2.56  37 2.57  10 3.04   6 3.16
                             5 3.27  17 3.39  27 3.39
  23  0.413  0.585  0.455-  71 2.37  76 2.38  75 2.51  43 2.56  38 2.61  39 2.69   7 3.12  11 3.12
                             6 3.17
  24  0.417  0.840  0.451-  73 2.38  40 2.40  72 2.41  44 2.56  76 2.61  39 2.83   8 3.25   7 3.32
                            20 3.33  25 3.34  21 3.38  12 3.38
  25  0.662  0.079  0.457-  77 2.23  73 2.30  78 2.49  41 2.51  45 2.57  44 2.70  13 3.13  12 3.25
                             9 3.27  24 3.34  29 3.39  28 3.40  26 3.42
  26  0.665  0.328  0.457-  78 2.27  79 2.39  74 2.45  46 2.63  41 2.64  42 2.68   9 3.20  10 3.26
                            14 3.28  21 3.40  25 3.42
  27  0.671  0.585  0.461-  79 2.25  80 2.29  75 2.46  43 2.61  47 2.68  42 2.80  11 3.11  10 3.13
                            15 3.18  31 3.33  32 3.38  22 3.39
  28  0.671  0.837  0.459-  80 2.30  77 2.31  76 2.34  44 2.57  43 2.60  48 2.70  12 3.06  16 3.12
                            11 3.15  29 3.35  25 3.40
  29  0.910  0.082  0.450-  77 2.19  66 2.45  65 2.58  45 2.61  48 2.61  33 2.68  13 3.17  16 3.18
                            28 3.35  25 3.39   1 3.40
  30  0.925  0.346  0.456-  67 2.26  66 2.47  78 2.48  45 2.57  46 2.57  34 2.64   2 3.05  13 3.17
                            19 3.25  14 3.30  18 3.35
  31  0.915  0.591  0.454-  68 2.30  67 2.36  79 2.37  46 2.50  47 2.51  35 2.66   3 3.21  15 3.22
                            32 3.28  27 3.33  14 3.42
  32  0.918  0.829  0.460-  68 2.10  65 2.27  80 2.43  48 2.65  47 2.71  36 2.74   4 2.88  16 3.19
                            15 3.21  31 3.28  27 3.38
  33  0.087  0.158  0.392-  18 2.62  17 2.63  29 2.68
  34  0.087  0.412  0.391-  18 2.47  19 2.56  30 2.64
  35  0.078  0.670  0.389-  19 2.60  31 2.66  20 2.77
  36  0.087  0.919  0.394-  20 2.55  17 2.69  32 2.74
  37  0.340  0.184  0.394-  17 2.56  22 2.57  21 2.73
  38  0.344  0.419  0.394-  22 2.56  23 2.61  18 2.69
  39  0.322  0.656  0.388-  19 2.56  23 2.69  24 2.83
  40  0.341  0.916  0.395-  24 2.40  20 2.53  21 2.67
  41  0.597  0.164  0.394-  25 2.51  26 2.64  21 2.79
  42  0.574  0.408  0.395-  22 2.50  26 2.68  27 2.80
  43  0.585  0.667  0.401-  23 2.56  28 2.60  27 2.61
  44  0.584  0.905  0.395-  24 2.56  28 2.57  25 2.70
  45  0.827  0.180  0.398-  30 2.57  25 2.57  29 2.61
  46  0.837  0.426  0.398-  31 2.50  30 2.57  26 2.63
  47  0.832  0.663  0.394-  31 2.51  27 2.68  32 2.71
  48  0.837  0.908  0.394-  29 2.61  32 2.65  28 2.70
  49  0.167  0.081  0.606-   5 2.60   1 2.63   4 2.74
  50  0.164  0.323  0.602-   1 2.42   6 2.57   2 2.63
  51  0.158  0.571  0.600-   3 2.49   2 2.50   7 2.64
  52  0.171  0.830  0.596-   8 2.33   3 2.52   4 2.68
  53  0.420  0.086  0.603-   9 2.43   5 2.49   8 2.64
  54  0.413  0.332  0.613-  10 2.67   5 2.70   6 2.79
  55  0.408  0.577  0.607-   6 2.58   7 2.58  11 2.66
  56  0.417  0.831  0.607-   7 2.62  12 2.65   8 2.67
  57  0.682  0.105  0.600-   9 2.44  13 2.47  12 2.77
  58  0.662  0.332  0.611-  14 2.60   9 2.62  10 2.73
  59  0.659  0.588  0.605-  11 2.56  15 2.63  10 2.67
  60  0.666  0.844  0.611-  12 2.45  16 2.77  11 2.88
  61  0.908  0.076  0.603-  16 2.37  13 2.63   1 2.73
  62  0.915  0.327  0.603-  14 2.50  13 2.54   2 2.58
  63  0.922  0.578  0.608-  14 2.52  15 2.57   3 2.65
  64  0.912  0.830  0.608-  15 2.58   4 2.68  16 2.74
  65  0.001  0.993  0.502-   4 2.09  32 2.27  16 2.29   1 2.45  17 2.51  29 2.58
  66  0.013  0.252  0.499-  18 2.22   2 2.25   1 2.29  13 2.41  29 2.45  30 2.47
  67  0.998  0.506  0.499-   3 2.20  30 2.26  31 2.36  19 2.40   2 2.45  14 2.47
  68  0.994  0.754  0.498-  32 2.10   4 2.22  31 2.30  15 2.39  20 2.53   3 2.55
  69  0.254  0.008  0.497-  17 2.19  21 2.24  20 2.28   5 2.35   8 2.43   4 2.50
  70  0.248  0.250  0.503-   1 2.20  17 2.31   6 2.32   5 2.41  22 2.45  18 2.47
  71  0.245  0.498  0.500-   2 2.30   6 2.32  23 2.37   7 2.37  18 2.44  19 2.51
  72  0.249  0.753  0.500-   8 2.27   3 2.32  20 2.36  24 2.41   7 2.43  19 2.52
  73  0.500  0.004  0.501-  25 2.30  21 2.30   9 2.35  24 2.38   8 2.42  12 2.58
  74  0.490  0.253  0.502-   5 2.23  22 2.25  10 2.27  21 2.37  26 2.45   9 2.45
  75  0.495  0.493  0.506-  10 2.19   6 2.23  22 2.27  11 2.27  27 2.46  23 2.51
  76  0.506  0.748  0.504-  11 2.15  12 2.26   7 2.31  28 2.34  23 2.38  24 2.61
  77  0.758  0.012  0.495-  29 2.19  25 2.23  13 2.29  28 2.31  16 2.38  12 2.50
  78  0.750  0.256  0.503-  26 2.27  14 2.31  13 2.31   9 2.40  30 2.48  25 2.49
  79  0.750  0.500  0.501-  27 2.25  31 2.37  15 2.38  26 2.39  14 2.42  10 2.46
  80  0.742  0.747  0.504-  27 2.29  11 2.29  28 2.30  32 2.43  16 2.47  15 2.51
 
  LATTYP: Found a hexagonal cell.
 ALAT       =    13.7939866762
 C/A-ratio  =     2.0161119278
  
  Lattice vectors:
  
 A1 = (  13.7939866800,   0.0000000000,   0.0000000000)
 A2 = (  -6.8969933400,  11.9459428800,   0.0000000000)
 A3 = (   0.0000000000,   0.0000000000,  27.8102210700)


Analysis of symmetry for initial positions (statically):
=====================================================================
 Subroutine PRICEL returns:
 Original cell was already a primitive cell.
 

 Routine SETGRP: Setting up the symmetry group for a 
 hexagonal supercell.


 Subroutine GETGRP returns: Found  1 space group operations
 (whereof  1 operations were pure point group operations)
 out of a pool of 24 trial point group operations.


The static configuration has the point symmetry C_1 .


Analysis of symmetry for dynamics (positions and initial velocities):
=====================================================================
 Subroutine PRICEL returns:
 Original cell was already a primitive cell.
 

 Routine SETGRP: Setting up the symmetry group for a 
 hexagonal supercell.


 Subroutine GETGRP returns: Found  1 space group operations
 (whereof  1 operations were pure point group operations)
 out of a pool of 24 trial point group operations.


The dynamic configuration has the point symmetry C_1 .


 Subroutine INISYM returns: Found  1 space group operations
 (whereof  1 operations are pure point group operations),
 and found     1 'primitive' translations

 
 

Automatic generation of k-mesh.
 generate k-points for:    3    3    1
Space group operators:
 irot       det(A)        alpha          n_x          n_y          n_z        tau_x        tau_y        tau_z
    1     1.000000     0.000000     1.000000     0.000000     0.000000     0.000000     0.000000     0.000000
 
 Subroutine IBZKPT returns following result:
 ===========================================
 
 Found      5 irreducible k-points:
 
 Following reciprocal coordinates:
            Coordinates               Weight
  0.000000  0.000000  0.000000      1.000000
  0.333333 -0.000000  0.000000      2.000000
  0.000000  0.333333  0.000000      2.000000
  0.333333  0.333333  0.000000      2.000000
 -0.333333  0.333333  0.000000      2.000000
 
 Following cartesian coordinates:
            Coordinates               Weight
  0.000000  0.000000  0.000000      1.000000
  0.024165  0.013952  0.000000      2.000000
  0.000000  0.027903  0.000000      2.000000
  0.024165  0.041855  0.000000      2.000000
 -0.024165  0.013952  0.000000      2.000000
 


--------------------------------------------------------------------------------------------------------




 Dimension of arrays:
   k-points           NKPTS =      5   k-points in BZ     NKDIM =      5   number of bands    NBANDS=    384
   number of dos      NEDOS =    301   number of ions     NIONS =     80
   non local maximal  LDIM  =      6   non local SUM 2l+1 LMDIM =     18
   total plane-waves  NPLWV = ******
   max r-space proj   IRMAX =   9806   max aug-charges    IRDMAX= 216835
   dimension x,y,z NGX =   112 NGY =  112 NGZ =  224
   dimension x,y,z NGXF=   224 NGYF=  224 NGZF=  448
   support grid    NGXF=   448 NGYF=  448 NGZF=  896
   ions per type =              32  32  16
   NGX,Y,Z   is equivalent  to a cutoff of  13.50, 13.50, 13.39 a.u.
   NGXF,Y,Z  is equivalent  to a cutoff of  27.00, 27.00, 26.78 a.u.

 SYSTEM =  unknown system                          
 POSCAR =  Sc Cl  C                                

 Startparameter for this run:
   NWRITE =      2    write-flag & timer
   PREC   = anorma    normal or accurate (medium, high low for compatibility)
   ISTART =      0    job   : 0-new  1-cont  2-samecut
   ICHARG =      2    charge: 1-file 2-atom 10-const
   ISPIN  =      1    spin polarized calculation?
   LNONCOLLINEAR =      F non collinear calculations
   LSORBIT =      F    spin-orbit coupling
   INIWAV =      1    electr: 0-lowe 1-rand  2-diag
   LASPH  =      F    aspherical Exc in radial PAW
   METAGGA=      F    non-selfconsistent MetaGGA calc.

 Electronic Relaxation 1
   ENCUT  =  600.0 eV  44.10 Ry    6.64 a.u.  27.55 27.55 55.54*2*pi/ulx,y,z
   ENINI  =  600.0     initial cutoff
   ENAUG  =  644.9 eV  augmentation charge cutoff
   NELM   =     60;   NELMIN=  2; NELMDL= -5     # of ELM steps 
   EDIFF  = 0.1E-05   stopping-criterion for ELM
   LREAL  =      T    real-space projection
   NLSPLINE    = F    spline interpolate recip. space projectors
   LCOMPAT=      F    compatible to vasp.4.4
   GGA_COMPAT  = T    GGA compatible to vasp.4.4-vasp.4.6
   LMAXPAW     = -100 max onsite density
   LMAXMIX     =    2 max onsite mixed and CHGCAR
   VOSKOWN=      0    Vosko Wilk Nusair interpolation
   ROPT   =   -0.00025  -0.00025  -0.00025
 Ionic relaxation
   EDIFFG = -.1E-01   stopping-criterion for IOM
   NSW    =      1    number of steps for IOM
   NBLOCK =      1;   KBLOCK =      1    inner block; outer block 
   IBRION =     -1    ionic relax: 0-MD 1-quasi-New 2-CG
   NFREE  =      0    steps in history (QN), initial steepest desc. (CG)
   ISIF   =      2    stress and relaxation
   IWAVPR =     10    prediction:  0-non 1-charg 2-wave 3-comb
   ISYM   =      2    0-nonsym 1-usesym 2-fastsym
   LCORR  =      T    Harris-Foulkes like correction to forces

   POTIM  = 1.0000    time-step for ionic-motion
   TEIN   =    0.0    initial temperature
   TEBEG  =    0.0;   TEEND  =   0.0 temperature during run
   SMASS  =  -3.00    Nose mass-parameter (am)
   estimated Nose-frequenzy (Omega)   =  0.10E-29 period in steps =****** mass=  -0.435E-26a.u.
   SCALEE = 1.0000    scale energy and forces
   NPACO  =    256;   APACO  = 16.0  distance and # of slots for P.C.
   PSTRESS=    0.0 pullay stress

  Mass of Ions in am
   POMASS =  44.96 35.45 12.01
  Ionic Valenz
   ZVAL   =  11.00  7.00  4.00
  Atomic Wigner-Seitz radii
   RWIGS  =  -1.00 -1.00 -1.00
  virtual crystal weights 
   VCA    =   1.00  1.00  1.00
   NELECT =     640.0000    total number of electrons
   NUPDOWN=      -1.0000    fix difference up-down

 DOS related values:
   EMIN   =  10.00;   EMAX   =-10.00  energy-range for DOS
   EFERMI =   0.00
   ISMEAR =     0;   SIGMA  =   0.05  broadening in eV -4-tet -1-fermi 0-gaus

 Electronic relaxation 2 (details)
   IALGO  =     38    algorithm
   LDIAG  =      T    sub-space diagonalisation (order eigenvalues)
   LSUBROT=      F    optimize rotation matrix (better conditioning)
   TURBO    =      0    0=normal 1=particle mesh
   IRESTART =      0    0=no restart 2=restart with 2 vectors
   NREBOOT  =      0    no. of reboots
   NMIN     =      0    reboot dimension
   EREF     =   0.00    reference energy to select bands
   IMIX   =      4    mixing-type and parameters
     AMIX     =   0.40;   BMIX     =  1.00
     AMIX_MAG =   1.60;   BMIX_MAG =  1.00
     AMIN     =   0.10
     WC   =   100.;   INIMIX=   1;  MIXPRE=   1;  MAXMIX= -45

 Intra band minimization:
   WEIMIN = 0.0000     energy-eigenvalue tresh-hold
   EBREAK =  0.65E-09  absolut break condition
   DEPER  =   0.30     relativ break condition  

   TIME   =   0.40     timestep for ELM

  volume/ion in A,a.u.               =      57.28       386.56
  Fermi-wavevector in a.u.,A,eV,Ry     =   0.849369  1.605075  9.815628  0.721428
  Thomas-Fermi vector in A             =   1.965179
 
 Write flags
   LWAVE        =      F    write WAVECAR
   LDOWNSAMPLE  =      F    k-point downsampling of WAVECAR
   LCHARG       =      F    write CHGCAR
   LVTOT        =      F    write LOCPOT, total local potential
   LVHAR        =      F    write LOCPOT, Hartree potential only
   LELF         =      F    write electronic localiz. function (ELF)
   LORBIT       =      0    0 simple, 1 ext, 2 COOP (PROOUT), +10 PAW based schemes


 Dipole corrections
   LMONO  =      F    monopole corrections only (constant potential shift)
   LDIPOL =      F    correct potential (dipole corrections)
   IDIPOL =      0    1-x, 2-y, 3-z, 4-all directions 
   EPSILON=  1.0000000 bulk dielectric constant

 Exchange correlation treatment:
   GGA     =    --    GGA type
   LEXCH   =     8    internal setting for exchange type
   VOSKOWN=      0    Vosko Wilk Nusair interpolation
   LHFCALC =     F    Hartree Fock is set to
   LHFONE  =     F    Hartree Fock one center treatment
   AEXX    =    0.0000 exact exchange contribution

 Linear response parameters
   LEPSILON=     F    determine dielectric tensor
   LRPA    =     F    only Hartree local field effects (RPA)
   LNABLA  =     F    use nabla operator in PAW spheres
   LVEL    =     F    velocity operator in full k-point grid
   LINTERFAST=   F  fast interpolation
   KINTER  =     0    interpolate to denser k-point grid
   CSHIFT  =0.1000    complex shift for real part using Kramers Kronig
   OMEGAMAX=  -1.0    maximum frequency
   DEG_THRESHOLD= 0.2000000E-02 threshold for treating states as degnerate
   RTIME   =   -0.100 relaxation time in fs
  (WPLASMAI=    0.000 imaginary part of plasma frequency in eV, 0.658/RTIME)
   DFIELD  = 0.0000000 0.0000000 0.0000000 field for delta impulse in time
 
 Orbital magnetization related:
   ORBITALMAG=     F  switch on orbital magnetization
   LCHIMAG   =     F  perturbation theory with respect to B field
   DQ        =  0.001000  dq finite difference perturbation B field
   LLRAUG    =     F  two centre corrections for induced B field



--------------------------------------------------------------------------------------------------------


 Static calculation
 charge density and potential will be updated during run
 non-spin polarized calculation
 Variant of blocked Davidson
 Davidson routine will perform the subspace rotation
 perform sub-space diagonalisation
    after iterative eigenvector-optimisation
 modified Broyden-mixing scheme, WC =      100.0
 initial mixing is a Kerker type mixing with AMIX =  0.4000 and BMIX =      1.0000
 Hartree-type preconditioning will be used
 using additional bands           64
 real space projection scheme for non local part
 use partial core corrections
 calculate Harris-corrections to forces 
   (improved forces if not selfconsistent)
 use gradient corrections 
 use of overlap-Matrix (Vanderbilt PP)
 Gauss-broadening in eV      SIGMA  =   0.05


--------------------------------------------------------------------------------------------------------


  energy-cutoff  :      600.00
  volume of cell :     4582.63
      direct lattice vectors                 reciprocal lattice vectors
    13.793986680  0.000000000  0.000000000     0.072495358  0.041855214  0.000000000
    -6.896993340 11.945942880  0.000000000     0.000000000  0.083710429  0.000000000
     0.000000000  0.000000000 27.810221070     0.000000000  0.000000000  0.035958003

  length of vectors
    13.793986680 13.793986676 27.810221070     0.083710429  0.083710429  0.035958003


 
 k-points in units of 2pi/SCALE and weight: read from INCAR                         
   0.00000000  0.00000000  0.00000000       0.111
   0.02416512  0.01395174  0.00000000       0.222
   0.00000000  0.02790348  0.00000000       0.222
   0.02416512  0.04185521  0.00000000       0.222
  -0.02416512  0.01395174  0.00000000       0.222
 
 k-points in reciprocal lattice and weights: read from INCAR                         
   0.00000000  0.00000000  0.00000000       0.111
   0.33333333 -0.00000000  0.00000000       0.222
   0.00000000  0.33333333  0.00000000       0.222
   0.33333333  0.33333333  0.00000000       0.222
  -0.33333333  0.33333333  0.00000000       0.222
 
 position of ions in fractional coordinates (direct lattice) 
   0.09196585  0.17209450  0.54442665
   0.08012616  0.40990332  0.54293708
   0.08432893  0.65852765  0.54327349
   0.07006813  0.91178594  0.54022359
   0.33604136  0.16609441  0.54737029
   0.33086145  0.41874428  0.54405258
   0.33728121  0.66696472  0.54470049
   0.32568683  0.91074301  0.54529479
   0.57863291  0.16625868  0.54860831
   0.57213323  0.41289692  0.54587907
   0.57398985  0.66178937  0.54360379
   0.58970862  0.90817587  0.54735108
   0.83606641  0.16996455  0.54102168
   0.83063318  0.41469361  0.55123457
   0.83667474  0.66182668  0.55036883
   0.83919273  0.93078754  0.54459103
   0.18174782  0.09174674  0.45552396
   0.15992733  0.32970024  0.45024090
   0.15878236  0.58177495  0.44729114
   0.17836491  0.84706925  0.45285295
   0.41660425  0.08486240  0.45689707
   0.42325434  0.34146782  0.45702244
   0.41300013  0.58544882  0.45525202
   0.41668666  0.84035461  0.45148109
   0.66230191  0.07892256  0.45660657
   0.66543157  0.32818925  0.45698124
   0.67142011  0.58462451  0.46095445
   0.67062396  0.83690300  0.45906311
   0.90950262  0.08183816  0.45046769
   0.92541338  0.34568658  0.45574723
   0.91502779  0.59053088  0.45418149
   0.91757581  0.82915191  0.46012637
   0.08653591  0.15801991  0.39166618
   0.08723626  0.41186458  0.39134198
   0.07777525  0.66995755  0.38875536
   0.08714297  0.91867075  0.39397335
   0.34036425  0.18421018  0.39407730
   0.34373254  0.41938346  0.39440115
   0.32212872  0.65592982  0.38771753
   0.34080377  0.91553557  0.39458518
   0.59720352  0.16368160  0.39371525
   0.57409217  0.40790558  0.39477313
   0.58547135  0.66660295  0.40085540
   0.58414128  0.90470886  0.39472221
   0.82676568  0.17957609  0.39777456
   0.83737994  0.42613488  0.39845247
   0.83188189  0.66306769  0.39369737
   0.83708740  0.90810857  0.39374866
   0.16733520  0.08116765  0.60632856
   0.16407643  0.32275567  0.60236830
   0.15811340  0.57105611  0.60004252
   0.17055694  0.83029059  0.59618573
   0.41974701  0.08592295  0.60296374
   0.41272214  0.33214544  0.61327992
   0.40756666  0.57716416  0.60691770
   0.41719400  0.83126019  0.60688197
   0.68196900  0.10538822  0.59984906
   0.66222729  0.33163714  0.61069958
   0.65899860  0.58778290  0.60543563
   0.66648721  0.84434829  0.61120748
   0.90843866  0.07591474  0.60288459
   0.91487555  0.32749559  0.60252400
   0.92172036  0.57849197  0.60795969
   0.91222667  0.82977330  0.60848626
   0.00113702  0.99306376  0.50173276
   0.01255530  0.25206511  0.49884650
   0.99822306  0.50570348  0.49914878
   0.99431148  0.75383019  0.49807553
   0.25379121  0.00814578  0.49703819
   0.24794602  0.25037744  0.50253180
   0.24482195  0.49785828  0.50015803
   0.24911747  0.75335181  0.49976186
   0.49950882  0.00400748  0.50059474
   0.49029991  0.25257626  0.50235532
   0.49459451  0.49305334  0.50604287
   0.50577562  0.74841714  0.50415010
   0.75821772  0.01161890  0.49484774
   0.74977543  0.25639447  0.50327519
   0.74952575  0.49951168  0.50106426
   0.74212933  0.74744201  0.50393034
 
 position of ions in cartesian coordinates  (Angst):
   0.08164107  2.05583105 15.14062557
  -1.72184126  4.89668166 15.09920009
  -3.37862868  7.86673368 15.10855595
  -5.32206277 10.89214276 15.02373739
   3.48979806  1.98415431 15.22248880
   1.67582188  5.00229521 15.13022255
   0.05240122  7.96752246 15.14824093
  -1.78886864 10.87968395 15.16476855
   6.83496969  1.98611666 15.25691846
   5.04425087  4.93244305 15.18101762
   3.35325143  7.90569801 15.11774148
   1.87074998 10.84901703 15.22195462
  10.36044462  2.03038678 15.04593255
   8.59760397  4.95390614 15.32995513
   6.97646608  7.90614371 15.30587892
   5.15617782 11.11913479 15.14519691
   1.87425030  1.09600136 12.66822208
  -0.06790489  3.93858019 12.52129890
  -1.82225621  6.94985030 12.43926543
  -3.38186774 10.11904089 12.59394059
   5.16133807  1.01376134 12.70640857
   3.48326341  4.07915507 12.70989503
   1.65908161  6.99373817 12.66065923
  -0.04814994 10.03882815 12.55578884
   8.59145541  0.94280437 12.69832969
   6.91543519  3.92052999 12.70874922
   5.22940865  6.98389099 12.81924510
   3.47846353  9.99759546 12.76664654
  11.98122975  0.97763397 12.52760605
  10.38094176  4.12955214 12.67443126
   8.54899360  7.05444812 12.63088776
   6.93837326  9.90500141 12.79621600
   0.10381291  1.88769678 10.89232302
  -1.63729154  4.92011078 10.88330690
  -3.54786202  8.00327459 10.81137261
  -5.13401712 10.97438827 10.95648591
   3.42448351  2.20056428 10.95937691
   1.84895715  5.00993091 10.96838319
  -0.08050426  7.83570014 10.78251030
  -1.61340000 10.93693557 10.97350108
   7.10890658  1.95533100 10.94930815
   5.10569773  4.87281674 10.97872790
   3.47842797  7.96320074 11.14787716
   1.81786604 10.80760033 10.97731181
  10.16585975  2.14520570 11.06219834
   8.61175824  5.09058297 11.08105139
   6.90179421  7.92096879 10.94881098
   5.28355368 10.84821315 10.95023715
   1.74840677  0.96962413 16.86213140
   0.03722431  3.85562081 16.75199558
  -1.75755609  6.82180363 16.68731525
  -3.37384849  9.91860401 16.58005708
   5.19737471  1.02643066 16.76855485
   3.40227881  3.96779048 17.05545022
   1.64127165  6.89477010 16.87851538
   0.02157246  9.93018674 16.87752166
   8.68020939  1.25896166 16.68193491
   6.84745519  3.96171839 16.98369027
   5.03628322  7.02162089 16.83729860
   3.37005109 10.08653647 16.99781511
  12.00740738  0.90687316 16.76635362
  10.36104630  3.91224358 16.75632562
   8.72434312  6.91063203 16.90749329
   6.86030153  9.91242448 16.92213751
  -6.83347012 11.86308296 13.95329884
  -1.56530375  3.01115535 13.87303136
  10.28164199  6.04110494 13.88143787
   8.51635755  9.00521239 13.85159068
   3.44461120  0.09730900 13.82274192
   1.69331249  2.99099465 13.97552037
  -0.05665459  5.94738662 13.90950546
  -1.75953935  8.99949774 13.89848767
   6.86257848  0.04787307 13.92165052
   5.02117364  3.01726163 13.97061261
   3.42184446  5.88998699 14.07316395
   1.81483416  8.94054846 14.02052574
  10.37870969  0.13879868 13.76182503
   8.57404129  3.06287372 13.99619426
   6.89381943  5.96713803 13.93470785
   5.08181956  8.92889959 14.01441423
 


--------------------------------------------------------------------------------------------------------


 k-point  1 :   0.0000 0.0000 0.0000  plane waves:  153003
 k-point  2 :   0.3333-0.0000 0.0000  plane waves:  152954
 k-point  3 :   0.0000 0.3333 0.0000  plane waves:  152954
 k-point  4 :   0.3333 0.3333 0.0000  plane waves:  152898
 k-point  5 :  -0.3333 0.3333 0.0000  plane waves:  152954

 maximum and minimum number of plane-waves per node :     11814    11730

 maximum number of plane-waves:    153003
 maximum index in each direction: 
   IXMAX=   27   IYMAX=   27   IZMAX=   55
   IXMIN=  -27   IYMIN=  -27   IZMIN=  -55


 real space projection operators:
  total allocation   :      55031.78 KBytes
  max/ min on nodes  :       4465.52       3885.61


 parallel 3D FFT for wavefunctions:
    minimum data exchange during FFTs selected (reduces bandwidth)
 parallel 3D FFT for charge:
    minimum data exchange during FFTs selected (reduces bandwidth)


 total amount of memory used by VASP MPI-rank0   253937. kBytes
=======================================================================

   base      :      30000. kBytes
   nonlr-proj:      18753. kBytes
   fftplans  :      72602. kBytes
   grid      :      41267. kBytes
   one-center:        108. kBytes
   wavefun   :      91207. kBytes
 
     INWAV:  cpu time    0.0000: real time    0.0000
 Broyden mixing: mesh for mixing (old mesh)
   NGX = 55   NGY = 55   NGZ =111
  (NGX  =224   NGY  =224   NGZ  =448)
  gives a total of 335775 points

 initial charge density was supplied:
 charge density of overlapping atoms calculated
 number of electron     640.0000000 magnetization 
 keeping initial charge density in first step


--------------------------------------------------------------------------------------------------------


 Maximum index for non-local projection operator          949
 Maximum index for augmentation-charges         5137 (set IRDMAX)


--------------------------------------------------------------------------------------------------------


 First call to EWALD:  gamma=   0.107
 Maximum number of real-space cells 4x 4x 2
 Maximum number of reciprocal cells 2x 2x 4

    FEWALD:  cpu time    0.0119: real time    0.0184


--------------------------------------- Iteration      1(   1)  ---------------------------------------


    POTLOK:  cpu time    1.0500: real time    1.0562
    SETDIJ:  cpu time    1.1617: real time    1.1618
     EDDAV:  cpu time  156.7239: real time  156.7262
       DOS:  cpu time    0.0012: real time    0.0012
    --------------------------------------------
      LOOP:  cpu time  158.9367: real time  158.9453

 eigenvalue-minimisations  :  4424
 total energy-change (2. order) : 0.1218525E+05  (-0.2679372E+05)
 number of electron     640.0000000 magnetization 
 augmentation part      640.0000000 magnetization 

 Free energy of the ion-electron system (eV)
  ---------------------------------------------------
  alpha Z        PSCENC =       784.57699423
  Ewald energy   TEWEN  =    251453.14181424
  -Hartree energ DENC   =   -299118.85280318
  -exchange      EXHF   =         0.00000000
  -V(xc)+E(xc)   XCENC  =      2502.40428998
  PAW double counting   =     43679.68029659   -43417.33247688
  entropy T*S    EENTRO =        -0.07425019
  eigenvalues    EBANDS =        90.97928367
  atomic energy  EATOM  =     56210.72393729
  Solvation  Ediel_sol  =         0.00000000
  ---------------------------------------------------
  free energy    TOTEN  =     12185.24708574 eV

  energy without entropy =    12185.32133593  energy(sigma->0) =    12185.28421084


--------------------------------------------------------------------------------------------------------




--------------------------------------- Iteration      1(   2)  ---------------------------------------


     EDDAV:  cpu time  172.8252: real time  172.8587
       DOS:  cpu time    0.0011: real time    0.0011
    --------------------------------------------
      LOOP:  cpu time  172.8263: real time  172.8598

 eigenvalue-minimisations  :  5168
 total energy-change (2. order) :-0.1043970E+05  (-0.1017283E+05)
 number of electron     640.0000000 magnetization 
 augmentation part      640.0000000 magnetization 

 Free energy of the ion-electron system (eV)
  ---------------------------------------------------
  alpha Z        PSCENC =       784.57699423
  Ewald energy   TEWEN  =    251453.14181424
  -Hartree energ DENC   =   -299118.85280318
  -exchange      EXHF   =         0.00000000
  -V(xc)+E(xc)   XCENC  =      2502.40428998
  PAW double counting   =     43679.68029659   -43417.33247688
  entropy T*S    EENTRO =        -0.04557412
  eigenvalues    EBANDS =    -10348.74466820
  atomic energy  EATOM  =     56210.72393729
  Solvation  Ediel_sol  =         0.00000000
  ---------------------------------------------------
  free energy    TOTEN  =      1745.55180994 eV

  energy without entropy =     1745.59738406  energy(sigma->0) =     1745.57459700


--------------------------------------------------------------------------------------------------------




--------------------------------------- Iteration      1(   3)  ---------------------------------------


     EDDAV:  cpu time  216.9832: real time  217.0037
       DOS:  cpu time    0.0004: real time    0.0004
    --------------------------------------------
      LOOP:  cpu time  216.9836: real time  217.0041

 eigenvalue-minimisations  :  6800
 total energy-change (2. order) :-0.2151615E+04  (-0.2066734E+04)
 number of electron     640.0000000 magnetization 
 augmentation part      640.0000000 magnetization 

 Free energy of the ion-electron system (eV)
  ---------------------------------------------------
  alpha Z        PSCENC =       784.57699423
  Ewald energy   TEWEN  =    251453.14181424
  -Hartree energ DENC   =   -299118.85280318
  -exchange      EXHF   =         0.00000000
  -V(xc)+E(xc)   XCENC  =      2502.40428998
  PAW double counting   =     43679.68029659   -43417.33247688
  entropy T*S    EENTRO =        -0.00000000
  eigenvalues    EBANDS =    -12500.40474261
  atomic energy  EATOM  =     56210.72393729
  Solvation  Ediel_sol  =         0.00000000
  ---------------------------------------------------
  free energy    TOTEN  =      -406.06269035 eV

  energy without entropy =     -406.06269035  energy(sigma->0) =     -406.06269035


--------------------------------------------------------------------------------------------------------




--------------------------------------- Iteration      1(   4)  ---------------------------------------


     EDDAV:  cpu time  197.6680: real time  197.6773
       DOS:  cpu time    0.0005: real time    0.0005
    --------------------------------------------
      LOOP:  cpu time  197.6685: real time  197.6778

 eigenvalue-minimisations  :  6088
 total energy-change (2. order) :-0.2375280E+03  (-0.2331236E+03)
 number of electron     640.0000000 magnetization 
 augmentation part      640.0000000 magnetization 

 Free energy of the ion-electron system (eV)
  ---------------------------------------------------
  alpha Z        PSCENC =       784.57699423
  Ewald energy   TEWEN  =    251453.14181424
  -Hartree energ DENC   =   -299118.85280318
  -exchange      EXHF   =         0.00000000
  -V(xc)+E(xc)   XCENC  =      2502.40428998
  PAW double counting   =     43679.68029659   -43417.33247688
  entropy T*S    EENTRO =        -0.00000000
  eigenvalues    EBANDS =    -12737.93276456
  atomic energy  EATOM  =     56210.72393729
  Solvation  Ediel_sol  =         0.00000000
  ---------------------------------------------------
  free energy    TOTEN  =      -643.59071230 eV

  energy without entropy =     -643.59071230  energy(sigma->0) =     -643.59071230


--------------------------------------------------------------------------------------------------------




--------------------------------------- Iteration      1(   5)  ---------------------------------------


     EDDAV:  cpu time  197.4940: real time  197.5033
       DOS:  cpu time    0.0005: real time    0.0005
    CHARGE:  cpu time   13.3837: real time   13.3839
    MIXING:  cpu time    0.2018: real time    0.2020
    --------------------------------------------
      LOOP:  cpu time  211.0800: real time  211.0897

 eigenvalue-minimisations  :  6080
 total energy-change (2. order) :-0.1042053E+02  (-0.1036710E+02)
 number of electron     640.0000003 magnetization 
 augmentation part       59.2061292 magnetization 

 Broyden mixing:
  rms(total) = 0.69423E+01    rms(broyden)= 0.69421E+01
  rms(prec ) = 0.73065E+01
  weight for this iteration     100.00

 Free energy of the ion-electron system (eV)
  ---------------------------------------------------
  alpha Z        PSCENC =       784.57699423
  Ewald energy   TEWEN  =    251453.14181424
  -Hartree energ DENC   =   -299118.85280318
  -exchange      EXHF   =         0.00000000
  -V(xc)+E(xc)   XCENC  =      2502.40428998
  PAW double counting   =     43679.68029659   -43417.33247688
  entropy T*S    EENTRO =        -0.00000000
  eigenvalues    EBANDS =    -12748.35329364
  atomic energy  EATOM  =     56210.72393729
  Solvation  Ediel_sol  =         0.00000000
  ---------------------------------------------------
  free energy    TOTEN  =      -654.01124138 eV

  energy without entropy =     -654.01124138  energy(sigma->0) =     -654.01124138


--------------------------------------------------------------------------------------------------------




--------------------------------------- Iteration      1(   6)  ---------------------------------------


    POTLOK:  cpu time    1.0327: real time    1.0467
    SETDIJ:  cpu time    1.2468: real time    1.2468
     EDDAV:  cpu time  189.1959: real time  189.1986
       DOS:  cpu time    0.0009: real time    0.0009
    CHARGE:  cpu time   13.5117: real time   13.5119
    MIXING:  cpu time    0.2034: real time    0.2034
    --------------------------------------------
      LOOP:  cpu time  205.1914: real time  205.2083

 eigenvalue-minimisations  :  5840
 total energy-change (2. order) : 0.1308736E+03  (-0.6960028E+02)
 number of electron     640.0000004 magnetization 
 augmentation part       70.0787714 magnetization 

 Broyden mixing:
  rms(total) = 0.30529E+01    rms(broyden)= 0.30527E+01
  rms(prec ) = 0.30858E+01
  weight for this iteration     100.00

 eigenvalues of (default mixing * dielectric matrix)
  average eigenvalue GAMMA=   0.9501
  0.9501

 Free energy of the ion-electron system (eV)
  ---------------------------------------------------
  alpha Z        PSCENC =       784.57699423
  Ewald energy   TEWEN  =    251453.14181424
  -Hartree energ DENC   =   -298928.31773323
  -exchange      EXHF   =         0.00000000
  -V(xc)+E(xc)   XCENC  =      2492.03167771
  PAW double counting   =     49201.29040369   -48993.47011556
  entropy T*S    EENTRO =        -0.00000000
  eigenvalues    EBANDS =    -12743.11463025
  atomic energy  EATOM  =     56210.72393729
  Solvation  Ediel_sol  =         0.00000000
  ---------------------------------------------------
  free energy    TOTEN  =      -523.13765189 eV

  energy without entropy =     -523.13765188  energy(sigma->0) =     -523.13765188


--------------------------------------------------------------------------------------------------------




--------------------------------------- Iteration      1(   7)  ---------------------------------------


    POTLOK:  cpu time    1.0341: real time    1.0434
    SETDIJ:  cpu time    1.2487: real time    1.2487
     EDDAV:  cpu time  190.0391: real time  190.0410
       DOS:  cpu time    0.0007: real time    0.0007
    CHARGE:  cpu time   13.4537: real time   13.4538
    MIXING:  cpu time    0.2031: real time    0.2031
    --------------------------------------------
      LOOP:  cpu time  205.9794: real time  205.9908

 eigenvalue-minimisations  :  5880
 total energy-change (2. order) :-0.5093266E+01  (-0.9039434E+01)
 number of electron     640.0000004 magnetization 
 augmentation part       69.5256457 magnetization 

 Broyden mixing:
  rms(total) = 0.15347E+01    rms(broyden)= 0.15346E+01
  rms(prec ) = 0.15716E+01
  weight for this iteration     100.00

 eigenvalues of (default mixing * dielectric matrix)
  average eigenvalue GAMMA=   0.9945
  0.9945  0.9945

 Free energy of the ion-electron system (eV)
  ---------------------------------------------------
  alpha Z        PSCENC =       784.57699423
  Ewald energy   TEWEN  =    251453.14181424
  -Hartree energ DENC   =   -299028.55115630
  -exchange      EXHF   =         0.00000000
  -V(xc)+E(xc)   XCENC  =      2488.01956949
  PAW double counting   =     54225.90844453   -54032.12376221
  entropy T*S    EENTRO =        -0.00000000
  eigenvalues    EBANDS =    -12629.92675875
  atomic energy  EATOM  =     56210.72393729
  Solvation  Ediel_sol  =         0.00000000
  ---------------------------------------------------
  free energy    TOTEN  =      -528.23091748 eV

  energy without entropy =     -528.23091748  energy(sigma->0) =     -528.23091748


--------------------------------------------------------------------------------------------------------




--------------------------------------- Iteration      1(   8)  ---------------------------------------


    POTLOK:  cpu time    1.0378: real time    1.0467
    SETDIJ:  cpu time    1.2493: real time    1.2493
     EDDAV:  cpu time  193.0471: real time  193.0530
       DOS:  cpu time    0.0009: real time    0.0009
    CHARGE:  cpu time   13.4557: real time   13.4558
    MIXING:  cpu time    0.2032: real time    0.2032
    --------------------------------------------
      LOOP:  cpu time  208.9940: real time  209.0090

 eigenvalue-minimisations  :  5992
 total energy-change (2. order) : 0.2322329E+01  (-0.1012639E+01)
 number of electron     640.0000004 magnetization 
 augmentation part       69.2440051 magnetization 

 Broyden mixing:
  rms(total) = 0.93872E+00    rms(broyden)= 0.93872E+00
  rms(prec ) = 0.95490E+00
  weight for this iteration     100.00

 eigenvalues of (default mixing * dielectric matrix)
  average eigenvalue GAMMA=   1.4331
  2.5629  0.8681  0.8681

 Free energy of the ion-electron system (eV)
  ---------------------------------------------------
  alpha Z        PSCENC =       784.57699423
  Ewald energy   TEWEN  =    251453.14181424
  -Hartree energ DENC   =   -299096.98288806
  -exchange      EXHF   =         0.00000000
  -V(xc)+E(xc)   XCENC  =      2488.06137812
  PAW double counting   =     56097.43219927   -55914.05401825
  entropy T*S    EENTRO =        -0.00000000
  eigenvalues    EBANDS =    -12548.80800555
  atomic energy  EATOM  =     56210.72393729
  Solvation  Ediel_sol  =         0.00000000
  ---------------------------------------------------
  free energy    TOTEN  =      -525.90858871 eV

  energy without entropy =     -525.90858871  energy(sigma->0) =     -525.90858871


--------------------------------------------------------------------------------------------------------




--------------------------------------- Iteration      1(   9)  ---------------------------------------


    POTLOK:  cpu time    1.0333: real time    1.0419
    SETDIJ:  cpu time    1.2471: real time    1.2471
     EDDAV:  cpu time  176.5621: real time  176.5720
       DOS:  cpu time    0.0008: real time    0.0008
    CHARGE:  cpu time   13.4636: real time   13.4637
    MIXING:  cpu time    0.1966: real time    0.1966
    --------------------------------------------
      LOOP:  cpu time  192.5035: real time  192.5221

 eigenvalue-minimisations  :  5376
 total energy-change (2. order) : 0.5444245E+00  (-0.3927770E+00)
 number of electron     640.0000004 magnetization 
 augmentation part       69.9993955 magnetization 

 Broyden mixing:
  rms(total) = 0.30918E+00    rms(broyden)= 0.30917E+00
  rms(prec ) = 0.32194E+00
  weight for this iteration     100.00

 eigenvalues of (default mixing * dielectric matrix)
  average eigenvalue GAMMA=   1.2230
  2.1023  0.8663  0.8663  1.0572

 Free energy of the ion-electron system (eV)
  ---------------------------------------------------
  alpha Z        PSCENC =       784.57699423
  Ewald energy   TEWEN  =    251453.14181424
  -Hartree energ DENC   =   -299226.74271861
  -exchange      EXHF   =         0.00000000
  -V(xc)+E(xc)   XCENC  =      2487.51655597
  PAW double counting   =     59923.24903255   -59757.19928956
  entropy T*S    EENTRO =        -0.00000000
  eigenvalues    EBANDS =    -12400.63049033
  atomic energy  EATOM  =     56210.72393729
  Solvation  Ediel_sol  =         0.00000000
  ---------------------------------------------------
  free energy    TOTEN  =      -525.36416423 eV

  energy without entropy =     -525.36416423  energy(sigma->0) =     -525.36416423


--------------------------------------------------------------------------------------------------------




--------------------------------------- Iteration      1(  10)  ---------------------------------------


    POTLOK:  cpu time    1.0355: real time    1.0444
    SETDIJ:  cpu time    1.2484: real time    1.2484
     EDDAV:  cpu time  182.8161: real time  182.8210
       DOS:  cpu time    0.0006: real time    0.0006
    CHARGE:  cpu time   13.4653: real time   13.4671
    MIXING:  cpu time    0.2006: real time    0.2006
    --------------------------------------------
      LOOP:  cpu time  198.7665: real time  198.7820

 eigenvalue-minimisations  :  5608
 total energy-change (2. order) : 0.1323196E+00  (-0.6359514E-01)
 number of electron     640.0000004 magnetization 
 augmentation part       69.7749003 magnetization 

 Broyden mixing:
  rms(total) = 0.17691E+00    rms(broyden)= 0.17691E+00
  rms(prec ) = 0.18366E+00
  weight for this iteration     100.00

 eigenvalues of (default mixing * dielectric matrix)
  average eigenvalue GAMMA=   1.2091
  2.0261  1.5846  0.9016  0.9016  0.6314

 Free energy of the ion-electron system (eV)
  ---------------------------------------------------
  alpha Z        PSCENC =       784.57699423
  Ewald energy   TEWEN  =    251453.14181424
  -Hartree energ DENC   =   -299253.49625195
  -exchange      EXHF   =         0.00000000
  -V(xc)+E(xc)   XCENC  =      2488.18157720
  PAW double counting   =     59295.98632609   -59127.17883589
  entropy T*S    EENTRO =        -0.00000000
  eigenvalues    EBANDS =    -12377.16740585
  atomic energy  EATOM  =     56210.72393729
  Solvation  Ediel_sol  =         0.00000000
  ---------------------------------------------------
  free energy    TOTEN  =      -525.23184466 eV

  energy without entropy =     -525.23184466  energy(sigma->0) =     -525.23184466


--------------------------------------------------------------------------------------------------------




--------------------------------------- Iteration      1(  11)  ---------------------------------------


    POTLOK:  cpu time    1.0351: real time    1.0499
    SETDIJ:  cpu time    1.2289: real time    1.2289
     EDDAV:  cpu time  184.1631: real time  184.1642
       DOS:  cpu time    0.0006: real time    0.0006
    CHARGE:  cpu time   12.4385: real time   12.4386
    MIXING:  cpu time    0.2021: real time    0.2021
    --------------------------------------------
      LOOP:  cpu time  199.0684: real time  199.0844

 eigenvalue-minimisations  :  5648
 total energy-change (2. order) : 0.1903339E-01  (-0.2130908E-01)
 number of electron     640.0000004 magnetization 
 augmentation part       69.7232217 magnetization 

 Broyden mixing:
  rms(total) = 0.82579E-01    rms(broyden)= 0.82577E-01
  rms(prec ) = 0.88605E-01
  weight for this iteration     100.00

 eigenvalues of (default mixing * dielectric matrix)
  average eigenvalue GAMMA=   1.2647
  2.4550  1.7351  0.8922  0.8922  0.8068  0.8068

 Free energy of the ion-electron system (eV)
  ---------------------------------------------------
  alpha Z        PSCENC =       784.57699423
  Ewald energy   TEWEN  =    251453.14181424
  -Hartree energ DENC   =   -299300.74183638
  -exchange      EXHF   =         0.00000000
  -V(xc)+E(xc)   XCENC  =      2488.73290028
  PAW double counting   =     59422.09011938   -59253.55740240
  entropy T*S    EENTRO =        -0.00000000
  eigenvalues    EBANDS =    -12330.17933790
  atomic energy  EATOM  =     56210.72393729
  Solvation  Ediel_sol  =         0.00000000
  ---------------------------------------------------
  free energy    TOTEN  =      -525.21281127 eV

  energy without entropy =     -525.21281127  energy(sigma->0) =     -525.21281127


--------------------------------------------------------------------------------------------------------




--------------------------------------- Iteration      1(  12)  ---------------------------------------


    POTLOK:  cpu time    1.0341: real time    1.0425
    SETDIJ:  cpu time    1.2301: real time    1.2301
     EDDAV:  cpu time  194.9183: real time  194.9199
       DOS:  cpu time    0.0008: real time    0.0008
    CHARGE:  cpu time   12.5742: real time   12.5743
    MIXING:  cpu time    0.2050: real time    0.2050
    --------------------------------------------
      LOOP:  cpu time  209.9625: real time  209.9725

 eigenvalue-minimisations  :  6048
 total energy-change (2. order) : 0.1542170E-01  (-0.3533487E-02)
 number of electron     640.0000004 magnetization 
 augmentation part       69.7224798 magnetization 

 Broyden mixing:
  rms(total) = 0.30329E-01    rms(broyden)= 0.30329E-01
  rms(prec ) = 0.37390E-01
  weight for this iteration     100.00

 eigenvalues of (default mixing * dielectric matrix)
  average eigenvalue GAMMA=   1.2697
  2.3263  2.1307  0.9173  0.9173  0.9492  0.9492  0.6982

 Free energy of the ion-electron system (eV)
  ---------------------------------------------------
  alpha Z        PSCENC =       784.57699423
  Ewald energy   TEWEN  =    251453.14181424
  -Hartree energ DENC   =   -299336.55255622
  -exchange      EXHF   =         0.00000000
  -V(xc)+E(xc)   XCENC  =      2489.13381396
  PAW double counting   =     59546.04217838   -59377.88802422
  entropy T*S    EENTRO =        -0.00000000
  eigenvalues    EBANDS =    -12294.37554722
  atomic energy  EATOM  =     56210.72393729
  Solvation  Ediel_sol  =         0.00000000
  ---------------------------------------------------
  free energy    TOTEN  =      -525.19738957 eV

  energy without entropy =     -525.19738957  energy(sigma->0) =     -525.19738957


--------------------------------------------------------------------------------------------------------




--------------------------------------- Iteration      1(  13)  ---------------------------------------


    POTLOK:  cpu time    1.0335: real time    1.0415
    SETDIJ:  cpu time    1.2299: real time    1.2299
     EDDAV:  cpu time  174.7807: real time  174.7816
       DOS:  cpu time    0.0005: real time    0.0005
    CHARGE:  cpu time   12.4767: real time   12.4792
    MIXING:  cpu time    0.2002: real time    0.2002
    --------------------------------------------
      LOOP:  cpu time  189.7214: real time  189.7329

 eigenvalue-minimisations  :  5296
 total energy-change (2. order) : 0.3463414E-02  (-0.9998748E-03)
 number of electron     640.0000004 magnetization 
 augmentation part       69.7321747 magnetization 

 Broyden mixing:
  rms(total) = 0.18554E-01    rms(broyden)= 0.18553E-01
  rms(prec ) = 0.25052E-01
  weight for this iteration     100.00

 eigenvalues of (default mixing * dielectric matrix)
  average eigenvalue GAMMA=   1.3084
  2.7560  1.8503  1.6371  0.8954  0.8954  0.8858  0.8858  0.6615

 Free energy of the ion-electron system (eV)
  ---------------------------------------------------
  alpha Z        PSCENC =       784.57699423
  Ewald energy   TEWEN  =    251453.14181424
  -Hartree energ DENC   =   -299359.71599995
  -exchange      EXHF   =         0.00000000
  -V(xc)+E(xc)   XCENC  =      2489.33004877
  PAW double counting   =     59525.35720887   -59357.10523232
  entropy T*S    EENTRO =        -0.00000000
  eigenvalues    EBANDS =    -12271.50269728
  atomic energy  EATOM  =     56210.72393729
  Solvation  Ediel_sol  =         0.00000000
  ---------------------------------------------------
  free energy    TOTEN  =      -525.19392616 eV

  energy without entropy =     -525.19392616  energy(sigma->0) =     -525.19392616


--------------------------------------------------------------------------------------------------------




--------------------------------------- Iteration      1(  14)  ---------------------------------------


    POTLOK:  cpu time    1.0311: real time    1.0481
    SETDIJ:  cpu time    1.2324: real time    1.2324
     EDDAV:  cpu time  177.9932: real time  177.9960
       DOS:  cpu time    0.0007: real time    0.0007
    CHARGE:  cpu time   12.3133: real time   12.3134
    MIXING:  cpu time    0.2032: real time    0.2032
    --------------------------------------------
      LOOP:  cpu time  192.7740: real time  192.7938

 eigenvalue-minimisations  :  5416
 total energy-change (2. order) : 0.1399882E-02  (-0.5698053E-03)
 number of electron     640.0000004 magnetization 
 augmentation part       69.7414433 magnetization 

 Broyden mixing:
  rms(total) = 0.17247E-01    rms(broyden)= 0.17247E-01
  rms(prec ) = 0.20928E-01
  weight for this iteration     100.00

 eigenvalues of (default mixing * dielectric matrix)
  average eigenvalue GAMMA=   1.3306
  2.5966  2.5966  1.6904  0.9331  0.9331  0.9136  0.9136  0.6991  0.6991

 Free energy of the ion-electron system (eV)
  ---------------------------------------------------
  alpha Z        PSCENC =       784.57699423
  Ewald energy   TEWEN  =    251453.14181424
  -Hartree energ DENC   =   -299383.73000277
  -exchange      EXHF   =         0.00000000
  -V(xc)+E(xc)   XCENC  =      2489.47908649
  PAW double counting   =     59526.85639398   -59358.61933638
  entropy T*S    EENTRO =        -0.00000000
  eigenvalues    EBANDS =    -12247.62141334
  atomic energy  EATOM  =     56210.72393729
  Solvation  Ediel_sol  =         0.00000000
  ---------------------------------------------------
  free energy    TOTEN  =      -525.19252628 eV

  energy without entropy =     -525.19252628  energy(sigma->0) =     -525.19252628


--------------------------------------------------------------------------------------------------------




--------------------------------------- Iteration      1(  15)  ---------------------------------------


    POTLOK:  cpu time    1.0221: real time    1.0434
    SETDIJ:  cpu time    1.2284: real time    1.2284
     EDDAV:  cpu time  178.6955: real time  178.6968
       DOS:  cpu time    0.0005: real time    0.0005
    CHARGE:  cpu time   12.4652: real time   12.4653
    MIXING:  cpu time    0.2045: real time    0.2045
    --------------------------------------------
      LOOP:  cpu time  193.6163: real time  193.6389

 eigenvalue-minimisations  :  5440
 total energy-change (2. order) :-0.1521355E-02  (-0.2474214E-03)
 number of electron     640.0000004 magnetization 
 augmentation part       69.7432803 magnetization 

 Broyden mixing:
  rms(total) = 0.10693E-01    rms(broyden)= 0.10693E-01
  rms(prec ) = 0.13697E-01
  weight for this iteration     100.00

 eigenvalues of (default mixing * dielectric matrix)
  average eigenvalue GAMMA=   1.3315
  2.7715  2.7715  1.3310  1.3310  0.9257  0.9257  0.8842  0.8842  0.8565  0.6335

 Free energy of the ion-electron system (eV)
  ---------------------------------------------------
  alpha Z        PSCENC =       784.57699423
  Ewald energy   TEWEN  =    251453.14181424
  -Hartree energ DENC   =   -299400.93336004
  -exchange      EXHF   =         0.00000000
  -V(xc)+E(xc)   XCENC  =      2489.56278294
  PAW double counting   =     59489.45009840   -59321.08661829
  entropy T*S    EENTRO =        -0.00000000
  eigenvalues    EBANDS =    -12230.62969640
  atomic energy  EATOM  =     56210.72393729
  Solvation  Ediel_sol  =         0.00000000
  ---------------------------------------------------
  free energy    TOTEN  =      -525.19404763 eV

  energy without entropy =     -525.19404763  energy(sigma->0) =     -525.19404763


--------------------------------------------------------------------------------------------------------




--------------------------------------- Iteration      1(  16)  ---------------------------------------


    POTLOK:  cpu time    1.0414: real time    1.0549
    SETDIJ:  cpu time    1.2306: real time    1.2306
     EDDAV:  cpu time  192.9412: real time  192.9425
       DOS:  cpu time    0.0006: real time    0.0006
    CHARGE:  cpu time   13.0795: real time   13.0804
    MIXING:  cpu time    0.2041: real time    0.2041
    --------------------------------------------
      LOOP:  cpu time  208.4975: real time  208.5131

 eigenvalue-minimisations  :  5936
 total energy-change (2. order) :-0.1745635E-02  (-0.1040868E-03)
 number of electron     640.0000004 magnetization 
 augmentation part       69.7421906 magnetization 

 Broyden mixing:
  rms(total) = 0.64826E-02    rms(broyden)= 0.64826E-02
  rms(prec ) = 0.88746E-02
  weight for this iteration     100.00

 eigenvalues of (default mixing * dielectric matrix)
  average eigenvalue GAMMA=   1.3875
  3.3489  2.4902  2.0131  1.3309  1.0050  0.8894  0.8894  0.9746  0.9746  0.7069
  0.6393

 Free energy of the ion-electron system (eV)
  ---------------------------------------------------
  alpha Z        PSCENC =       784.57699423
  Ewald energy   TEWEN  =    251453.14181424
  -Hartree energ DENC   =   -299412.38306373
  -exchange      EXHF   =         0.00000000
  -V(xc)+E(xc)   XCENC  =      2489.61653758
  PAW double counting   =     59479.41464782   -59311.04454069
  entropy T*S    EENTRO =        -0.00000000
  eigenvalues    EBANDS =    -12219.24212000
  atomic energy  EATOM  =     56210.72393729
  Solvation  Ediel_sol  =         0.00000000
  ---------------------------------------------------
  free energy    TOTEN  =      -525.19579327 eV

  energy without entropy =     -525.19579327  energy(sigma->0) =     -525.19579327


--------------------------------------------------------------------------------------------------------




--------------------------------------- Iteration      1(  17)  ---------------------------------------


    POTLOK:  cpu time    1.0351: real time    1.0436
    SETDIJ:  cpu time    1.2320: real time    1.2320
     EDDAV:  cpu time  175.5138: real time  175.5151
       DOS:  cpu time    0.0005: real time    0.0005
    CHARGE:  cpu time   13.0435: real time   13.0435
    MIXING:  cpu time    0.2070: real time    0.2070
    --------------------------------------------
      LOOP:  cpu time  191.0319: real time  191.0418

 eigenvalue-minimisations  :  5288
 total energy-change (2. order) :-0.3429192E-02  (-0.9367295E-04)
 number of electron     640.0000004 magnetization 
 augmentation part       69.7404429 magnetization 

 Broyden mixing:
  rms(total) = 0.38017E-02    rms(broyden)= 0.38015E-02
  rms(prec ) = 0.53202E-02
  weight for this iteration     100.00

 eigenvalues of (default mixing * dielectric matrix)
  average eigenvalue GAMMA=   1.4547
  4.1876  2.6914  2.3390  1.3160  1.1137  0.9405  0.9405  0.8944  0.8944  0.7573
  0.7573  0.6251

 Free energy of the ion-electron system (eV)
  ---------------------------------------------------
  alpha Z        PSCENC =       784.57699423
  Ewald energy   TEWEN  =    251453.14181424
  -Hartree energ DENC   =   -299425.89613300
  -exchange      EXHF   =         0.00000000
  -V(xc)+E(xc)   XCENC  =      2489.66388564
  PAW double counting   =     59476.39008285   -59308.05752218
  entropy T*S    EENTRO =        -0.00000000
  eigenvalues    EBANDS =    -12205.74228153
  atomic energy  EATOM  =     56210.72393729
  Solvation  Ediel_sol  =         0.00000000
  ---------------------------------------------------
  free energy    TOTEN  =      -525.19922246 eV

  energy without entropy =     -525.19922246  energy(sigma->0) =     -525.19922246


--------------------------------------------------------------------------------------------------------




--------------------------------------- Iteration      1(  18)  ---------------------------------------


    POTLOK:  cpu time    1.0356: real time    1.0441
    SETDIJ:  cpu time    1.2318: real time    1.2318
     EDDAV:  cpu time  167.3210: real time  167.3289
       DOS:  cpu time    0.0005: real time    0.0005
    CHARGE:  cpu time   13.2797: real time   13.2798
    MIXING:  cpu time    0.2035: real time    0.2034
    --------------------------------------------
      LOOP:  cpu time  183.0721: real time  183.0885

 eigenvalue-minimisations  :  4984
 total energy-change (2. order) :-0.2429511E-02  (-0.3141933E-04)
 number of electron     640.0000004 magnetization 
 augmentation part       69.7416351 magnetization 

 Broyden mixing:
  rms(total) = 0.23362E-02    rms(broyden)= 0.23361E-02
  rms(prec ) = 0.31867E-02
  weight for this iteration     100.00

 eigenvalues of (default mixing * dielectric matrix)
  average eigenvalue GAMMA=   1.4607
  4.4795  2.6924  2.2832  1.5570  1.0739  1.0739  0.9125  0.9125  0.9174  0.9174
  0.8581  0.6890  0.6230

 Free energy of the ion-electron system (eV)
  ---------------------------------------------------
  alpha Z        PSCENC =       784.57699423
  Ewald energy   TEWEN  =    251453.14181424
  -Hartree energ DENC   =   -299434.88614078
  -exchange      EXHF   =         0.00000000
  -V(xc)+E(xc)   XCENC  =      2489.68928112
  PAW double counting   =     59471.53295279   -59303.21169295
  entropy T*S    EENTRO =        -0.00000000
  eigenvalues    EBANDS =    -12196.76879790
  atomic energy  EATOM  =     56210.72393729
  Solvation  Ediel_sol  =         0.00000000
  ---------------------------------------------------
  free energy    TOTEN  =      -525.20165197 eV

  energy without entropy =     -525.20165197  energy(sigma->0) =     -525.20165197


--------------------------------------------------------------------------------------------------------




--------------------------------------- Iteration      1(  19)  ---------------------------------------


    POTLOK:  cpu time    1.0354: real time    1.0493
    SETDIJ:  cpu time    1.2314: real time    1.2314
     EDDAV:  cpu time  164.8476: real time  164.8486
       DOS:  cpu time    0.0006: real time    0.0006
    CHARGE:  cpu time   13.2718: real time   13.2718
    MIXING:  cpu time    0.2078: real time    0.2078
    --------------------------------------------
      LOOP:  cpu time  180.5946: real time  180.6095

 eigenvalue-minimisations  :  4888
 total energy-change (2. order) :-0.1076876E-02  (-0.1227905E-04)
 number of electron     640.0000004 magnetization 
 augmentation part       69.7413818 magnetization 

 Broyden mixing:
  rms(total) = 0.15117E-02    rms(broyden)= 0.15116E-02
  rms(prec ) = 0.22021E-02
  weight for this iteration     100.00

 eigenvalues of (default mixing * dielectric matrix)
  average eigenvalue GAMMA=   1.5577
  5.4456  2.8950  2.2075  2.1312  1.1713  1.1713  1.0068  1.0068  0.8992  0.8992
  0.8294  0.8294  0.6983  0.6176

 Free energy of the ion-electron system (eV)
  ---------------------------------------------------
  alpha Z        PSCENC =       784.57699423
  Ewald energy   TEWEN  =    251453.14181424
  -Hartree energ DENC   =   -299438.22045546
  -exchange      EXHF   =         0.00000000
  -V(xc)+E(xc)   XCENC  =      2489.69872945
  PAW double counting   =     59471.34557690   -59303.02508383
  entropy T*S    EENTRO =        -0.00000000
  eigenvalues    EBANDS =    -12193.44424165
  atomic energy  EATOM  =     56210.72393729
  Solvation  Ediel_sol  =         0.00000000
  ---------------------------------------------------
  free energy    TOTEN  =      -525.20272884 eV

  energy without entropy =     -525.20272884  energy(sigma->0) =     -525.20272884


--------------------------------------------------------------------------------------------------------




--------------------------------------- Iteration      1(  20)  ---------------------------------------


    POTLOK:  cpu time    1.0397: real time    1.0479
    SETDIJ:  cpu time    1.2330: real time    1.2330
     EDDAV:  cpu time  147.9024: real time  147.9047
       DOS:  cpu time    0.0006: real time    0.0006
    CHARGE:  cpu time   12.8940: real time   12.8941
    MIXING:  cpu time    0.2077: real time    0.2077
    --------------------------------------------
      LOOP:  cpu time  163.2774: real time  163.2881

 eigenvalue-minimisations  :  4256
 total energy-change (2. order) :-0.1346057E-02  (-0.5640408E-05)
 number of electron     640.0000004 magnetization 
 augmentation part       69.7409780 magnetization 

 Broyden mixing:
  rms(total) = 0.11514E-02    rms(broyden)= 0.11513E-02
  rms(prec ) = 0.14615E-02
  weight for this iteration     100.00

 eigenvalues of (default mixing * dielectric matrix)
  average eigenvalue GAMMA=   1.5807
  6.0504  3.0380  2.4045  2.1600  1.2956  1.0281  1.0281  0.8935  0.8935  0.9727
  0.9491  0.9491  0.7166  0.7166  0.6141

 Free energy of the ion-electron system (eV)
  ---------------------------------------------------
  alpha Z        PSCENC =       784.57699423
  Ewald energy   TEWEN  =    251453.14181424
  -Hartree energ DENC   =   -299442.20387777
  -exchange      EXHF   =         0.00000000
  -V(xc)+E(xc)   XCENC  =      2489.70540582
  PAW double counting   =     59470.96214205   -59302.64265091
  entropy T*S    EENTRO =        -0.00000000
  eigenvalues    EBANDS =    -12189.46783984
  atomic energy  EATOM  =     56210.72393729
  Solvation  Ediel_sol  =         0.00000000
  ---------------------------------------------------
  free energy    TOTEN  =      -525.20407490 eV

  energy without entropy =     -525.20407490  energy(sigma->0) =     -525.20407490


--------------------------------------------------------------------------------------------------------




--------------------------------------- Iteration      1(  21)  ---------------------------------------


    POTLOK:  cpu time    1.0447: real time    1.0526
    SETDIJ:  cpu time    1.2030: real time    1.2059
     EDDAV:  cpu time  149.7519: real time  149.7547
       DOS:  cpu time    0.0005: real time    0.0005
    CHARGE:  cpu time   13.9082: real time   13.9083
    MIXING:  cpu time    0.2060: real time    0.2060
    --------------------------------------------
      LOOP:  cpu time  166.1144: real time  166.1278

 eigenvalue-minimisations  :  4272
 total energy-change (2. order) :-0.5043771E-03  (-0.1532296E-05)
 number of electron     640.0000004 magnetization 
 augmentation part       69.7412538 magnetization 

 Broyden mixing:
  rms(total) = 0.81771E-03    rms(broyden)= 0.81756E-03
  rms(prec ) = 0.10473E-02
  weight for this iteration     100.00

 eigenvalues of (default mixing * dielectric matrix)
  average eigenvalue GAMMA=   1.5780
  6.3995  3.0337  2.4710  1.7240  1.5630  1.2327  1.2327  1.0081  1.0081  0.8908
  0.8908  0.8888  0.8032  0.8032  0.6829  0.6149

 Free energy of the ion-electron system (eV)
  ---------------------------------------------------
  alpha Z        PSCENC =       784.57699423
  Ewald energy   TEWEN  =    251453.14181424
  -Hartree energ DENC   =   -299443.42345252
  -exchange      EXHF   =         0.00000000
  -V(xc)+E(xc)   XCENC  =      2489.70545665
[...]
    -6.896993340 11.945942880  0.000000000     0.000000000  0.083710429  0.000000000
     0.000000000  0.000000000 27.810221070     0.000000000  0.000000000  0.035958003

  length of vectors
    13.793986680 13.793986676 27.810221070     0.083710429  0.083710429  0.035958003


 FORCES acting on ions
    electron-ion (+dipol)            ewald-force                    non-local-force                 convergence-correction
 -----------------------------------------------------------------------------------------------
   0.203E+02 0.576E+02 -.105E+04   -.193E+02 -.576E+02 0.104E+04   -.104E+01 -.975E+00 0.429E+01   0.345E-04 -.124E-04 -.568E-04
   0.172E+01 -.244E+02 -.102E+04   -.340E+00 0.249E+02 0.102E+04   -.865E+00 -.786E-01 0.437E+01   0.592E-05 0.299E-05 -.323E-04
   0.132E+02 -.288E+02 -.102E+04   -.128E+02 0.288E+02 0.101E+04   -.639E+00 0.681E+00 0.467E+01   0.394E-04 0.138E-04 -.648E-04
   -.483E+02 -.663E+01 -.103E+04   0.479E+02 0.709E+01 0.102E+04   0.160E+01 0.201E+00 0.507E+01   -.629E-04 0.405E-04 -.423E-05
   0.278E+02 0.177E+02 -.114E+04   -.289E+02 -.168E+02 0.113E+04   -.128E-01 -.380E+00 0.435E+01   -.508E-04 0.385E-04 0.584E-06
   0.141E+02 0.274E+01 -.105E+04   -.137E+02 -.351E+01 0.105E+04   -.446E+00 0.179E+00 0.447E+01   -.346E-04 -.508E-04 -.157E-04
   0.435E+02 -.247E+02 -.104E+04   -.436E+02 0.243E+02 0.103E+04   -.642E+00 0.793E-01 0.399E+01   -.658E-04 0.231E-04 -.565E-04
   -.428E+02 -.575E+01 -.108E+04   0.440E+02 0.582E+01 0.107E+04   0.178E+00 0.618E+00 0.439E+01   0.567E-04 -.648E-04 -.846E-04
   -.108E+02 0.117E+02 -.111E+04   0.115E+02 -.115E+02 0.110E+04   -.190E+00 0.158E+00 0.360E+01   0.256E-04 0.121E-04 -.371E-04
   -.573E+02 -.131E+02 -.111E+04   0.569E+02 0.132E+02 0.111E+04   0.109E+01 0.132E+00 0.446E+01   0.638E-04 0.792E-05 0.263E-05
   -.245E+02 -.287E+02 -.107E+04   0.263E+02 0.284E+02 0.107E+04   -.584E+00 0.423E+00 0.481E+01   0.828E-04 0.506E-04 0.126E-04
   0.562E+02 -.389E+02 -.111E+04   -.574E+02 0.381E+02 0.110E+04   -.200E+00 0.151E+01 0.332E+01   -.121E-04 -.104E-04 0.119E-04
   -.187E+02 0.508E+01 -.960E+03   0.180E+02 -.470E+01 0.956E+03   0.741E+00 -.975E-01 0.415E+01   -.106E-04 0.402E-04 -.101E-04
   0.203E+02 -.208E+02 -.117E+04   -.214E+02 0.201E+02 0.116E+04   0.545E+00 0.543E+00 0.411E+01   -.353E-04 0.485E-05 -.489E-04
   0.857E+01 -.319E+01 -.119E+04   -.102E+02 0.352E+01 0.119E+04   0.625E+00 -.106E+00 0.408E+01   -.559E-04 -.165E-04 -.369E-04
   -.361E+01 0.493E+02 -.106E+04   0.529E+01 -.505E+02 0.105E+04   -.894E+00 -.408E+00 0.400E+01   0.511E-04 -.495E-04 -.235E-04
   0.513E+02 0.128E+02 0.107E+04   -.515E+02 -.128E+02 -.107E+04   -.844E+00 -.225E+00 -.432E+01   -.689E-04 0.537E-04 0.169E-04
   -.334E+02 0.139E+01 0.118E+04   0.341E+02 -.180E+01 -.117E+04   0.600E+00 0.340E+00 -.458E+01   0.352E-04 -.272E-04 0.339E-04
   -.167E+02 -.394E+02 0.119E+04   0.170E+02 0.402E+02 -.118E+04   0.235E-01 -.275E+00 -.369E+01   0.214E-04 0.553E-04 0.567E-04
   0.996E+01 0.518E+02 0.111E+04   -.110E+02 -.518E+02 -.110E+04   0.144E+00 -.928E+00 -.402E+01   0.441E-04 -.716E-04 0.410E-04
   -.329E+02 -.204E+02 0.107E+04   0.325E+02 0.208E+02 -.107E+04   0.557E+00 0.113E+00 -.549E+01   0.492E-04 0.236E-04 0.381E-05
   0.116E+02 -.247E+01 0.104E+04   -.118E+02 0.181E+01 -.104E+04   -.339E+00 0.145E-01 -.405E+01   -.150E-04 -.377E-04 -.526E-04
   0.195E+02 -.218E+02 0.109E+04   -.196E+02 0.209E+02 -.108E+04   0.527E-01 0.491E+00 -.409E+01   -.271E-04 -.311E-05 -.226E-04
   -.379E+02 0.485E+02 0.110E+04   0.376E+02 -.480E+02 -.110E+04   0.928E+00 -.112E+01 -.395E+01   -.450E-04 -.259E-04 0.625E-04
   0.179E+02 0.100E+02 0.103E+04   -.183E+02 -.940E+01 -.103E+04   0.123E+00 -.927E-01 -.412E+01   -.482E-04 0.283E-04 0.168E-04
   0.739E+01 -.571E+01 0.104E+04   -.691E+01 0.681E+01 -.104E+04   -.614E+00 -.365E+00 -.460E+01   -.122E-07 0.304E-04 0.407E-04
   -.287E+00 0.401E+01 0.983E+03   0.745E+00 -.352E+01 -.979E+03   -.620E+00 -.448E+00 -.479E+01   0.420E-04 0.337E-04 0.218E-04
   -.418E+01 0.280E+01 0.101E+04   0.523E+01 -.403E+01 -.101E+04   -.449E+00 0.368E+00 -.407E+01   0.634E-04 -.562E-04 0.185E-04
   -.453E+02 -.227E+01 0.120E+04   0.458E+02 0.212E+01 -.119E+04   0.484E+00 0.406E+00 -.423E+01   0.828E-04 0.364E-05 0.288E-05
   0.180E+02 0.203E+02 0.105E+04   -.195E+02 -.202E+02 -.105E+04   0.553E+00 -.715E+00 -.420E+01   -.170E-04 -.648E-05 0.398E-04
   -.972E+01 0.113E+01 0.106E+04   0.934E+01 -.118E+01 -.106E+04   0.567E+00 -.300E+00 -.376E+01   -.354E-04 -.220E-04 0.306E-04
   0.448E+02 -.683E+01 0.101E+04   -.454E+02 0.738E+01 -.101E+04   -.597E+00 -.163E+00 -.486E+01   -.669E-04 0.291E-04 0.121E-04
   0.108E+02 0.174E+02 0.146E+04   -.105E+02 -.177E+02 -.146E+04   -.694E+00 0.569E+00 0.246E+01   0.137E-04 -.600E-05 0.227E-04
   0.108E+02 0.114E+02 0.149E+04   -.107E+02 -.115E+02 -.149E+04   -.793E+00 0.215E+00 0.181E+01   0.204E-04 -.490E-05 0.141E-04
   0.722E+01 -.153E+02 0.147E+04   -.748E+01 0.154E+02 -.147E+04   0.595E+00 -.464E-01 0.277E+01   0.358E-05 0.382E-05 0.360E-04
   0.230E+02 -.191E+01 0.145E+04   -.232E+02 0.187E+01 -.145E+04   0.314E+00 0.882E-01 0.243E+01   -.239E-04 0.187E-04 0.106E-04
   -.212E+02 0.165E+02 0.146E+04   0.210E+02 -.161E+02 -.147E+04   0.513E+00 -.122E+01 0.225E+01   -.119E-04 0.328E-04 0.723E-05
   0.395E+01 -.981E+01 0.145E+04   -.361E+01 0.980E+01 -.145E+04   -.910E+00 0.232E+00 0.236E+01   0.197E-04 -.653E-05 0.283E-05
   -.250E+02 -.201E+02 0.147E+04   0.250E+02 0.199E+02 -.147E+04   0.281E+00 0.610E+00 0.295E+01   0.171E-04 -.109E-04 0.294E-04
   0.509E+01 -.215E+02 0.147E+04   -.495E+01 0.214E+02 -.147E+04   -.665E+00 0.617E+00 0.126E+01   0.133E-05 0.122E-05 0.143E-04
   0.243E+02 -.477E+01 0.146E+04   -.240E+02 0.484E+01 -.146E+04   -.136E+01 0.879E-01 0.228E+01   -.620E-05 0.578E-05 0.158E-04
   -.295E+02 -.237E+02 0.145E+04   0.292E+02 0.236E+02 -.145E+04   0.930E+00 0.637E+00 0.244E+01   -.156E-04 -.163E-05 0.132E-05
   -.114E+02 -.117E+01 0.141E+04   0.115E+02 0.117E+01 -.141E+04   -.120E+00 -.711E-01 0.199E+01   0.488E-05 0.186E-05 0.122E-04
   -.125E+02 -.560E+00 0.145E+04   0.127E+02 0.392E+00 -.145E+04   -.448E+00 0.554E+00 0.225E+01   0.192E-04 -.673E-05 0.471E-05
   -.701E+01 0.583E+01 0.143E+04   0.664E+01 -.564E+01 -.143E+04   0.124E+01 -.536E+00 0.182E+01   -.584E-05 -.616E-05 0.633E-05
   0.181E+02 0.154E+02 0.143E+04   -.182E+02 -.153E+02 -.143E+04   0.733E-01 -.624E+00 0.175E+01   -.244E-04 0.328E-05 0.190E-04
   0.315E+02 -.658E+01 0.146E+04   -.315E+02 0.662E+01 -.146E+04   -.404E+00 0.881E-01 0.241E+01   -.228E-04 -.687E-05 0.159E-04
   0.177E+01 0.764E+01 0.145E+04   -.150E+01 -.791E+01 -.145E+04   -.662E+00 0.616E+00 0.253E+01   0.309E-05 -.885E-05 0.168E-04
   0.287E+01 0.337E+02 -.145E+04   -.287E+01 -.337E+02 0.146E+04   -.436E-01 -.229E+00 -.240E+01   -.132E-04 0.206E-05 -.211E-04
   0.140E+02 -.136E+02 -.145E+04   -.138E+02 0.135E+02 0.146E+04   -.570E+00 0.848E+00 -.125E+01   0.114E-04 -.125E-04 -.210E-04
   -.125E+02 -.164E+02 -.142E+04   0.124E+02 0.163E+02 0.143E+04   0.402E+00 0.550E+00 -.132E+01   -.120E-04 0.345E-05 -.145E-04
   0.318E+02 0.231E+01 -.140E+04   -.317E+02 -.211E+01 0.140E+04   -.117E+01 -.428E+00 -.328E+00   -.154E-04 -.164E-04 -.139E-04
   0.208E+01 0.416E+02 -.145E+04   -.211E+01 -.414E+02 0.146E+04   -.218E+00 -.774E+00 -.108E+01   0.659E-06 0.251E-04 -.901E-05
   0.826E+01 -.145E+01 -.150E+04   -.832E+01 0.149E+01 0.150E+04   0.155E+00 -.462E-01 -.309E+01   0.152E-05 -.745E-05 -.169E-04
   0.700E+01 -.987E+01 -.147E+04   -.690E+01 0.976E+01 0.148E+04   -.141E+00 0.355E+00 -.220E+01   0.208E-04 0.476E-05 -.199E-04
   0.133E+02 -.120E+02 -.145E+04   -.132E+02 0.119E+02 0.145E+04   -.975E-01 0.255E+00 -.258E+01   0.125E-04 -.735E-05 -.234E-04
   0.216E+01 0.395E+02 -.142E+04   -.203E+01 -.392E+02 0.142E+04   -.168E+00 -.154E+01 -.121E+01   -.736E-06 0.108E-04 -.233E-04
   0.850E+01 -.150E+02 -.148E+04   -.866E+01 0.149E+02 0.148E+04   0.135E+00 0.287E+00 -.255E+01   -.406E-05 0.663E-05 -.287E-04
   -.104E+02 -.997E+01 -.144E+04   0.102E+02 0.100E+02 0.145E+04   0.675E+00 -.227E+00 -.208E+01   -.342E-05 0.107E-04 -.337E-04
   -.210E+02 0.184E+02 -.149E+04   0.208E+02 -.184E+02 0.149E+04   0.386E+00 -.339E+00 -.233E+01   0.586E-05 -.138E-04 -.372E-04
   -.120E+02 -.231E+02 -.145E+04   0.119E+02 0.228E+02 0.145E+04   0.216E+00 0.132E+01 -.133E+01   0.122E-04 -.113E-04 -.211E-04
   -.210E+02 -.604E+00 -.145E+04   0.210E+02 0.489E+00 0.145E+04   0.377E+00 0.315E+00 -.150E+01   -.725E-05 -.566E-06 -.146E-04
   -.822E+01 -.258E+02 -.148E+04   0.829E+01 0.258E+02 0.148E+04   -.227E+00 0.330E+00 -.191E+01   -.816E-05 -.676E-05 -.580E-05
   -.442E+01 -.901E+01 -.147E+04   0.437E+01 0.908E+01 0.147E+04   0.233E+00 0.109E+00 -.264E+01   -.788E-05 0.918E-05 -.180E-04
   0.189E+02 -.398E+02 0.146E+02   -.188E+02 0.396E+02 -.144E+02   -.135E+01 0.977E+00 -.698E+00   -.279E-05 0.926E-05 -.282E-05
   0.127E+02 0.240E+02 0.200E+02   -.121E+02 -.239E+02 -.198E+02   -.212E+01 -.149E+00 -.726E+00   0.102E-04 -.116E-04 -.362E-06
   0.618E+01 -.401E+00 0.532E+01   -.637E+01 0.638E+00 -.532E+01   0.908E+00 -.770E+00 -.446E+00   -.639E-05 0.800E-05 0.642E-05
   -.415E+02 0.222E+02 0.718E+01   0.413E+02 -.222E+02 -.740E+01   0.124E+01 -.929E+00 0.962E+00   0.442E-05 0.245E-05 0.554E-06
   0.310E+01 0.162E+02 -.121E+01   -.320E+01 -.160E+02 0.106E+01   0.681E+00 -.106E+01 0.426E+00   -.159E-04 0.392E-05 0.366E-05
   -.512E+01 -.780E+01 -.661E+01   0.494E+01 0.772E+01 0.693E+01   0.549E+00 0.474E-01 -.999E+00   -.414E-05 -.777E-05 -.890E-05
   0.121E+02 -.147E+02 0.141E+02   -.120E+02 0.145E+02 -.136E+02   0.415E+00 0.728E+00 -.117E+01   -.122E-05 0.307E-05 -.868E-05
   -.150E+02 0.209E+02 0.134E+02   0.148E+02 -.208E+02 -.130E+02   0.617E+00 -.248E+00 -.111E+01   0.523E-06 -.901E-05 -.687E-05
   -.129E+02 0.196E+02 -.243E+02   0.128E+02 -.193E+02 0.242E+02   0.397E+00 -.790E+00 -.334E+00   0.166E-05 0.220E-05 0.844E-06
   -.280E+02 0.607E+01 -.554E+01   0.275E+02 -.598E+01 0.555E+01   0.182E+01 -.416E+00 -.162E+00   0.493E-05 0.717E-05 -.758E-05
   0.330E+01 -.203E+02 -.288E+02   -.325E+01 0.199E+02 0.293E+02   -.294E+00 0.106E+01 -.176E+01   0.109E-04 0.960E-05 -.393E-05
   0.340E+02 -.146E+02 -.560E+01   -.338E+02 0.145E+02 0.589E+01   -.136E+01 0.538E+00 -.112E+01   0.150E-04 -.266E-05 -.530E-05
   0.918E+01 0.126E+02 0.379E+02   -.906E+01 -.122E+02 -.384E+02   -.135E+00 -.144E+01 0.155E+01   0.292E-05 -.763E-05 -.975E-06
   -.523E-01 0.360E+01 -.137E+02   -.121E+00 -.334E+01 0.139E+02   0.508E+00 -.506E+00 -.574E+00   -.743E-05 -.857E-06 0.120E-05
   -.959E+01 0.128E+02 -.142E+02   0.960E+01 -.127E+02 0.139E+02   -.622E-02 0.546E-01 0.810E+00   -.163E-05 -.534E-05 -.759E-06
   -.179E+02 -.106E+02 -.482E+02   0.175E+02 0.104E+02 0.482E+02   0.836E+00 0.471E+00 -.291E+00   -.807E-05 0.187E-05 0.298E-05
 -----------------------------------------------------------------------------------------------
   -.382E+00 0.245E+00 0.338E+00   0.369E-12 -.396E-12 0.739E-12   0.383E+00 -.242E+00 -.338E+00   0.350E-04 0.460E-04 -.244E-03
 
 
 POSITION                                       TOTAL-FORCE (eV/Angst)
 -----------------------------------------------------------------------------------
      0.08164      2.05583     15.14063        -0.026649     -1.019662     -0.707036
     -1.72184      4.89668     15.09920         0.514824      0.435652     -0.511974
     -3.37863      7.86673     15.10856        -0.314224      0.664734     -0.780267
     -5.32206     10.89214     15.02374         1.277820      0.665581      1.674298
      3.48980      1.98415     15.22249        -1.070496      0.542012     -0.323312
      1.67582      5.00230     15.13022        -0.017006     -0.592989      0.154774
      0.05240      7.96752     15.14824        -0.729540     -0.244178     -0.470859
     -1.78887     10.87968     15.16477         1.330927      0.681784     -1.141537
      6.83497      1.98612     15.25692         0.539868      0.369198     -1.349839
      5.04425      4.93244     15.18102         0.685223      0.216595      0.961011
      3.35325      7.90570     15.11774         1.212407      0.153690      1.310112
      1.87075     10.84902     15.22195        -1.424172      0.717583     -0.178603
     10.36044      2.03039     15.04593         0.044840      0.285490     -0.180899
      8.59760      4.95391     15.32996        -0.509508     -0.193967     -1.700894
      6.97647      7.90614     15.30588        -0.970271      0.219601     -0.730411
      5.15618     11.11913     15.14520         0.791490     -1.535529     -0.381191
      1.87425      1.09600     12.66822        -1.050087     -0.181857     -0.150928
     -0.06790      3.93858     12.52130         1.285044     -0.073112      1.125770
     -1.82226      6.94985     12.43927         0.327929      0.563873      1.448440
     -3.38187     10.11904     12.59394        -0.912449     -0.981836      0.358132
      5.16134      1.01376     12.70641         0.188952      0.552817     -0.005576
      3.48326      4.07916     12.70990        -0.544489     -0.642035      0.196724
      1.65908      6.99374     12.66066        -0.039488     -0.457552     -0.090696
     -0.04815     10.03883     12.55579         0.551327     -0.598334      1.637232
      8.59146      0.94280     12.69833        -0.301350      0.504960      0.200618
      6.91544      3.92053     12.70875        -0.134589      0.739311      0.338537
      5.22941      6.98389     12.81925        -0.161787      0.046488     -0.569815
      3.47846      9.99760     12.76665         0.605736     -0.863053     -0.655700
     11.98123      0.97763     12.52761         1.013170      0.259543      0.037539
     10.38094      4.12955     12.67443        -0.962905     -0.630631      0.247386
      8.54899      7.05445     12.63089         0.190915     -0.354164      0.851280
      6.93837      9.90500     12.79622        -1.178341      0.389455     -1.623234
      0.10381      1.88770     10.89232        -0.410506      0.310022      0.310732
     -1.63729      4.92011     10.88331        -0.625637      0.098804     -0.218329
     -3.54786      8.00327     10.81137         0.334390      0.034625      0.571379
     -5.13402     10.97439     10.95649         0.060352      0.046283      0.285048
      3.42448      2.20056     10.95938         0.340348     -0.884380      0.166436
      1.84896      5.00993     10.96838        -0.568382      0.224047      0.199814
     -0.08050      7.83570     10.78251         0.335828      0.427592      0.708186
     -1.61340     10.93694     10.97350        -0.526205      0.512372     -0.656863
      7.10891      1.95533     10.94931        -1.028183      0.154527      0.192688
      5.10570      4.87282     10.97873         0.674263      0.547571      0.331568
      3.47843      7.96320     11.14788        -0.028299     -0.074507     -0.171740
      1.81787     10.80760     10.97731        -0.253570      0.386487      0.122003
     10.16586      2.14521     11.06220         0.876743     -0.349015     -0.329233
      8.61176      5.09058     11.08105        -0.022872     -0.538536     -0.385281
      6.90179      7.92097     10.94881        -0.417920      0.133288      0.360323
      5.28355     10.84821     10.95024        -0.400526      0.338798      0.398215
      1.74841      0.96962     16.86213        -0.036938     -0.259175     -0.249016
      0.03722      3.85562     16.75200        -0.395310      0.676899      0.752059
     -1.75756      6.82180     16.68732         0.301129      0.455465      0.733062
     -3.37385      9.91860     16.58006        -1.077687     -0.229931      1.544607
      5.19737      1.02643     16.76855        -0.244106     -0.613312      0.918549
      3.40228      3.96779     17.05545         0.095257     -0.005847     -0.879294
      1.64127      6.89477     16.87852        -0.045817      0.240231     -0.104974
      0.02157      9.93019     16.87752        -0.058541      0.171356     -0.348166
      8.68021      1.25896     16.68193        -0.042110     -1.250688      0.891410
      6.84746      3.96172     16.98369        -0.030257      0.272714     -0.364938
      5.03628      7.02162     16.83730         0.425000     -0.197278      0.116777
      3.37005     10.08654     16.99782         0.277125     -0.269851     -0.412609
     12.00741      0.90687     16.76635         0.137330      0.977625      0.542501
     10.36105      3.91224     16.75633         0.395532      0.200830      0.564475
      8.72434      6.91063     16.90749        -0.150445      0.335426      0.148727
      6.86030      9.91242     16.92214         0.177548      0.171186     -0.444492
     -6.83347     11.86308     13.95330        -1.216956      0.726430     -0.496011
     -1.56530      3.01116     13.87303        -1.491792     -0.068629     -0.491121
     10.28164      6.04110     13.88144         0.716784     -0.532175     -0.448248
      8.51636      9.00521     13.85159         0.984303     -0.942771      0.750402
      3.44461      0.09731     13.82274         0.581259     -0.787398      0.279549
      1.69331      2.99099     13.97552         0.368454     -0.027797     -0.681910
     -0.05665      5.94739     13.90951         0.422709      0.581218     -0.726196
     -1.75954      8.99950     13.89849         0.418835     -0.094647     -0.769182
      6.86258      0.04787     13.92165         0.238105     -0.493155     -0.370649
      5.02117      3.01726     13.97061         1.321367     -0.326725     -0.150960
      3.42184      5.88999     14.07316        -0.238226      0.724527     -1.171037
      1.81483      8.94055     14.02053        -1.169256      0.460088     -0.819211
     10.37871      0.13880     13.76183        -0.009502     -1.023657      1.074641
      8.57404      3.06287     13.99619         0.335078     -0.246695     -0.441050
      6.89382      5.96714     13.93471        -0.000201      0.090600      0.533536
      5.08182      8.92890     14.01441         0.458385      0.277693     -0.355262
 -----------------------------------------------------------------------------------
    total drift:                                0.001775      0.002532      0.000310


--------------------------------------------------------------------------------------------------------



  FREE ENERGIE OF THE ION-ELECTRON SYSTEM (eV)
  ---------------------------------------------------
  free  energy   TOTEN  =      -525.20590854 eV

  energy  without entropy=     -525.20590854  energy(sigma->0) =     -525.20590854
 


--------------------------------------------------------------------------------------------------------


    POTLOK:  cpu time    2.2324: real time    2.2324


--------------------------------------------------------------------------------------------------------


     LOOP+:  cpu time 5812.5285: real time 5813.0481
    4ORBIT:  cpu time    0.0000: real time    0.0000

 total amount of memory used by VASP MPI-rank0   253937. kBytes
=======================================================================

   base      :      30000. kBytes
   nonlr-proj:      18753. kBytes
   fftplans  :      72602. kBytes
   grid      :      41267. kBytes
   one-center:        108. kBytes
   wavefun   :      91207. kBytes
 
  
  
 General timing and accounting informations for this job:
 ========================================================
  
                  Total CPU time used (sec):     5856.277
                            User time (sec):     5780.865
                          System time (sec):       75.412
                         Elapsed time (sec):     5856.988
  
                   Maximum memory used (kb):      460552.
                   Average memory used (kb):           0.
  
                          Minor page faults:       264879
                          Major page faults:            0
                 Voluntary context switches:         2323
