<?xml version="1.0" encoding="ISO-8859-1"?>
<modeling>
 <generator>
  <i name="program" type="string">vasp </i>
  <i name="version" type="string">5.4.4.18Apr17-6-g9f103f2a35  </i>
  <i name="subversion" type="string">(build Oct 31 2019 15:01:46) complex            parallel </i>
  <i name="platform" type="string">LinuxIFC </i>
  <i name="date" type="string">2024 05 01 </i>
  <i name="time" type="string">14:20:43 </i>
 </generator>
 <incar>
  <i type="int" name="ISTART">     0</i>
  <i type="string" name="PREC">anormal</i>
  <i type="logical" name="ADDGRID"> T  </i>
  <i type="int" name="IBRION">    -1</i>
  <i name="EDIFF">      0.00000100</i>
  <i name="EDIFFG">     -0.01000000</i>
  <i type="int" name="NSW">     1</i>
  <i type="int" name="ISIF">     2</i>
  <i type="int" name="ISYM">     2</i>
  <i name="ENCUT">    600.00000000</i>
  <i name="POTIM">      1.00000000</i>
  <i type="string" name="LREAL"> Auto.</i>
  <i type="int" name="ISMEAR">     0</i>
  <i name="SIGMA">      0.05000000</i>
  <i name="KSPACING">      0.25000000</i>
  <i type="logical" name="LWAVE"> F  </i>
  <i type="logical" name="LCHARG"> F  </i>
  <i type="logical" name="LSCALAPACK"> F  </i>
  <v type="int" name="KPOINT_BSE">    -1     0     0     0</v>
 </incar>
 <structure name="primitive_cell" >
  <crystal>
   <varray name="basis" >
    <v>      13.79398668       0.00000000       0.00000000 </v>
    <v>      -6.89699334      11.94594288       0.00000000 </v>
    <v>       0.00000000       0.00000000      27.81022107 </v>
   </varray>
   <i name="volume">   4582.62876984 </i>
   <varray name="rec_basis" >
    <v>       0.07249536       0.04185521       0.00000000 </v>
    <v>       0.00000000       0.08371043       0.00000000 </v>
    <v>       0.00000000       0.00000000       0.03595800 </v>
   </varray>
  </crystal>
  <varray name="positions" >
   <v>       0.09196585       0.17209450      -0.45557335 </v>
   <v>       0.24794602       0.25037744      -0.49746820 </v>
   <v>       0.01255530       0.25206511       0.49884650 </v>
   <v>       0.16407643       0.32275567      -0.39763170 </v>
   <v>       0.00113702      -0.00693624      -0.49826724 </v>
   <v>       0.16733520       0.08116765      -0.39367144 </v>
   <v>      -0.09156134       0.07591474      -0.39711541 </v>
   <v>       0.18174782       0.09174674       0.45552396 </v>
   <v>       0.15992733       0.32970024       0.45024090 </v>
   <v>       0.33086145       0.41874428      -0.45594742 </v>
   <v>       0.08012616       0.40990332      -0.45706292 </v>
   <v>      -0.09049738       0.08183816       0.45046769 </v>
   <v>       0.33604136       0.16609441      -0.45262971 </v>
   <v>      -0.16080727      -0.06921246      -0.45540897 </v>
   <v>       0.07006813      -0.08821406      -0.45977641 </v>
   <v>      -0.16393359       0.16996455      -0.45897832 </v>
   <v>       0.24482195       0.49785828      -0.49984197 </v>
   <v>       0.25379121       0.00814578       0.49703819 </v>
   <v>      -0.24178228       0.01161890       0.49484774 </v>
   <v>       0.08653591       0.15801991       0.39166618 </v>
   <v>       0.41272214       0.33214544      -0.38672008 </v>
   <v>      -0.08512445       0.32749559      -0.39747600 </v>
   <v>      -0.08777333      -0.17022670      -0.39151374 </v>
   <v>       0.42325434       0.34146782       0.45702244 </v>
   <v>      -0.08242419      -0.17084809       0.46012637 </v>
   <v>      -0.07458662       0.34568658       0.45574723 </v>
   <v>       0.49029991       0.25257626      -0.49764468 </v>
   <v>       0.49459451       0.49305334      -0.49395713 </v>
   <v>       0.15811340      -0.42894389      -0.39995748 </v>
   <v>       0.34036425       0.18421018       0.39407730 </v>
   <v>       0.40756666      -0.42283584      -0.39308230 </v>
   <v>      -0.00568852      -0.24616981       0.49807553 </v>
   <v>       0.34373254       0.41938346       0.39440115 </v>
   <v>       0.08723626       0.41186458       0.39134198 </v>
   <v>       0.08714297      -0.08132925       0.39397335 </v>
   <v>       0.41974701       0.08592295      -0.39703626 </v>
   <v>      -0.31803100       0.10538822      -0.40015094 </v>
   <v>      -0.16291260      -0.09189143       0.39374866 </v>
   <v>      -0.00177694      -0.49429652       0.49914878 </v>
   <v>      -0.17323432       0.17957609       0.39777456 </v>
   <v>      -0.25022457       0.25639447      -0.49672481 </v>
   <v>       0.17055694      -0.16970941      -0.40381427 </v>
   <v>      -0.25787067      -0.25255799      -0.49606966 </v>
   <v>      -0.33351279      -0.15565171      -0.38879252 </v>
   <v>       0.41660425       0.08486240       0.45689707 </v>
   <v>      -0.42786677       0.41289692      -0.45412093 </v>
   <v>       0.41300013      -0.41455118       0.45525202 </v>
   <v>       0.17836491      -0.15293075       0.45285295 </v>
   <v>      -0.32937604      -0.16309700       0.45906311 </v>
   <v>       0.15878236      -0.41822505       0.44729114 </v>
   <v>       0.33728121      -0.33303528      -0.45529951 </v>
   <v>       0.32568683      -0.08925699      -0.45470521 </v>
   <v>      -0.33769809       0.07892256       0.45660657 </v>
   <v>      -0.41029138      -0.09182413      -0.45264892 </v>
   <v>      -0.16936682       0.41469361      -0.44876543 </v>
   <v>      -0.16332526      -0.33817332      -0.44963117 </v>
   <v>      -0.42601015      -0.33821063      -0.45639621 </v>
   <v>      -0.42136709       0.16625868      -0.45139169 </v>
   <v>       0.08432893      -0.34147235      -0.45672651 </v>
   <v>      -0.42590783       0.40790558       0.39477313 </v>
   <v>       0.49950882       0.00400748      -0.49940526 </v>
   <v>      -0.49422438      -0.25158286      -0.49584990 </v>
   <v>      -0.34100140      -0.41221710      -0.39456437 </v>
   <v>       0.24911747      -0.24664819       0.49976186 </v>
   <v>       0.32212872      -0.34407018       0.38771753 </v>
   <v>      -0.33777271       0.33163714      -0.38930042 </v>
   <v>      -0.07827964      -0.42150803      -0.39204031 </v>
   <v>      -0.16262006       0.42613488       0.39845247 </v>
   <v>       0.34080377      -0.08446443       0.39458518 </v>
   <v>      -0.41585872      -0.09529114       0.39472221 </v>
   <v>      -0.16811811      -0.33693231       0.39369737 </v>
   <v>      -0.33456843       0.32818925       0.45698124 </v>
   <v>      -0.32857989      -0.41537549       0.46095445 </v>
   <v>      -0.08497221      -0.40946912       0.45418149 </v>
   <v>      -0.41452865      -0.33339705       0.40085540 </v>
   <v>      -0.25047425       0.49951168      -0.49893574 </v>
   <v>      -0.40279648       0.16368160       0.39371525 </v>
   <v>       0.41719400      -0.16873981      -0.39311803 </v>
   <v>       0.07777525      -0.33004245       0.38875536 </v>
   <v>       0.41668666      -0.15964539       0.45148109 </v>
  </varray>
 </structure>
 <varray name="primitive_index" >
  <v type="int" >        1 </v>
  <v type="int" >       70 </v>
  <v type="int" >       66 </v>
  <v type="int" >       50 </v>
  <v type="int" >       65 </v>
  <v type="int" >       49 </v>
  <v type="int" >       61 </v>
  <v type="int" >       17 </v>
  <v type="int" >       18 </v>
  <v type="int" >        6 </v>
  <v type="int" >        2 </v>
  <v type="int" >       29 </v>
  <v type="int" >        5 </v>
  <v type="int" >       16 </v>
  <v type="int" >        4 </v>
  <v type="int" >       13 </v>
  <v type="int" >       71 </v>
  <v type="int" >       69 </v>
  <v type="int" >       77 </v>
  <v type="int" >       33 </v>
  <v type="int" >       54 </v>
  <v type="int" >       62 </v>
  <v type="int" >       64 </v>
  <v type="int" >       22 </v>
  <v type="int" >       32 </v>
  <v type="int" >       30 </v>
  <v type="int" >       74 </v>
  <v type="int" >       75 </v>
  <v type="int" >       51 </v>
  <v type="int" >       37 </v>
  <v type="int" >       55 </v>
  <v type="int" >       68 </v>
  <v type="int" >       38 </v>
  <v type="int" >       34 </v>
  <v type="int" >       36 </v>
  <v type="int" >       53 </v>
  <v type="int" >       57 </v>
  <v type="int" >       48 </v>
  <v type="int" >       67 </v>
  <v type="int" >       45 </v>
  <v type="int" >       78 </v>
  <v type="int" >       52 </v>
  <v type="int" >       80 </v>
  <v type="int" >       60 </v>
  <v type="int" >       21 </v>
  <v type="int" >       10 </v>
  <v type="int" >       23 </v>
  <v type="int" >       20 </v>
  <v type="int" >       28 </v>
  <v type="int" >       19 </v>
  <v type="int" >        7 </v>
  <v type="int" >        8 </v>
  <v type="int" >       25 </v>
  <v type="int" >       12 </v>
  <v type="int" >       14 </v>
  <v type="int" >       15 </v>
  <v type="int" >       11 </v>
  <v type="int" >        9 </v>
  <v type="int" >        3 </v>
  <v type="int" >       42 </v>
  <v type="int" >       73 </v>
  <v type="int" >       76 </v>
  <v type="int" >       59 </v>
  <v type="int" >       72 </v>
  <v type="int" >       39 </v>
  <v type="int" >       58 </v>
  <v type="int" >       63 </v>
  <v type="int" >       46 </v>
  <v type="int" >       40 </v>
  <v type="int" >       44 </v>
  <v type="int" >       47 </v>
  <v type="int" >       26 </v>
  <v type="int" >       27 </v>
  <v type="int" >       31 </v>
  <v type="int" >       43 </v>
  <v type="int" >       79 </v>
  <v type="int" >       41 </v>
  <v type="int" >       56 </v>
  <v type="int" >       35 </v>
  <v type="int" >       24 </v>
 </varray>
 <kpoints>
  <generation param="Gamma">
   <v type="int" name="divisions">       3        3        1 </v>
   <v name="usershift">      0.00000000       0.00000000       0.00000000 </v>
   <v name="genvec1">      0.33333333      -0.00000000       0.00000000 </v>
   <v name="genvec2">      0.00000000       0.33333333       0.00000000 </v>
   <v name="genvec3">      0.00000000       0.00000000       1.00000000 </v>
   <v name="shift">      0.00000000       0.00000000       0.00000000 </v>
  </generation>
  <varray name="kpointlist" >
   <v>       0.00000000       0.00000000       0.00000000 </v>
   <v>       0.33333333      -0.00000000       0.00000000 </v>
   <v>       0.00000000       0.33333333       0.00000000 </v>
   <v>       0.33333333       0.33333333       0.00000000 </v>
   <v>      -0.33333333       0.33333333       0.00000000 </v>
  </varray>
  <varray name="weights" >
   <v>       0.11111111 </v>
   <v>       0.22222222 </v>
   <v>       0.22222222 </v>
   <v>       0.22222222 </v>
   <v>       0.22222222 </v>
  </varray>
 </kpoints>
 <parameters>
  <separator name="general" >
   <i type="string" name="SYSTEM">unknown system</i>
   <i type="logical" name="LCOMPAT"> F  </i>
  </separator>
  <separator name="electronic" >
   <i type="string" name="PREC">anorma</i>
   <i name="ENMAX">    600.00000000</i>
   <i name="ENAUG">    644.87300000</i>
   <i name="EDIFF">      0.00000100</i>
   <i type="int" name="IALGO">    38</i>
   <i type="int" name="IWAVPR">    10</i>
   <i type="int" name="NBANDS">   384</i>
   <i name="NELECT">    640.00000000</i>
   <i type="int" name="TURBO">     0</i>
   <i type="int" name="IRESTART">     0</i>
   <i type="int" name="NREBOOT">     0</i>
   <i type="int" name="NMIN">     0</i>
   <i name="EREF">      0.00000000</i>
   <separator name="electronic smearing" >
    <i type="int" name="ISMEAR">     0</i>
    <i name="SIGMA">      0.05000000</i>
    <i name="KSPACING">      0.25000000</i>
    <i type="logical" name="KGAMMA"> T  </i>
   </separator>
   <separator name="electronic projectors" >
    <i type="logical" name="LREAL"> T  </i>
    <v name="ROPT">     -0.00025000     -0.00025000     -0.00025000</v>
    <i type="int" name="LMAXPAW">  -100</i>
    <i type="int" name="LMAXMIX">     2</i>
    <i type="logical" name="NLSPLINE"> F  </i>
   </separator>
   <separator name="electronic startup" >
    <i type="int" name="ISTART">     0</i>
    <i type="int" name="ICHARG">     2</i>
    <i type="int" name="INIWAV">     1</i>
   </separator>
   <separator name="electronic spin" >
    <i type="int" name="ISPIN">     1</i>
    <i type="logical" name="LNONCOLLINEAR"> F  </i>
    <v name="MAGMOM">      1.00000000      1.00000000      1.00000000      1.00000000      1.00000000      1.00000000      1.00000000      1.00000000      1.00000000      1.00000000      1.00000000      1.00000000      1.00000000      1.00000000      1.00000000      1.00000000      1.00000000      1.00000000      1.00000000      1.00000000
      1.00000000      1.00000000      1.00000000      1.00000000      1.00000000      1.00000000      1.00000000      1.00000000      1.00000000      1.00000000      1.00000000      1.00000000      1.00000000      1.00000000      1.00000000      1.00000000      1.00000000      1.00000000      1.00000000      1.00000000
      1.00000000      1.00000000      1.00000000      1.00000000      1.00000000      1.00000000      1.00000000      1.00000000      1.00000000      1.00000000      1.00000000      1.00000000      1.00000000      1.00000000      1.00000000      1.00000000      1.00000000      1.00000000      1.00000000      1.00000000
      1.00000000      1.00000000      1.00000000      1.00000000      1.00000000      1.00000000      1.00000000      1.00000000      1.00000000      1.00000000      1.00000000      1.00000000      1.00000000      1.00000000      1.00000000      1.00000000      1.00000000      1.00000000      1.00000000      1.00000000
</v>
    <i name="NUPDOWN">     -1.00000000</i>
    <i type="logical" name="LSORBIT"> F  </i>
    <v name="SAXIS">      0.00000000      0.00000000      1.00000000</v>
    <i type="logical" name="LSPIRAL"> F  </i>
    <v name="QSPIRAL">      0.00000000      0.00000000      0.00000000</v>
    <i type="logical" name="LZEROZ"> F  </i>
   </separator>
   <separator name="electronic exchange-correlation" >
    <i type="logical" name="LASPH"> F  </i>
    <i type="logical" name="LMETAGGA"> F  </i>
   </separator>
   <separator name="electronic convergence" >
    <i type="int" name="NELM">    60</i>
    <i type="int" name="NELMDL">    -5</i>
    <i type="int" name="NELMIN">     2</i>
    <i name="ENINI">    600.00000000</i>
    <separator name="electronic convergence detail" >
     <i type="logical" name="LDIAG"> T  </i>
     <i type="logical" name="LSUBROT"> F  </i>
     <i name="WEIMIN">      0.00000000</i>
     <i name="EBREAK">      0.00000000</i>
     <i name="DEPER">      0.30000000</i>
     <i type="int" name="NRMM">     4</i>
     <i name="TIME">      0.40000000</i>
    </separator>
   </separator>
   <separator name="electronic mixer" >
    <i name="AMIX">      0.40000000</i>
    <i name="BMIX">      1.00000000</i>
    <i name="AMIN">      0.10000000</i>
    <i name="AMIX_MAG">      1.60000000</i>
    <i name="BMIX_MAG">      1.00000000</i>
    <separator name="electronic mixer details" >
     <i type="int" name="IMIX">     4</i>
     <i type="logical" name="MIXFIRST"> F  </i>
     <i type="int" name="MAXMIX">   -45</i>
     <i name="WC">    100.00000000</i>
     <i type="int" name="INIMIX">     1</i>
     <i type="int" name="MIXPRE">     1</i>
     <i type="int" name="MREMOVE">     5</i>
    </separator>
   </separator>
   <separator name="electronic dipolcorrection" >
    <i type="logical" name="LDIPOL"> F  </i>
    <i type="logical" name="LMONO"> F  </i>
    <i type="int" name="IDIPOL">     0</i>
    <i name="EPSILON">      1.00000000</i>
    <v name="DIPOL">   -100.00000000   -100.00000000   -100.00000000</v>
    <i name="EFIELD">      0.00000000</i>
   </separator>
  </separator>
  <separator name="grids" >
   <i type="int" name="NGX">   112</i>
   <i type="int" name="NGY">   112</i>
   <i type="int" name="NGZ">   224</i>
   <i type="int" name="NGXF">   224</i>
   <i type="int" name="NGYF">   224</i>
   <i type="int" name="NGZF">   448</i>
   <i type="logical" name="ADDGRID"> T  </i>
  </separator>
  <separator name="ionic" >
   <i type="int" name="NSW">     1</i>
   <i type="int" name="IBRION">    -1</i>
   <i type="int" name="MDALGO">     0</i>
   <i type="int" name="ISIF">     2</i>
   <i name="PSTRESS">      0.00000000</i>
   <i name="EDIFFG">     -0.01000000</i>
   <i type="int" name="NFREE">     0</i>
   <i name="POTIM">      1.00000000</i>
   <i name="SMASS">     -3.00000000</i>
   <i name="SCALEE">      1.00000000</i>
  </separator>
  <separator name="ionic md" >
   <i name="TEBEG">      0.00010000</i>
   <i name="TEEND">      0.00010000</i>
   <i type="int" name="NBLOCK">     1</i>
   <i type="int" name="KBLOCK">     1</i>
   <i type="int" name="NPACO">   256</i>
   <i name="APACO">     16.00000000</i>
  </separator>
  <separator name="symmetry" >
   <i type="int" name="ISYM">     2</i>
   <i name="SYMPREC">      0.00001000</i>
  </separator>
  <separator name="dos" >
   <i type="int" name="LORBIT">     0</i>
   <v name="RWIGS">     -1.00000000     -1.00000000     -1.00000000</v>
   <i type="int" name="NEDOS">   301</i>
   <i name="EMIN">     10.00000000</i>
   <i name="EMAX">    -10.00000000</i>
   <i name="EFERMI">      0.00000000</i>
  </separator>
  <separator name="writing" >
   <i type="int" name="NWRITE">     2</i>
   <i type="logical" name="LWAVE"> F  </i>
   <i type="logical" name="LDOWNSAMPLE"> F  </i>
   <i type="logical" name="LCHARG"> F  </i>
   <i type="logical" name="LPARD"> F  </i>
   <i type="logical" name="LVTOT"> F  </i>
   <i type="logical" name="LVHAR"> F  </i>
   <i type="logical" name="LELF"> F  </i>
   <i type="logical" name="LOPTICS"> F  </i>
   <v name="STM">      0.00000000      0.00000000      0.00000000      0.00000000      0.00000000      0.00000000      0.00000000</v>
  </separator>
  <separator name="performance" >
   <i type="int" name="NPAR">     4</i>
   <i type="int" name="NSIM">     4</i>
   <i type="int" name="NBLK">    -1</i>
   <i type="logical" name="LPLANE"> T  </i>
   <i type="logical" name="LSCALAPACK"> F  </i>
   <i type="logical" name="LSCAAWARE"> F  </i>
   <i type="logical" name="LSCALU"> F  </i>
   <i type="logical" name="LASYNC"> F  </i>
   <i type="logical" name="LORBITALREAL"> F  </i>
  </separator>
  <separator name="miscellaneous" >
   <i type="int" name="IDIOT">     3</i>
   <i type="int" name="ISPECIAL">     0</i>
   <i type="logical" name="LMUSIC"> F  </i>
   <v name="POMASS">     44.95600000     35.45300000     12.01100000</v>
   <v name="DARWINR">      0.00000000      0.00000000      0.00000000</v>
   <v name="DARWINV">      1.00000000      1.00000000      1.00000000</v>
   <i type="logical" name="LCORR"> T  </i>
  </separator>
  <i type="logical" name="GGA_COMPAT"> T  </i>
  <i type="logical" name="LBERRY"> F  </i>
  <i type="int" name="ICORELEVEL">     0</i>
  <i type="logical" name="LDAU"> F  </i>
  <i type="int" name="I_CONSTRAINED_M">     0</i>
  <separator name="electronic exchange-correlation" >
   <i type="string" name="GGA">--</i>
   <i type="int" name="VOSKOWN">     0</i>
   <i type="logical" name="LHFCALC"> F  </i>
   <i type="string" name="PRECFOCK"></i>
   <i type="logical" name="LSYMGRAD"> F  </i>
   <i type="logical" name="LHFONE"> F  </i>
   <i type="logical" name="LRHFCALC"> F  </i>
   <i type="logical" name="LTHOMAS"> F  </i>
   <i type="logical" name="LMODELHF"> F  </i>
   <i name="ENCUT4O">     -1.00000000</i>
   <i type="int" name="EXXOEP">     0</i>
   <i type="int" name="FOURORBIT">     0</i>
   <i name="AEXX">      0.00000000</i>
   <i name="HFALPHA">      0.00000000</i>
   <i name="MCALPHA">      0.00000000</i>
   <i name="ALDAX">      1.00000000</i>
   <i name="AGGAX">      1.00000000</i>
   <i name="ALDAC">      1.00000000</i>
   <i name="AGGAC">      1.00000000</i>
   <i type="int" name="NKREDX">     1</i>
   <i type="int" name="NKREDY">     1</i>
   <i type="int" name="NKREDZ">     1</i>
   <i type="logical" name="SHIFTRED"> F  </i>
   <i type="logical" name="ODDONLY"> F  </i>
   <i type="logical" name="EVENONLY"> F  </i>
   <i type="int" name="LMAXFOCK">     0</i>
   <i type="int" name="NMAXFOCKAE">     0</i>
   <i type="logical" name="LFOCKAEDFT"> F  </i>
   <i name="HFSCREEN">      0.00000000</i>
   <i name="HFSCREENC">      0.00000000</i>
   <i type="int" name="NBANDSGWLOW">     0</i>
  </separator>
  <separator name="vdW DFT" >
   <i type="logical" name="LUSE_VDW"> F  </i>
   <i name="Zab_VDW">     -0.84910000</i>
   <i name="PARAM1">      0.12340000</i>
   <i name="PARAM2">      1.00000000</i>
   <i name="PARAM3">      0.00000000</i>
  </separator>
  <separator name="model GW" >
   <i type="int" name="MODEL_GW">     0</i>
   <i name="MODEL_EPS0">     34.36971577</i>
   <i name="MODEL_ALPHA">      1.00000000</i>
  </separator>
  <separator name="linear response parameters" >
   <i type="logical" name="LEPSILON"> F  </i>
   <i type="logical" name="LRPA"> F  </i>
   <i type="logical" name="LNABLA"> F  </i>
   <i type="logical" name="LVEL"> F  </i>
   <i type="int" name="KINTER">     0</i>
   <i name="CSHIFT">      0.10000000</i>
   <i name="OMEGAMAX">     -1.00000000</i>
   <i name="DEG_THRESHOLD">      0.00200000</i>
   <i name="RTIME">     -0.10000000</i>
   <i name="WPLASMAI">      0.00000000</i>
   <v name="DFIELD">      0.00000000      0.00000000      0.00000000</v>
   <v name="WPLASMA">      0.00000000      0.00000000      0.00000000      0.00000000      0.00000000      0.00000000      0.00000000      0.00000000      0.00000000</v>
  </separator>
  <separator name="orbital magnetization" >
   <i type="logical" name="NUCIND"> F  </i>
   <v name="MAGPOS">      0.00000000      0.00000000      0.00000000</v>
   <i type="logical" name="LNICSALL"> T  </i>
   <i type="logical" name="ORBITALMAG"> F  </i>
   <i type="logical" name="LMAGBLOCH"> F  </i>
   <i type="logical" name="LCHIMAG"> F  </i>
   <i type="logical" name="LGAUGE"> T  </i>
   <i type="int" name="MAGATOM">     0</i>
   <v name="MAGDIPOL">      0.00000000      0.00000000      0.00000000</v>
   <v name="AVECCONST">      0.00000000      0.00000000      0.00000000</v>
  </separator>
  <separator name="response functions" >
   <i type="logical" name="LADDER"> F  </i>
   <i type="logical" name="LRPAFORCE"> F  </i>
   <i type="logical" name="LFXC"> F  </i>
   <i type="logical" name="LHARTREE"> T  </i>
   <i type="int" name="IBSE">     0</i>
   <v type="int" name="KPOINT">    -1     0     0     0</v>
   <i type="logical" name="LTCTE"> F  </i>
   <i type="logical" name="LTETE"> F  </i>
   <i type="logical" name="LTRIPLET"> F  </i>
   <i type="logical" name="LFXCEPS"> F  </i>
   <i type="logical" name="LFXHEG"> F  </i>
   <i type="int" name="NATURALO">     2</i>
   <i type="logical" name="L2ORDER"> F  </i>
   <i type="logical" name="LMP2LT"> F  </i>
   <i type="logical" name="LUSEW"> F  </i>
   <i name="ENCUTGW">     -2.00000000</i>
   <i name="ENCUTGWSOFT">     -2.00000000</i>
   <i name="ENCUTLF">     -1.00000000</i>
   <i type="int" name="LMAXMP2">    -1</i>
   <i name="SCISSOR">      0.00000000</i>
   <i type="int" name="NOMEGA">     0</i>
   <i type="int" name="NOMEGAR">     0</i>
   <i type="int" name="NBANDSGW">    -1</i>
   <i type="int" name="NBANDSO">    -1</i>
   <i type="int" name="NBANDSV">    -1</i>
   <i type="int" name="NELM">     1</i>
   <i type="int" name="NELMHF">     1</i>
   <i type="int" name="DIM">     3</i>
   <i type="int" name="ANTIRES">     0</i>
   <i name="OMEGAMAX">    -30.00000000</i>
   <i name="OMEGAMIN">    -30.00000000</i>
   <i name="OMEGATL">   -200.00000000</i>
   <i type="int" name="OMEGAGRID">   140</i>
   <i name="CSHIFT">     -0.10000000</i>
   <i type="logical" name="SELFENERGY"> F  </i>
   <i type="logical" name="LSPECTRAL"> F  </i>
   <i type="logical" name="LSPECTRALGW"> F  </i>
   <i type="logical" name="LSINGLES"> F  </i>
   <i type="logical" name="LFERMIGW"> F  </i>
   <i type="logical" name="ODDONLYGW"> F  </i>
   <i type="logical" name="EVENONLYGW"> F  </i>
   <i type="int" name="NKREDLFX">     1</i>
   <i type="int" name="NKREDLFY">     1</i>
   <i type="int" name="NKREDLFZ">     1</i>
   <i type="int" name="MAXMEM">  2800</i>
   <i type="int" name="TELESCOPE">     0</i>
   <i type="int" name="TAUPAR">     1</i>
   <i type="int" name="OMEGAPAR">    -1</i>
   <i name="LAMBDA">      1.00000000</i>
  </separator>
  <separator name="External order field" >
   <i name="OFIELD_KAPPA">      0.00000000</i>
   <v name="OFIELD_K">      0.00000000      0.00000000      0.00000000</v>
   <i name="OFIELD_Q6_NEAR">      0.00000000</i>
   <i name="OFIELD_Q6_FAR">      0.00000000</i>
   <i name="OFIELD_A">      0.00000000</i>
  </separator>
 </parameters>
 <atominfo>
  <atoms>      80 </atoms>
  <types>       3 </types>
  <array name="atoms" >
   <dimension dim="1">ion</dimension>
   <field type="string">element</field>
   <field type="int">atomtype</field>
   <set>
    <rc><c>Sc</c><c>   1</c></rc>
    <rc><c>Sc</c><c>   1</c></rc>
    <rc><c>Sc</c><c>   1</c></rc>
    <rc><c>Sc</c><c>   1</c></rc>
    <rc><c>Sc</c><c>   1</c></rc>
    <rc><c>Sc</c><c>   1</c></rc>
    <rc><c>Sc</c><c>   1</c></rc>
    <rc><c>Sc</c><c>   1</c></rc>
    <rc><c>Sc</c><c>   1</c></rc>
    <rc><c>Sc</c><c>   1</c></rc>
    <rc><c>Sc</c><c>   1</c></rc>
    <rc><c>Sc</c><c>   1</c></rc>
    <rc><c>Sc</c><c>   1</c></rc>
    <rc><c>Sc</c><c>   1</c></rc>
    <rc><c>Sc</c><c>   1</c></rc>
    <rc><c>Sc</c><c>   1</c></rc>
    <rc><c>Sc</c><c>   1</c></rc>
    <rc><c>Sc</c><c>   1</c></rc>
    <rc><c>Sc</c><c>   1</c></rc>
    <rc><c>Sc</c><c>   1</c></rc>
    <rc><c>Sc</c><c>   1</c></rc>
    <rc><c>Sc</c><c>   1</c></rc>
    <rc><c>Sc</c><c>   1</c></rc>
    <rc><c>Sc</c><c>   1</c></rc>
    <rc><c>Sc</c><c>   1</c></rc>
    <rc><c>Sc</c><c>   1</c></rc>
    <rc><c>Sc</c><c>   1</c></rc>
    <rc><c>Sc</c><c>   1</c></rc>
    <rc><c>Sc</c><c>   1</c></rc>
    <rc><c>Sc</c><c>   1</c></rc>
    <rc><c>Sc</c><c>   1</c></rc>
    <rc><c>Sc</c><c>   1</c></rc>
    <rc><c>Cl</c><c>   2</c></rc>
    <rc><c>Cl</c><c>   2</c></rc>
    <rc><c>Cl</c><c>   2</c></rc>
    <rc><c>Cl</c><c>   2</c></rc>
    <rc><c>Cl</c><c>   2</c></rc>
    <rc><c>Cl</c><c>   2</c></rc>
    <rc><c>Cl</c><c>   2</c></rc>
    <rc><c>Cl</c><c>   2</c></rc>
    <rc><c>Cl</c><c>   2</c></rc>
    <rc><c>Cl</c><c>   2</c></rc>
    <rc><c>Cl</c><c>   2</c></rc>
    <rc><c>Cl</c><c>   2</c></rc>
    <rc><c>Cl</c><c>   2</c></rc>
    <rc><c>Cl</c><c>   2</c></rc>
    <rc><c>Cl</c><c>   2</c></rc>
    <rc><c>Cl</c><c>   2</c></rc>
    <rc><c>Cl</c><c>   2</c></rc>
    <rc><c>Cl</c><c>   2</c></rc>
    <rc><c>Cl</c><c>   2</c></rc>
    <rc><c>Cl</c><c>   2</c></rc>
    <rc><c>Cl</c><c>   2</c></rc>
    <rc><c>Cl</c><c>   2</c></rc>
    <rc><c>Cl</c><c>   2</c></rc>
    <rc><c>Cl</c><c>   2</c></rc>
    <rc><c>Cl</c><c>   2</c></rc>
    <rc><c>Cl</c><c>   2</c></rc>
    <rc><c>Cl</c><c>   2</c></rc>
    <rc><c>Cl</c><c>   2</c></rc>
    <rc><c>Cl</c><c>   2</c></rc>
    <rc><c>Cl</c><c>   2</c></rc>
    <rc><c>Cl</c><c>   2</c></rc>
    <rc><c>Cl</c><c>   2</c></rc>
    <rc><c>C </c><c>   3</c></rc>
    <rc><c>C </c><c>   3</c></rc>
    <rc><c>C </c><c>   3</c></rc>
    <rc><c>C </c><c>   3</c></rc>
    <rc><c>C </c><c>   3</c></rc>
    <rc><c>C </c><c>   3</c></rc>
    <rc><c>C </c><c>   3</c></rc>
    <rc><c>C </c><c>   3</c></rc>
    <rc><c>C </c><c>   3</c></rc>
    <rc><c>C </c><c>   3</c></rc>
    <rc><c>C </c><c>   3</c></rc>
    <rc><c>C </c><c>   3</c></rc>
    <rc><c>C </c><c>   3</c></rc>
    <rc><c>C </c><c>   3</c></rc>
    <rc><c>C </c><c>   3</c></rc>
    <rc><c>C </c><c>   3</c></rc>
   </set>
  </array>
  <array name="atomtypes" >
   <dimension dim="1">type</dimension>
   <field type="int">atomspertype</field>
   <field type="string">element</field>
   <field>mass</field>
   <field>valence</field>
   <field type="string">pseudopotential</field>
   <set>
    <rc><c>  32</c><c>Sc</c><c>     44.95600000</c><c>     11.00000000</c><c>  PAW_PBE Sc_sv 07Sep2000               </c></rc>
    <rc><c>  32</c><c>Cl</c><c>     35.45300000</c><c>      7.00000000</c><c>  PAW_PBE Cl 06Sep2000                  </c></rc>
    <rc><c>  16</c><c>C </c><c>     12.01100000</c><c>      4.00000000</c><c>  PAW_PBE C 08Apr2002                   </c></rc>
   </set>
  </array>
 </atominfo>
 <structure name="initialpos" >
  <crystal>
   <varray name="basis" >
    <v>      13.79398668       0.00000000       0.00000000 </v>
    <v>      -6.89699334      11.94594288       0.00000000 </v>
    <v>       0.00000000       0.00000000      27.81022107 </v>
   </varray>
   <i name="volume">   4582.62876984 </i>
   <varray name="rec_basis" >
    <v>       0.07249536       0.04185521       0.00000000 </v>
    <v>       0.00000000       0.08371043       0.00000000 </v>
    <v>       0.00000000       0.00000000       0.03595800 </v>
   </varray>
  </crystal>
  <varray name="positions" >
   <v>       0.09196585       0.17209450       0.54442665 </v>
   <v>       0.08012616       0.40990332       0.54293708 </v>
   <v>       0.08432893       0.65852765       0.54327349 </v>
   <v>       0.07006813       0.91178594       0.54022359 </v>
   <v>       0.33604136       0.16609441       0.54737029 </v>
   <v>       0.33086145       0.41874428       0.54405258 </v>
   <v>       0.33728121       0.66696472       0.54470049 </v>
   <v>       0.32568683       0.91074301       0.54529479 </v>
   <v>       0.57863291       0.16625868       0.54860831 </v>
   <v>       0.57213323       0.41289692       0.54587907 </v>
   <v>       0.57398985       0.66178937       0.54360379 </v>
   <v>       0.58970862       0.90817587       0.54735108 </v>
   <v>       0.83606641       0.16996455       0.54102168 </v>
   <v>       0.83063318       0.41469361       0.55123457 </v>
   <v>       0.83667474       0.66182668       0.55036883 </v>
   <v>       0.83919273       0.93078754       0.54459103 </v>
   <v>       0.18174782       0.09174674       0.45552396 </v>
   <v>       0.15992733       0.32970024       0.45024090 </v>
   <v>       0.15878236       0.58177495       0.44729114 </v>
   <v>       0.17836491       0.84706925       0.45285295 </v>
   <v>       0.41660425       0.08486240       0.45689707 </v>
   <v>       0.42325434       0.34146782       0.45702244 </v>
   <v>       0.41300013       0.58544882       0.45525202 </v>
   <v>       0.41668666       0.84035461       0.45148109 </v>
   <v>       0.66230191       0.07892256       0.45660657 </v>
   <v>       0.66543157       0.32818925       0.45698124 </v>
   <v>       0.67142011       0.58462451       0.46095445 </v>
   <v>       0.67062396       0.83690300       0.45906311 </v>
   <v>       0.90950262       0.08183816       0.45046769 </v>
   <v>       0.92541338       0.34568658       0.45574723 </v>
   <v>       0.91502779       0.59053088       0.45418149 </v>
   <v>       0.91757581       0.82915191       0.46012637 </v>
   <v>       0.08653591       0.15801991       0.39166618 </v>
   <v>       0.08723626       0.41186458       0.39134198 </v>
   <v>       0.07777525       0.66995755       0.38875536 </v>
   <v>       0.08714297       0.91867075       0.39397335 </v>
   <v>       0.34036425       0.18421018       0.39407730 </v>
   <v>       0.34373254       0.41938346       0.39440115 </v>
   <v>       0.32212872       0.65592982       0.38771753 </v>
   <v>       0.34080377       0.91553557       0.39458518 </v>
   <v>       0.59720352       0.16368160       0.39371525 </v>
   <v>       0.57409217       0.40790558       0.39477313 </v>
   <v>       0.58547135       0.66660295       0.40085540 </v>
   <v>       0.58414128       0.90470886       0.39472221 </v>
   <v>       0.82676568       0.17957609       0.39777456 </v>
   <v>       0.83737994       0.42613488       0.39845247 </v>
   <v>       0.83188189       0.66306769       0.39369737 </v>
   <v>       0.83708740       0.90810857       0.39374866 </v>
   <v>       0.16733520       0.08116765       0.60632856 </v>
   <v>       0.16407643       0.32275567       0.60236830 </v>
   <v>       0.15811340       0.57105611       0.60004252 </v>
   <v>       0.17055694       0.83029059       0.59618573 </v>
   <v>       0.41974701       0.08592295       0.60296374 </v>
   <v>       0.41272214       0.33214544       0.61327992 </v>
   <v>       0.40756666       0.57716416       0.60691770 </v>
   <v>       0.41719400       0.83126019       0.60688197 </v>
   <v>       0.68196900       0.10538822       0.59984906 </v>
   <v>       0.66222729       0.33163714       0.61069958 </v>
   <v>       0.65899860       0.58778290       0.60543563 </v>
   <v>       0.66648721       0.84434829       0.61120748 </v>
   <v>       0.90843866       0.07591474       0.60288459 </v>
   <v>       0.91487555       0.32749559       0.60252400 </v>
   <v>       0.92172036       0.57849197       0.60795969 </v>
   <v>       0.91222667       0.82977330       0.60848626 </v>
   <v>       0.00113702       0.99306376       0.50173276 </v>
   <v>       0.01255530       0.25206511       0.49884650 </v>
   <v>       0.99822306       0.50570348       0.49914878 </v>
   <v>       0.99431148       0.75383019       0.49807553 </v>
   <v>       0.25379121       0.00814578       0.49703819 </v>
   <v>       0.24794602       0.25037744       0.50253180 </v>
   <v>       0.24482195       0.49785828       0.50015803 </v>
   <v>       0.24911747       0.75335181       0.49976186 </v>
   <v>       0.49950882       0.00400748       0.50059474 </v>
   <v>       0.49029991       0.25257626       0.50235532 </v>
   <v>       0.49459451       0.49305334       0.50604287 </v>
   <v>       0.50577562       0.74841714       0.50415010 </v>
   <v>       0.75821772       0.01161890       0.49484774 </v>
   <v>       0.74977543       0.25639447       0.50327519 </v>
   <v>       0.74952575       0.49951168       0.50106426 </v>
   <v>       0.74212933       0.74744201       0.50393034 </v>
  </varray>
  <varray name="velocities" >
   <v>       0.00000000       0.00000000       0.00000000 </v>
   <v>       0.00000000       0.00000000       0.00000000 </v>
   <v>       0.00000000       0.00000000       0.00000000 </v>
   <v>       0.00000000       0.00000000       0.00000000 </v>
   <v>       0.00000000       0.00000000       0.00000000 </v>
   <v>       0.00000000       0.00000000       0.00000000 </v>
   <v>       0.00000000       0.00000000       0.00000000 </v>
   <v>       0.00000000       0.00000000       0.00000000 </v>
   <v>       0.00000000       0.00000000       0.00000000 </v>
   <v>       0.00000000       0.00000000       0.00000000 </v>
   <v>       0.00000000       0.00000000       0.00000000 </v>
   <v>       0.00000000       0.00000000       0.00000000 </v>
   <v>       0.00000000       0.00000000       0.00000000 </v>
   <v>       0.00000000       0.00000000       0.00000000 </v>
   <v>       0.00000000       0.00000000       0.00000000 </v>
   <v>       0.00000000       0.00000000       0.00000000 </v>
   <v>       0.00000000       0.00000000       0.00000000 </v>
   <v>       0.00000000       0.00000000       0.00000000 </v>
   <v>       0.00000000       0.00000000       0.00000000 </v>
   <v>       0.00000000       0.00000000       0.00000000 </v>
   <v>       0.00000000       0.00000000       0.00000000 </v>
   <v>       0.00000000       0.00000000       0.00000000 </v>
   <v>       0.00000000       0.00000000       0.00000000 </v>
   <v>       0.00000000       0.00000000       0.00000000 </v>
   <v>       0.00000000       0.00000000       0.00000000 </v>
   <v>       0.00000000       0.00000000       0.00000000 </v>
   <v>       0.00000000       0.00000000       0.00000000 </v>
   <v>       0.00000000       0.00000000       0.00000000 </v>
   <v>       0.00000000       0.00000000       0.00000000 </v>
   <v>       0.00000000       0.00000000       0.00000000 </v>
   <v>       0.00000000       0.00000000       0.00000000 </v>
   <v>       0.00000000       0.00000000       0.00000000 </v>
   <v>       0.00000000       0.00000000       0.00000000 </v>
   <v>       0.00000000       0.00000000       0.00000000 </v>
   <v>       0.00000000       0.00000000       0.00000000 </v>
   <v>       0.00000000       0.00000000       0.00000000 </v>
   <v>       0.00000000       0.00000000       0.00000000 </v>
   <v>       0.00000000       0.00000000       0.00000000 </v>
   <v>       0.00000000       0.00000000       0.00000000 </v>
   <v>       0.00000000       0.00000000       0.00000000 </v>
   <v>       0.00000000       0.00000000       0.00000000 </v>
   <v>       0.00000000       0.00000000       0.00000000 </v>
   <v>       0.00000000       0.00000000       0.00000000 </v>
   <v>       0.00000000       0.00000000       0.00000000 </v>
   <v>       0.00000000       0.00000000       0.00000000 </v>
   <v>       0.00000000       0.00000000       0.00000000 </v>
   <v>       0.00000000       0.00000000       0.00000000 </v>
   <v>       0.00000000       0.00000000       0.00000000 </v>
   <v>       0.00000000       0.00000000       0.00000000 </v>
   <v>       0.00000000       0.00000000       0.00000000 </v>
   <v>       0.00000000       0.00000000       0.00000000 </v>
   <v>       0.00000000       0.00000000       0.00000000 </v>
   <v>       0.00000000       0.00000000       0.00000000 </v>
   <v>       0.00000000       0.00000000       0.00000000 </v>
   <v>       0.00000000       0.00000000       0.00000000 </v>
   <v>       0.00000000       0.00000000       0.00000000 </v>
   <v>       0.00000000       0.00000000       0.00000000 </v>
   <v>       0.00000000       0.00000000       0.00000000 </v>
   <v>       0.00000000       0.00000000       0.00000000 </v>
   <v>       0.00000000       0.00000000       0.00000000 </v>
   <v>       0.00000000       0.00000000       0.00000000 </v>
   <v>       0.00000000       0.00000000       0.00000000 </v>
   <v>       0.00000000       0.00000000       0.00000000 </v>
   <v>       0.00000000       0.00000000       0.00000000 </v>
   <v>       0.00000000       0.00000000       0.00000000 </v>
   <v>       0.00000000       0.00000000       0.00000000 </v>
   <v>       0.00000000       0.00000000       0.00000000 </v>
   <v>       0.00000000       0.00000000       0.00000000 </v>
   <v>       0.00000000       0.00000000       0.00000000 </v>
   <v>       0.00000000       0.00000000       0.00000000 </v>
   <v>       0.00000000       0.00000000       0.00000000 </v>
   <v>       0.00000000       0.00000000       0.00000000 </v>
   <v>       0.00000000       0.00000000       0.00000000 </v>
   <v>       0.00000000       0.00000000       0.00000000 </v>
   <v>       0.00000000       0.00000000       0.00000000 </v>
   <v>       0.00000000       0.00000000       0.00000000 </v>
   <v>       0.00000000       0.00000000       0.00000000 </v>
   <v>       0.00000000       0.00000000       0.00000000 </v>
   <v>       0.00000000       0.00000000       0.00000000 </v>
   <v>       0.00000000       0.00000000       0.00000000 </v>
  </varray>
 </structure>
 <calculation>
  <scstep>
   <time name="dav">  156.72  156.73</time>
   <time name="total">  158.94  158.95</time>
   <energy>
    <i name="alphaZ">    784.57699423 </i>
    <i name="ewald"> 251453.14181424 </i>
    <i name="hartreedc">-299118.85280318 </i>
    <i name="XCdc">   2502.40428998 </i>
    <i name="pawpsdc">  43679.68029659 </i>
    <i name="pawaedc"> -43417.33247688 </i>
    <i name="eentropy">     -0.07425019 </i>
    <i name="bandstr">     90.97928367 </i>
    <i name="atom">  56210.72393729 </i>
    <i name="e_fr_energy">  12185.24708574 </i>
    <i name="e_wo_entrp">  12185.32133593 </i>
    <i name="e_0_energy">  12185.28421084 </i>
   </energy>
  </scstep>
  <scstep>
   <time name="dav">  172.83  172.86</time>
   <time name="total">  172.83  172.86</time>
   <energy>
    <i name="e_fr_energy">   1745.55180994 </i>
    <i name="e_wo_entrp">   1745.59738406 </i>
    <i name="e_0_energy">   1745.57459700 </i>
   </energy>
  </scstep>
  <scstep>
   <time name="dav">  216.98  217.00</time>
   <time name="total">  216.98  217.00</time>
   <energy>
    <i name="e_fr_energy">   -406.06269035 </i>
    <i name="e_wo_entrp">   -406.06269035 </i>
    <i name="e_0_energy">   -406.06269035 </i>
   </energy>
  </scstep>
  <scstep>
   <time name="dav">  197.67  197.68</time>
   <time name="total">  197.67  197.68</time>
   <energy>
    <i name="e_fr_energy">   -643.59071230 </i>
    <i name="e_wo_entrp">   -643.59071230 </i>
    <i name="e_0_energy">   -643.59071230 </i>
   </energy>
  </scstep>
  <scstep>
   <time name="dav">  197.49  197.50</time>
   <time name="total">  211.08  211.09</time>
   <energy>
    <i name="e_fr_energy">   -654.01124138 </i>
    <i name="e_wo_entrp">   -654.01124138 </i>
    <i name="e_0_energy">   -654.01124138 </i>
   </energy>
  </scstep>
  <scstep>
   <time name="dav">  189.20  189.20</time>
   <time name="total">  205.19  205.21</time>
   <energy>
    <i name="e_fr_energy">   -523.13765189 </i>
    <i name="e_wo_entrp">   -523.13765188 </i>
    <i name="e_0_energy">   -523.13765188 </i>
   </energy>
  </scstep>
  <scstep>
   <time name="dav">  190.04  190.04</time>
   <time name="total">  205.98  205.99</time>
   <energy>
    <i name="e_fr_energy">   -528.23091748 </i>
    <i name="e_wo_entrp">   -528.23091748 </i>
    <i name="e_0_energy">   -528.23091748 </i>
   </energy>
  </scstep>
  <scstep>
   <time name="dav">  193.05  193.05</time>
   <time name="total">  208.99  209.01</time>
   <energy>
    <i name="e_fr_energy">   -525.90858871 </i>
    <i name="e_wo_entrp">   -525.90858871 </i>
    <i name="e_0_energy">   -525.90858871 </i>
   </energy>
  </scstep>
  <scstep>
   <time name="dav">  176.56  176.57</time>
   <time name="total">  192.50  192.52</time>
   <energy>
    <i name="e_fr_energy">   -525.36416423 </i>
    <i name="e_wo_entrp">   -525.36416423 </i>
    <i name="e_0_energy">   -525.36416423 </i>
   </energy>
  </scstep>
  <scstep>
   <time name="dav">  182.82  182.82</time>
   <time name="total">  198.77  198.78</time>
   <energy>
    <i name="e_fr_energy">   -525.23184466 </i>
    <i name="e_wo_entrp">   -525.23184466 </i>
    <i name="e_0_energy">   -525.23184466 </i>
   </energy>
  </scstep>
  <scstep>
   <time name="dav">  184.16  184.16</time>
   <time name="total">  199.07  199.08</time>
   <energy>
    <i name="e_fr_energy">   -525.21281127 </i>
    <i name="e_wo_entrp">   -525.21281127 </i>
    <i name="e_0_energy">   -525.21281127 </i>
   </energy>
  </scstep>
  <scstep>
   <time name="dav">  194.92  194.92</time>
   <time name="total">  209.96  209.97</time>
   <energy>
    <i name="e_fr_energy">   -525.19738957 </i>
    <i name="e_wo_entrp">   -525.19738957 </i>
    <i name="e_0_energy">   -525.19738957 </i>
   </energy>
  </scstep>
  <scstep>
   <time name="dav">  174.78  174.78</time>
   <time name="total">  189.72  189.73</time>
   <energy>
    <i name="e_fr_energy">   -525.19392616 </i>
    <i name="e_wo_entrp">   -525.19392616 </i>
    <i name="e_0_energy">   -525.19392616 </i>
   </energy>
  </scstep>
  <scstep>
   <time name="dav">  177.99  178.00</time>
   <time name="total">  192.77  192.79</time>
   <energy>
    <i name="e_fr_energy">   -525.19252628 </i>
    <i name="e_wo_entrp">   -525.19252628 </i>
    <i name="e_0_energy">   -525.19252628 </i>
   </energy>
  </scstep>
  <scstep>
   <time name="dav">  178.70  178.70</time>
   <time name="total">  193.62  193.64</time>
   <energy>
    <i name="e_fr_energy">   -525.19404763 </i>
    <i name="e_wo_entrp">   -525.19404763 </i>
    <i name="e_0_energy">   -525.19404763 </i>
   </energy>
  </scstep>
  <scstep>
   <time name="dav">  192.94  192.94</time>
   <time name="total">  208.50  208.51</time>
   <energy>
    <i name="e_fr_energy">   -525.19579327 </i>
    <i name="e_wo_entrp">   -525.19579327 </i>
    <i name="e_0_energy">   -525.19579327 </i>
   </energy>
  </scstep>
  <scstep>
   <time name="dav">  175.51  175.52</time>
   <time name="total">  191.03  191.04</time>
   <energy>
    <i name="e_fr_energy">   -525.19922246 </i>
    <i name="e_wo_entrp">   -525.19922246 </i>
    <i name="e_0_energy">   -525.19922246 </i>
   </energy>
  </scstep>
  <scstep>
   <time name="dav">  167.32  167.33</time>
   <time name="total">  183.07  183.09</time>
   <energy>
    <i name="e_fr_energy">   -525.20165197 </i>
    <i name="e_wo_entrp">   -525.20165197 </i>
    <i name="e_0_energy">   -525.20165197 </i>
   </energy>
  </scstep>
  <scstep>
   <time name="dav">  164.85  164.85</time>
   <time name="total">  180.59  180.61</time>
   <energy>
    <i name="e_fr_energy">   -525.20272884 </i>
    <i name="e_wo_entrp">   -525.20272884 </i>
    <i name="e_0_energy">   -525.20272884 </i>
   </energy>
  </scstep>
  <scstep>
   <time name="dav">  147.90  147.90</time>
   <time name="total">  163.28  163.29</time>
   <energy>
    <i name="e_fr_energy">   -525.20407490 </i>
    <i name="e_wo_entrp">   -525.20407490 </i>
    <i name="e_0_energy">   -525.20407490 </i>
   </energy>
  </scstep>
  <scstep>
   <time name="dav">  149.75  149.75</time>
   <time name="total">  166.11  166.13</time>
   <energy>
    <i name="e_fr_energy">   -525.20457928 </i>
    <i name="e_wo_entrp">   -525.20457928 </i>
    <i name="e_0_energy">   -525.20457928 </i>
   </energy>
  </scstep>
  <scstep>
   <time name="dav">  138.49  138.50</time>
   <time name="total">  154.90  154.91</time>
   <energy>
    <i name="e_fr_energy">   -525.20495218 </i>
    <i name="e_wo_entrp">   -525.20495218 </i>
    <i name="e_0_energy">   -525.20495218 </i>
   </energy>
  </scstep>
  <scstep>
   <time name="dav">  131.25  131.25</time>
   <time name="total">  147.63  147.65</time>
   <energy>
    <i name="e_fr_energy">   -525.20550403 </i>
    <i name="e_wo_entrp">   -525.20550403 </i>
    <i name="e_0_energy">   -525.20550403 </i>
   </energy>
  </scstep>
  <scstep>
   <time name="dav">  137.39  137.39</time>
   <time name="total">  153.58  153.59</time>
   <energy>
    <i name="e_fr_energy">   -525.20567546 </i>
    <i name="e_wo_entrp">   -525.20567546 </i>
    <i name="e_0_energy">   -525.20567546 </i>
   </energy>
  </scstep>
  <scstep>
   <time name="dav">  110.77  110.77</time>
   <time name="total">  127.17  127.18</time>
   <energy>
    <i name="e_fr_energy">   -525.20574912 </i>
    <i name="e_wo_entrp">   -525.20574912 </i>
    <i name="e_0_energy">   -525.20574912 </i>
   </energy>
  </scstep>
  <scstep>
   <time name="dav">  128.54  128.54</time>
   <time name="total">  144.77  144.79</time>
   <energy>
    <i name="e_fr_energy">   -525.20584890 </i>
    <i name="e_wo_entrp">   -525.20584890 </i>
    <i name="e_0_energy">   -525.20584890 </i>
   </energy>
  </scstep>
  <scstep>
   <time name="dav">  106.83  106.83</time>
   <time name="total">  122.78  122.79</time>
   <energy>
    <i name="e_fr_energy">   -525.20586856 </i>
    <i name="e_wo_entrp">   -525.20586856 </i>
    <i name="e_0_energy">   -525.20586856 </i>
   </energy>
  </scstep>
  <scstep>
   <time name="dav">  105.10  105.10</time>
   <time name="total">  121.52  121.53</time>
   <energy>
    <i name="e_fr_energy">   -525.20587814 </i>
    <i name="e_wo_entrp">   -525.20587814 </i>
    <i name="e_0_energy">   -525.20587814 </i>
   </energy>
  </scstep>
  <scstep>
   <time name="dav">  102.08  102.08</time>
   <time name="total">  118.18  118.19</time>
   <energy>
    <i name="e_fr_energy">   -525.20588588 </i>
    <i name="e_wo_entrp">   -525.20588588 </i>
    <i name="e_0_energy">   -525.20588588 </i>
   </energy>
  </scstep>
  <scstep>
   <time name="dav">  107.02  107.02</time>
   <time name="total">  123.00  123.01</time>
   <energy>
    <i name="e_fr_energy">   -525.20589679 </i>
    <i name="e_wo_entrp">   -525.20589679 </i>
    <i name="e_0_energy">   -525.20589679 </i>
   </energy>
  </scstep>
  <scstep>
   <time name="dav">  105.43  105.43</time>
   <time name="total">  121.57  121.59</time>
   <energy>
    <i name="e_fr_energy">   -525.20590528 </i>
    <i name="e_wo_entrp">   -525.20590528 </i>
    <i name="e_0_energy">   -525.20590528 </i>
   </energy>
  </scstep>
  <scstep>
   <time name="dav">  100.92  100.93</time>
   <time name="total">  116.29  116.31</time>
   <energy>
    <i name="e_fr_energy">   -525.20590817 </i>
    <i name="e_wo_entrp">   -525.20590817 </i>
    <i name="e_0_energy">   -525.20590817 </i>
   </energy>
  </scstep>
  <scstep>
   <time name="dav">   97.89   97.89</time>
   <time name="total">  100.12  100.14</time>
   <energy>
    <i name="alphaZ">    784.57699423 </i>
    <i name="ewald"> 251453.14181424 </i>
    <i name="hartreedc">-299445.07031458 </i>
    <i name="XCdc">   2489.70278328 </i>
    <i name="pawpsdc">  59471.82047355 </i>
    <i name="pawaedc"> -59303.49885334 </i>
    <i name="eentropy">     -0.00000000 </i>
    <i name="bandstr"> -12186.60274320 </i>
    <i name="atom">  56210.72393729 </i>
    <i name="e_fr_energy">   -525.20590854 </i>
    <i name="e_wo_entrp">   -525.20590854 </i>
    <i name="e_0_energy">   -525.20590854 </i>
   </energy>
  </scstep>
  <structure>
   <crystal>
    <varray name="basis" >
     <v>      13.79398668       0.00000000       0.00000000 </v>
     <v>      -6.89699334      11.94594288       0.00000000 </v>
     <v>       0.00000000       0.00000000      27.81022107 </v>
    </varray>
    <i name="volume">   4582.62876984 </i>
    <varray name="rec_basis" >
     <v>       0.07249536       0.04185521       0.00000000 </v>
     <v>       0.00000000       0.08371043       0.00000000 </v>
     <v>       0.00000000       0.00000000       0.03595800 </v>
    </varray>
   </crystal>
   <varray name="positions" >
    <v>       0.09196585       0.17209450       0.54442665 </v>
    <v>       0.08012616       0.40990332       0.54293708 </v>
    <v>       0.08432893       0.65852765       0.54327349 </v>
    <v>       0.07006813       0.91178594       0.54022359 </v>
    <v>       0.33604136       0.16609441       0.54737029 </v>
    <v>       0.33086145       0.41874428       0.54405258 </v>
    <v>       0.33728121       0.66696472       0.54470049 </v>
    <v>       0.32568683       0.91074301       0.54529479 </v>
    <v>       0.57863291       0.16625868       0.54860831 </v>
    <v>       0.57213323       0.41289692       0.54587907 </v>
    <v>       0.57398985       0.66178937       0.54360379 </v>
    <v>       0.58970862       0.90817587       0.54735108 </v>
    <v>       0.83606641       0.16996455       0.54102168 </v>
    <v>       0.83063318       0.41469361       0.55123457 </v>
    <v>       0.83667474       0.66182668       0.55036883 </v>
    <v>       0.83919273       0.93078754       0.54459103 </v>
    <v>       0.18174782       0.09174674       0.45552396 </v>
    <v>       0.15992733       0.32970024       0.45024090 </v>
    <v>       0.15878236       0.58177495       0.44729114 </v>
    <v>       0.17836491       0.84706925       0.45285295 </v>
    <v>       0.41660425       0.08486240       0.45689707 </v>
    <v>       0.42325434       0.34146782       0.45702244 </v>
    <v>       0.41300013       0.58544882       0.45525202 </v>
    <v>       0.41668666       0.84035461       0.45148109 </v>
    <v>       0.66230191       0.07892256       0.45660657 </v>
    <v>       0.66543157       0.32818925       0.45698124 </v>
    <v>       0.67142011       0.58462451       0.46095445 </v>
    <v>       0.67062396       0.83690300       0.45906311 </v>
    <v>       0.90950262       0.08183816       0.45046769 </v>
    <v>       0.92541338       0.34568658       0.45574723 </v>
    <v>       0.91502779       0.59053088       0.45418149 </v>
    <v>       0.91757581       0.82915191       0.46012637 </v>
    <v>       0.08653591       0.15801991       0.39166618 </v>
    <v>       0.08723626       0.41186458       0.39134198 </v>
    <v>       0.07777525       0.66995755       0.38875536 </v>
    <v>       0.08714297       0.91867075       0.39397335 </v>
    <v>       0.34036425       0.18421018       0.39407730 </v>
    <v>       0.34373254       0.41938346       0.39440115 </v>
    <v>       0.32212872       0.65592982       0.38771753 </v>
    <v>       0.34080377       0.91553557       0.39458518 </v>
    <v>       0.59720352       0.16368160       0.39371525 </v>
    <v>       0.57409217       0.40790558       0.39477313 </v>
    <v>       0.58547135       0.66660295       0.40085540 </v>
    <v>       0.58414128       0.90470886       0.39472221 </v>
    <v>       0.82676568       0.17957609       0.39777456 </v>
    <v>       0.83737994       0.42613488       0.39845247 </v>
    <v>       0.83188189       0.66306769       0.39369737 </v>
    <v>       0.83708740       0.90810857       0.39374866 </v>
    <v>       0.16733520       0.08116765       0.60632856 </v>
    <v>       0.16407643       0.32275567       0.60236830 </v>
    <v>       0.15811340       0.57105611       0.60004252 </v>
    <v>       0.17055694       0.83029059       0.59618573 </v>
    <v>       0.41974701       0.08592295       0.60296374 </v>
    <v>       0.41272214       0.33214544       0.61327992 </v>
    <v>       0.40756666       0.57716416       0.60691770 </v>
    <v>       0.41719400       0.83126019       0.60688197 </v>
    <v>       0.68196900       0.10538822       0.59984906 </v>
    <v>       0.66222729       0.33163714       0.61069958 </v>
    <v>       0.65899860       0.58778290       0.60543563 </v>
    <v>       0.66648721       0.84434829       0.61120748 </v>
    <v>       0.90843866       0.07591474       0.60288459 </v>
    <v>       0.91487555       0.32749559       0.60252400 </v>
    <v>       0.92172036       0.57849197       0.60795969 </v>
    <v>       0.91222667       0.82977330       0.60848626 </v>
    <v>       0.00113702       0.99306376       0.50173276 </v>
    <v>       0.01255530       0.25206511       0.49884650 </v>
    <v>       0.99822306       0.50570348       0.49914878 </v>
    <v>       0.99431148       0.75383019       0.49807553 </v>
    <v>       0.25379121       0.00814578       0.49703819 </v>
    <v>       0.24794602       0.25037744       0.50253180 </v>
    <v>       0.24482195       0.49785828       0.50015803 </v>
    <v>       0.24911747       0.75335181       0.49976186 </v>
    <v>       0.49950882       0.00400748       0.50059474 </v>
    <v>       0.49029991       0.25257626       0.50235532 </v>
    <v>       0.49459451       0.49305334       0.50604287 </v>
    <v>       0.50577562       0.74841714       0.50415010 </v>
    <v>       0.75821772       0.01161890       0.49484774 </v>
    <v>       0.74977543       0.25639447       0.50327519 </v>
    <v>       0.74952575       0.49951168       0.50106426 </v>
    <v>       0.74212933       0.74744201       0.50393034 </v>
   </varray>
  </structure>
  <varray name="forces" >
   <v>      -0.02664867      -1.01966172      -0.70703554 </v>
   <v>       0.51482377       0.43565192      -0.51197364 </v>
   <v>      -0.31422427       0.66473415      -0.78026705 </v>
   <v>       1.27782001       0.66558136       1.67429789 </v>
   <v>      -1.07049569       0.54201207      -0.32331214 </v>
   <v>      -0.01700569      -0.59298921       0.15477446 </v>
   <v>      -0.72954032      -0.24417809      -0.47085882 </v>
   <v>       1.33092656       0.68178391      -1.14153676 </v>
   <v>       0.53986792       0.36919799      -1.34983889 </v>
   <v>       0.68522259       0.21659541       0.96101103 </v>
   <v>       1.21240704       0.15368968       1.31011170 </v>
   <v>      -1.42417246       0.71758267      -0.17860332 </v>
   <v>       0.04484023       0.28549040      -0.18089925 </v>
   <v>      -0.50950759      -0.19396741      -1.70089370 </v>
   <v>      -0.97027150       0.21960079      -0.73041069 </v>
   <v>       0.79149044      -1.53552947      -0.38119117 </v>
   <v>      -1.05008696      -0.18185677      -0.15092819 </v>
   <v>       1.28504397      -0.07311199       1.12576975 </v>
   <v>       0.32792940       0.56387263       1.44843957 </v>
   <v>      -0.91244889      -0.98183610       0.35813170 </v>
   <v>       0.18895174       0.55281660      -0.00557584 </v>
   <v>      -0.54448913      -0.64203451       0.19672438 </v>
   <v>      -0.03948826      -0.45755179      -0.09069617 </v>
   <v>       0.55132696      -0.59833431       1.63723197 </v>
   <v>      -0.30134971       0.50495975       0.20061781 </v>
   <v>      -0.13458877       0.73931102       0.33853687 </v>
   <v>      -0.16178744       0.04648760      -0.56981499 </v>
   <v>       0.60573581      -0.86305301      -0.65570003 </v>
   <v>       1.01317015       0.25954328       0.03753937 </v>
   <v>      -0.96290549      -0.63063056       0.24738618 </v>
   <v>       0.19091505      -0.35416397       0.85128043 </v>
   <v>      -1.17834073       0.38945530      -1.62323368 </v>
   <v>      -0.41050633       0.31002194       0.31073225 </v>
   <v>      -0.62563721       0.09880414      -0.21832936 </v>
   <v>       0.33439050       0.03462462       0.57137870 </v>
   <v>       0.06035206       0.04628301       0.28504839 </v>
   <v>       0.34034754      -0.88438012       0.16643619 </v>
   <v>      -0.56838187       0.22404699       0.19981367 </v>
   <v>       0.33582776       0.42759234       0.70818611 </v>
   <v>      -0.52620539       0.51237235      -0.65686263 </v>
   <v>      -1.02818270       0.15452728       0.19268760 </v>
   <v>       0.67426294       0.54757069       0.33156798 </v>
   <v>      -0.02829876      -0.07450652      -0.17174038 </v>
   <v>      -0.25357027       0.38648704       0.12200323 </v>
   <v>       0.87674287      -0.34901466      -0.32923324 </v>
   <v>      -0.02287203      -0.53853640      -0.38528082 </v>
   <v>      -0.41792030       0.13328817       0.36032267 </v>
   <v>      -0.40052640       0.33879847       0.39821533 </v>
   <v>      -0.03693794      -0.25917465      -0.24901609 </v>
   <v>      -0.39531045       0.67689862       0.75205907 </v>
   <v>       0.30112892       0.45546518       0.73306158 </v>
   <v>      -1.07768661      -0.22993148       1.54460675 </v>
   <v>      -0.24410569      -0.61331174       0.91854916 </v>
   <v>       0.09525741      -0.00584692      -0.87929352 </v>
   <v>      -0.04581719       0.24023064      -0.10497362 </v>
   <v>      -0.05854075       0.17135551      -0.34816589 </v>
   <v>      -0.04211048      -1.25068846       0.89141033 </v>
   <v>      -0.03025675       0.27271379      -0.36493763 </v>
   <v>       0.42500044      -0.19727832       0.11677664 </v>
   <v>       0.27712524      -0.26985079      -0.41260860 </v>
   <v>       0.13733004       0.97762452       0.54250134 </v>
   <v>       0.39553248       0.20083009       0.56447517 </v>
   <v>      -0.15044536       0.33542562       0.14872677 </v>
   <v>       0.17754795       0.17118574      -0.44449201 </v>
   <v>      -1.21695623       0.72642974      -0.49601055 </v>
   <v>      -1.49179163      -0.06862926      -0.49112136 </v>
   <v>       0.71678433      -0.53217500      -0.44824820 </v>
   <v>       0.98430256      -0.94277129       0.75040165 </v>
   <v>       0.58125909      -0.78739781       0.27954897 </v>
   <v>       0.36845375      -0.02779690      -0.68191025 </v>
   <v>       0.42270913       0.58121769      -0.72619625 </v>
   <v>       0.41883495      -0.09464729      -0.76918156 </v>
   <v>       0.23810490      -0.49315530      -0.37064851 </v>
   <v>       1.32136675      -0.32672476      -0.15095983 </v>
   <v>      -0.23822571       0.72452663      -1.17103654 </v>
   <v>      -1.16925593       0.46008828      -0.81921075 </v>
   <v>      -0.00950205      -1.02365733       1.07464125 </v>
   <v>       0.33507813      -0.24669457      -0.44105012 </v>
   <v>      -0.00020097       0.09060024       0.53353584 </v>
   <v>       0.45838519       0.27769262      -0.35526218 </v>
  </varray>
  <varray name="stress" >
   <v>       4.33120418      -0.44607988       2.19936884 </v>
   <v>      -0.44607991       2.00310536       0.76524675 </v>
   <v>       2.19936882       0.76524674      -3.35384422 </v>
  </varray>
  <energy>
   <i name="e_fr_energy">   -525.20590854 </i>
   <i name="e_wo_entrp">   -525.20590854 </i>
   <i name="e_0_energy">     -0.00000000 </i>
  </energy>
  <time name="totalsc"> 5812.53 5813.05</time>
  <eigenvalues>
   <array>
    <dimension dim="1">band</dimension>
    <dimension dim="2">kpoint</dimension>
    <dimension dim="3">spin</dimension>
    <field>eigene</field>
    <field>occ</field>
    <set>
     <set comment="spin 1">
      <set comment="kpoint 1">
       <r>  -51.9161    1.0000 </r>
       <r>  -51.8615    1.0000 </r>
       <r>  -51.8493    1.0000 </r>
       <r>  -51.7308    1.0000 </r>
       <r>  -51.6820    1.0000 </r>
       <r>  -51.6111    1.0000 </r>
       <r>  -51.6055    1.0000 </r>
       <r>  -51.5834    1.0000 </r>
       <r>  -51.5548    1.0000 </r>
       <r>  -51.5504    1.0000 </r>
       <r>  -51.4758    1.0000 </r>
       <r>  -51.4402    1.0000 </r>
       <r>  -51.4331    1.0000 </r>
       <r>  -51.4276    1.0000 </r>
       <r>  -51.4181    1.0000 </r>
       <r>  -51.3569    1.0000 </r>
       <r>  -51.3447    1.0000 </r>
       <r>  -51.3289    1.0000 </r>
       <r>  -51.3261    1.0000 </r>
       <r>  -51.2936    1.0000 </r>
       <r>  -51.2890    1.0000 </r>
       <r>  -51.2687    1.0000 </r>
       <r>  -51.2597    1.0000 </r>
       <r>  -51.2370    1.0000 </r>
       <r>  -51.1978    1.0000 </r>
       <r>  -51.1657    1.0000 </r>
       <r>  -51.0776    1.0000 </r>
       <r>  -51.0631    1.0000 </r>
       <r>  -51.0302    1.0000 </r>
       <r>  -50.9555    1.0000 </r>
       <r>  -50.9284    1.0000 </r>
       <r>  -50.8636    1.0000 </r>
       <r>  -30.6052    1.0000 </r>
       <r>  -30.6014    1.0000 </r>
       <r>  -30.5601    1.0000 </r>
       <r>  -30.5550    1.0000 </r>
       <r>  -30.5199    1.0000 </r>
       <r>  -30.5112    1.0000 </r>
       <r>  -30.4885    1.0000 </r>
       <r>  -30.4738    1.0000 </r>
       <r>  -30.4517    1.0000 </r>
       <r>  -30.4094    1.0000 </r>
       <r>  -30.3970    1.0000 </r>
       <r>  -30.3638    1.0000 </r>
       <r>  -30.3566    1.0000 </r>
       <r>  -30.3513    1.0000 </r>
       <r>  -30.3316    1.0000 </r>
       <r>  -30.3221    1.0000 </r>
       <r>  -30.3212    1.0000 </r>
       <r>  -30.3006    1.0000 </r>
       <r>  -30.2889    1.0000 </r>
       <r>  -30.2810    1.0000 </r>
       <r>  -30.2650    1.0000 </r>
       <r>  -30.2573    1.0000 </r>
       <r>  -30.2521    1.0000 </r>
       <r>  -30.2399    1.0000 </r>
       <r>  -30.2233    1.0000 </r>
       <r>  -30.2191    1.0000 </r>
       <r>  -30.2087    1.0000 </r>
       <r>  -30.2022    1.0000 </r>
       <r>  -30.1921    1.0000 </r>
       <r>  -30.1821    1.0000 </r>
       <r>  -30.1725    1.0000 </r>
       <r>  -30.1675    1.0000 </r>
       <r>  -30.1652    1.0000 </r>
       <r>  -30.1526    1.0000 </r>
       <r>  -30.1326    1.0000 </r>
       <r>  -30.1252    1.0000 </r>
       <r>  -30.1131    1.0000 </r>
       <r>  -30.1071    1.0000 </r>
       <r>  -30.0988    1.0000 </r>
       <r>  -30.0919    1.0000 </r>
       <r>  -30.0872    1.0000 </r>
       <r>  -30.0844    1.0000 </r>
       <r>  -30.0730    1.0000 </r>
       <r>  -30.0609    1.0000 </r>
       <r>  -30.0524    1.0000 </r>
       <r>  -30.0505    1.0000 </r>
       <r>  -30.0488    1.0000 </r>
       <r>  -30.0323    1.0000 </r>
       <r>  -30.0197    1.0000 </r>
       <r>  -30.0153    1.0000 </r>
       <r>  -30.0090    1.0000 </r>
       <r>  -29.9998    1.0000 </r>
       <r>  -29.9960    1.0000 </r>
       <r>  -29.9868    1.0000 </r>
       <r>  -29.9809    1.0000 </r>
       <r>  -29.9757    1.0000 </r>
       <r>  -29.9724    1.0000 </r>
       <r>  -29.9682    1.0000 </r>
       <r>  -29.9676    1.0000 </r>
       <r>  -29.9617    1.0000 </r>
       <r>  -29.9554    1.0000 </r>
       <r>  -29.9428    1.0000 </r>
       <r>  -29.9363    1.0000 </r>
       <r>  -29.9288    1.0000 </r>
       <r>  -29.9253    1.0000 </r>
       <r>  -29.9204    1.0000 </r>
       <r>  -29.9118    1.0000 </r>
       <r>  -29.9097    1.0000 </r>
       <r>  -29.8986    1.0000 </r>
       <r>  -29.8966    1.0000 </r>
       <r>  -29.8815    1.0000 </r>
       <r>  -29.8750    1.0000 </r>
       <r>  -29.8618    1.0000 </r>
       <r>  -29.8497    1.0000 </r>
       <r>  -29.8354    1.0000 </r>
       <r>  -29.8201    1.0000 </r>
       <r>  -29.8106    1.0000 </r>
       <r>  -29.7970    1.0000 </r>
       <r>  -29.7734    1.0000 </r>
       <r>  -29.7661    1.0000 </r>
       <r>  -29.7628    1.0000 </r>
       <r>  -29.7251    1.0000 </r>
       <r>  -29.7146    1.0000 </r>
       <r>  -29.7092    1.0000 </r>
       <r>  -29.6876    1.0000 </r>
       <r>  -29.6850    1.0000 </r>
       <r>  -29.6616    1.0000 </r>
       <r>  -29.6504    1.0000 </r>
       <r>  -29.6419    1.0000 </r>
       <r>  -29.6143    1.0000 </r>
       <r>  -29.6078    1.0000 </r>
       <r>  -29.5813    1.0000 </r>
       <r>  -29.5774    1.0000 </r>
       <r>  -29.5419    1.0000 </r>
       <r>  -29.5170    1.0000 </r>
       <r>  -29.4130    1.0000 </r>
       <r>  -18.6725    1.0000 </r>
       <r>  -18.6383    1.0000 </r>
       <r>  -18.5651    1.0000 </r>
       <r>  -18.4965    1.0000 </r>
       <r>  -18.4637    1.0000 </r>
       <r>  -18.3369    1.0000 </r>
       <r>  -18.3228    1.0000 </r>
       <r>  -18.3015    1.0000 </r>
       <r>  -18.2316    1.0000 </r>
       <r>  -18.2191    1.0000 </r>
       <r>  -18.1866    1.0000 </r>
       <r>  -18.1698    1.0000 </r>
       <r>  -18.1114    1.0000 </r>
       <r>  -18.0987    1.0000 </r>
       <r>  -18.0490    1.0000 </r>
       <r>  -17.9842    1.0000 </r>
       <r>  -17.9751    1.0000 </r>
       <r>  -17.9485    1.0000 </r>
       <r>  -17.9323    1.0000 </r>
       <r>  -17.8681    1.0000 </r>
       <r>  -17.8319    1.0000 </r>
       <r>  -17.8169    1.0000 </r>
       <r>  -17.8024    1.0000 </r>
       <r>  -17.7504    1.0000 </r>
       <r>  -17.7411    1.0000 </r>
       <r>  -17.7054    1.0000 </r>
       <r>  -17.6553    1.0000 </r>
       <r>  -17.6547    1.0000 </r>
       <r>  -17.6060    1.0000 </r>
       <r>  -17.6000    1.0000 </r>
       <r>  -17.5977    1.0000 </r>
       <r>  -17.3475    1.0000 </r>
       <r>  -11.7341    1.0000 </r>
       <r>  -11.4364    1.0000 </r>
       <r>  -11.3738    1.0000 </r>
       <r>  -11.3334    1.0000 </r>
       <r>  -11.2930    1.0000 </r>
       <r>  -11.2345    1.0000 </r>
       <r>  -11.1985    1.0000 </r>
       <r>  -10.9853    1.0000 </r>
       <r>  -10.8857    1.0000 </r>
       <r>  -10.8294    1.0000 </r>
       <r>  -10.8007    1.0000 </r>
       <r>  -10.7823    1.0000 </r>
       <r>  -10.7447    1.0000 </r>
       <r>  -10.7214    1.0000 </r>
       <r>  -10.6660    1.0000 </r>
       <r>  -10.6219    1.0000 </r>
       <r>   -8.0531    1.0000 </r>
       <r>   -8.0257    1.0000 </r>
       <r>   -7.9711    1.0000 </r>
       <r>   -7.8602    1.0000 </r>
       <r>   -7.8402    1.0000 </r>
       <r>   -7.7885    1.0000 </r>
       <r>   -7.6194    1.0000 </r>
       <r>   -7.5888    1.0000 </r>
       <r>   -7.5789    1.0000 </r>
       <r>   -7.5652    1.0000 </r>
       <r>   -7.5329    1.0000 </r>
       <r>   -7.4692    1.0000 </r>
       <r>   -7.4417    1.0000 </r>
       <r>   -7.4125    1.0000 </r>
       <r>   -7.3919    1.0000 </r>
       <r>   -7.3448    1.0000 </r>
       <r>   -7.3213    1.0000 </r>
       <r>   -7.3053    1.0000 </r>
       <r>   -7.2840    1.0000 </r>
       <r>   -7.2047    1.0000 </r>
       <r>   -7.1740    1.0000 </r>
       <r>   -7.1429    1.0000 </r>
       <r>   -7.1338    1.0000 </r>
       <r>   -7.0373    1.0000 </r>
       <r>   -7.0038    1.0000 </r>
       <r>   -6.9619    1.0000 </r>
       <r>   -6.9325    1.0000 </r>
       <r>   -6.9215    1.0000 </r>
       <r>   -6.9195    1.0000 </r>
       <r>   -6.8916    1.0000 </r>
       <r>   -6.8721    1.0000 </r>
       <r>   -6.8357    1.0000 </r>
       <r>   -6.8296    1.0000 </r>
       <r>   -6.8113    1.0000 </r>
       <r>   -6.7888    1.0000 </r>
       <r>   -6.7817    1.0000 </r>
       <r>   -6.7449    1.0000 </r>
       <r>   -6.7275    1.0000 </r>
       <r>   -6.7025    1.0000 </r>
       <r>   -6.6818    1.0000 </r>
       <r>   -6.6780    1.0000 </r>
       <r>   -6.6702    1.0000 </r>
       <r>   -6.6672    1.0000 </r>
       <r>   -6.6467    1.0000 </r>
       <r>   -6.6216    1.0000 </r>
       <r>   -6.6091    1.0000 </r>
       <r>   -6.6051    1.0000 </r>
       <r>   -6.5847    1.0000 </r>
       <r>   -6.5379    1.0000 </r>
       <r>   -6.5350    1.0000 </r>
       <r>   -6.5222    1.0000 </r>
       <r>   -6.5174    1.0000 </r>
       <r>   -6.4978    1.0000 </r>
       <r>   -6.4870    1.0000 </r>
       <r>   -6.4721    1.0000 </r>
       <r>   -6.4621    1.0000 </r>
       <r>   -6.4461    1.0000 </r>
       <r>   -6.4372    1.0000 </r>
       <r>   -6.4242    1.0000 </r>
       <r>   -6.4123    1.0000 </r>
       <r>   -6.4029    1.0000 </r>
       <r>   -6.3645    1.0000 </r>
       <r>   -6.3550    1.0000 </r>
       <r>   -6.3371    1.0000 </r>
       <r>   -6.3285    1.0000 </r>
       <r>   -6.3117    1.0000 </r>
       <r>   -6.3030    1.0000 </r>
       <r>   -6.2901    1.0000 </r>
       <r>   -6.2748    1.0000 </r>
       <r>   -6.2541    1.0000 </r>
       <r>   -6.2348    1.0000 </r>
       <r>   -6.1223    1.0000 </r>
       <r>   -6.0997    1.0000 </r>
       <r>   -6.0627    1.0000 </r>
       <r>   -5.9280    1.0000 </r>
       <r>   -5.8694    1.0000 </r>
       <r>   -5.8195    1.0000 </r>
       <r>   -5.7658    1.0000 </r>
       <r>   -5.7328    1.0000 </r>
       <r>   -5.7087    1.0000 </r>
       <r>   -5.6574    1.0000 </r>
       <r>   -5.6391    1.0000 </r>
       <r>   -5.5761    1.0000 </r>
       <r>   -5.5664    1.0000 </r>
       <r>   -5.5296    1.0000 </r>
       <r>   -5.5051    1.0000 </r>
       <r>   -5.4355    1.0000 </r>
       <r>   -5.4091    1.0000 </r>
       <r>   -5.3918    1.0000 </r>
       <r>   -5.3657    1.0000 </r>
       <r>   -5.3632    1.0000 </r>
       <r>   -5.3062    1.0000 </r>
       <r>   -5.2238    1.0000 </r>
       <r>   -5.1321    1.0000 </r>
       <r>   -5.0883    1.0000 </r>
       <r>   -5.0012    1.0000 </r>
       <r>   -4.8491    1.0000 </r>
       <r>   -4.7783    1.0000 </r>
       <r>   -4.7356    1.0000 </r>
       <r>   -4.5931    1.0000 </r>
       <r>   -4.5654    1.0000 </r>
       <r>   -4.5508    1.0000 </r>
       <r>   -4.5042    1.0000 </r>
       <r>   -4.4799    1.0000 </r>
       <r>   -4.4261    1.0000 </r>
       <r>   -4.1794    1.0000 </r>
       <r>   -4.1638    1.0000 </r>
       <r>   -4.1358    1.0000 </r>
       <r>   -4.0980    1.0000 </r>
       <r>   -4.0584    1.0000 </r>
       <r>   -4.0493    1.0000 </r>
       <r>   -4.0094    1.0000 </r>
       <r>   -3.9905    1.0000 </r>
       <r>   -3.9837    1.0000 </r>
       <r>   -3.9397    1.0000 </r>
       <r>   -3.9128    1.0000 </r>
       <r>   -3.8789    1.0000 </r>
       <r>   -3.8750    1.0000 </r>
       <r>   -3.8442    1.0000 </r>
       <r>   -3.8227    1.0000 </r>
       <r>   -3.7816    1.0000 </r>
       <r>   -3.7753    1.0000 </r>
       <r>   -3.7339    1.0000 </r>
       <r>   -3.7092    1.0000 </r>
       <r>   -3.6840    1.0000 </r>
       <r>   -3.6603    1.0000 </r>
       <r>   -3.6368    1.0000 </r>
       <r>   -3.5924    1.0000 </r>
       <r>   -3.5602    1.0000 </r>
       <r>   -3.4829    1.0000 </r>
       <r>   -3.4794    1.0000 </r>
       <r>   -3.4291    1.0000 </r>
       <r>   -3.3531    1.0000 </r>
       <r>   -3.2842    1.0000 </r>
       <r>   -3.2551    1.0000 </r>
       <r>   -3.2218    1.0000 </r>
       <r>   -3.1858    1.0000 </r>
       <r>   -3.1591    1.0000 </r>
       <r>   -3.1125    1.0000 </r>
       <r>   -3.0775    1.0000 </r>
       <r>   -3.0249    1.0000 </r>
       <r>   -3.0167    1.0000 </r>
       <r>   -2.9071    1.0000 </r>
       <r>   -2.8478    1.0000 </r>
       <r>   -2.0621    0.0000 </r>
       <r>   -2.0286    0.0000 </r>
       <r>   -1.9948    0.0000 </r>
       <r>   -1.4645    0.0000 </r>
       <r>   -1.4552    0.0000 </r>
       <r>   -1.4226    0.0000 </r>
       <r>   -1.3439    0.0000 </r>
       <r>   -1.3204    0.0000 </r>
       <r>   -1.3010    0.0000 </r>
       <r>   -0.6606    0.0000 </r>
       <r>   -0.6407    0.0000 </r>
       <r>   -0.5953    0.0000 </r>
       <r>   -0.5856    0.0000 </r>
       <r>   -0.5206    0.0000 </r>
       <r>   -0.4973    0.0000 </r>
       <r>   -0.4711    0.0000 </r>
       <r>   -0.4159    0.0000 </r>
       <r>   -0.4015    0.0000 </r>
       <r>   -0.3963    0.0000 </r>
       <r>   -0.3767    0.0000 </r>
       <r>   -0.3553    0.0000 </r>
       <r>   -0.2915    0.0000 </r>
       <r>   -0.2835    0.0000 </r>
       <r>   -0.2414    0.0000 </r>
       <r>    0.0148    0.0000 </r>
       <r>    0.0955    0.0000 </r>
       <r>    0.1438    0.0000 </r>
       <r>    0.1658    0.0000 </r>
       <r>    0.1918    0.0000 </r>
       <r>    0.2136    0.0000 </r>
       <r>    0.2285    0.0000 </r>
       <r>    0.2877    0.0000 </r>
       <r>    0.3002    0.0000 </r>
       <r>    0.3250    0.0000 </r>
       <r>    0.3391    0.0000 </r>
       <r>    0.3666    0.0000 </r>
       <r>    0.4759    0.0000 </r>
       <r>    0.4998    0.0000 </r>
       <r>    0.5303    0.0000 </r>
       <r>    0.5626    0.0000 </r>
       <r>    0.5846    0.0000 </r>
       <r>    0.6466    0.0000 </r>
       <r>    0.6584    0.0000 </r>
       <r>    0.7128    0.0000 </r>
       <r>    0.7206    0.0000 </r>
       <r>    0.7406    0.0000 </r>
       <r>    0.7636    0.0000 </r>
       <r>    0.7912    0.0000 </r>
       <r>    0.7973    0.0000 </r>
       <r>    0.8003    0.0000 </r>
       <r>    0.8224    0.0000 </r>
       <r>    0.8407    0.0000 </r>
       <r>    0.8558    0.0000 </r>
       <r>    0.8695    0.0000 </r>
       <r>    0.8857    0.0000 </r>
       <r>    0.8944    0.0000 </r>
       <r>    0.9036    0.0000 </r>
       <r>    0.9320    0.0000 </r>
       <r>    0.9465    0.0000 </r>
       <r>    0.9617    0.0000 </r>
       <r>    0.9704    0.0000 </r>
       <r>    1.0004    0.0000 </r>
       <r>    1.0158    0.0000 </r>
       <r>    1.0445    0.0000 </r>
      </set>
      <set comment="kpoint 2">
       <r>  -51.9161    1.0000 </r>
       <r>  -51.8615    1.0000 </r>
       <r>  -51.8493    1.0000 </r>
       <r>  -51.7308    1.0000 </r>
       <r>  -51.6820    1.0000 </r>
       <r>  -51.6111    1.0000 </r>
       <r>  -51.6055    1.0000 </r>
       <r>  -51.5834    1.0000 </r>
       <r>  -51.5548    1.0000 </r>
       <r>  -51.5504    1.0000 </r>
       <r>  -51.4758    1.0000 </r>
       <r>  -51.4402    1.0000 </r>
       <r>  -51.4331    1.0000 </r>
       <r>  -51.4276    1.0000 </r>
       <r>  -51.4181    1.0000 </r>
       <r>  -51.3569    1.0000 </r>
       <r>  -51.3447    1.0000 </r>
       <r>  -51.3289    1.0000 </r>
       <r>  -51.3261    1.0000 </r>
       <r>  -51.2936    1.0000 </r>
       <r>  -51.2890    1.0000 </r>
       <r>  -51.2687    1.0000 </r>
       <r>  -51.2597    1.0000 </r>
       <r>  -51.2370    1.0000 </r>
       <r>  -51.1978    1.0000 </r>
       <r>  -51.1657    1.0000 </r>
       <r>  -51.0776    1.0000 </r>
       <r>  -51.0631    1.0000 </r>
       <r>  -51.0302    1.0000 </r>
       <r>  -50.9555    1.0000 </r>
       <r>  -50.9284    1.0000 </r>
       <r>  -50.8636    1.0000 </r>
       <r>  -30.6051    1.0000 </r>
       <r>  -30.6013    1.0000 </r>
       <r>  -30.5599    1.0000 </r>
       <r>  -30.5550    1.0000 </r>
       <r>  -30.5197    1.0000 </r>
       <r>  -30.5115    1.0000 </r>
       <r>  -30.4888    1.0000 </r>
       <r>  -30.4736    1.0000 </r>
       <r>  -30.4519    1.0000 </r>
       <r>  -30.4093    1.0000 </r>
       <r>  -30.3969    1.0000 </r>
       <r>  -30.3625    1.0000 </r>
       <r>  -30.3558    1.0000 </r>
       <r>  -30.3521    1.0000 </r>
       <r>  -30.3329    1.0000 </r>
       <r>  -30.3226    1.0000 </r>
       <r>  -30.3211    1.0000 </r>
       <r>  -30.2999    1.0000 </r>
       <r>  -30.2887    1.0000 </r>
       <r>  -30.2806    1.0000 </r>
       <r>  -30.2645    1.0000 </r>
       <r>  -30.2567    1.0000 </r>
       <r>  -30.2517    1.0000 </r>
       <r>  -30.2412    1.0000 </r>
       <r>  -30.2234    1.0000 </r>
       <r>  -30.2186    1.0000 </r>
       <r>  -30.2102    1.0000 </r>
       <r>  -30.2022    1.0000 </r>
       <r>  -30.1928    1.0000 </r>
       <r>  -30.1830    1.0000 </r>
       <r>  -30.1719    1.0000 </r>
       <r>  -30.1710    1.0000 </r>
       <r>  -30.1652    1.0000 </r>
       <r>  -30.1524    1.0000 </r>
       <r>  -30.1339    1.0000 </r>
       <r>  -30.1217    1.0000 </r>
       <r>  -30.1143    1.0000 </r>
       <r>  -30.1062    1.0000 </r>
       <r>  -30.0986    1.0000 </r>
       <r>  -30.0934    1.0000 </r>
       <r>  -30.0859    1.0000 </r>
       <r>  -30.0841    1.0000 </r>
       <r>  -30.0716    1.0000 </r>
       <r>  -30.0607    1.0000 </r>
       <r>  -30.0521    1.0000 </r>
       <r>  -30.0495    1.0000 </r>
       <r>  -30.0473    1.0000 </r>
       <r>  -30.0329    1.0000 </r>
       <r>  -30.0224    1.0000 </r>
       <r>  -30.0138    1.0000 </r>
       <r>  -30.0096    1.0000 </r>
       <r>  -30.0006    1.0000 </r>
       <r>  -29.9956    1.0000 </r>
       <r>  -29.9863    1.0000 </r>
       <r>  -29.9816    1.0000 </r>
       <r>  -29.9755    1.0000 </r>
       <r>  -29.9716    1.0000 </r>
       <r>  -29.9682    1.0000 </r>
       <r>  -29.9669    1.0000 </r>
       <r>  -29.9614    1.0000 </r>
       <r>  -29.9550    1.0000 </r>
       <r>  -29.9422    1.0000 </r>
       <r>  -29.9372    1.0000 </r>
       <r>  -29.9290    1.0000 </r>
       <r>  -29.9257    1.0000 </r>
       <r>  -29.9210    1.0000 </r>
       <r>  -29.9138    1.0000 </r>
       <r>  -29.9082    1.0000 </r>
       <r>  -29.8986    1.0000 </r>
       <r>  -29.8973    1.0000 </r>
       <r>  -29.8825    1.0000 </r>
       <r>  -29.8738    1.0000 </r>
       <r>  -29.8604    1.0000 </r>
       <r>  -29.8495    1.0000 </r>
       <r>  -29.8358    1.0000 </r>
       <r>  -29.8191    1.0000 </r>
       <r>  -29.8110    1.0000 </r>
       <r>  -29.7970    1.0000 </r>
       <r>  -29.7749    1.0000 </r>
       <r>  -29.7687    1.0000 </r>
       <r>  -29.7596    1.0000 </r>
       <r>  -29.7249    1.0000 </r>
       <r>  -29.7145    1.0000 </r>
       <r>  -29.7091    1.0000 </r>
       <r>  -29.6879    1.0000 </r>
       <r>  -29.6848    1.0000 </r>
       <r>  -29.6610    1.0000 </r>
       <r>  -29.6499    1.0000 </r>
       <r>  -29.6424    1.0000 </r>
       <r>  -29.6145    1.0000 </r>
       <r>  -29.6078    1.0000 </r>
       <r>  -29.5827    1.0000 </r>
       <r>  -29.5767    1.0000 </r>
       <r>  -29.5419    1.0000 </r>
       <r>  -29.5170    1.0000 </r>
       <r>  -29.4130    1.0000 </r>
       <r>  -18.6675    1.0000 </r>
       <r>  -18.6212    1.0000 </r>
       <r>  -18.5680    1.0000 </r>
       <r>  -18.5484    1.0000 </r>
       <r>  -18.4185    1.0000 </r>
       <r>  -18.3517    1.0000 </r>
       <r>  -18.3446    1.0000 </r>
       <r>  -18.3003    1.0000 </r>
       <r>  -18.2194    1.0000 </r>
       <r>  -18.2147    1.0000 </r>
       <r>  -18.1704    1.0000 </r>
       <r>  -18.1687    1.0000 </r>
       <r>  -18.1143    1.0000 </r>
       <r>  -18.1020    1.0000 </r>
       <r>  -18.0517    1.0000 </r>
       <r>  -18.0110    1.0000 </r>
       <r>  -17.9737    1.0000 </r>
       <r>  -17.9288    1.0000 </r>
       <r>  -17.9026    1.0000 </r>
       <r>  -17.8645    1.0000 </r>
       <r>  -17.8348    1.0000 </r>
       <r>  -17.8252    1.0000 </r>
       <r>  -17.8020    1.0000 </r>
       <r>  -17.7769    1.0000 </r>
       <r>  -17.7282    1.0000 </r>
       <r>  -17.7089    1.0000 </r>
       <r>  -17.6685    1.0000 </r>
       <r>  -17.6608    1.0000 </r>
       <r>  -17.6082    1.0000 </r>
[...]
       <r>   -32.4154     0.0000    64.0000 </r>
       <r>   -32.2211     0.0000    64.0000 </r>
       <r>   -32.0268     0.0000    64.0000 </r>
       <r>   -31.8325     0.0000    64.0000 </r>
       <r>   -31.6382     0.0000    64.0000 </r>
       <r>   -31.4439     0.0000    64.0000 </r>
       <r>   -31.2496     0.0000    64.0000 </r>
       <r>   -31.0553     0.0000    64.0000 </r>
       <r>   -30.8610     0.0000    64.0000 </r>
       <r>   -30.6667     0.7718    64.1500 </r>
       <r>   -30.4724    74.2134    78.5696 </r>
       <r>   -30.2781   128.1500   103.4692 </r>
       <r>   -30.0838   217.5745   145.7439 </r>
       <r>   -29.8895   290.4449   202.1773 </r>
       <r>   -29.6952   156.0249   232.4930 </r>
       <r>   -29.5009   105.8535   253.0603 </r>
       <r>   -29.3066    15.1160   255.9974 </r>
       <r>   -29.1123     0.0135   256.0000 </r>
       <r>   -28.9180     0.0000   256.0000 </r>
       <r>   -28.7237     0.0000   256.0000 </r>
       <r>   -28.5294     0.0000   256.0000 </r>
       <r>   -28.3351     0.0000   256.0000 </r>
       <r>   -28.1408     0.0000   256.0000 </r>
       <r>   -27.9465     0.0000   256.0000 </r>
       <r>   -27.7522     0.0000   256.0000 </r>
       <r>   -27.5579     0.0000   256.0000 </r>
       <r>   -27.3636     0.0000   256.0000 </r>
       <r>   -27.1693     0.0000   256.0000 </r>
       <r>   -26.9750     0.0000   256.0000 </r>
       <r>   -26.7807     0.0000   256.0000 </r>
       <r>   -26.5864     0.0000   256.0000 </r>
       <r>   -26.3921     0.0000   256.0000 </r>
       <r>   -26.1978     0.0000   256.0000 </r>
       <r>   -26.0035     0.0000   256.0000 </r>
       <r>   -25.8092     0.0000   256.0000 </r>
       <r>   -25.6149     0.0000   256.0000 </r>
       <r>   -25.4206     0.0000   256.0000 </r>
       <r>   -25.2263     0.0000   256.0000 </r>
       <r>   -25.0320     0.0000   256.0000 </r>
       <r>   -24.8377     0.0000   256.0000 </r>
       <r>   -24.6434     0.0000   256.0000 </r>
       <r>   -24.4491     0.0000   256.0000 </r>
       <r>   -24.2548     0.0000   256.0000 </r>
       <r>   -24.0605     0.0000   256.0000 </r>
       <r>   -23.8662     0.0000   256.0000 </r>
       <r>   -23.6719     0.0000   256.0000 </r>
       <r>   -23.4776     0.0000   256.0000 </r>
       <r>   -23.2833     0.0000   256.0000 </r>
       <r>   -23.0890     0.0000   256.0000 </r>
       <r>   -22.8947     0.0000   256.0000 </r>
       <r>   -22.7004     0.0000   256.0000 </r>
       <r>   -22.5061     0.0000   256.0000 </r>
       <r>   -22.3118     0.0000   256.0000 </r>
       <r>   -22.1175     0.0000   256.0000 </r>
       <r>   -21.9232     0.0000   256.0000 </r>
       <r>   -21.7289     0.0000   256.0000 </r>
       <r>   -21.5346     0.0000   256.0000 </r>
       <r>   -21.3403     0.0000   256.0000 </r>
       <r>   -21.1460     0.0000   256.0000 </r>
       <r>   -20.9517     0.0000   256.0000 </r>
       <r>   -20.7574     0.0000   256.0000 </r>
       <r>   -20.5631     0.0000   256.0000 </r>
       <r>   -20.3688     0.0000   256.0000 </r>
       <r>   -20.1745     0.0000   256.0000 </r>
       <r>   -19.9802     0.0000   256.0000 </r>
       <r>   -19.7859     0.0000   256.0000 </r>
       <r>   -19.5916     0.0000   256.0000 </r>
       <r>   -19.3973     0.0000   256.0000 </r>
       <r>   -19.2030     0.0000   256.0000 </r>
       <r>   -19.0087     0.0000   256.0000 </r>
       <r>   -18.8144     0.0002   256.0000 </r>
       <r>   -18.6201    15.8099   259.0719 </r>
       <r>   -18.4258    31.4685   265.1862 </r>
       <r>   -18.2315    45.0467   273.9388 </r>
       <r>   -18.0372    60.4813   285.6903 </r>
       <r>   -17.8429    59.9245   297.3337 </r>
       <r>   -17.6486    69.7771   310.8913 </r>
       <r>   -17.4543    36.5980   318.0023 </r>
       <r>   -17.2600    10.2144   319.9870 </r>
       <r>   -17.0657     0.0669   320.0000 </r>
       <r>   -16.8714     0.0000   320.0000 </r>
       <r>   -16.6771     0.0000   320.0000 </r>
       <r>   -16.4828     0.0000   320.0000 </r>
       <r>   -16.2885     0.0000   320.0000 </r>
       <r>   -16.0942     0.0000   320.0000 </r>
       <r>   -15.8999     0.0000   320.0000 </r>
       <r>   -15.7056     0.0000   320.0000 </r>
       <r>   -15.5113     0.0000   320.0000 </r>
       <r>   -15.3170     0.0000   320.0000 </r>
       <r>   -15.1227     0.0000   320.0000 </r>
       <r>   -14.9284     0.0000   320.0000 </r>
       <r>   -14.7341     0.0000   320.0000 </r>
       <r>   -14.5398     0.0000   320.0000 </r>
       <r>   -14.3455     0.0000   320.0000 </r>
       <r>   -14.1512     0.0000   320.0000 </r>
       <r>   -13.9569     0.0000   320.0000 </r>
       <r>   -13.7626     0.0000   320.0000 </r>
       <r>   -13.5683     0.0000   320.0000 </r>
       <r>   -13.3740     0.0000   320.0000 </r>
       <r>   -13.1797     0.0000   320.0000 </r>
       <r>   -12.9854     0.0000   320.0000 </r>
       <r>   -12.7911     0.0000   320.0000 </r>
       <r>   -12.5968     0.0000   320.0000 </r>
       <r>   -12.4025     0.0000   320.0000 </r>
       <r>   -12.2082     0.0000   320.0000 </r>
       <r>   -12.0139     0.0000   320.0000 </r>
       <r>   -11.8196     0.0096   320.0019 </r>
       <r>   -11.6253     9.4228   321.8327 </r>
       <r>   -11.4310    16.4849   325.0357 </r>
       <r>   -11.2367    20.2439   328.9691 </r>
       <r>   -11.0424    26.3389   334.0868 </r>
       <r>   -10.8481    32.1845   340.3402 </r>
       <r>   -10.6538    43.3688   348.7668 </r>
       <r>   -10.4595    16.6399   351.9999 </r>
       <r>   -10.2652     0.0006   352.0000 </r>
       <r>   -10.0709     0.0000   352.0000 </r>
       <r>    -9.8766     0.0000   352.0000 </r>
       <r>    -9.6823     0.0000   352.0000 </r>
       <r>    -9.4880     0.0000   352.0000 </r>
       <r>    -9.2937     0.0000   352.0000 </r>
       <r>    -9.0994     0.0000   352.0000 </r>
       <r>    -8.9051     0.0000   352.0000 </r>
       <r>    -8.7108     0.0000   352.0000 </r>
       <r>    -8.5165     0.0000   352.0000 </r>
       <r>    -8.3222     0.0000   352.0000 </r>
       <r>    -8.1279     0.0224   352.0043 </r>
       <r>    -7.9336    14.6791   354.8565 </r>
       <r>    -7.7393    37.9065   362.2217 </r>
       <r>    -7.5450    55.2759   372.9618 </r>
       <r>    -7.3507    59.4559   384.5141 </r>
       <r>    -7.1564    63.6064   396.8728 </r>
       <r>    -6.9621    64.8440   409.4720 </r>
       <r>    -6.7678    89.7952   426.9192 </r>
       <r>    -6.5735    98.6711   446.0910 </r>
       <r>    -6.3792   115.1912   468.4727 </r>
       <r>    -6.1849    90.4474   486.0466 </r>
       <r>    -5.9906    53.7181   496.4841 </r>
       <r>    -5.7963    55.9033   507.3461 </r>
       <r>    -5.6020    60.7707   519.1538 </r>
       <r>    -5.4077    57.6788   530.3608 </r>
       <r>    -5.2134    41.8082   538.4842 </r>
       <r>    -5.0191    25.9541   543.5270 </r>
       <r>    -4.8248     4.9134   544.4817 </r>
       <r>    -4.6305    34.5486   551.1945 </r>
       <r>    -4.4362    45.1744   559.9719 </r>
       <r>    -4.2419    29.0398   565.6143 </r>
       <r>    -4.0476    37.9899   572.9957 </r>
       <r>    -3.8533    51.9835   583.0961 </r>
       <r>    -3.6590    85.1318   599.6373 </r>
       <r>    -3.4647    69.5087   613.1428 </r>
       <r>    -3.2704    61.4019   625.0732 </r>
       <r>    -3.0761    46.0198   634.0148 </r>
       <r>    -2.8818    28.1480   639.4840 </r>
       <r>    -2.6875     2.6557   640.0000 </r>
       <r>    -2.4932     0.0000   640.0000 </r>
       <r>    -2.2989     0.0000   640.0000 </r>
       <r>    -2.1046     0.1507   640.0293 </r>
       <r>    -1.9103     9.5227   641.8795 </r>
       <r>    -1.7160    15.7443   644.9387 </r>
       <r>    -1.5217    18.1765   648.4703 </r>
       <r>    -1.3274    18.2219   652.0109 </r>
       <r>    -1.1331    17.1168   655.3367 </r>
       <r>    -0.9388    33.3872   661.8238 </r>
       <r>    -0.7445    17.2416   665.1739 </r>
       <r>    -0.5502    25.0652   670.0440 </r>
       <r>    -0.3559    38.6948   677.5624 </r>
       <r>    -0.1616    31.1825   683.6212 </r>
       <r>     0.0327    30.7436   689.5946 </r>
       <r>     0.2270    38.2403   697.0247 </r>
       <r>     0.4213    44.3084   705.6339 </r>
       <r>     0.6156    71.7871   719.5821 </r>
       <r>     0.8099    99.7656   738.9666 </r>
       <r>     1.0042   121.9313   762.6578 </r>
       <r>     1.1985    27.4939   767.9999 </r>
       <r>     1.3928     0.0006   768.0000 </r>
       <r>     1.5871     0.0000   768.0000 </r>
       <r>     1.7814     0.0000   768.0000 </r>
       <r>     1.9757     0.0000   768.0000 </r>
       <r>     2.1700     0.0000   768.0000 </r>
       <r>     2.3643     0.0000   768.0000 </r>
       <r>     2.5586     0.0000   768.0000 </r>
       <r>     2.7529     0.0000   768.0000 </r>
       <r>     2.9472     0.0000   768.0000 </r>
       <r>     3.1415     0.0000   768.0000 </r>
       <r>     3.3358     0.0000   768.0000 </r>
       <r>     3.5301     0.0000   768.0000 </r>
       <r>     3.7244     0.0000   768.0000 </r>
      </set>
     </set>
    </array>
   </total>
  </dos>
 </calculation>
 <structure name="finalpos" >
  <crystal>
   <varray name="basis" >
    <v>      13.79398668       0.00000000       0.00000000 </v>
    <v>      -6.89699334      11.94594288       0.00000000 </v>
    <v>       0.00000000       0.00000000      27.81022107 </v>
   </varray>
   <i name="volume">   4582.62876984 </i>
   <varray name="rec_basis" >
    <v>       0.07249536       0.04185521       0.00000000 </v>
    <v>       0.00000000       0.08371043       0.00000000 </v>
    <v>       0.00000000       0.00000000       0.03595800 </v>
   </varray>
  </crystal>
  <varray name="positions" >
   <v>       0.09196585       0.17209450       0.54442665 </v>
   <v>       0.08012616       0.40990332       0.54293708 </v>
   <v>       0.08432893       0.65852765       0.54327349 </v>
   <v>       0.07006813       0.91178594       0.54022359 </v>
   <v>       0.33604136       0.16609441       0.54737029 </v>
   <v>       0.33086145       0.41874428       0.54405258 </v>
   <v>       0.33728121       0.66696472       0.54470049 </v>
   <v>       0.32568683       0.91074301       0.54529479 </v>
   <v>       0.57863291       0.16625868       0.54860831 </v>
   <v>       0.57213323       0.41289692       0.54587907 </v>
   <v>       0.57398985       0.66178937       0.54360379 </v>
   <v>       0.58970862       0.90817587       0.54735108 </v>
   <v>       0.83606641       0.16996455       0.54102168 </v>
   <v>       0.83063318       0.41469361       0.55123457 </v>
   <v>       0.83667474       0.66182668       0.55036883 </v>
   <v>       0.83919273       0.93078754       0.54459103 </v>
   <v>       0.18174782       0.09174674       0.45552396 </v>
   <v>       0.15992733       0.32970024       0.45024090 </v>
   <v>       0.15878236       0.58177495       0.44729114 </v>
   <v>       0.17836491       0.84706925       0.45285295 </v>
   <v>       0.41660425       0.08486240       0.45689707 </v>
   <v>       0.42325434       0.34146782       0.45702244 </v>
   <v>       0.41300013       0.58544882       0.45525202 </v>
   <v>       0.41668666       0.84035461       0.45148109 </v>
   <v>       0.66230191       0.07892256       0.45660657 </v>
   <v>       0.66543157       0.32818925       0.45698124 </v>
   <v>       0.67142011       0.58462451       0.46095445 </v>
   <v>       0.67062396       0.83690300       0.45906311 </v>
   <v>       0.90950262       0.08183816       0.45046769 </v>
   <v>       0.92541338       0.34568658       0.45574723 </v>
   <v>       0.91502779       0.59053088       0.45418149 </v>
   <v>       0.91757581       0.82915191       0.46012637 </v>
   <v>       0.08653591       0.15801991       0.39166618 </v>
   <v>       0.08723626       0.41186458       0.39134198 </v>
   <v>       0.07777525       0.66995755       0.38875536 </v>
   <v>       0.08714297       0.91867075       0.39397335 </v>
   <v>       0.34036425       0.18421018       0.39407730 </v>
   <v>       0.34373254       0.41938346       0.39440115 </v>
   <v>       0.32212872       0.65592982       0.38771753 </v>
   <v>       0.34080377       0.91553557       0.39458518 </v>
   <v>       0.59720352       0.16368160       0.39371525 </v>
   <v>       0.57409217       0.40790558       0.39477313 </v>
   <v>       0.58547135       0.66660295       0.40085540 </v>
   <v>       0.58414128       0.90470886       0.39472221 </v>
   <v>       0.82676568       0.17957609       0.39777456 </v>
   <v>       0.83737994       0.42613488       0.39845247 </v>
   <v>       0.83188189       0.66306769       0.39369737 </v>
   <v>       0.83708740       0.90810857       0.39374866 </v>
   <v>       0.16733520       0.08116765       0.60632856 </v>
   <v>       0.16407643       0.32275567       0.60236830 </v>
   <v>       0.15811340       0.57105611       0.60004252 </v>
   <v>       0.17055694       0.83029059       0.59618573 </v>
   <v>       0.41974701       0.08592295       0.60296374 </v>
   <v>       0.41272214       0.33214544       0.61327992 </v>
   <v>       0.40756666       0.57716416       0.60691770 </v>
   <v>       0.41719400       0.83126019       0.60688197 </v>
   <v>       0.68196900       0.10538822       0.59984906 </v>
   <v>       0.66222729       0.33163714       0.61069958 </v>
   <v>       0.65899860       0.58778290       0.60543563 </v>
   <v>       0.66648721       0.84434829       0.61120748 </v>
   <v>       0.90843866       0.07591474       0.60288459 </v>
   <v>       0.91487555       0.32749559       0.60252400 </v>
   <v>       0.92172036       0.57849197       0.60795969 </v>
   <v>       0.91222667       0.82977330       0.60848626 </v>
   <v>       0.00113702       0.99306376       0.50173276 </v>
   <v>       0.01255530       0.25206511       0.49884650 </v>
   <v>       0.99822306       0.50570348       0.49914878 </v>
   <v>       0.99431148       0.75383019       0.49807553 </v>
   <v>       0.25379121       0.00814578       0.49703819 </v>
   <v>       0.24794602       0.25037744       0.50253180 </v>
   <v>       0.24482195       0.49785828       0.50015803 </v>
   <v>       0.24911747       0.75335181       0.49976186 </v>
   <v>       0.49950882       0.00400748       0.50059474 </v>
   <v>       0.49029991       0.25257626       0.50235532 </v>
   <v>       0.49459451       0.49305334       0.50604287 </v>
   <v>       0.50577562       0.74841714       0.50415010 </v>
   <v>       0.75821772       0.01161890       0.49484774 </v>
   <v>       0.74977543       0.25639447       0.50327519 </v>
   <v>       0.74952575       0.49951168       0.50106426 </v>
   <v>       0.74212933       0.74744201       0.50393034 </v>
  </varray>
  <varray name="velocities" >
   <v>       0.00000000       0.00000000       0.00000000 </v>
   <v>       0.00000000       0.00000000       0.00000000 </v>
   <v>       0.00000000       0.00000000       0.00000000 </v>
   <v>       0.00000000       0.00000000       0.00000000 </v>
   <v>       0.00000000       0.00000000       0.00000000 </v>
   <v>       0.00000000       0.00000000       0.00000000 </v>
   <v>       0.00000000       0.00000000       0.00000000 </v>
   <v>       0.00000000       0.00000000       0.00000000 </v>
   <v>       0.00000000       0.00000000       0.00000000 </v>
   <v>       0.00000000       0.00000000       0.00000000 </v>
   <v>       0.00000000       0.00000000       0.00000000 </v>
   <v>       0.00000000       0.00000000       0.00000000 </v>
   <v>       0.00000000       0.00000000       0.00000000 </v>
   <v>       0.00000000       0.00000000       0.00000000 </v>
   <v>       0.00000000       0.00000000       0.00000000 </v>
   <v>       0.00000000       0.00000000       0.00000000 </v>
   <v>       0.00000000       0.00000000       0.00000000 </v>
   <v>       0.00000000       0.00000000       0.00000000 </v>
   <v>       0.00000000       0.00000000       0.00000000 </v>
   <v>       0.00000000       0.00000000       0.00000000 </v>
   <v>       0.00000000       0.00000000       0.00000000 </v>
   <v>       0.00000000       0.00000000       0.00000000 </v>
   <v>       0.00000000       0.00000000       0.00000000 </v>
   <v>       0.00000000       0.00000000       0.00000000 </v>
   <v>       0.00000000       0.00000000       0.00000000 </v>
   <v>       0.00000000       0.00000000       0.00000000 </v>
   <v>       0.00000000       0.00000000       0.00000000 </v>
   <v>       0.00000000       0.00000000       0.00000000 </v>
   <v>       0.00000000       0.00000000       0.00000000 </v>
   <v>       0.00000000       0.00000000       0.00000000 </v>
   <v>       0.00000000       0.00000000       0.00000000 </v>
   <v>       0.00000000       0.00000000       0.00000000 </v>
   <v>       0.00000000       0.00000000       0.00000000 </v>
   <v>       0.00000000       0.00000000       0.00000000 </v>
   <v>       0.00000000       0.00000000       0.00000000 </v>
   <v>       0.00000000       0.00000000       0.00000000 </v>
   <v>       0.00000000       0.00000000       0.00000000 </v>
   <v>       0.00000000       0.00000000       0.00000000 </v>
   <v>       0.00000000       0.00000000       0.00000000 </v>
   <v>       0.00000000       0.00000000       0.00000000 </v>
   <v>       0.00000000       0.00000000       0.00000000 </v>
   <v>       0.00000000       0.00000000       0.00000000 </v>
   <v>       0.00000000       0.00000000       0.00000000 </v>
   <v>       0.00000000       0.00000000       0.00000000 </v>
   <v>       0.00000000       0.00000000       0.00000000 </v>
   <v>       0.00000000       0.00000000       0.00000000 </v>
   <v>       0.00000000       0.00000000       0.00000000 </v>
   <v>       0.00000000       0.00000000       0.00000000 </v>
   <v>       0.00000000       0.00000000       0.00000000 </v>
   <v>       0.00000000       0.00000000       0.00000000 </v>
   <v>       0.00000000       0.00000000       0.00000000 </v>
   <v>       0.00000000       0.00000000       0.00000000 </v>
   <v>       0.00000000       0.00000000       0.00000000 </v>
   <v>       0.00000000       0.00000000       0.00000000 </v>
   <v>       0.00000000       0.00000000       0.00000000 </v>
   <v>       0.00000000       0.00000000       0.00000000 </v>
   <v>       0.00000000       0.00000000       0.00000000 </v>
   <v>       0.00000000       0.00000000       0.00000000 </v>
   <v>       0.00000000       0.00000000       0.00000000 </v>
   <v>       0.00000000       0.00000000       0.00000000 </v>
   <v>       0.00000000       0.00000000       0.00000000 </v>
   <v>       0.00000000       0.00000000       0.00000000 </v>
   <v>       0.00000000       0.00000000       0.00000000 </v>
   <v>       0.00000000       0.00000000       0.00000000 </v>
   <v>       0.00000000       0.00000000       0.00000000 </v>
   <v>       0.00000000       0.00000000       0.00000000 </v>
   <v>       0.00000000       0.00000000       0.00000000 </v>
   <v>       0.00000000       0.00000000       0.00000000 </v>
   <v>       0.00000000       0.00000000       0.00000000 </v>
   <v>       0.00000000       0.00000000       0.00000000 </v>
   <v>       0.00000000       0.00000000       0.00000000 </v>
   <v>       0.00000000       0.00000000       0.00000000 </v>
   <v>       0.00000000       0.00000000       0.00000000 </v>
   <v>       0.00000000       0.00000000       0.00000000 </v>
   <v>       0.00000000       0.00000000       0.00000000 </v>
   <v>       0.00000000       0.00000000       0.00000000 </v>
   <v>       0.00000000       0.00000000       0.00000000 </v>
   <v>       0.00000000       0.00000000       0.00000000 </v>
   <v>       0.00000000       0.00000000       0.00000000 </v>
   <v>       0.00000000       0.00000000       0.00000000 </v>
  </varray>
 </structure>
</modeling>
