 running on   52 total cores
 distrk:  each k-point on   52 cores,    1 groups
 distr:  one band on   13 cores,    4 groups
 using from now: INCAR     
 vasp.5.4.4.18Apr17-6-g9f103f2a35 (build Oct 31 2019 15:01:46) complex          
  
 POSCAR found type information on POSCAR  Ca Si O 
 POSCAR found :  3 types and     135 ions
 scaLAPACK is switched off
 LDA part: xc-table for Pade appr. of Perdew
 generate k-points for:    2    2    2
 POSCAR, INCAR and KPOINTS ok, starting setup
 FFT: planning ...
 WAVECAR not read
 entering main loop
       N       E                     dE             d eps       ncg     rms          rms(c)
DAV:   1     0.934278365632E+04    0.93428E+04   -0.47171E+05  8320   0.179E+03
DAV:   2     0.602771055027E+02   -0.92825E+04   -0.89888E+04 10040   0.470E+02
DAV:   3    -0.979109081599E+03   -0.10394E+04   -0.10300E+04 10280   0.158E+02
DAV:   4    -0.103020086248E+04   -0.51092E+02   -0.50868E+02 11256   0.324E+01
DAV:   5    -0.103631061210E+04   -0.61097E+01   -0.61062E+01 14560   0.772E+00    0.843E+01
DAV:   6    -0.879089279482E+03    0.15722E+03   -0.78660E+02 10016   0.432E+01    0.397E+01
DAV:   7    -0.883161176739E+03   -0.40719E+01   -0.95390E+01 10464   0.170E+01    0.226E+01
DAV:   8    -0.876280056822E+03    0.68811E+01   -0.23335E+01 12144   0.100E+01    0.137E+01
DAV:   9    -0.880649892007E+03   -0.43698E+01   -0.18201E+01 10608   0.719E+00    0.236E+01
DAV:  10    -0.877081044768E+03    0.35688E+01   -0.49591E+00 11440   0.379E+00    0.785E+00
DAV:  11    -0.875840490364E+03    0.12406E+01   -0.29437E+00 11352   0.338E+00    0.416E+00
DAV:  12    -0.876000783006E+03   -0.16029E+00   -0.14879E+00 10760   0.196E+00    0.756E+00
DAV:  13    -0.875822585045E+03    0.17820E+00   -0.18668E+00 11064   0.131E+00    0.330E+00
DAV:  14    -0.875782857423E+03    0.39728E-01   -0.26067E-01  9656   0.860E-01    0.411E+00
DAV:  15    -0.875759890841E+03    0.22967E-01   -0.75085E-01 11720   0.693E-01    0.262E+00
DAV:  16    -0.875730026492E+03    0.29864E-01   -0.95795E-02 10680   0.499E-01    0.239E+00
DAV:  17    -0.875729257865E+03    0.76863E-03   -0.78460E-02 10736   0.308E-01    0.236E+00
DAV:  18    -0.875748144324E+03   -0.18886E-01   -0.60042E-02 10896   0.334E-01    0.250E+00
DAV:  19    -0.875734677592E+03    0.13467E-01   -0.31717E-02 10912   0.291E-01    0.301E+00
DAV:  20    -0.875722941070E+03    0.11737E-01   -0.15378E-02 10088   0.147E-01    0.931E-01
DAV:  21    -0.875723139141E+03   -0.19807E-03   -0.33455E-03 10024   0.111E-01    0.472E-01
DAV:  22    -0.875723214966E+03   -0.75825E-04   -0.22270E-03 10472   0.605E-02    0.154E-01
DAV:  23    -0.875723380767E+03   -0.16580E-03   -0.66798E-04 11992   0.386E-02    0.996E-02
DAV:  24    -0.875723419518E+03   -0.38751E-04   -0.16974E-04  9992   0.187E-02    0.909E-02
DAV:  25    -0.875723417956E+03    0.15622E-05   -0.40375E-05  9712   0.108E-02    0.267E-02
DAV:  26    -0.875723424384E+03   -0.64283E-05   -0.16713E-05 10136   0.648E-03    0.895E-03
DAV:  27    -0.875723425984E+03   -0.15999E-05   -0.59456E-06  7696   0.383E-03    0.150E-02
DAV:  28    -0.875723425587E+03    0.39692E-06   -0.18136E-06  6304   0.211E-03
   1 F= -.87572343E+03 E0= -.87569317E+03  d E =-.605159E-01
