80
Time=50000.00000004 pbc="T T F" Lattice="13.12862340 0.00000000 0.00000000 -6.56431170 11.36972138 0.00000000 0.00000000 0.00000000 26.82809424" energy=-595.39011288 virial="10.96242300 0.89350848 -6.59825114 0.89350848 10.57571991 -5.42489736 -6.59825114 -5.42489736 3.06943930" stress="0.00359820 0.00022312 -0.00164767 0.00022312 0.00350164 -0.00135467 -0.00164767 -0.00135467 0.00162722" Properties=species:S:1:pos:R:3
Sc -0.00345072 1.78814931 12.28142357
Sc -1.64929155 4.75582859 12.16349332
Sc -3.34917643 7.42130650 12.23552155
Sc -4.86972893 10.47873126 12.16978630
Sc 3.15952086 1.88678158 12.10933593
Sc 1.59903036 4.65044514 11.87529259
Sc -0.05550446 7.51928416 12.11594967
Sc -1.80391104 10.33920763 12.13900529
Sc 6.52659021 1.88995055 12.19760018
Sc 4.89812715 4.68846060 12.20001371
Sc 3.40609845 7.67164910 12.11918212
Sc 1.57417207 10.47811667 12.09522602
Sc 9.80835733 1.95224226 12.19100313
Sc 8.12746643 4.83061115 12.12606900
Sc 6.59535645 7.55315867 12.16045326
Sc 4.90410626 10.42226034 12.21028295
Sc 1.67627041 0.90100336 14.75342722
Sc -0.02617857 3.83536756 14.69043765
Sc -1.62276035 6.58181361 14.68438431
Sc -3.13452027 9.47994870 14.77910487
Sc 4.95493532 0.90051171 14.64751811
Sc 3.25828576 3.75895101 14.56919807
Sc 1.72261341 6.60869232 14.42690112
Sc 0.09455297 9.45868086 14.59115525
Sc 8.18504815 1.04144244 14.65686856
Sc 6.50915924 3.90398087 14.74054150
Sc 4.99645795 6.65444876 14.67853627
Sc 3.35588322 9.54687479 14.77537981
Sc 11.56825054 0.91003045 14.69407750
Sc 9.78915743 3.78323627 14.69327622
Sc 8.23002697 6.69977550 14.78550942
Sc 6.59973052 9.52431332 14.70596214
F 0.11596697 1.95963731 15.76809734
F -1.82031873 4.75917084 15.71804948
F -3.26820263 7.45011738 15.92155123
F -4.97926511 10.59414922 15.93925808
F 3.08676575 2.04685348 15.97193284
F 1.55252915 4.47013888 15.87422934
F 0.21158028 7.63430343 15.85443503
F -1.45746842 10.29840388 15.75097525
F 6.42937235 1.96892976 15.98451139
F 4.86973044 4.68739016 15.79920872
F 3.21298226 7.40853081 15.62939130
F 1.90060522 10.50226558 15.87732739
F 9.98135472 2.00309249 15.84620682
F 8.05198784 4.74360834 15.96829436
F 6.59277341 7.59111471 15.85504474
F 5.13430681 10.58415321 15.82921370
F 1.72331884 0.83269296 10.99731726
F -0.12993727 3.73308303 10.79485711
F -1.76815796 6.69849318 11.05364180
F -3.37607600 9.37072914 11.05292939
F 4.99751275 0.91477605 11.08707633
F 3.09103817 3.53868354 10.79806231
F 1.70348493 6.67332234 10.99436730
F -0.02919335 9.63968801 10.87424162
F 8.18152691 0.80828062 10.95625379
F 6.68469422 3.97282990 10.79142003
F 4.89042338 6.67488815 10.96663031
F 3.39608308 9.54082524 10.88746672
F 11.47010709 0.94393286 11.08808469
F 9.83082570 3.56876759 11.02076950
F 8.20361231 6.68640066 11.10262097
F 6.39454920 9.52094362 11.04378864
C 6.55934827 11.24354336 13.34123331
C -1.60689273 2.80777758 13.49219591
C -3.26785848 5.75460582 13.48862795
C -4.88680030 8.60557560 13.53804457
C -3.27074465 11.30911505 13.49735592
C 1.70409233 2.89380640 13.33296817
C -0.02088684 5.64029417 13.31917566
C -1.52928236 8.45481632 13.45732892
C 6.57969256 0.08327277 13.48182475
C 4.91878351 2.91871032 13.40737037
C 3.34445815 5.71570809 13.28213728
C 1.67168525 8.60285095 13.28012085
C 3.24035629 11.31498306 13.45409300
C 8.18820934 3.01728773 13.53507194
C 6.54860950 5.62796982 13.39774842
C 4.90293338 8.48906285 13.51379370
80
Time=99999.99999996 pbc="T T F" Lattice="13.12862340 0.00000000 0.00000000 -6.56431170 11.36972138 0.00000000 0.00000000 0.00000000 26.82809424" energy=-596.23001766 virial="6.10640874 0.99302213 6.50858968 0.99302213 5.29145848 5.49600006 6.50858968 5.49600006 -15.78476960" stress="0.00238559 0.00024797 0.00162528 0.00024797 0.00218209 0.00137242 0.00162528 0.00137242 -0.00308092" Properties=species:S:1:pos:R:3
Sc -0.06745746 2.01308178 12.09058892
Sc -1.74372925 4.70981620 12.19992092
Sc -3.31621363 7.53452065 12.12614794
Sc -4.81745360 10.63803187 11.93326801
Sc 3.25808115 1.91954748 12.12547187
Sc 1.75179219 4.73166747 12.09795260
Sc -0.06491120 7.41612303 12.19519381
Sc -1.60015409 10.40780554 12.08512584
Sc 6.39376451 1.80597317 12.17949404
Sc 4.98253708 4.72978419 12.15165096
Sc 3.34677899 7.62441581 12.10665374
Sc 1.63970433 10.42840413 12.11530950
Sc 9.81221634 1.97390325 12.18959592
Sc 8.20528305 4.72373830 12.26518912
Sc 6.61869357 7.67154347 12.08709915
Sc 4.85530559 10.47478006 12.13088184
Sc 1.52367737 1.05327485 14.70833250
Sc -0.03489086 3.75101510 14.76232564
Sc -1.57630879 6.64283407 14.66257305
Sc -3.34568983 9.56013413 14.55804758
Sc 4.86380752 0.82649333 14.72241884
Sc 3.27949750 3.78294584 14.65344779
Sc 1.67610658 6.65247513 14.65579652
Sc 0.00972879 9.45896188 14.84222044
Sc 8.16529101 0.77351545 14.84395233
Sc 6.58842794 3.71868461 14.77155001
Sc 4.94591182 6.56259070 14.63183187
Sc 3.34135643 9.41686001 14.72940829
Sc 11.52860914 0.95714524 14.65720096
Sc 9.83738233 3.70131702 14.73923727
Sc 8.28140243 6.63926199 14.66954295
Sc 6.61191054 9.51811383 14.69849933
F -0.03195966 1.94202706 16.04526511
F -1.74188732 4.78515048 15.66253016
F -3.24265818 7.58488990 15.82133210
F -4.85891819 10.50390661 15.69234094
F 3.08699573 1.86414455 15.90398209
F 1.54593614 4.59258953 15.78589972
F 0.04254445 7.60561972 15.93628106
F -1.79590078 10.52375009 15.89211869
F 6.59932588 1.74302774 15.93012245
F 4.86285043 4.67060502 15.93654839
F 3.22930221 7.56727257 15.79561605
F 1.48111155 10.49379190 15.94258827
F 9.83312225 1.79488545 15.94257654
F 8.08094184 4.84377285 15.95504655
F 6.56512787 7.76184936 15.79561689
F 4.98516652 10.28584813 15.70812667
F 1.64926173 1.06981774 10.76873950
F 0.12814434 4.02175653 10.90727967
F -1.36149058 6.45925870 10.86387822
F -3.21083147 9.51091210 10.72674574
F 4.98745859 0.98503786 10.96455360
F 3.49636231 3.81627887 10.94976551
F 1.68985791 6.69707219 11.14664180
F -0.04290458 9.45391158 10.94682994
F 8.23698023 0.87146752 10.95668144
F 6.49629405 3.72779833 10.99017979
F 4.83181230 6.63551814 11.01373833
F 3.35430163 9.47531246 11.04140378
F 11.63494474 0.98908016 10.91888692
F 9.77074343 3.91736600 10.99469859
F 8.18482475 6.70260881 11.01581194
F 6.63697647 9.45583629 10.89137895
C 0.06702202 0.03803132 13.31653311
C 11.49217166 2.81431097 13.34777336
C 9.86030755 5.61545238 13.43967845
C -4.83134299 8.53861331 13.31805483
C 3.34376439 0.00938516 13.32210806
C 1.58134301 2.90686893 13.41705531
C -0.10372551 5.58128326 13.41671993
C -1.60816602 8.50167601 13.32845014
C -0.07233013 11.24785117 13.49222127
C 4.92525435 2.79331425 13.45931599
C 3.32042738 5.63023960 13.41454803
C 1.62517535 8.55962370 13.52304071
C 3.29939971 11.35605775 13.59004415
C 8.23506701 2.80941556 13.46526159
C 6.57720266 5.62535099 13.43323610
C 4.94681489 8.60191609 13.47272490
80
Time=149999.99999957 pbc="T T F" Lattice="13.12862340 0.00000000 0.00000000 -6.56431170 11.36972138 0.00000000 0.00000000 0.00000000 26.82809424" energy=-594.91828585 virial="12.21629024 2.84368964 7.45214043 2.84368964 8.62508245 -0.11655686 7.45214043 -0.11655686 -1.46651441" stress="0.00391131 0.00071011 0.00186090 0.00071011 0.00301454 -0.00002911 0.00186090 -0.00002911 0.00049454" Properties=species:S:1:pos:R:3
Sc 0.13537970 1.86372459 12.12187675
Sc -1.60949018 4.79611121 12.12714699
Sc -3.20827186 7.53439846 12.25988518
Sc -5.01462030 10.33438063 12.10523691
Sc 3.39158160 1.78742708 12.26127098
Sc 1.79750635 4.72868088 12.15080917
Sc -0.00978081 7.61410479 12.10064920
Sc -1.75557551 10.31471182 12.28720754
Sc 6.42863705 1.89871557 12.13626648
Sc 5.03558101 4.82310795 11.99757903
Sc 3.24621882 7.55242061 12.18245088
Sc 1.56784525 10.34858769 12.05990862
Sc 9.92492099 1.88846306 12.11972582
Sc 8.29309877 4.72117367 12.25379541
Sc 6.45310775 7.57459056 12.04482887
Sc 4.87907358 10.37129143 12.00069262
Sc 1.63533375 1.00899506 14.69636398
Sc 0.05997214 3.89324651 14.60951071
Sc -1.70274225 6.66380300 14.72702848
Sc -3.43417449 9.45421962 14.74638474
Sc 5.06058772 1.01728612 14.90602276
Sc 3.21135999 3.80660236 14.61148760
Sc 1.58112997 6.66126275 14.68995415
Sc 0.12943990 9.53199867 14.72317247
Sc 8.29566564 0.94602050 14.71062794
Sc 6.56738712 3.72341270 14.77906743
Sc 4.89696358 6.52873229 14.65561820
Sc 3.25558256 9.41727035 14.64970761
Sc 11.52432588 0.94002609 14.47745782
Sc 9.90782379 3.78667382 14.65956092
Sc 8.11916089 6.56731235 14.62319102
Sc 6.58142763 9.48864375 14.57197634
F -0.24631547 1.86624883 15.86957960
F -1.69573216 4.68811417 15.83625712
F -3.44383390 7.43687931 15.81204623
F -4.93904603 10.48010426 15.86904201
F 3.19351578 1.87167351 15.88800500
F 1.65252231 4.85853841 15.89979221
F -0.10039569 7.37022913 15.90338897
F -1.63306901 10.62729424 15.85722082
F 6.71821930 1.83302829 15.93969848
F 4.77883336 4.74463449 15.80593636
F 3.24203977 7.70403903 15.89289679
F 1.67870333 10.34015482 15.95690322
F 9.85399187 1.75036587 15.99142465
F 8.08052906 4.92500309 15.98587087
F 6.44743834 7.67860761 15.72474975
F 5.02284889 10.49568859 15.62735160
F 1.77577597 1.08978793 10.93154368
F 0.14193489 3.85200824 11.06962981
F -1.67398300 6.70243964 10.97167630
F -3.22047210 9.33820113 11.00873125
F 4.90516944 0.88356444 11.17816241
F 3.35722371 3.77142195 11.11654909
F 1.69043607 6.88683279 10.88281477
F -0.13825145 9.62657821 10.88819339
F 8.14232161 1.03302416 10.95500272
F 6.54023712 3.64138230 10.84119615
F 4.96939875 6.67262566 11.04697837
F 3.20404494 9.55425645 10.90042874
F 11.63114896 1.01985298 11.05878306
F 10.00374884 3.86987424 10.99103269
F 8.16372318 6.69499831 11.03516963
F 6.43141551 9.29799422 10.87537319
C 6.58569527 11.30474214 13.20754360
C -1.54355857 2.95727661 13.47953650
C -3.17395667 5.55892697 13.37382811
C -4.95204163 8.58519358 13.55797675
C -3.45015367 11.27522241 13.48790911
C 1.64002076 2.95231752 13.43647884
C 0.06585849 5.70290330 13.41956778
C -1.67584085 8.46960642 13.61604186
C 6.58526120 0.08545247 13.47782322
C 4.83788704 2.86980809 13.41468539
C 3.27836229 5.70665424 13.31406794
C 1.53958642 8.59263910 13.34742815
C 3.32684428 11.26623045 13.34593825
C 8.17774814 2.92928508 13.48137014
C 6.61807468 5.55118443 13.36199505
C 4.93803858 8.65700987 13.49002638
80
Time=199999.99999918 pbc="T T F" Lattice="13.12862340 0.00000000 0.00000000 -6.56431170 11.36972138 0.00000000 0.00000000 0.00000000 26.82809424" energy=-594.85097647 virial="13.92954815 -0.09165892 10.64240123 -0.09165892 8.58327587 6.89118415 10.64240123 6.89118415 -7.98419983" stress="0.00433913 -0.00002289 0.00265755 -0.00002289 0.00300410 0.00172082 0.00265755 0.00172082 -0.00113301" Properties=species:S:1:pos:R:3
Sc -0.05859422 1.94612923 12.00788654
Sc -1.61216423 4.77439278 11.94701908
Sc -3.27180130 7.69439450 12.21088987
Sc -4.80699275 10.34809421 12.15709652
Sc 3.30152884 1.99776725 12.17229850
Sc 1.63944780 4.73874394 12.28066521
Sc 0.08359869 7.45785616 12.06359883
Sc -1.44713235 10.45616124 12.08998196
Sc 6.55722746 1.95842527 12.08401381
Sc 4.89347283 4.77125532 12.21399175
Sc 3.28340596 7.51467620 12.09224650
Sc 1.72633293 10.38595410 12.09536950
Sc 9.78090768 1.90812526 12.02167582
Sc 8.28646657 4.85020774 12.16517551
Sc 6.59632494 7.57297891 12.13759085
Sc 4.95723459 10.39405587 12.13829866
Sc 1.48661734 0.92394062 14.85482563
Sc -0.11344004 3.77413915 14.62883952
Sc -1.55258217 6.60600021 14.72583542
Sc -3.27743239 9.48434111 14.67396404
Sc 4.82622033 0.86913450 14.85463213
Sc 3.13204183 3.70818149 14.70058283
Sc 1.62668044 6.61851428 14.74459641
Sc -0.00937547 9.42827499 14.65239043
Sc 8.19632657 0.96831443 14.59322742
Sc 6.53485949 3.78022219 14.82231145
Sc 4.85979197 6.64589123 14.68929485
Sc 3.31790284 9.46425442 14.72694719
Sc 11.40847114 1.02894077 14.60433055
Sc 9.81355835 3.87794670 14.51283168
Sc 8.07516842 6.66162533 14.72334486
Sc 6.55866149 9.51733654 14.67498764
F -0.07370468 1.92146918 15.88917813
F -1.76937960 4.49823794 15.83899279
F -3.12350009 7.33765379 15.94203243
F -5.09059497 10.38973501 15.97651464
F 3.24792107 1.86773452 15.94231763
F 1.57032445 4.78505874 15.89899912
F -0.06421265 7.32955392 15.82384859
F -1.61036824 10.35854822 15.96127792
F 6.60184241 1.95138614 15.88196288
F 4.92385406 4.60290389 15.96768097
F 3.41214021 7.39919901 15.92470768
F 1.83265939 10.68441146 15.89896112
F 9.87861068 1.93941289 15.68481971
F 8.05386080 4.69314009 15.80684233
F 6.61980542 7.59819394 15.89207549
F 5.01754929 10.48124594 15.83742187
F 1.62531828 0.97458301 11.11944966
F 0.08517299 3.72236937 11.04309222
F -1.43248260 6.75708193 10.91574359
F -3.16263497 9.45136235 10.95724206
F 4.87337626 0.91980474 11.05222447
F 3.18711217 3.48935525 11.04030716
F 1.60877087 6.70290328 11.06279273
F 0.09057153 9.40272299 11.05029927
F 8.22273476 0.85938393 10.87633922
F 6.53274021 3.83896433 10.98340312
F 4.90593285 6.85843391 11.06023084
F 3.28262290 9.45343653 11.07467369
F 11.47393937 1.12029037 10.80257008
F 10.18984894 3.71652225 10.71809052
F 8.17822470 6.92564571 10.85341492
F 6.66339585 9.52668476 11.03966871
C 0.01645032 0.00495511 13.37016745
C 11.41709279 2.89525658 13.22415369
C 9.68376596 5.72703709 13.27875074
C -4.82149980 8.53185907 13.51000302
C -3.26589858 11.29509712 13.42968806
C 1.67143395 2.94092695 13.51163638
C 0.07033420 5.71006424 13.39025760
C -1.75658639 8.34896921 13.45386249
C -0.02284177 11.36143064 13.41655653
C 4.81672507 2.89223842 13.38031972
C 3.31677525 5.64006978 13.46486084
C 1.68302176 8.61098129 13.50011066
C 3.29532899 11.30007930 13.34041164
C 8.14003522 2.69903774 13.34390883
C 6.60155561 5.66240319 13.46845308
C 4.84599471 8.48477702 13.35019419
80
Time=249999.99999879 pbc="T T F" Lattice="13.12862340 0.00000000 0.00000000 -6.56431170 11.36972138 0.00000000 0.00000000 0.00000000 26.82809424" energy=-595.08375120 virial="11.88797194 0.95655559 5.09251211 0.95655559 9.28715872 -2.29538869 5.09251211 -2.29538869 -5.03606574" stress="0.00382933 0.00023886 0.00127167 0.00023886 0.00317987 -0.00057319 0.00127167 -0.00057319 -0.00039683" Properties=species:S:1:pos:R:3
Sc 0.12105885 1.75547545 12.05536494
Sc -1.69590235 4.67713883 12.11497550
Sc -3.34073643 7.60698676 12.22550437
Sc -4.88754115 10.47283518 12.04012751
Sc 3.32634910 1.92290319 12.30698053
Sc 1.63659522 4.61826325 12.12117004
Sc 0.06315535 7.47771315 12.13739442
Sc -1.59183724 10.45860144 12.08643842
Sc 6.63271045 1.86661547 12.21209547
Sc 4.90466764 4.65450523 12.07897982
Sc 3.22612493 7.47559450 12.12591938
Sc 1.46425111 10.38401811 12.25616324
Sc 9.89786337 1.82835382 12.15239990
Sc 8.09485217 4.84381929 12.06405018
Sc 6.62120030 7.59839562 12.05344891
Sc 4.74405960 10.43026730 12.10525516
Sc 1.66372475 0.80556167 14.49130645
Sc 0.06774156 3.89050395 14.62354575
Sc -1.60450018 6.59678216 14.62270400
Sc -3.20255648 9.59908993 14.69022631
Sc 4.94005506 0.98277908 14.77726469
Sc 3.21483241 3.82905988 14.89657817
Sc 1.69745867 6.73993251 14.67179691
Sc 0.04277631 9.45048469 14.80811294
Sc 8.13248275 0.99066666 14.81080752
Sc 6.54674569 3.88372902 14.65199954
Sc 4.97877906 6.66497785 14.62851566
Sc 3.26348733 9.49675994 14.68487828
Sc 11.47465287 1.10840447 14.63891687
Sc 9.87745190 3.86848747 14.64904257
Sc 8.13411804 6.61859058 14.66118064
Sc 6.56150143 9.47283058 14.64666358
F -0.05610277 1.75745602 15.70269604
F -1.47254373 4.69442970 16.01646659
F -3.29082558 7.64023603 15.79522533
F -5.00875090 10.52778543 15.76653581
F 3.29216794 1.75543104 15.83683710
F 1.57084420 4.81874707 15.79682314
F -0.06374509 7.54082419 15.89631779
F -1.57055547 10.21029690 15.96868116
F 6.50150985 1.81535678 15.79415156
F 4.88952067 4.54384967 16.03416599
F 3.16185757 7.70398763 15.95904298
F 1.57452485 10.46855146 16.01232752
F 9.99612106 1.84501674 16.14221177
F 8.18344218 4.75996646 15.78325225
F 6.45678758 7.49237779 15.82302788
F 4.81758937 10.49142738 15.78509990
F 1.93709274 0.91178251 11.01074615
F -0.05179000 3.55603236 11.00041106
F -1.57900213 6.76827841 10.87642317
F -3.18852976 9.52150181 11.02961653
F 4.94648276 1.02775217 11.01263830
F 3.26221242 4.04133973 10.90866990
F 1.75408607 6.60626021 10.92524051
F -0.04574191 9.78720279 10.97922578
F 8.25106722 0.96152804 11.04285618
F 6.61733287 3.78844315 10.86780132
F 4.86243251 6.61282928 10.95898790
F 3.24531464 9.31428237 11.03609821
F 11.50328817 0.93633654 11.17189743
F 9.84793449 3.74483209 11.07272386
F 8.30057149 6.63976186 10.92250938
F 6.56140651 9.36080941 10.85250873
C 0.00016956 0.04253242 13.27988251
C -1.62374804 2.82323566 13.40927013
C -3.20119604 5.59992298 13.32371499
C 8.16638180 8.48387499 13.30205419
C -3.24281453 11.36740944 13.44369206
C 1.66869490 2.95134360 13.42154802
C -0.01187187 5.62658617 13.35919010
C -1.74496177 8.51040989 13.37001750
C 6.58408568 0.03256927 13.55121019
C 4.90003726 2.79033818 13.33020344
C 3.36490162 5.64649950 13.45093161
C 1.57579428 8.55214365 13.54762074
C 9.78470443 0.00593775 13.41560444
C 8.07997120 2.83238365 13.34995328
C 6.61156386 5.67798965 13.40717494
C 4.84592444 8.49466162 13.41935029
80
Time=299999.99999840 pbc="T T F" Lattice="13.12862340 0.00000000 0.00000000 -6.56431170 11.36972138 0.00000000 0.00000000 0.00000000 26.82809424" energy=-594.94069052 virial="12.34285337 1.28571642 4.50740097 1.28571642 11.52609413 1.99347728 4.50740097 1.99347728 1.47441601" stress="0.00394292 0.00032106 0.00112556 0.00032106 0.00373896 0.00049780 0.00112556 0.00049780 0.00122893" Properties=species:S:1:pos:R:3
Sc 0.02782526 1.77602762 12.16989692
Sc -1.65236912 4.85786261 12.13250746
Sc -3.27659338 7.63725308 12.06505116
Sc -5.01827880 10.41733999 12.08928976
Sc 3.16726963 1.90143795 12.23863901
Sc 1.56414442 4.72011825 12.03972237
Sc 0.01333966 7.65234729 12.26446761
Sc -1.56174539 10.45977289 12.18145920
Sc 6.57990156 1.83607465 12.14929901
Sc 4.93634197 4.65175849 12.31927653
Sc 3.40626372 7.49883423 12.16136055
Sc 1.63554546 10.45962112 12.03169288
Sc 9.84267289 1.90815748 12.12528698
Sc 8.17330059 4.74893160 11.99760018
Sc 6.44492276 7.66890201 12.15516299
Sc 4.89929638 10.46927158 12.18596141
Sc 1.76200379 0.84869443 14.84393469
Sc -0.00816236 3.69927177 14.70999869
Sc -1.73263134 6.56073497 14.73545060
Sc -3.30472308 9.56177826 14.51718128
Sc 4.88599619 0.85634855 14.90711937
Sc 3.37296776 3.80466618 14.66152841
Sc 1.64900603 6.56892854 14.57165298
Sc -0.13740319 9.44870866 14.76361471
Sc 8.20244504 0.97447823 14.70335503
Sc 6.64897291 3.82281335 14.63863941
Sc 4.90628771 6.55098402 14.72576705
Sc 3.21955412 9.46994386 14.58941161
Sc 11.40596052 0.96794825 14.75756610
Sc 9.73406348 3.82207330 14.63026594
Sc 8.16907545 6.79127762 14.55988541
Sc 6.59962401 9.55825690 14.75025596
F -0.05689966 1.78022389 15.77213220
F -1.80434570 4.66945291 15.83238981
F -3.16759264 7.53315418 15.85696155
F -4.69654018 10.37721498 15.83231375
F 3.37043908 1.75646616 15.98867851
F 1.66428855 4.69354409 15.68523534
F 0.08810575 7.55342778 15.71008971
F -1.58291718 10.34175467 16.02874196
F 6.68136085 2.09006030 15.76157248
F 4.85857666 4.60248870 15.80072138
F 3.25555584 7.71618668 15.81857724
F 1.61701592 10.30909466 15.80282320
F 9.82151252 1.81943289 15.80585495
F 8.01707247 4.98901912 15.83056837
F 6.64676057 7.53903450 15.78242434
F 4.98352622 10.62195594 15.96791159
F 1.62539370 1.01929680 10.98668929
F 0.08236837 3.70848022 11.10338438
F -1.89850432 6.54924498 10.77303277
F -3.17275793 9.73885457 11.07142810
F 4.87688579 0.83138316 11.01122521
F 3.41445045 3.69217003 11.17183339
F 1.62592065 6.42565394 10.95503430
F 0.18087984 9.36807894 11.10046024
F 8.28239770 0.93564122 10.87547069
F 6.55121598 3.74812043 10.97128537
F 5.04382290 6.63100018 10.78530585
F 3.35620580 9.61051689 11.01152639
F 11.69828564 0.95907015 10.84349049
F 9.98130221 3.88277568 10.88280237
F 8.16618269 6.77050403 11.00491483
F 6.56256681 9.51686385 10.91200511
C 0.05279254 0.00465148 13.44717261
C -1.59697207 2.92605157 13.48039582
C -3.27434382 5.68521009 13.39079539
C 8.10590405 8.65295732 13.33955933
C 3.33733824 0.09778706 13.56264034
C 1.60895482 2.70450971 13.55091552
C -0.07042408 5.69200603 13.43072576
C -1.74614268 8.46810660 13.48866981
C -0.06096123 11.27424034 13.51471730
C 4.98394861 2.80708237 13.50625097
C 3.34638918 5.62301865 13.51307750
C 1.63353787 8.49275853 13.32826668
C 9.82762554 0.17339560 13.33534113
C 8.25382065 2.81032411 13.28766670
C 6.75035431 5.76631209 13.35398182
C 4.92227228 8.41762606 13.44577047
80
Time=349999.99999862 pbc="T T F" Lattice="13.12862340 0.00000000 0.00000000 -6.56431170 11.36972138 0.00000000 0.00000000 0.00000000 26.82809424" energy=-595.20735073 virial="11.15382180 -1.95666124 0.44099547 -1.95666124 15.78501269 1.38896812 0.44099547 1.38896812 -0.34997118" stress="0.00364600 -0.00048860 0.00011012 -0.00048860 0.00480247 0.00034684 0.00011012 0.00034684 0.00077335" Properties=species:S:1:pos:R:3
Sc -0.04202794 1.91769692 12.17681211
Sc -1.63433951 4.90775318 12.15365796
Sc -3.25311338 7.65670867 12.20352917
Sc -4.95531762 10.45231754 12.10812272
Sc 3.47494434 1.87790572 12.14866799
Sc 1.76104844 4.68564033 12.28946800
Sc 0.02509643 7.62295872 12.18376698
Sc -1.57817351 10.32776227 12.19019590
Sc 6.58883494 1.69067315 12.23442395
Sc 5.09328081 4.68860151 12.17739190
Sc 3.25414974 7.63535269 12.06339178
Sc 1.62816601 10.39619172 12.06238361
Sc 9.80159585 1.82750971 12.01845535
Sc 8.24381861 4.92245545 12.03553615
Sc 6.43199038 7.60302378 12.03346140
Sc 4.87967586 10.56268771 12.12821567
Sc 1.68949448 0.98847357 14.54041957
Sc -0.02811122 3.78946599 14.59293765
Sc -1.62105007 6.70431791 14.82245355
Sc -3.46678469 9.44080334 14.67499956
Sc 4.76618084 0.76617705 14.82990012
Sc 3.28739406 3.83697734 14.83647782
Sc 1.60169079 6.65014561 14.60488935
Sc 0.03705515 9.48415095 14.74358702
Sc 8.24324479 0.85403984 14.63546836
Sc 6.73350309 3.68456212 14.67347851
Sc 4.95954162 6.68764797 14.66441722
Sc 3.23737602 9.46373083 14.70844479
Sc 11.46432016 0.93084274 14.77408225
Sc 9.94388750 3.78318926 14.63850766
Sc 8.23644495 6.63720892 14.64281677
Sc 6.41416487 9.58953288 14.75028037
F -0.26483860 1.72192192 16.10595900
F -1.65587477 4.72973708 15.66704664
F -3.48300574 7.74433777 16.00020033
F -4.99036091 10.56398160 15.87659395
F 3.26840967 1.70733289 15.82754003
F 1.69825750 4.51063210 15.82678224
F -0.01064047 7.57195517 15.91785894
F -1.75183142 10.21089907 15.95023742
F 6.59708519 1.79788117 15.70422756
F 5.04834819 4.69945688 15.73130716
F 3.29877188 7.68741537 15.78863042
F 1.65325094 10.37348396 15.94988964
F 9.73863514 1.76497358 15.74051033
F 8.36941315 4.83031159 15.72758444
F 6.57123485 7.71951862 15.85091893
F 4.76501094 10.44476462 15.80082889
F 1.58322317 0.97520831 11.04099021
F 0.09728225 3.91499177 10.99392803
F -1.80053284 6.55882419 11.03923843
F -3.42400921 9.52769828 10.99590873
F 5.05530291 0.90293892 10.92864292
F 3.46066593 3.80102178 10.96496991
F 1.54734582 6.59038397 11.01649004
F -0.13427331 9.31963026 11.02461361
F 8.14215763 1.00267236 10.86791191
F 6.47674454 4.19431517 10.88199744
F 4.91740911 6.59954400 11.00758322
F 3.30761277 9.43486796 10.92055455
F 11.46959363 0.95834934 10.91862207
F 9.85475317 3.79995159 11.05399301
F 8.32912106 6.59664919 10.90737339
F 6.48269120 9.45296271 11.12489528
C -0.00179569 0.05320553 13.35718643
C 11.51905627 2.73703893 13.38430224
C -3.17551256 5.64323688 13.48323983
C -4.91884972 8.54305313 13.41453869
C -3.29046632 11.36793577 13.41965704
C 1.78017325 2.78134061 13.43261965
C 0.08921718 5.68594716 13.38278688
C -1.61446544 8.53121451 13.56716930
C 0.02111456 11.26679357 13.41395982
C 4.96206554 2.78933853 13.38755806
C 3.44438366 5.57936172 13.40130896
C 1.59104427 8.55471742 13.37623848
C 3.22187769 11.30393874 13.41477114
C 8.23089946 2.81650538 13.31614092
C 6.69168153 5.87307456 13.37315337
C 4.84817424 8.56306010 13.31031611
80
Time=400000.00000008 pbc="T T F" Lattice="13.12862340 0.00000000 0.00000000 -6.56431170 11.36972138 0.00000000 0.00000000 0.00000000 26.82809424" energy=-595.45548916 virial="13.29428629 -1.50424249 -7.71004619 -1.50424249 13.04465667 -4.08967465 -7.71004619 -4.08967465 5.32716879" stress="0.00418050 -0.00037563 -0.00192530 -0.00037563 0.00411817 -0.00102124 -0.00192530 -0.00102124 0.00219101" Properties=species:S:1:pos:R:3
Sc -0.09184696 1.96152460 12.10724354
Sc -1.76991366 4.73447279 11.97979497
Sc -3.27061234 7.62225835 12.17193893
Sc -4.94516570 10.42423782 12.09924317
Sc 3.38341307 1.84453422 12.16715602
Sc 1.57963649 4.66756126 12.18745476
Sc 0.09853079 7.46084804 12.15706302
Sc -1.58206160 10.41994915 12.16235652
Sc 6.60534837 1.81288020 12.06052661
Sc 4.87541058 4.70815569 12.11987499
Sc 3.33773977 7.57203352 12.07811560
Sc 1.75498799 10.36296482 12.18043519
Sc 9.87426352 2.04318217 12.15009215
Sc 8.20532059 4.73204588 12.29661646
Sc 6.50934271 7.48192198 12.16920855
Sc 4.81489572 10.40022805 12.20897672
Sc 1.62688989 0.92080149 14.64358784
Sc -0.01458778 3.85275257 14.69709442
Sc -1.65081531 6.58962841 14.66007477
Sc -3.28505934 9.49411724 14.60595136
Sc 4.96815180 0.89796588 14.82250965
Sc 3.30954823 3.61009628 14.76695111
Sc 1.62107014 6.65965515 14.58779322
Sc 0.04009776 9.41365013 14.81606604
Sc 8.35223582 0.95326567 14.70613322
Sc 6.60337350 3.81609577 14.77865978
Sc 4.87461259 6.58830395 14.71484487
Sc 3.24109931 9.47922078 14.76325463
Sc 11.45354808 0.93420139 14.64366672
Sc 9.91111062 3.83711157 14.63209274
Sc 8.17240644 6.75133290 14.60755606
Sc 6.57199300 9.47072043 14.56622281
F -0.23263739 2.05568257 15.82361223
F -1.62718857 4.94471691 15.77173135
F -3.19085956 7.57436846 15.65327427
F -4.93165698 10.41084763 15.73830233
F 3.39689806 1.94306529 16.04634976
F 1.69903082 4.67276873 15.76112834
F -0.03033763 7.42419006 15.88497715
F -1.55749626 10.39792293 15.85539897
F 6.46208401 1.82202327 16.01526851
F 4.97177295 4.89068703 15.92942566
F 3.45117713 7.61164911 15.74787632
F 1.73909651 10.41402146 15.89567153
F 9.80995932 2.18201763 15.81605742
F 8.12289785 4.89434922 15.84738477
F 6.52200671 7.66973140 15.67253805
F 5.06259477 10.42145356 15.89814661
F 1.80209720 0.87646541 10.99054347
F 0.06313474 3.82693022 11.01813059
F -1.76104747 6.63136331 10.90110275
F -3.29695640 9.38115382 11.03854982
F 4.88719994 0.86325653 11.03262999
F 3.29314100 3.62008444 10.94457674
F 1.56247739 6.81281205 10.88429089
F -0.14336103 9.37775032 11.01240637
F 8.23836592 1.00453343 10.97706860
F 6.28249110 3.57205215 10.87194443
F 4.98882736 6.55389282 11.05043264
F 3.16405738 9.36610922 10.85433785
F 11.46598266 1.05345487 11.08780103
F 9.73767305 4.02223345 10.95679096
F 7.96124838 6.94408387 10.98755349
F 6.55663812 9.60136557 10.99180205
C 13.08024218 0.07730806 13.42649981
C -1.60089471 2.96755153 13.41296454
C 9.83472681 5.64919094 13.47401028
C -4.87640414 8.46541659 13.31204915
C 3.27020541 0.05299279 13.47905771
C 1.54540780 2.80978838 13.36302860
C 0.12152206 5.64891023 13.35639208
C -1.69613656 8.58459043 13.49059196
C 0.04634522 11.33163696 13.48090380
C 4.98374816 2.84381283 13.54910009
C 3.29418533 5.57649858 13.39728192
C 1.88538175 8.54860972 13.47643052
C 9.81318151 0.01217508 13.44584678
C 8.28722483 2.81690559 13.35254011
C 6.57551305 5.70172640 13.44130495
C 4.85343972 8.53237407 13.40820222
80
Time=450000.00000155 pbc="T T F" Lattice="13.12862340 0.00000000 0.00000000 -6.56431170 11.36972138 0.00000000 0.00000000 0.00000000 26.82809424" energy=-595.78022480 virial="14.74584833 -1.81305229 -5.01882785 -1.81305229 13.24497241 1.93375744 -5.01882785 1.93375744 8.93674575" stress="0.00454298 -0.00045274 -0.00125327 -0.00045274 0.00416819 0.00048288 -0.00125327 0.00048288 0.00309237" Properties=species:S:1:pos:R:3
Sc -0.02782976 1.90654541 12.10587409
Sc -1.66787753 4.81715625 12.25140679
Sc -3.25531691 7.55729823 12.18056687
Sc -4.96068136 10.37336330 12.10530868
Sc 3.28071192 1.93428631 12.12903829
Sc 1.69524698 4.66761093 12.09725197
Sc 0.07080601 7.56091998 12.09907502
Sc -1.58563458 10.45330890 11.94621440
Sc 6.57128948 1.96609139 12.24304196
Sc 4.87889565 4.65038108 12.12521478
Sc 3.22480475 7.47818471 12.23022522
Sc 1.65340805 10.54798136 11.98406053
Sc 9.87757718 2.02881372 12.24295362
Sc 8.20569755 4.77962792 12.23794725
Sc 6.54652380 7.66101897 12.12547817
Sc 4.74287744 10.40088156 12.25548927
Sc 1.56472372 0.93078332 14.63156026
Sc -0.06056070 3.87612137 14.57601777
Sc -1.60006852 6.74028569 14.66345332
Sc -3.28109401 9.56983611 14.59285949
Sc 5.05227883 0.88886288 14.56389253
Sc 3.17485527 3.71162797 14.77720038
Sc 1.58286935 6.60168225 14.70857506
Sc 0.03080223 9.49058729 14.55053943
Sc 8.20449391 0.95176161 14.63344262
Sc 6.63226788 3.88900177 14.84287449
Sc 4.81499238 6.58099525 14.73229904
Sc 3.32171594 9.44591440 14.69499254
Sc 11.50596401 0.94977588 14.67448179
Sc 9.86710276 3.71380768 14.82271014
Sc 8.29836465 6.66020768 14.77372405
Sc 6.51966482 9.42423115 14.68582464
F -0.03821347 1.94769092 15.79225612
F -1.43181529 4.66723620 15.83914358
F -3.06624178 7.48179575 15.82342402
F -5.10336853 10.46619744 15.78015864
F 3.38325855 1.96667962 15.80663731
F 1.60325991 4.71658836 15.90654882
F 0.05765063 7.43609519 15.85515575
F -1.43010292 10.46898530 15.74527580
F 6.51076778 1.70795129 15.82566982
F 4.89248744 4.69069399 15.87707541
F 3.25142069 7.58805530 15.84849892
F 1.81887017 10.51528652 15.60085394
F 9.68267535 1.98032165 16.10964595
F 8.35449730 4.76742938 15.84966854
F 6.47848520 7.37634713 15.83977796
F 4.95859182 10.30038865 15.88043232
F 1.84118817 0.91733021 11.06928827
F -0.27875056 3.81030989 10.96229109
F -1.66885684 6.60392010 10.98132503
F -3.13687889 9.43729408 10.95105317
F 4.90420697 0.98057789 10.85671689
F 3.32809191 3.80272847 10.96808358
F 1.60396303 6.59116955 10.95891431
F 0.16264555 9.74506287 10.85336741
F 8.11262047 1.14526960 11.05351415
F 6.42509009 3.76708490 11.17525579
F 4.79774746 6.63817459 11.11994418
F 3.40955450 9.32787412 10.84331588
F 11.47378149 0.96021815 11.05887914
F 9.73956699 3.49261741 10.98897242
F 8.14797235 6.54415460 11.07746611
F 6.52283522 9.50423078 10.98781130
C -0.04483163 0.10255868 13.43256038
C 11.51259385 2.75492185 13.44675509
C -3.28095493 5.76371526 13.38041293
C 8.18818970 8.52487324 13.42518629
C -3.30412176 11.35333369 13.39014573
C 1.61417566 2.88270848 13.41865695