<?xml version="1.0" encoding="ISO-8859-1"?>
<modeling>
 <generator>
  <i name="program" type="string">vasp </i>
  <i name="version" type="string">5.4.4.18Apr17-6-g9f103f2a35  </i>
  <i name="subversion" type="string">(build Oct 31 2019 15:01:46) complex            parallel </i>
  <i name="platform" type="string">LinuxIFC </i>
  <i name="date" type="string">2024 04 29 </i>
  <i name="time" type="string">00:48:29 </i>
 </generator>
 <incar>
  <i type="int" name="ISTART">     0</i>
  <i type="string" name="PREC">a</i>
  <i type="logical" name="ADDGRID"> T  </i>
  <i type="int" name="IBRION">    -1</i>
  <i name="EDIFF">      0.00000100</i>
  <i name="EDIFFG">     -0.01000000</i>
  <i type="int" name="NSW">     1</i>
  <i type="int" name="ISIF">     2</i>
  <i type="int" name="ISYM">     0</i>
  <i name="ENCUT">    600.00000000</i>
  <i name="POTIM">      1.00000000</i>
  <i type="string" name="LREAL">  Auto</i>
  <i type="int" name="ISMEAR">     0</i>
  <i name="SIGMA">      0.05000000</i>
  <i name="KSPACING">      0.30000000</i>
  <i type="logical" name="KGAMMA"> T  </i>
  <i type="logical" name="LWAVE"> F  </i>
  <i type="logical" name="LCHARG"> F  </i>
  <i type="logical" name="LSCALAPACK"> F  </i>
  <v type="int" name="KPOINT_BSE">    -1     0     0     0</v>
 </incar>
 <structure name="primitive_cell" >
  <crystal>
   <varray name="basis" >
    <v>      14.01277600       0.00000000       0.00000000 </v>
    <v>       0.00000000      14.01277600       0.00000000 </v>
    <v>       0.00000000       0.00000000      14.01277600 </v>
   </varray>
   <i name="volume">   2751.51914558 </i>
   <varray name="rec_basis" >
    <v>       0.07136345       0.00000000       0.00000000 </v>
    <v>       0.00000000       0.07136345       0.00000000 </v>
    <v>       0.00000000       0.00000000       0.07136345 </v>
   </varray>
  </crystal>
  <varray name="positions" >
   <v>       0.12780389      -0.06153404       0.23032878 </v>
   <v>       0.18362190      -0.18304909       0.22974736 </v>
   <v>       0.29311205       0.00831343       0.27489392 </v>
   <v>       0.24608749       0.00731895       0.10145240 </v>
   <v>       0.32141556      -0.05398940       0.18955151 </v>
   <v>      -0.04985472      -0.05160387       0.33061754 </v>
   <v>      -0.06698150       0.03989830       0.26677091 </v>
   <v>      -0.06159595      -0.13970824       0.05686199 </v>
   <v>       0.41139237      -0.09770199       0.17812764 </v>
   <v>       0.17638817      -0.06926807      -0.07767361 </v>
   <v>      -0.15437528      -0.10067296       0.09861594 </v>
   <v>       0.11109509      -0.25751655      -0.01885605 </v>
   <v>      -0.19501039      -0.03719957       0.17496141 </v>
   <v>       0.34339237      -0.18724821       0.01597506 </v>
   <v>       0.04541743       0.18110390       0.02275578 </v>
   <v>       0.13359429      -0.02047919      -0.43804160 </v>
   <v>       0.24321966      -0.25148541      -0.03500282 </v>
   <v>       0.40875761      -0.26630195       0.27498066 </v>
   <v>       0.46471007       0.03745822       0.27680532 </v>
   <v>       0.20118420       0.23811587       0.41120455 </v>
   <v>      -0.13592839      -0.10443441       0.47004555 </v>
   <v>      -0.12397933      -0.33172207       0.20273966 </v>
   <v>       0.11690080       0.25396972       0.02072465 </v>
   <v>       0.34602499       0.12154440       0.48379752 </v>
   <v>       0.30877627       0.00626316      -0.10236906 </v>
   <v>       0.22100227       0.02809594      -0.40651449 </v>
   <v>       0.14303020      -0.42466510       0.08456633 </v>
   <v>      -0.06789479      -0.33799909       0.02579989 </v>
   <v>       0.16953955       0.33099601       0.27616875 </v>
   <v>      -0.04054586      -0.22814410      -0.09015877 </v>
   <v>      -0.09334146       0.22279941       0.40453359 </v>
   <v>      -0.17177696      -0.30771000       0.11654003 </v>
   <v>       0.06547979       0.32930368       0.12771794 </v>
   <v>       0.39508699      -0.37388546       0.22156113 </v>
   <v>      -0.04426969       0.31493903       0.24352513 </v>
   <v>      -0.01371933      -0.07457997      -0.15876706 </v>
   <v>       0.28417868       0.22811400       0.49554138 </v>
   <v>       0.06076011      -0.33554702      -0.45412684 </v>
   <v>      -0.25001215      -0.13847833       0.05053463 </v>
   <v>       0.41559570      -0.35535736       0.10420592 </v>
   <v>      -0.20536752       0.21389550       0.18017341 </v>
   <v>      -0.49104105       0.12602659       0.12742972 </v>
   <v>      -0.49385894      -0.15648895       0.03235776 </v>
   <v>      -0.00667733       0.32448881       0.39004194 </v>
   <v>      -0.04694462      -0.00098039      -0.36839230 </v>
   <v>       0.20758290       0.34782097       0.38162861 </v>
   <v>       0.47970013      -0.04245787      -0.04992533 </v>
   <v>       0.16707794       0.38650767       0.16865850 </v>
   <v>      -0.30740211       0.06924600       0.21520602 </v>
   <v>      -0.06929427       0.24541512      -0.04684121 </v>
   <v>       0.32765823       0.33314414       0.34942279 </v>
   <v>       0.08082277       0.48077225       0.21846299 </v>
   <v>       0.47828560      -0.33066468       0.37017500 </v>
   <v>       0.23956378       0.19424772      -0.39798799 </v>
   <v>       0.17866419       0.31990260      -0.03549100 </v>
   <v>       0.03085850      -0.48541174       0.41028543 </v>
   <v>       0.35351940      -0.05211828      -0.19153056 </v>
   <v>      -0.24305814       0.19880930       0.41444936 </v>
   <v>      -0.39563589      -0.00112158       0.32484425 </v>
   <v>      -0.16911795      -0.41583839       0.40501002 </v>
   <v>      -0.03555077       0.11943865      -0.20141035 </v>
   <v>       0.27910330      -0.03638540      -0.29349888 </v>
   <v>      -0.45017849       0.10647325       0.44466230 </v>
   <v>      -0.26909832      -0.32060667       0.06175614 </v>
   <v>       0.43745692       0.24198180      -0.02557456 </v>
   <v>      -0.07748951      -0.45317757      -0.01774949 </v>
   <v>       0.38512106       0.11606533      -0.36755189 </v>
   <v>      -0.42218138       0.00460667       0.45977434 </v>
   <v>      -0.18769298      -0.12501431      -0.37414452 </v>
   <v>       0.01315927      -0.46593266      -0.06352455 </v>
   <v>      -0.05277753       0.00519875      -0.24821712 </v>
   <v>      -0.47374296       0.24868884       0.12396821 </v>
   <v>       0.42862217      -0.44919665       0.04745092 </v>
   <v>       0.37746697       0.29646383      -0.47758197 </v>
   <v>       0.26027575       0.43840241       0.12097579 </v>
   <v>       0.17998221       0.39122450       0.49886601 </v>
   <v>      -0.26919813      -0.13092389      -0.12212900 </v>
   <v>      -0.25215995      -0.44401127       0.22093212 </v>
   <v>       0.02806579      -0.36363458      -0.33273896 </v>
   <v>      -0.14418550       0.40438672       0.26644738 </v>
   <v>       0.01402647       0.29719756      -0.15950651 </v>
   <v>       0.35771433       0.38573089       0.02827948 </v>
   <v>      -0.23496429       0.34021227       0.19569127 </v>
   <v>      -0.14324485      -0.25925694      -0.20061039 </v>
   <v>      -0.34407800      -0.06463840      -0.48798078 </v>
   <v>       0.48272615       0.34817462       0.13571177 </v>
   <v>       0.07813334       0.18645113      -0.25992787 </v>
   <v>      -0.46063787      -0.42178818       0.32691127 </v>
   <v>      -0.45531170       0.00180325      -0.13716079 </v>
   <v>       0.46203014      -0.01868328      -0.22854577 </v>
   <v>      -0.23890138      -0.22748639      -0.35902550 </v>
   <v>      -0.29642906      -0.27930983      -0.44279450 </v>
   <v>      -0.39254762      -0.38457238       0.23813589 </v>
   <v>       0.28128430      -0.49585774      -0.41667204 </v>
   <v>      -0.08608787      -0.38337196      -0.33505985 </v>
   <v>      -0.39845382      -0.26678041      -0.04743611 </v>
   <v>       0.47005792       0.14228267      -0.19995202 </v>
   <v>      -0.30351349       0.22889042      -0.49359524 </v>
   <v>       0.33627868       0.30943880      -0.17848323 </v>
   <v>      -0.46927898       0.35058762       0.37575999 </v>
   <v>       0.48780778      -0.20511263      -0.31735403 </v>
   <v>       0.45134406       0.27807028      -0.14017114 </v>
   <v>      -0.17073570       0.17610112      -0.30947336 </v>
   <v>       0.09714222      -0.40491039      -0.25982038 </v>
   <v>       0.39216542       0.44994907       0.45810354 </v>
   <v>      -0.48972547       0.47974207       0.29520796 </v>
   <v>      -0.15348933       0.34266069      -0.42544449 </v>
   <v>       0.20774562       0.41454809      -0.40260420 </v>
   <v>      -0.21592775       0.45198590       0.11604633 </v>
   <v>       0.46061089      -0.29757995      -0.22045053 </v>
   <v>      -0.37402186       0.28649779       0.16486787 </v>
   <v>      -0.13361268       0.47114281      -0.06748009 </v>
   <v>      -0.29851788       0.16547177      -0.39077541 </v>
   <v>      -0.34347731       0.05139539      -0.15032325 </v>
   <v>      -0.20457083      -0.40457495      -0.16112935 </v>
   <v>      -0.19281488       0.26997029      -0.33808991 </v>
   <v>      -0.43152203      -0.46024934       0.44996622 </v>
   <v>      -0.42973756      -0.28622332      -0.16452220 </v>
   <v>       0.47894045      -0.43669502      -0.38789910 </v>
   <v>       0.13234643       0.37493292      -0.29785361 </v>
   <v>      -0.01145712       0.43870326      -0.17424169 </v>
   <v>      -0.22608890      -0.48805525      -0.41008503 </v>
   <v>      -0.39546886      -0.19415320      -0.21336287 </v>
   <v>      -0.37282709       0.31862140       0.48615327 </v>
   <v>      -0.21260100       0.32015985      -0.22669778 </v>
   <v>      -0.31666350       0.37560438      -0.07088633 </v>
   <v>      -0.32946161       0.19012967      -0.22760756 </v>
   <v>      -0.36623245       0.48340595       0.04902362 </v>
   <v>      -0.42540511      -0.48477275      -0.43878097 </v>
   <v>       0.41892980      -0.47652145      -0.26196598 </v>
   <v>      -0.49596505       0.46333146      -0.14639835 </v>
   <v>      -0.34109500      -0.37070158      -0.21450699 </v>
   <v>      -0.43428324       0.30580749      -0.22021371 </v>
   <v>      -0.39483044       0.40310005      -0.16504234 </v>
   <v>      -0.36544275       0.44915111      -0.36868145 </v>
  </varray>
 </structure>
 <varray name="primitive_index" >
  <v type="int" >        1 </v>
  <v type="int" >       66 </v>
  <v type="int" >      114 </v>
  <v type="int" >      117 </v>
  <v type="int" >       49 </v>
  <v type="int" >       94 </v>
  <v type="int" >      112 </v>
  <v type="int" >      121 </v>
  <v type="int" >      107 </v>
  <v type="int" >       17 </v>
  <v type="int" >       39 </v>
  <v type="int" >       99 </v>
  <v type="int" >       73 </v>
  <v type="int" >      127 </v>
  <v type="int" >      129 </v>
  <v type="int" >       82 </v>
  <v type="int" >       37 </v>
  <v type="int" >       23 </v>
  <v type="int" >        9 </v>
  <v type="int" >       86 </v>
  <v type="int" >       20 </v>
  <v type="int" >      100 </v>
  <v type="int" >       33 </v>
  <v type="int" >       89 </v>
  <v type="int" >       63 </v>
  <v type="int" >       51 </v>
  <v type="int" >       27 </v>
  <v type="int" >       77 </v>
  <v type="int" >       56 </v>
  <v type="int" >       21 </v>
  <v type="int" >        8 </v>
  <v type="int" >       43 </v>
  <v type="int" >       96 </v>
  <v type="int" >       68 </v>
  <v type="int" >       22 </v>
  <v type="int" >      134 </v>
  <v type="int" >       30 </v>
  <v type="int" >       88 </v>
  <v type="int" >      106 </v>
  <v type="int" >       29 </v>
  <v type="int" >       62 </v>
  <v type="int" >      133 </v>
  <v type="int" >       25 </v>
  <v type="int" >      105 </v>
  <v type="int" >      130 </v>
  <v type="int" >       48 </v>
  <v type="int" >      116 </v>
  <v type="int" >       31 </v>
  <v type="int" >       14 </v>
  <v type="int" >        3 </v>
  <v type="int" >       78 </v>
  <v type="int" >      131 </v>
  <v type="int" >      104 </v>
  <v type="int" >      119 </v>
  <v type="int" >      115 </v>
  <v type="int" >        6 </v>
  <v type="int" >       53 </v>
  <v type="int" >      124 </v>
  <v type="int" >       90 </v>
  <v type="int" >       84 </v>
  <v type="int" >      111 </v>
  <v type="int" >       80 </v>
  <v type="int" >       93 </v>
  <v type="int" >       60 </v>
  <v type="int" >      135 </v>
  <v type="int" >       54 </v>
  <v type="int" >       15 </v>
  <v type="int" >       52 </v>
  <v type="int" >      108 </v>
  <v type="int" >      123 </v>
  <v type="int" >       42 </v>
  <v type="int" >       41 </v>
  <v type="int" >       61 </v>
  <v type="int" >       75 </v>
  <v type="int" >      110 </v>
  <v type="int" >       57 </v>
  <v type="int" >        2 </v>
  <v type="int" >       16 </v>
  <v type="int" >       32 </v>
  <v type="int" >       65 </v>
  <v type="int" >       91 </v>
  <v type="int" >        4 </v>
  <v type="int" >       40 </v>
  <v type="int" >      103 </v>
  <v type="int" >       67 </v>
  <v type="int" >      113 </v>
  <v type="int" >        5 </v>
  <v type="int" >       50 </v>
  <v type="int" >       45 </v>
  <v type="int" >       95 </v>
  <v type="int" >       28 </v>
  <v type="int" >       72 </v>
  <v type="int" >       71 </v>
  <v type="int" >       58 </v>
  <v type="int" >       79 </v>
  <v type="int" >       87 </v>
  <v type="int" >       83 </v>
  <v type="int" >       47 </v>
  <v type="int" >      120 </v>
  <v type="int" >       26 </v>
  <v type="int" >       10 </v>
  <v type="int" >       46 </v>
  <v type="int" >       70 </v>
  <v type="int" >      132 </v>
  <v type="int" >       24 </v>
  <v type="int" >       55 </v>
  <v type="int" >       64 </v>
  <v type="int" >       38 </v>
  <v type="int" >      126 </v>
  <v type="int" >       69 </v>
  <v type="int" >       97 </v>
  <v type="int" >      118 </v>
  <v type="int" >      125 </v>
  <v type="int" >       85 </v>
  <v type="int" >       18 </v>
  <v type="int" >       34 </v>
  <v type="int" >       59 </v>
  <v type="int" >       44 </v>
  <v type="int" >       92 </v>
  <v type="int" >       76 </v>
  <v type="int" >       12 </v>
  <v type="int" >       11 </v>
  <v type="int" >      122 </v>
  <v type="int" >       98 </v>
  <v type="int" >      102 </v>
  <v type="int" >       81 </v>
  <v type="int" >       19 </v>
  <v type="int" >       13 </v>
  <v type="int" >       36 </v>
  <v type="int" >        7 </v>
  <v type="int" >      109 </v>
  <v type="int" >      128 </v>
  <v type="int" >      101 </v>
  <v type="int" >       35 </v>
  <v type="int" >       74 </v>
 </varray>
 <kpoints>
  <generation param="Gamma">
   <v type="int" name="divisions">       2        2        2 </v>
   <v name="usershift">      0.00000000       0.00000000       0.00000000 </v>
   <v name="genvec1">      0.50000000       0.00000000       0.00000000 </v>
   <v name="genvec2">      0.00000000       0.50000000       0.00000000 </v>
   <v name="genvec3">      0.00000000       0.00000000       0.50000000 </v>
   <v name="shift">      0.00000000       0.00000000       0.00000000 </v>
  </generation>
  <varray name="kpointlist" >
   <v>       0.00000000       0.00000000       0.00000000 </v>
   <v>       0.50000000       0.00000000       0.00000000 </v>
   <v>       0.00000000       0.50000000       0.00000000 </v>
   <v>       0.50000000       0.50000000       0.00000000 </v>
   <v>       0.00000000       0.00000000       0.50000000 </v>
   <v>       0.50000000       0.00000000       0.50000000 </v>
   <v>       0.00000000       0.50000000       0.50000000 </v>
   <v>       0.50000000       0.50000000       0.50000000 </v>
  </varray>
  <varray name="weights" >
   <v>       0.12500000 </v>
   <v>       0.12500000 </v>
   <v>       0.12500000 </v>
   <v>       0.12500000 </v>
   <v>       0.12500000 </v>
   <v>       0.12500000 </v>
   <v>       0.12500000 </v>
   <v>       0.12500000 </v>
  </varray>
 </kpoints>
 <parameters>
  <separator name="general" >
   <i type="string" name="SYSTEM">unknown system</i>
   <i type="logical" name="LCOMPAT"> F  </i>
  </separator>
  <separator name="electronic" >
   <i type="string" name="PREC">a</i>
   <i name="ENMAX">    600.00000000</i>
   <i name="ENAUG">    605.39200000</i>
   <i name="EDIFF">      0.00000100</i>
   <i type="int" name="IALGO">    38</i>
   <i type="int" name="IWAVPR">    10</i>
   <i type="int" name="NBANDS">   520</i>
   <i name="NELECT">    864.00000000</i>
   <i type="int" name="TURBO">     0</i>
   <i type="int" name="IRESTART">     0</i>
   <i type="int" name="NREBOOT">     0</i>
   <i type="int" name="NMIN">     0</i>
   <i name="EREF">      0.00000000</i>
   <separator name="electronic smearing" >
    <i type="int" name="ISMEAR">     0</i>
    <i name="SIGMA">      0.05000000</i>
    <i name="KSPACING">      0.30000000</i>
    <i type="logical" name="KGAMMA"> T  </i>
   </separator>
   <separator name="electronic projectors" >
    <i type="logical" name="LREAL"> T  </i>
    <v name="ROPT">     -0.00025000     -0.00025000     -0.00025000</v>
    <i type="int" name="LMAXPAW">  -100</i>
    <i type="int" name="LMAXMIX">     2</i>
    <i type="logical" name="NLSPLINE"> F  </i>
   </separator>
   <separator name="electronic startup" >
    <i type="int" name="ISTART">     0</i>
    <i type="int" name="ICHARG">     2</i>
    <i type="int" name="INIWAV">     1</i>
   </separator>
   <separator name="electronic spin" >
    <i type="int" name="ISPIN">     1</i>
    <i type="logical" name="LNONCOLLINEAR"> F  </i>
    <v name="MAGMOM">      1.00000000      1.00000000      1.00000000      1.00000000      1.00000000      1.00000000      1.00000000      1.00000000      1.00000000      1.00000000      1.00000000      1.00000000      1.00000000      1.00000000      1.00000000      1.00000000      1.00000000      1.00000000      1.00000000      1.00000000
      1.00000000      1.00000000      1.00000000      1.00000000      1.00000000      1.00000000      1.00000000      1.00000000      1.00000000      1.00000000      1.00000000      1.00000000      1.00000000      1.00000000      1.00000000      1.00000000      1.00000000      1.00000000      1.00000000      1.00000000
      1.00000000      1.00000000      1.00000000      1.00000000      1.00000000      1.00000000      1.00000000      1.00000000      1.00000000      1.00000000      1.00000000      1.00000000      1.00000000      1.00000000      1.00000000      1.00000000      1.00000000      1.00000000      1.00000000      1.00000000
      1.00000000      1.00000000      1.00000000      1.00000000      1.00000000      1.00000000      1.00000000      1.00000000      1.00000000      1.00000000      1.00000000      1.00000000      1.00000000      1.00000000      1.00000000      1.00000000      1.00000000      1.00000000      1.00000000      1.00000000
      1.00000000      1.00000000      1.00000000      1.00000000      1.00000000      1.00000000      1.00000000      1.00000000      1.00000000      1.00000000      1.00000000      1.00000000      1.00000000      1.00000000      1.00000000      1.00000000      1.00000000      1.00000000      1.00000000      1.00000000
      1.00000000      1.00000000      1.00000000      1.00000000      1.00000000      1.00000000      1.00000000      1.00000000      1.00000000      1.00000000      1.00000000      1.00000000      1.00000000      1.00000000      1.00000000      1.00000000      1.00000000      1.00000000      1.00000000      1.00000000
      1.00000000      1.00000000      1.00000000      1.00000000      1.00000000      1.00000000      1.00000000      1.00000000      1.00000000      1.00000000      1.00000000      1.00000000      1.00000000      1.00000000      1.00000000</v>
    <i name="NUPDOWN">     -1.00000000</i>
    <i type="logical" name="LSORBIT"> F  </i>
    <v name="SAXIS">      0.00000000      0.00000000      1.00000000</v>
    <i type="logical" name="LSPIRAL"> F  </i>
    <v name="QSPIRAL">      0.00000000      0.00000000      0.00000000</v>
    <i type="logical" name="LZEROZ"> F  </i>
   </separator>
   <separator name="electronic exchange-correlation" >
    <i type="logical" name="LASPH"> F  </i>
    <i type="logical" name="LMETAGGA"> F  </i>
   </separator>
   <separator name="electronic convergence" >
    <i type="int" name="NELM">    60</i>
    <i type="int" name="NELMDL">    -5</i>
    <i type="int" name="NELMIN">     2</i>
    <i name="ENINI">    600.00000000</i>
    <separator name="electronic convergence detail" >
     <i type="logical" name="LDIAG"> T  </i>
     <i type="logical" name="LSUBROT"> F  </i>
     <i name="WEIMIN">      0.00000000</i>
     <i name="EBREAK">      0.00000000</i>
     <i name="DEPER">      0.30000000</i>
     <i type="int" name="NRMM">     4</i>
     <i name="TIME">      0.40000000</i>
    </separator>
   </separator>
   <separator name="electronic mixer" >
    <i name="AMIX">      0.40000000</i>
    <i name="BMIX">      1.00000000</i>
    <i name="AMIN">      0.10000000</i>
    <i name="AMIX_MAG">      1.60000000</i>
    <i name="BMIX_MAG">      1.00000000</i>
    <separator name="electronic mixer details" >
     <i type="int" name="IMIX">     4</i>
     <i type="logical" name="MIXFIRST"> F  </i>
     <i type="int" name="MAXMIX">   -45</i>
     <i name="WC">    100.00000000</i>
     <i type="int" name="INIMIX">     1</i>
     <i type="int" name="MIXPRE">     1</i>
     <i type="int" name="MREMOVE">     5</i>
    </separator>
   </separator>
   <separator name="electronic dipolcorrection" >
    <i type="logical" name="LDIPOL"> F  </i>
    <i type="logical" name="LMONO"> F  </i>
    <i type="int" name="IDIPOL">     0</i>
    <i name="EPSILON">      1.00000000</i>
    <v name="DIPOL">   -100.00000000   -100.00000000   -100.00000000</v>
    <i name="EFIELD">      0.00000000</i>
   </separator>
  </separator>
  <separator name="grids" >
   <i type="int" name="NGX">   112</i>
   <i type="int" name="NGY">   112</i>
   <i type="int" name="NGZ">   112</i>
   <i type="int" name="NGXF">   224</i>
   <i type="int" name="NGYF">   224</i>
   <i type="int" name="NGZF">   224</i>
   <i type="logical" name="ADDGRID"> T  </i>
  </separator>
  <separator name="ionic" >
   <i type="int" name="NSW">     1</i>
   <i type="int" name="IBRION">    -1</i>
   <i type="int" name="MDALGO">     0</i>
   <i type="int" name="ISIF">     2</i>
   <i name="PSTRESS">      0.00000000</i>
   <i name="EDIFFG">     -0.01000000</i>
   <i type="int" name="NFREE">     0</i>
   <i name="POTIM">      1.00000000</i>
   <i name="SMASS">     -3.00000000</i>
   <i name="SCALEE">      1.00000000</i>
  </separator>
  <separator name="ionic md" >
   <i name="TEBEG">      0.00010000</i>
   <i name="TEEND">      0.00010000</i>
   <i type="int" name="NBLOCK">     1</i>
   <i type="int" name="KBLOCK">     1</i>
   <i type="int" name="NPACO">   256</i>
   <i name="APACO">     16.00000000</i>
  </separator>
  <separator name="symmetry" >
   <i type="int" name="ISYM">     0</i>
   <i name="SYMPREC">      0.00001000</i>
  </separator>
  <separator name="dos" >
   <i type="int" name="LORBIT">     0</i>
   <v name="RWIGS">     -1.00000000     -1.00000000     -1.00000000</v>
   <i type="int" name="NEDOS">   301</i>
   <i name="EMIN">     10.00000000</i>
   <i name="EMAX">    -10.00000000</i>
   <i name="EFERMI">      0.00000000</i>
  </separator>
  <separator name="writing" >
   <i type="int" name="NWRITE">     2</i>
   <i type="logical" name="LWAVE"> F  </i>
   <i type="logical" name="LDOWNSAMPLE"> F  </i>
   <i type="logical" name="LCHARG"> F  </i>
   <i type="logical" name="LPARD"> F  </i>
   <i type="logical" name="LVTOT"> F  </i>
   <i type="logical" name="LVHAR"> F  </i>
   <i type="logical" name="LELF"> F  </i>
   <i type="logical" name="LOPTICS"> F  </i>
   <v name="STM">      0.00000000      0.00000000      0.00000000      0.00000000      0.00000000      0.00000000      0.00000000</v>
  </separator>
  <separator name="performance" >
   <i type="int" name="NPAR">     4</i>
   <i type="int" name="NSIM">     4</i>
   <i type="int" name="NBLK">    -1</i>
   <i type="logical" name="LPLANE"> T  </i>
   <i type="logical" name="LSCALAPACK"> F  </i>
   <i type="logical" name="LSCAAWARE"> F  </i>
   <i type="logical" name="LSCALU"> F  </i>
   <i type="logical" name="LASYNC"> F  </i>
   <i type="logical" name="LORBITALREAL"> F  </i>
  </separator>
  <separator name="miscellaneous" >
   <i type="int" name="IDIOT">     3</i>
   <i type="int" name="ISPECIAL">     0</i>
   <i type="logical" name="LMUSIC"> F  </i>
   <v name="POMASS">     40.07800000     28.08500000     16.00000000</v>
   <v name="DARWINR">      0.00000000      0.00000000      0.00000000</v>
   <v name="DARWINV">      1.00000000      1.00000000      1.00000000</v>
   <i type="logical" name="LCORR"> T  </i>
  </separator>
  <i type="logical" name="GGA_COMPAT"> T  </i>
  <i type="logical" name="LBERRY"> F  </i>
  <i type="int" name="ICORELEVEL">     0</i>
  <i type="logical" name="LDAU"> F  </i>
  <i type="int" name="I_CONSTRAINED_M">     0</i>
  <separator name="electronic exchange-correlation" >
   <i type="string" name="GGA">--</i>
   <i type="int" name="VOSKOWN">     0</i>
   <i type="logical" name="LHFCALC"> F  </i>
   <i type="string" name="PRECFOCK"></i>
   <i type="logical" name="LSYMGRAD"> F  </i>
   <i type="logical" name="LHFONE"> F  </i>
   <i type="logical" name="LRHFCALC"> F  </i>
   <i type="logical" name="LTHOMAS"> F  </i>
   <i type="logical" name="LMODELHF"> F  </i>
   <i name="ENCUT4O">     -1.00000000</i>
   <i type="int" name="EXXOEP">     0</i>
   <i type="int" name="FOURORBIT">     0</i>
   <i name="AEXX">      0.00000000</i>
   <i name="HFALPHA">      0.00000000</i>
   <i name="MCALPHA">      0.00000000</i>
   <i name="ALDAX">      1.00000000</i>
   <i name="AGGAX">      1.00000000</i>
   <i name="ALDAC">      1.00000000</i>
   <i name="AGGAC">      1.00000000</i>
   <i type="int" name="NKREDX">     1</i>
   <i type="int" name="NKREDY">     1</i>
   <i type="int" name="NKREDZ">     1</i>
   <i type="logical" name="SHIFTRED"> F  </i>
   <i type="logical" name="ODDONLY"> F  </i>
   <i type="logical" name="EVENONLY"> F  </i>
   <i type="int" name="LMAXFOCK">     0</i>
   <i type="int" name="NMAXFOCKAE">     0</i>
   <i type="logical" name="LFOCKAEDFT"> F  </i>
   <i name="HFSCREEN">      0.00000000</i>
   <i name="HFSCREENC">      0.00000000</i>
   <i type="int" name="NBANDSGWLOW">     0</i>
  </separator>
  <separator name="vdW DFT" >
   <i type="logical" name="LUSE_VDW"> F  </i>
   <i name="Zab_VDW">     -0.84910000</i>
   <i name="PARAM1">      0.12340000</i>
   <i name="PARAM2">      1.00000000</i>
   <i name="PARAM3">      0.00000000</i>
  </separator>
  <separator name="model GW" >
   <i type="int" name="MODEL_GW">     0</i>
   <i name="MODEL_EPS0">     12.22897398</i>
   <i name="MODEL_ALPHA">      1.00000000</i>
  </separator>
  <separator name="linear response parameters" >
   <i type="logical" name="LEPSILON"> F  </i>
   <i type="logical" name="LRPA"> F  </i>
   <i type="logical" name="LNABLA"> F  </i>
   <i type="logical" name="LVEL"> F  </i>
   <i type="int" name="KINTER">     0</i>
   <i name="CSHIFT">      0.10000000</i>
   <i name="OMEGAMAX">     -1.00000000</i>
   <i name="DEG_THRESHOLD">      0.00200000</i>
   <i name="RTIME">     -0.10000000</i>
   <i name="WPLASMAI">      0.00000000</i>
   <v name="DFIELD">      0.00000000      0.00000000      0.00000000</v>
   <v name="WPLASMA">      0.00000000      0.00000000      0.00000000      0.00000000      0.00000000      0.00000000      0.00000000      0.00000000      0.00000000</v>
  </separator>
  <separator name="orbital magnetization" >
   <i type="logical" name="NUCIND"> F  </i>
   <v name="MAGPOS">      0.00000000      0.00000000      0.00000000</v>
   <i type="logical" name="LNICSALL"> T  </i>
   <i type="logical" name="ORBITALMAG"> F  </i>
   <i type="logical" name="LMAGBLOCH"> F  </i>
   <i type="logical" name="LCHIMAG"> F  </i>
   <i type="logical" name="LGAUGE"> T  </i>
   <i type="int" name="MAGATOM">     0</i>
   <v name="MAGDIPOL">      0.00000000      0.00000000      0.00000000</v>
   <v name="AVECCONST">      0.00000000      0.00000000      0.00000000</v>
  </separator>
  <separator name="response functions" >
   <i type="logical" name="LADDER"> F  </i>
   <i type="logical" name="LRPAFORCE"> F  </i>
   <i type="logical" name="LFXC"> F  </i>
   <i type="logical" name="LHARTREE"> T  </i>
   <i type="int" name="IBSE">     0</i>
   <v type="int" name="KPOINT">    -1     0     0     0</v>
   <i type="logical" name="LTCTE"> F  </i>
   <i type="logical" name="LTETE"> F  </i>
   <i type="logical" name="LTRIPLET"> F  </i>
   <i type="logical" name="LFXCEPS"> F  </i>
   <i type="logical" name="LFXHEG"> F  </i>
   <i type="int" name="NATURALO">     2</i>
   <i type="logical" name="L2ORDER"> F  </i>
   <i type="logical" name="LMP2LT"> F  </i>
   <i type="logical" name="LUSEW"> F  </i>
   <i name="ENCUTGW">     -2.00000000</i>
   <i name="ENCUTGWSOFT">     -2.00000000</i>
   <i name="ENCUTLF">     -1.00000000</i>
   <i type="int" name="LMAXMP2">    -1</i>
   <i name="SCISSOR">      0.00000000</i>
   <i type="int" name="NOMEGA">     0</i>
   <i type="int" name="NOMEGAR">     0</i>
   <i type="int" name="NBANDSGW">    -1</i>
   <i type="int" name="NBANDSO">    -1</i>
   <i type="int" name="NBANDSV">    -1</i>
   <i type="int" name="NELM">     1</i>
   <i type="int" name="NELMHF">     1</i>
   <i type="int" name="DIM">     3</i>
   <i type="int" name="ANTIRES">     0</i>
   <i name="OMEGAMAX">    -30.00000000</i>
   <i name="OMEGAMIN">    -30.00000000</i>
   <i name="OMEGATL">   -200.00000000</i>
   <i type="int" name="OMEGAGRID">   140</i>
   <i name="CSHIFT">     -0.10000000</i>
   <i type="logical" name="SELFENERGY"> F  </i>
   <i type="logical" name="LSPECTRAL"> F  </i>
   <i type="logical" name="LSPECTRALGW"> F  </i>
   <i type="logical" name="LSINGLES"> F  </i>
   <i type="logical" name="LFERMIGW"> F  </i>
   <i type="logical" name="ODDONLYGW"> F  </i>
   <i type="logical" name="EVENONLYGW"> F  </i>
   <i type="int" name="NKREDLFX">     1</i>
   <i type="int" name="NKREDLFY">     1</i>
   <i type="int" name="NKREDLFZ">     1</i>
   <i type="int" name="MAXMEM">  2800</i>
   <i type="int" name="TELESCOPE">     0</i>
   <i type="int" name="TAUPAR">     1</i>
   <i type="int" name="OMEGAPAR">    -1</i>
   <i name="LAMBDA">      1.00000000</i>
  </separator>
  <separator name="External order field" >
   <i name="OFIELD_KAPPA">      0.00000000</i>
   <v name="OFIELD_K">      0.00000000      0.00000000      0.00000000</v>
   <i name="OFIELD_Q6_NEAR">      0.00000000</i>
   <i name="OFIELD_Q6_FAR">      0.00000000</i>
   <i name="OFIELD_A">      0.00000000</i>
  </separator>
 </parameters>
 <atominfo>
  <atoms>     135 </atoms>
  <types>       3 </types>
  <array name="atoms" >
   <dimension dim="1">ion</dimension>
   <field type="string">element</field>
   <field type="int">atomtype</field>
   <set>
    <rc><c>Ca</c><c>   1</c></rc>
    <rc><c>Ca</c><c>   1</c></rc>
    <rc><c>Ca</c><c>   1</c></rc>
    <rc><c>Ca</c><c>   1</c></rc>
    <rc><c>Ca</c><c>   1</c></rc>
    <rc><c>Ca</c><c>   1</c></rc>
    <rc><c>Ca</c><c>   1</c></rc>
    <rc><c>Ca</c><c>   1</c></rc>
    <rc><c>Ca</c><c>   1</c></rc>
    <rc><c>Ca</c><c>   1</c></rc>
    <rc><c>Ca</c><c>   1</c></rc>
    <rc><c>Ca</c><c>   1</c></rc>
    <rc><c>Ca</c><c>   1</c></rc>
    <rc><c>Ca</c><c>   1</c></rc>
    <rc><c>Ca</c><c>   1</c></rc>
    <rc><c>Ca</c><c>   1</c></rc>
    <rc><c>Ca</c><c>   1</c></rc>
    <rc><c>Ca</c><c>   1</c></rc>
    <rc><c>Ca</c><c>   1</c></rc>
    <rc><c>Ca</c><c>   1</c></rc>
    <rc><c>Ca</c><c>   1</c></rc>
    <rc><c>Ca</c><c>   1</c></rc>
    <rc><c>Ca</c><c>   1</c></rc>
    <rc><c>Ca</c><c>   1</c></rc>
    <rc><c>Ca</c><c>   1</c></rc>
    <rc><c>Ca</c><c>   1</c></rc>
    <rc><c>Ca</c><c>   1</c></rc>
    <rc><c>Si</c><c>   2</c></rc>
    <rc><c>Si</c><c>   2</c></rc>
    <rc><c>Si</c><c>   2</c></rc>
    <rc><c>Si</c><c>   2</c></rc>
    <rc><c>Si</c><c>   2</c></rc>
    <rc><c>Si</c><c>   2</c></rc>
    <rc><c>Si</c><c>   2</c></rc>
    <rc><c>Si</c><c>   2</c></rc>
    <rc><c>Si</c><c>   2</c></rc>
    <rc><c>Si</c><c>   2</c></rc>
    <rc><c>Si</c><c>   2</c></rc>
    <rc><c>Si</c><c>   2</c></rc>
    <rc><c>Si</c><c>   2</c></rc>
    <rc><c>Si</c><c>   2</c></rc>
    <rc><c>Si</c><c>   2</c></rc>
    <rc><c>Si</c><c>   2</c></rc>
    <rc><c>Si</c><c>   2</c></rc>
    <rc><c>Si</c><c>   2</c></rc>
    <rc><c>Si</c><c>   2</c></rc>
    <rc><c>Si</c><c>   2</c></rc>
    <rc><c>Si</c><c>   2</c></rc>
    <rc><c>Si</c><c>   2</c></rc>
    <rc><c>Si</c><c>   2</c></rc>
    <rc><c>Si</c><c>   2</c></rc>
    <rc><c>Si</c><c>   2</c></rc>
    <rc><c>Si</c><c>   2</c></rc>
    <rc><c>Si</c><c>   2</c></rc>
    <rc><c>O </c><c>   3</c></rc>
    <rc><c>O </c><c>   3</c></rc>
    <rc><c>O </c><c>   3</c></rc>
    <rc><c>O </c><c>   3</c></rc>
    <rc><c>O </c><c>   3</c></rc>
    <rc><c>O </c><c>   3</c></rc>
    <rc><c>O </c><c>   3</c></rc>
    <rc><c>O </c><c>   3</c></rc>
    <rc><c>O </c><c>   3</c></rc>
    <rc><c>O </c><c>   3</c></rc>
    <rc><c>O </c><c>   3</c></rc>
    <rc><c>O </c><c>   3</c></rc>
    <rc><c>O </c><c>   3</c></rc>
    <rc><c>O </c><c>   3</c></rc>
    <rc><c>O </c><c>   3</c></rc>
    <rc><c>O </c><c>   3</c></rc>
    <rc><c>O </c><c>   3</c></rc>
    <rc><c>O </c><c>   3</c></rc>
    <rc><c>O </c><c>   3</c></rc>
    <rc><c>O </c><c>   3</c></rc>
    <rc><c>O </c><c>   3</c></rc>
    <rc><c>O </c><c>   3</c></rc>
    <rc><c>O </c><c>   3</c></rc>
    <rc><c>O </c><c>   3</c></rc>
    <rc><c>O </c><c>   3</c></rc>
    <rc><c>O </c><c>   3</c></rc>
    <rc><c>O </c><c>   3</c></rc>
    <rc><c>O </c><c>   3</c></rc>
    <rc><c>O </c><c>   3</c></rc>
    <rc><c>O </c><c>   3</c></rc>
    <rc><c>O </c><c>   3</c></rc>
    <rc><c>O </c><c>   3</c></rc>
    <rc><c>O </c><c>   3</c></rc>
    <rc><c>O </c><c>   3</c></rc>
    <rc><c>O </c><c>   3</c></rc>
    <rc><c>O </c><c>   3</c></rc>
    <rc><c>O </c><c>   3</c></rc>
    <rc><c>O </c><c>   3</c></rc>
    <rc><c>O </c><c>   3</c></rc>
    <rc><c>O </c><c>   3</c></rc>
    <rc><c>O </c><c>   3</c></rc>
    <rc><c>O </c><c>   3</c></rc>
    <rc><c>O </c><c>   3</c></rc>
    <rc><c>O </c><c>   3</c></rc>
    <rc><c>O </c><c>   3</c></rc>
    <rc><c>O </c><c>   3</c></rc>
    <rc><c>O </c><c>   3</c></rc>
    <rc><c>O </c><c>   3</c></rc>
    <rc><c>O </c><c>   3</c></rc>
    <rc><c>O </c><c>   3</c></rc>
    <rc><c>O </c><c>   3</c></rc>
    <rc><c>O </c><c>   3</c></rc>
    <rc><c>O </c><c>   3</c></rc>
    <rc><c>O </c><c>   3</c></rc>
    <rc><c>O </c><c>   3</c></rc>
    <rc><c>O </c><c>   3</c></rc>
    <rc><c>O </c><c>   3</c></rc>
    <rc><c>O </c><c>   3</c></rc>
    <rc><c>O </c><c>   3</c></rc>
    <rc><c>O </c><c>   3</c></rc>
    <rc><c>O </c><c>   3</c></rc>
    <rc><c>O </c><c>   3</c></rc>
    <rc><c>O </c><c>   3</c></rc>
    <rc><c>O </c><c>   3</c></rc>
    <rc><c>O </c><c>   3</c></rc>
    <rc><c>O </c><c>   3</c></rc>
    <rc><c>O </c><c>   3</c></rc>
    <rc><c>O </c><c>   3</c></rc>
    <rc><c>O </c><c>   3</c></rc>
    <rc><c>O </c><c>   3</c></rc>
    <rc><c>O </c><c>   3</c></rc>
    <rc><c>O </c><c>   3</c></rc>
    <rc><c>O </c><c>   3</c></rc>
    <rc><c>O </c><c>   3</c></rc>
    <rc><c>O </c><c>   3</c></rc>
    <rc><c>O </c><c>   3</c></rc>
    <rc><c>O </c><c>   3</c></rc>
    <rc><c>O </c><c>   3</c></rc>
    <rc><c>O </c><c>   3</c></rc>
    <rc><c>O </c><c>   3</c></rc>
    <rc><c>O </c><c>   3</c></rc>
   </set>
  </array>
  <array name="atomtypes" >
   <dimension dim="1">type</dimension>
   <field type="int">atomspertype</field>
   <field type="string">element</field>
   <field>mass</field>
   <field>valence</field>
   <field type="string">pseudopotential</field>
   <set>
    <rc><c>  27</c><c>Ca</c><c>     40.07800000</c><c>     10.00000000</c><c>  PAW_PBE Ca_sv 06Sep2000               </c></rc>
    <rc><c>  27</c><c>Si</c><c>     28.08500000</c><c>      4.00000000</c><c>  PAW_PBE Si 05Jan2001                  </c></rc>
    <rc><c>  81</c><c>O </c><c>     16.00000000</c><c>      6.00000000</c><c>  PAW_PBE O 08Apr2002                   </c></rc>
   </set>
  </array>
 </atominfo>
 <structure name="initialpos" >
  <crystal>
   <varray name="basis" >
    <v>      14.01277600       0.00000000       0.00000000 </v>
    <v>       0.00000000      14.01277600       0.00000000 </v>
    <v>       0.00000000       0.00000000      14.01277600 </v>
   </varray>
   <i name="volume">   2751.51914558 </i>
   <varray name="rec_basis" >
    <v>       0.07136345       0.00000000       0.00000000 </v>
    <v>       0.00000000       0.07136345       0.00000000 </v>
    <v>       0.00000000       0.00000000       0.07136345 </v>
   </varray>
  </crystal>
  <varray name="positions" >
   <v>       0.12780389       0.93846596       0.23032878 </v>
   <v>       0.73080187       0.86907611       0.87787100 </v>
   <v>       0.93070573       0.24541512       0.95315879 </v>
   <v>       0.35771433       0.38573089       0.02827948 </v>
   <v>       0.07813334       0.18645113       0.74007213 </v>
   <v>       0.03085850       0.51458826       0.41028543 </v>
   <v>       0.41892980       0.52347855       0.73803402 </v>
   <v>       0.90665854       0.22279941       0.40453359 </v>
   <v>       0.46471007       0.03745822       0.27680532 </v>
   <v>       0.48780778       0.79488737       0.68264597 </v>
   <v>       0.77391110       0.51194475       0.58991497 </v>
   <v>       0.98854288       0.43870326       0.82575831 </v>
   <v>       0.63376755       0.48340595       0.04902362 </v>
   <v>       0.69259789       0.06924600       0.21520602 </v>
   <v>       0.38512106       0.11606533       0.63244811 </v>
   <v>       0.74784005       0.55598873       0.22093212 </v>
   <v>       0.17638817       0.93073193       0.92232639 </v>
   <v>       0.79542917       0.59542505       0.83887065 </v>
   <v>       0.67053839       0.19012967       0.77239244 </v>
   <v>       0.86407161       0.89556559       0.47004555 </v>
   <v>       0.95945414       0.77185590       0.90984123 </v>
   <v>       0.95573031       0.31493903       0.24352513 </v>
   <v>       0.40875761       0.73369805       0.27498066 </v>
   <v>       0.39216542       0.44994907       0.45810354 </v>
   <v>       0.50614106       0.84351105       0.03235776 </v>
   <v>       0.53072102       0.35058762       0.37575999 </v>
   <v>       0.14303020       0.57533490       0.08456633 </v>
   <v>       0.76109862       0.77251361       0.64097450 </v>
   <v>       0.41559570       0.64464264       0.10420592 </v>
   <v>       0.28417868       0.22811400       0.49554138 </v>
   <v>       0.16707794       0.38650767       0.16865850 </v>
   <v>       0.02806579       0.63636542       0.66726104 </v>
   <v>       0.11690080       0.25396972       0.02072465 </v>
   <v>       0.80718512       0.26997029       0.66191009 </v>
   <v>       0.60516956       0.40310005       0.83495766 </v>
   <v>       0.57459489       0.51522725       0.56121903 </v>
   <v>       0.24321966       0.74851459       0.96499718 </v>
   <v>       0.20774562       0.41454809       0.59739580 </v>
   <v>       0.84562472       0.89932704       0.09861594 </v>
   <v>       0.76503571       0.34021227       0.19569127 </v>
   <v>       0.52625704       0.24868884       0.12396821 </v>
   <v>       0.94722247       0.00519875       0.75178288 </v>
   <v>       0.82822304       0.69229000       0.11654003 </v>
   <v>       0.57026244       0.71377668       0.83547780 </v>
   <v>       0.54468830       0.00180325       0.86283921 </v>
   <v>       0.45134406       0.27807028       0.85982886 </v>
   <v>       0.69648651       0.22889042       0.50640476 </v>
   <v>       0.20758290       0.34782097       0.38162861 </v>
   <v>       0.32141556       0.94601060       0.18955151 </v>
   <v>       0.53936213       0.57821182       0.32691127 </v>
   <v>       0.22100227       0.02809594       0.59348551 </v>
   <v>       0.57781862       0.00460667       0.45977434 </v>
   <v>       0.35351940       0.94788172       0.80846944 </v>
   <v>       0.92251049       0.54682243       0.98225051 </v>
   <v>       0.51027453       0.47974207       0.29520796 </v>
   <v>       0.16953955       0.33099601       0.27616875 </v>
   <v>       0.17998221       0.39122450       0.49886601 </v>
   <v>       0.28128430       0.50414226       0.58332796 </v>
   <v>       0.56847797       0.53975066       0.44996622 </v>
   <v>       0.73090168       0.67939333       0.06175614 </v>
   <v>       0.42862217       0.55080335       0.04745092 </v>
   <v>       0.79463248       0.21389550       0.18017341 </v>
   <v>       0.30877627       0.00626316       0.89763094 </v>
   <v>       0.84651067       0.34266069       0.57455551 </v>
   <v>       0.85581450       0.40438672       0.26644738 </v>
   <v>       0.18362190       0.81695091       0.22974736 </v>
   <v>       0.65592200       0.93536160       0.51201922 </v>
   <v>       0.39508699       0.62611454       0.22156113 </v>
   <v>       0.46061089       0.70242005       0.77954947 </v>
   <v>       0.82926430       0.17610112       0.69052664 </v>
   <v>       0.60745238       0.61542762       0.23813589 </v>
   <v>       0.70357094       0.72069017       0.55720550 </v>
   <v>       0.80498961       0.96280043       0.17496141 </v>
   <v>       0.63455725       0.44915111       0.63131855 </v>
   <v>       0.37746697       0.29646383       0.52241803 </v>
   <v>       0.13234643       0.37493292       0.70214639 </v>
   <v>       0.93210521       0.66200091       0.02579989 </v>
   <v>       0.32765823       0.33314414       0.34942279 </v>
   <v>       0.91391213       0.61662804       0.66494015 </v>
   <v>       0.27910330       0.96361460       0.70650112 </v>
   <v>       0.68333650       0.37560438       0.92911367 </v>
   <v>       0.13359429       0.97952081       0.56195840 </v>
   <v>       0.47005792       0.14228267       0.80004798 </v>
   <v>       0.83088205       0.58416161       0.40501002 </v>
   <v>       0.65652269       0.05139539       0.84967675 </v>
   <v>       0.20118420       0.23811587       0.41120455 </v>
   <v>       0.60154618       0.73321959       0.95256389 </v>
   <v>       0.06076011       0.66445298       0.54587316 </v>
   <v>       0.34602499       0.12154440       0.48379752 </v>
   <v>       0.60436411       0.99887842       0.32484425 </v>
   <v>       0.01402647       0.29719756       0.84049349 </v>
   <v>       0.47894045       0.56330498       0.61210090 </v>
   <v>       0.54982151       0.10647325       0.44466230 </v>
   <v>       0.95014528       0.94839613       0.33061754 </v>
   <v>       0.46203014       0.98131672       0.77145423 </v>
   <v>       0.06547979       0.32930368       0.12771794 </v>
   <v>       0.62597814       0.28649779       0.16486787 </v>
   <v>       0.62717291       0.31862140       0.48615327 </v>
   <v>       0.11109509       0.74248345       0.98114395 </v>
   <v>       0.87602067       0.66827793       0.20273966 </v>
   <v>       0.56571676       0.30580749       0.77978629 </v>
   <v>       0.78739900       0.32015985       0.77330222 </v>
   <v>       0.85675515       0.74074306       0.79938961 </v>
   <v>       0.47828560       0.66933532       0.37017500 </v>
   <v>       0.99332267       0.32448881       0.39004194 </v>
   <v>       0.74998785       0.86152167       0.05053463 </v>
   <v>       0.41139237       0.90229801       0.17812764 </v>
   <v>       0.81230702       0.87498569       0.62585548 </v>
   <v>       0.50403495       0.46333146       0.85360165 </v>
   <v>       0.26027575       0.43840241       0.12097579 </v>
   <v>       0.96444923       0.11943865       0.79858965 </v>
   <v>       0.93301850       0.03989830       0.26677091 </v>
   <v>       0.48272615       0.34817462       0.13571177 </v>
   <v>       0.29311205       0.00831343       0.27489392 </v>
   <v>       0.17866419       0.31990260       0.96450900 </v>
   <v>       0.47970013       0.95754213       0.95007467 </v>
   <v>       0.24608749       0.00731895       0.10145240 </v>
   <v>       0.86638732       0.47114281       0.93251991 </v>
   <v>       0.23956378       0.19424772       0.60201201 </v>
   <v>       0.33627868       0.30943880       0.82151677 </v>
   <v>       0.93840405       0.86029176       0.05686199 </v>
   <v>       0.60453114       0.80584680       0.78663713 </v>
   <v>       0.01315927       0.53406734       0.93647545 </v>
   <v>       0.75694186       0.19880930       0.41444936 </v>
   <v>       0.70148212       0.16547177       0.60922459 </v>
   <v>       0.78407225       0.45198590       0.11604633 </v>
   <v>       0.34339237       0.81275179       0.01597506 </v>
   <v>       0.65890500       0.62929842       0.78549301 </v>
   <v>       0.04541743       0.18110390       0.02275578 </v>
   <v>       0.95305538       0.99901961       0.63160770 </v>
   <v>       0.08082277       0.48077225       0.21846299 </v>
   <v>       0.09714222       0.59508961       0.74017962 </v>
   <v>       0.50895895       0.12602659       0.12742972 </v>
   <v>       0.98628067       0.92542003       0.84123294 </v>
   <v>       0.43745692       0.24198180       0.97442544 </v>
  </varray>
  <varray name="velocities" >
   <v>       0.00000000       0.00000000       0.00000000 </v>
   <v>       0.00000000       0.00000000       0.00000000 </v>
   <v>       0.00000000       0.00000000       0.00000000 </v>
   <v>       0.00000000       0.00000000       0.00000000 </v>
   <v>       0.00000000       0.00000000       0.00000000 </v>
   <v>       0.00000000       0.00000000       0.00000000 </v>
   <v>       0.00000000       0.00000000       0.00000000 </v>
   <v>       0.00000000       0.00000000       0.00000000 </v>
   <v>       0.00000000       0.00000000       0.00000000 </v>
   <v>       0.00000000       0.00000000       0.00000000 </v>
   <v>       0.00000000       0.00000000       0.00000000 </v>
   <v>       0.00000000       0.00000000       0.00000000 </v>
   <v>       0.00000000       0.00000000       0.00000000 </v>
   <v>       0.00000000       0.00000000       0.00000000 </v>
   <v>       0.00000000       0.00000000       0.00000000 </v>
   <v>       0.00000000       0.00000000       0.00000000 </v>
   <v>       0.00000000       0.00000000       0.00000000 </v>
   <v>       0.00000000       0.00000000       0.00000000 </v>
   <v>       0.00000000       0.00000000       0.00000000 </v>
   <v>       0.00000000       0.00000000       0.00000000 </v>
   <v>       0.00000000       0.00000000       0.00000000 </v>
   <v>       0.00000000       0.00000000       0.00000000 </v>
   <v>       0.00000000       0.00000000       0.00000000 </v>
   <v>       0.00000000       0.00000000       0.00000000 </v>
   <v>       0.00000000       0.00000000       0.00000000 </v>
   <v>       0.00000000       0.00000000       0.00000000 </v>
   <v>       0.00000000       0.00000000       0.00000000 </v>
   <v>       0.00000000       0.00000000       0.00000000 </v>
   <v>       0.00000000       0.00000000       0.00000000 </v>
   <v>       0.00000000       0.00000000       0.00000000 </v>
   <v>       0.00000000       0.00000000       0.00000000 </v>
   <v>       0.00000000       0.00000000       0.00000000 </v>
   <v>       0.00000000       0.00000000       0.00000000 </v>
   <v>       0.00000000       0.00000000       0.00000000 </v>
   <v>       0.00000000       0.00000000       0.00000000 </v>
   <v>       0.00000000       0.00000000       0.00000000 </v>
   <v>       0.00000000       0.00000000       0.00000000 </v>
   <v>       0.00000000       0.00000000       0.00000000 </v>
   <v>       0.00000000       0.00000000       0.00000000 </v>
   <v>       0.00000000       0.00000000       0.00000000 </v>
   <v>       0.00000000       0.00000000       0.00000000 </v>
   <v>       0.00000000       0.00000000       0.00000000 </v>
   <v>       0.00000000       0.00000000       0.00000000 </v>
   <v>       0.00000000       0.00000000       0.00000000 </v>
   <v>       0.00000000       0.00000000       0.00000000 </v>
   <v>       0.00000000       0.00000000       0.00000000 </v>
   <v>       0.00000000       0.00000000       0.00000000 </v>
   <v>       0.00000000       0.00000000       0.00000000 </v>
   <v>       0.00000000       0.00000000       0.00000000 </v>
   <v>       0.00000000       0.00000000       0.00000000 </v>
   <v>       0.00000000       0.00000000       0.00000000 </v>
   <v>       0.00000000       0.00000000       0.00000000 </v>
   <v>       0.00000000       0.00000000       0.00000000 </v>
   <v>       0.00000000       0.00000000       0.00000000 </v>
   <v>       0.00000000       0.00000000       0.00000000 </v>
   <v>       0.00000000       0.00000000       0.00000000 </v>
   <v>       0.00000000       0.00000000       0.00000000 </v>
   <v>       0.00000000       0.00000000       0.00000000 </v>
   <v>       0.00000000       0.00000000       0.00000000 </v>
   <v>       0.00000000       0.00000000       0.00000000 </v>
   <v>       0.00000000       0.00000000       0.00000000 </v>
   <v>       0.00000000       0.00000000       0.00000000 </v>
   <v>       0.00000000       0.00000000       0.00000000 </v>
   <v>       0.00000000       0.00000000       0.00000000 </v>
   <v>       0.00000000       0.00000000       0.00000000 </v>
   <v>       0.00000000       0.00000000       0.00000000 </v>
   <v>       0.00000000       0.00000000       0.00000000 </v>
   <v>       0.00000000       0.00000000       0.00000000 </v>
   <v>       0.00000000       0.00000000       0.00000000 </v>
   <v>       0.00000000       0.00000000       0.00000000 </v>
   <v>       0.00000000       0.00000000       0.00000000 </v>
   <v>       0.00000000       0.00000000       0.00000000 </v>
   <v>       0.00000000       0.00000000       0.00000000 </v>
   <v>       0.00000000       0.00000000       0.00000000 </v>
   <v>       0.00000000       0.00000000       0.00000000 </v>
   <v>       0.00000000       0.00000000       0.00000000 </v>
   <v>       0.00000000       0.00000000       0.00000000 </v>
   <v>       0.00000000       0.00000000       0.00000000 </v>
   <v>       0.00000000       0.00000000       0.00000000 </v>
   <v>       0.00000000       0.00000000       0.00000000 </v>
   <v>       0.00000000       0.00000000       0.00000000 </v>
   <v>       0.00000000       0.00000000       0.00000000 </v>
   <v>       0.00000000       0.00000000       0.00000000 </v>
   <v>       0.00000000       0.00000000       0.00000000 </v>
   <v>       0.00000000       0.00000000       0.00000000 </v>
   <v>       0.00000000       0.00000000       0.00000000 </v>
   <v>       0.00000000       0.00000000       0.00000000 </v>
   <v>       0.00000000       0.00000000       0.00000000 </v>
   <v>       0.00000000       0.00000000       0.00000000 </v>
   <v>       0.00000000       0.00000000       0.00000000 </v>
   <v>       0.00000000       0.00000000       0.00000000 </v>
   <v>       0.00000000       0.00000000       0.00000000 </v>
   <v>       0.00000000       0.00000000       0.00000000 </v>
   <v>       0.00000000       0.00000000       0.00000000 </v>
   <v>       0.00000000       0.00000000       0.00000000 </v>
   <v>       0.00000000       0.00000000       0.00000000 </v>
   <v>       0.00000000       0.00000000       0.00000000 </v>
   <v>       0.00000000       0.00000000       0.00000000 </v>
   <v>       0.00000000       0.00000000       0.00000000 </v>
   <v>       0.00000000       0.00000000       0.00000000 </v>
   <v>       0.00000000       0.00000000       0.00000000 </v>
   <v>       0.00000000       0.00000000       0.00000000 </v>
   <v>       0.00000000       0.00000000       0.00000000 </v>
   <v>       0.00000000       0.00000000       0.00000000 </v>
   <v>       0.00000000       0.00000000       0.00000000 </v>
   <v>       0.00000000       0.00000000       0.00000000 </v>
   <v>       0.00000000       0.00000000       0.00000000 </v>
   <v>       0.00000000       0.00000000       0.00000000 </v>
   <v>       0.00000000       0.00000000       0.00000000 </v>
   <v>       0.00000000       0.00000000       0.00000000 </v>
   <v>       0.00000000       0.00000000       0.00000000 </v>
   <v>       0.00000000       0.00000000       0.00000000 </v>
   <v>       0.00000000       0.00000000       0.00000000 </v>
   <v>       0.00000000       0.00000000       0.00000000 </v>
   <v>       0.00000000       0.00000000       0.00000000 </v>
   <v>       0.00000000       0.00000000       0.00000000 </v>
   <v>       0.00000000       0.00000000       0.00000000 </v>
   <v>       0.00000000       0.00000000       0.00000000 </v>
   <v>       0.00000000       0.00000000       0.00000000 </v>
   <v>       0.00000000       0.00000000       0.00000000 </v>
   <v>       0.00000000       0.00000000       0.00000000 </v>
   <v>       0.00000000       0.00000000       0.00000000 </v>
   <v>       0.00000000       0.00000000       0.00000000 </v>
   <v>       0.00000000       0.00000000       0.00000000 </v>
   <v>       0.00000000       0.00000000       0.00000000 </v>
   <v>       0.00000000       0.00000000       0.00000000 </v>
   <v>       0.00000000       0.00000000       0.00000000 </v>
   <v>       0.00000000       0.00000000       0.00000000 </v>
   <v>       0.00000000       0.00000000       0.00000000 </v>
   <v>       0.00000000       0.00000000       0.00000000 </v>
   <v>       0.00000000       0.00000000       0.00000000 </v>
   <v>       0.00000000       0.00000000       0.00000000 </v>
   <v>       0.00000000       0.00000000       0.00000000 </v>
   <v>       0.00000000       0.00000000       0.00000000 </v>
   <v>       0.00000000       0.00000000       0.00000000 </v>
  </varray>
 </structure>
 <calculation>
  <scstep>
   <time name="dav">   54.33   54.34</time>
   <time name="total">   54.93   54.94</time>
   <energy>
    <i name="alphaZ">   1736.69897902 </i>
    <i name="ewald"> -30068.31576990 </i>
    <i name="hartreedc"> -29479.95549221 </i>
    <i name="XCdc">   3104.48558224 </i>
    <i name="pawpsdc">  50594.51003143 </i>
    <i name="pawaedc"> -49994.65612350 </i>
    <i name="eentropy">     -0.03659265 </i>
    <i name="bandstr">  -1738.66616724 </i>
    <i name="atom">  64968.54023382 </i>
    <i name="e_fr_energy">   9122.60468102 </i>
    <i name="e_wo_entrp">   9122.64127367 </i>
    <i name="e_0_energy">   9122.62297735 </i>
   </energy>
  </scstep>
  <scstep>
   <time name="dav">   64.76   64.78</time>
   <time name="total">   64.77   64.78</time>
   <energy>
    <i name="e_fr_energy">     95.75602212 </i>
    <i name="e_wo_entrp">     95.76225570 </i>
    <i name="e_0_energy">     95.75913891 </i>
   </energy>
  </scstep>
  <scstep>
   <time name="dav">   64.61   64.62</time>
   <time name="total">   64.61   64.63</time>
   <energy>
    <i name="e_fr_energy">   -966.62141400 </i>
    <i name="e_wo_entrp">   -966.62141400 </i>
    <i name="e_0_energy">   -966.62141400 </i>
   </energy>
  </scstep>
  <scstep>
   <time name="dav">   67.64   67.65</time>
   <time name="total">   67.64   67.65</time>
   <energy>
    <i name="e_fr_energy">  -1015.92194549 </i>
    <i name="e_wo_entrp">  -1015.92194549 </i>
    <i name="e_0_energy">  -1015.92194549 </i>
   </energy>
  </scstep>
  <scstep>
   <time name="dav">   88.29   88.30</time>
   <time name="total">   90.94   90.96</time>
   <energy>
    <i name="e_fr_energy">  -1022.76461540 </i>
    <i name="e_wo_entrp">  -1022.76461540 </i>
    <i name="e_0_energy">  -1022.76461540 </i>
   </energy>
  </scstep>
  <scstep>
   <time name="dav">   62.87   62.87</time>
   <time name="total">   66.17   66.18</time>
   <energy>
    <i name="e_fr_energy">   -864.67438190 </i>
    <i name="e_wo_entrp">   -864.65964678 </i>
    <i name="e_0_energy">   -864.66701434 </i>
   </energy>
  </scstep>
  <scstep>
   <time name="dav">   65.45   65.45</time>
   <time name="total">   68.74   68.77</time>
   <energy>
    <i name="e_fr_energy">   -870.53561951 </i>
    <i name="e_wo_entrp">   -870.53049236 </i>
    <i name="e_0_energy">   -870.53305593 </i>
   </energy>
  </scstep>
  <scstep>
   <time name="dav">   69.14   69.15</time>
   <time name="total">   72.32   72.34</time>
   <energy>
    <i name="e_fr_energy">   -853.55795455 </i>
    <i name="e_wo_entrp">   -853.55787497 </i>
    <i name="e_0_energy">   -853.55791476 </i>
   </energy>
  </scstep>
  <scstep>
   <time name="dav">   71.19   71.19</time>
   <time name="total">   74.37   74.39</time>
   <energy>
    <i name="e_fr_energy">   -846.44183276 </i>
    <i name="e_wo_entrp">   -846.40668097 </i>
    <i name="e_0_energy">   -846.42425687 </i>
   </energy>
  </scstep>
  <scstep>
   <time name="dav">   69.03   69.03</time>
   <time name="total">   72.32   72.33</time>
   <energy>
    <i name="e_fr_energy">   -845.35377926 </i>
    <i name="e_wo_entrp">   -845.31742191 </i>
    <i name="e_0_energy">   -845.33560058 </i>
   </energy>
  </scstep>
  <scstep>
   <time name="dav">   67.60   67.60</time>
   <time name="total">   70.89   70.90</time>
   <energy>
    <i name="e_fr_energy">   -851.70588485 </i>
    <i name="e_wo_entrp">   -851.68681663 </i>
    <i name="e_0_energy">   -851.69635074 </i>
   </energy>
  </scstep>
  <scstep>
   <time name="dav">   69.92   69.92</time>
   <time name="total">   73.15   73.17</time>
   <energy>
    <i name="e_fr_energy">   -842.80769575 </i>
    <i name="e_wo_entrp">   -842.73366346 </i>
    <i name="e_0_energy">   -842.77067960 </i>
   </energy>
  </scstep>
  <scstep>
   <time name="dav">   64.45   64.46</time>
   <time name="total">   67.71   67.73</time>
   <energy>
    <i name="e_fr_energy">   -841.91625503 </i>
    <i name="e_wo_entrp">   -841.85488444 </i>
    <i name="e_0_energy">   -841.88556974 </i>
   </energy>
  </scstep>
  <scstep>
   <time name="dav">   69.78   69.78</time>
   <time name="total">   73.07   73.08</time>
   <energy>
    <i name="e_fr_energy">   -841.62157981 </i>
    <i name="e_wo_entrp">   -841.57516383 </i>
    <i name="e_0_energy">   -841.59837182 </i>
   </energy>
  </scstep>
  <scstep>
   <time name="dav">   70.08   70.09</time>
   <time name="total">   73.34   73.36</time>
   <energy>
    <i name="e_fr_energy">   -841.39490790 </i>
    <i name="e_wo_entrp">   -841.34403314 </i>
    <i name="e_0_energy">   -841.36947052 </i>
   </energy>
  </scstep>
  <scstep>
   <time name="dav">   65.34   65.34</time>
   <time name="total">   68.60   68.62</time>
   <energy>
    <i name="e_fr_energy">   -841.31209737 </i>
    <i name="e_wo_entrp">   -841.22405852 </i>
    <i name="e_0_energy">   -841.26807795 </i>
   </energy>
  </scstep>
  <scstep>
   <time name="dav">   69.00   69.00</time>
   <time name="total">   72.24   72.26</time>
   <energy>
    <i name="e_fr_energy">   -841.32761301 </i>
    <i name="e_wo_entrp">   -841.27604136 </i>
    <i name="e_0_energy">   -841.30182719 </i>
   </energy>
  </scstep>
  <scstep>
   <time name="dav">   58.59   58.59</time>
   <time name="total">   61.77   61.78</time>
   <energy>
    <i name="e_fr_energy">   -841.25013347 </i>
    <i name="e_wo_entrp">   -841.19614984 </i>
    <i name="e_0_energy">   -841.22314165 </i>
   </energy>
  </scstep>
  <scstep>
   <time name="dav">   69.39   69.38</time>
   <time name="total">   72.57   72.58</time>
   <energy>
    <i name="e_fr_energy">   -841.05720594 </i>
    <i name="e_wo_entrp">   -841.00633318 </i>
    <i name="e_0_energy">   -841.03176956 </i>
   </energy>
  </scstep>
  <scstep>
   <time name="dav">   69.44   69.44</time>
   <time name="total">   72.67   72.69</time>
   <energy>
    <i name="e_fr_energy">   -841.30694966 </i>
    <i name="e_wo_entrp">   -841.23450206 </i>
    <i name="e_0_energy">   -841.27072586 </i>
   </energy>
  </scstep>
  <scstep>
   <time name="dav">   58.10   58.10</time>
   <time name="total">   61.29   61.31</time>
   <energy>
    <i name="e_fr_energy">   -841.00210224 </i>
    <i name="e_wo_entrp">   -840.93368186 </i>
    <i name="e_0_energy">   -840.96789205 </i>
   </energy>
  </scstep>
  <scstep>
   <time name="dav">   68.87   68.87</time>
   <time name="total">   72.06   72.07</time>
   <energy>
    <i name="e_fr_energy">   -840.87068494 </i>
    <i name="e_wo_entrp">   -840.80672946 </i>
    <i name="e_0_energy">   -840.83870720 </i>
   </energy>
  </scstep>
  <scstep>
   <time name="dav">   65.13   65.13</time>
   <time name="total">   68.36   68.38</time>
   <energy>
    <i name="e_fr_energy">   -840.87661033 </i>
    <i name="e_wo_entrp">   -840.81161218 </i>
    <i name="e_0_energy">   -840.84411126 </i>
   </energy>
  </scstep>
  <scstep>
   <time name="dav">   70.02   70.02</time>
   <time name="total">   73.28   73.30</time>
   <energy>
    <i name="e_fr_energy">   -840.94845502 </i>
    <i name="e_wo_entrp">   -840.91010771 </i>
    <i name="e_0_energy">   -840.92928137 </i>
   </energy>
  </scstep>
  <scstep>
   <time name="dav">   58.28   58.28</time>
   <time name="total">   61.45   61.46</time>
   <energy>
    <i name="e_fr_energy">   -840.81391340 </i>
    <i name="e_wo_entrp">   -840.76770811 </i>
    <i name="e_0_energy">   -840.79081076 </i>
   </energy>
  </scstep>
  <scstep>
   <time name="dav">   70.10   70.10</time>
   <time name="total">   73.33   73.35</time>
   <energy>
    <i name="e_fr_energy">   -843.38852172 </i>
    <i name="e_wo_entrp">   -843.38852157 </i>
    <i name="e_0_energy">   -843.38852164 </i>
   </energy>
  </scstep>
  <scstep>
   <time name="dav">   62.18   62.18</time>
   <time name="total">   65.40   65.41</time>
   <energy>
    <i name="e_fr_energy">   -842.07256965 </i>
    <i name="e_wo_entrp">   -842.03139813 </i>
    <i name="e_0_energy">   -842.05198389 </i>
   </energy>
  </scstep>
  <scstep>
   <time name="dav">   64.09   64.09</time>
   <time name="total">   67.33   67.34</time>
   <energy>
    <i name="e_fr_energy">   -842.03045753 </i>
    <i name="e_wo_entrp">   -841.97362272 </i>
    <i name="e_0_energy">   -842.00204012 </i>
   </energy>
  </scstep>
  <scstep>
   <time name="dav">   72.86   72.86</time>
   <time name="total">   76.09   76.10</time>
   <energy>
    <i name="e_fr_energy">   -841.53555971 </i>
    <i name="e_wo_entrp">   -841.47759213 </i>
    <i name="e_0_energy">   -841.50657592 </i>
   </energy>
  </scstep>
  <scstep>
   <time name="dav">   64.32   64.32</time>
   <time name="total">   67.48   67.49</time>
   <energy>
    <i name="e_fr_energy">   -841.22247331 </i>
    <i name="e_wo_entrp">   -841.14832958 </i>
    <i name="e_0_energy">   -841.18540144 </i>
   </energy>
  </scstep>
  <scstep>
   <time name="dav">   68.47   68.46</time>
   <time name="total">   71.67   71.69</time>
   <energy>
    <i name="e_fr_energy">   -841.05101282 </i>
    <i name="e_wo_entrp">   -840.99053637 </i>
    <i name="e_0_energy">   -841.02077459 </i>
   </energy>
  </scstep>
  <scstep>
   <time name="dav">   63.08   63.08</time>
   <time name="total">   66.25   66.26</time>
   <energy>
    <i name="e_fr_energy">   -840.76105368 </i>
    <i name="e_wo_entrp">   -840.64460682 </i>
    <i name="e_0_energy">   -840.70283025 </i>
   </energy>
  </scstep>
  <scstep>
   <time name="dav">   64.37   64.37</time>
   <time name="total">   67.63   67.65</time>
   <energy>
    <i name="e_fr_energy">   -840.80487418 </i>
    <i name="e_wo_entrp">   -840.71872530 </i>
    <i name="e_0_energy">   -840.76179974 </i>
   </energy>
  </scstep>
  <scstep>
   <time name="dav">   64.83   64.83</time>
   <time name="total">   68.05   68.07</time>
   <energy>
    <i name="e_fr_energy">   -840.68222838 </i>
    <i name="e_wo_entrp">   -840.57372829 </i>
    <i name="e_0_energy">   -840.62797834 </i>
   </energy>
  </scstep>
  <scstep>
   <time name="dav">   60.83   60.83</time>
   <time name="total">   64.11   64.13</time>
   <energy>
    <i name="e_fr_energy">   -840.65419175 </i>
    <i name="e_wo_entrp">   -840.52878826 </i>
    <i name="e_0_energy">   -840.59149001 </i>
   </energy>
  </scstep>
  <scstep>
   <time name="dav">   63.00   63.00</time>
   <time name="total">   66.21   66.22</time>
   <energy>
    <i name="e_fr_energy">   -840.87831659 </i>
    <i name="e_wo_entrp">   -840.79787634 </i>
    <i name="e_0_energy">   -840.83809646 </i>
   </energy>
  </scstep>
  <scstep>
   <time name="dav">   58.87   58.87</time>
   <time name="total">   62.13   62.15</time>
   <energy>
    <i name="e_fr_energy">   -840.66607587 </i>
    <i name="e_wo_entrp">   -840.56305269 </i>
    <i name="e_0_energy">   -840.61456428 </i>
   </energy>
  </scstep>
  <scstep>
   <time name="dav">   59.07   59.07</time>
   <time name="total">   62.36   62.38</time>
   <energy>
    <i name="e_fr_energy">   -840.69570606 </i>
    <i name="e_wo_entrp">   -840.58315544 </i>
    <i name="e_0_energy">   -840.63943075 </i>
   </energy>
  </scstep>
  <scstep>
   <time name="dav">   65.06   65.05</time>
   <time name="total">   68.32   68.33</time>
   <energy>
    <i name="e_fr_energy">   -840.69083371 </i>
    <i name="e_wo_entrp">   -840.58920516 </i>
    <i name="e_0_energy">   -840.64001944 </i>
   </energy>
  </scstep>
  <scstep>
   <time name="dav">   65.36   65.36</time>
   <time name="total">   68.65   68.66</time>
   <energy>
    <i name="e_fr_energy">   -840.65718100 </i>
    <i name="e_wo_entrp">   -840.54443304 </i>
    <i name="e_0_energy">   -840.60080702 </i>
   </energy>
  </scstep>
  <scstep>
   <time name="dav">   57.85   57.85</time>
   <time name="total">   61.13   61.15</time>
   <energy>
    <i name="e_fr_energy">   -840.63102514 </i>
    <i name="e_wo_entrp">   -840.51210671 </i>
    <i name="e_0_energy">   -840.57156593 </i>
   </energy>
  </scstep>
  <scstep>
   <time name="dav">   66.18   66.19</time>
   <time name="total">   69.43   69.45</time>
   <energy>
    <i name="e_fr_energy">   -840.62453065 </i>
    <i name="e_wo_entrp">   -840.49852747 </i>
    <i name="e_0_energy">   -840.56152906 </i>
   </energy>
  </scstep>
  <scstep>
   <time name="dav">   58.35   58.35</time>
   <time name="total">   61.59   61.60</time>
   <energy>
    <i name="e_fr_energy">   -840.62512443 </i>
    <i name="e_wo_entrp">   -840.49649220 </i>
    <i name="e_0_energy">   -840.56080831 </i>
   </energy>
  </scstep>
  <scstep>
   <time name="dav">   67.36   67.36</time>
   <time name="total">   70.55   70.56</time>
   <energy>
    <i name="e_fr_energy">   -840.63417360 </i>
    <i name="e_wo_entrp">   -840.51841291 </i>
    <i name="e_0_energy">   -840.57629325 </i>
   </energy>
  </scstep>
  <scstep>
   <time name="dav">   56.86   56.86</time>
   <time name="total">   60.11   60.12</time>
   <energy>
    <i name="e_fr_energy">   -840.62095239 </i>
    <i name="e_wo_entrp">   -840.49652497 </i>
    <i name="e_0_energy">   -840.55873868 </i>
   </energy>
  </scstep>
  <scstep>
   <time name="dav">   56.50   56.50</time>
   <time name="total">   59.74   59.76</time>
   <energy>
    <i name="e_fr_energy">   -840.62579252 </i>
    <i name="e_wo_entrp">   -840.50062014 </i>
    <i name="e_0_energy">   -840.56320633 </i>
   </energy>
  </scstep>
  <scstep>
   <time name="dav">   59.20   59.20</time>
   <time name="total">   62.48   62.48</time>
   <energy>
    <i name="e_fr_energy">   -840.62746254 </i>
    <i name="e_wo_entrp">   -840.50575414 </i>
    <i name="e_0_energy">   -840.56660834 </i>
   </energy>
  </scstep>
  <scstep>
   <time name="dav">   58.08   58.08</time>
   <time name="total">   61.32   61.34</time>
   <energy>
    <i name="e_fr_energy">   -840.62367932 </i>
    <i name="e_wo_entrp">   -840.49930446 </i>
    <i name="e_0_energy">   -840.56149189 </i>
   </energy>
  </scstep>
  <scstep>
   <time name="dav">   60.32   60.32</time>
   <time name="total">   63.57   63.58</time>
   <energy>
    <i name="e_fr_energy">   -840.62389005 </i>
    <i name="e_wo_entrp">   -840.49690240 </i>
    <i name="e_0_energy">   -840.56039622 </i>
   </energy>
  </scstep>
  <scstep>
   <time name="dav">   56.48   56.48</time>
   <time name="total">   59.73   59.74</time>
   <energy>
    <i name="e_fr_energy">   -840.62512994 </i>
    <i name="e_wo_entrp">   -840.49759796 </i>
    <i name="e_0_energy">   -840.56136395 </i>
   </energy>
  </scstep>
  <scstep>
   <time name="dav">   56.18   56.18</time>
   <time name="total">   59.36   59.36</time>
   <energy>
    <i name="e_fr_energy">   -840.62470515 </i>
    <i name="e_wo_entrp">   -840.49626003 </i>
    <i name="e_0_energy">   -840.56048259 </i>
   </energy>
  </scstep>
  <scstep>
   <time name="dav">   61.50   61.50</time>
   <time name="total">   64.73   64.74</time>
   <energy>
    <i name="e_fr_energy">   -840.62467099 </i>
    <i name="e_wo_entrp">   -840.49571872 </i>
    <i name="e_0_energy">   -840.56019485 </i>
   </energy>
  </scstep>
  <scstep>
   <time name="dav">   57.14   57.14</time>
   <time name="total">   60.38   60.40</time>
   <energy>
    <i name="e_fr_energy">   -840.62466215 </i>
    <i name="e_wo_entrp">   -840.49588993 </i>
    <i name="e_0_energy">   -840.56027604 </i>
   </energy>
  </scstep>
  <scstep>
   <time name="dav">   53.98   53.98</time>
   <time name="total">   57.21   57.23</time>
   <energy>
    <i name="e_fr_energy">   -840.62476523 </i>
    <i name="e_wo_entrp">   -840.49504192 </i>
    <i name="e_0_energy">   -840.55990357 </i>
   </energy>
  </scstep>
  <scstep>
   <time name="dav">   54.22   54.22</time>
   <time name="total">   57.41   57.42</time>
   <energy>
    <i name="e_fr_energy">   -840.62452011 </i>
    <i name="e_wo_entrp">   -840.49531329 </i>
    <i name="e_0_energy">   -840.55991670 </i>
   </energy>
  </scstep>
  <scstep>
   <time name="dav">   54.02   54.02</time>
   <time name="total">   57.19   57.21</time>
   <energy>
    <i name="e_fr_energy">   -840.62450866 </i>
    <i name="e_wo_entrp">   -840.49589377 </i>
    <i name="e_0_energy">   -840.56020121 </i>
   </energy>
  </scstep>
  <scstep>
   <time name="dav">   53.92   53.92</time>
   <time name="total">   57.15   57.15</time>
   <energy>
    <i name="e_fr_energy">   -840.62437053 </i>
    <i name="e_wo_entrp">   -840.49513074 </i>
    <i name="e_0_energy">   -840.55975064 </i>
   </energy>
  </scstep>
  <scstep>
   <time name="dav">   53.52   53.52</time>
   <time name="total">   56.73   56.75</time>
   <energy>
    <i name="e_fr_energy">   -840.62434421 </i>
    <i name="e_wo_entrp">   -840.49523748 </i>
    <i name="e_0_energy">   -840.55979085 </i>
   </energy>
  </scstep>
  <scstep>
   <time name="dav">   55.27   55.27</time>
   <time name="total">   58.46   58.47</time>
   <energy>
    <i name="e_fr_energy">   -840.62426808 </i>
    <i name="e_wo_entrp">   -840.49551974 </i>
    <i name="e_0_energy">   -840.55989391 </i>
   </energy>
  </scstep>
  <scstep>
   <time name="dav">   51.25   51.25</time>
   <time name="total">   51.88   51.90</time>
   <energy>
    <i name="alphaZ">   1736.69897902 </i>
    <i name="ewald"> -30068.31576990 </i>
    <i name="hartreedc"> -31467.47542275 </i>
    <i name="XCdc">   3211.51471065 </i>
    <i name="pawpsdc">  85411.09434401 </i>
    <i name="pawaedc"> -85069.12571567 </i>
    <i name="eentropy">     -0.12891916 </i>
    <i name="bandstr">  -9563.42658061 </i>
    <i name="atom">  64968.54023382 </i>
    <i name="e_fr_energy">   -840.62414058 </i>
    <i name="e_wo_entrp">   -840.49522142 </i>
    <i name="e_0_energy">   -840.55968100 </i>
   </energy>
  </scstep>
  <structure>
   <crystal>
    <varray name="basis" >
     <v>      14.01277600       0.00000000       0.00000000 </v>
     <v>       0.00000000      14.01277600       0.00000000 </v>
     <v>       0.00000000       0.00000000      14.01277600 </v>
    </varray>
    <i name="volume">   2751.51914558 </i>
    <varray name="rec_basis" >
     <v>       0.07136345       0.00000000       0.00000000 </v>
     <v>       0.00000000       0.07136345       0.00000000 </v>
     <v>       0.00000000       0.00000000       0.07136345 </v>
    </varray>
   </crystal>
   <varray name="positions" >
    <v>       0.12780389       0.93846596       0.23032878 </v>
    <v>       0.73080187       0.86907611       0.87787100 </v>
    <v>       0.93070573       0.24541512       0.95315879 </v>
    <v>       0.35771433       0.38573089       0.02827948 </v>
    <v>       0.07813334       0.18645113       0.74007213 </v>
    <v>       0.03085850       0.51458826       0.41028543 </v>
    <v>       0.41892980       0.52347855       0.73803402 </v>
    <v>       0.90665854       0.22279941       0.40453359 </v>
    <v>       0.46471007       0.03745822       0.27680532 </v>
    <v>       0.48780778       0.79488737       0.68264597 </v>
    <v>       0.77391110       0.51194475       0.58991497 </v>
    <v>       0.98854288       0.43870326       0.82575831 </v>
    <v>       0.63376755       0.48340595       0.04902362 </v>
    <v>       0.69259789       0.06924600       0.21520602 </v>
    <v>       0.38512106       0.11606533       0.63244811 </v>
    <v>       0.74784005       0.55598873       0.22093212 </v>
    <v>       0.17638817       0.93073193       0.92232639 </v>
    <v>       0.79542917       0.59542505       0.83887065 </v>
    <v>       0.67053839       0.19012967       0.77239244 </v>
    <v>       0.86407161       0.89556559       0.47004555 </v>
    <v>       0.95945414       0.77185590       0.90984123 </v>
    <v>       0.95573031       0.31493903       0.24352513 </v>
    <v>       0.40875761       0.73369805       0.27498066 </v>
    <v>       0.39216542       0.44994907       0.45810354 </v>
    <v>       0.50614106       0.84351105       0.03235776 </v>
    <v>       0.53072102       0.35058762       0.37575999 </v>
    <v>       0.14303020       0.57533490       0.08456633 </v>
    <v>       0.76109862       0.77251361       0.64097450 </v>
    <v>       0.41559570       0.64464264       0.10420592 </v>
    <v>       0.28417868       0.22811400       0.49554138 </v>
    <v>       0.16707794       0.38650767       0.16865850 </v>
    <v>       0.02806579       0.63636542       0.66726104 </v>
    <v>       0.11690080       0.25396972       0.02072465 </v>
    <v>       0.80718512       0.26997029       0.66191009 </v>
    <v>       0.60516956       0.40310005       0.83495766 </v>
    <v>       0.57459489       0.51522725       0.56121903 </v>
    <v>       0.24321966       0.74851459       0.96499718 </v>
    <v>       0.20774562       0.41454809       0.59739580 </v>
    <v>       0.84562472       0.89932704       0.09861594 </v>
    <v>       0.76503571       0.34021227       0.19569127 </v>
    <v>       0.52625704       0.24868884       0.12396821 </v>
    <v>       0.94722247       0.00519875       0.75178288 </v>
    <v>       0.82822304       0.69229000       0.11654003 </v>
    <v>       0.57026244       0.71377668       0.83547780 </v>
    <v>       0.54468830       0.00180325       0.86283921 </v>
    <v>       0.45134406       0.27807028       0.85982886 </v>
    <v>       0.69648651       0.22889042       0.50640476 </v>
    <v>       0.20758290       0.34782097       0.38162861 </v>
    <v>       0.32141556       0.94601060       0.18955151 </v>
    <v>       0.53936213       0.57821182       0.32691127 </v>
    <v>       0.22100227       0.02809594       0.59348551 </v>
    <v>       0.57781862       0.00460667       0.45977434 </v>
    <v>       0.35351940       0.94788172       0.80846944 </v>
    <v>       0.92251049       0.54682243       0.98225051 </v>
    <v>       0.51027453       0.47974207       0.29520796 </v>
    <v>       0.16953955       0.33099601       0.27616875 </v>
    <v>       0.17998221       0.39122450       0.49886601 </v>
    <v>       0.28128430       0.50414226       0.58332796 </v>
    <v>       0.56847797       0.53975066       0.44996622 </v>
    <v>       0.73090168       0.67939333       0.06175614 </v>
    <v>       0.42862217       0.55080335       0.04745092 </v>
    <v>       0.79463248       0.21389550       0.18017341 </v>
    <v>       0.30877627       0.00626316       0.89763094 </v>
    <v>       0.84651067       0.34266069       0.57455551 </v>
    <v>       0.85581450       0.40438672       0.26644738 </v>
    <v>       0.18362190       0.81695091       0.22974736 </v>
    <v>       0.65592200       0.93536160       0.51201922 </v>
    <v>       0.39508699       0.62611454       0.22156113 </v>
    <v>       0.46061089       0.70242005       0.77954947 </v>
    <v>       0.82926430       0.17610112       0.69052664 </v>
    <v>       0.60745238       0.61542762       0.23813589 </v>
    <v>       0.70357094       0.72069017       0.55720550 </v>
    <v>       0.80498961       0.96280043       0.17496141 </v>
    <v>       0.63455725       0.44915111       0.63131855 </v>
    <v>       0.37746697       0.29646383       0.52241803 </v>
    <v>       0.13234643       0.37493292       0.70214639 </v>
    <v>       0.93210521       0.66200091       0.02579989 </v>
    <v>       0.32765823       0.33314414       0.34942279 </v>
    <v>       0.91391213       0.61662804       0.66494015 </v>
    <v>       0.27910330       0.96361460       0.70650112 </v>
    <v>       0.68333650       0.37560438       0.92911367 </v>
    <v>       0.13359429       0.97952081       0.56195840 </v>
    <v>       0.47005792       0.14228267       0.80004798 </v>
    <v>       0.83088205       0.58416161       0.40501002 </v>
    <v>       0.65652269       0.05139539       0.84967675 </v>
    <v>       0.20118420       0.23811587       0.41120455 </v>
    <v>       0.60154618       0.73321959       0.95256389 </v>
    <v>       0.06076011       0.66445298       0.54587316 </v>
    <v>       0.34602499       0.12154440       0.48379752 </v>
    <v>       0.60436411       0.99887842       0.32484425 </v>
    <v>       0.01402647       0.29719756       0.84049349 </v>
    <v>       0.47894045       0.56330498       0.61210090 </v>
    <v>       0.54982151       0.10647325       0.44466230 </v>
    <v>       0.95014528       0.94839613       0.33061754 </v>
    <v>       0.46203014       0.98131672       0.77145423 </v>
    <v>       0.06547979       0.32930368       0.12771794 </v>
    <v>       0.62597814       0.28649779       0.16486787 </v>
    <v>       0.62717291       0.31862140       0.48615327 </v>
    <v>       0.11109509       0.74248345       0.98114395 </v>
    <v>       0.87602067       0.66827793       0.20273966 </v>
    <v>       0.56571676       0.30580749       0.77978629 </v>
    <v>       0.78739900       0.32015985       0.77330222 </v>
    <v>       0.85675515       0.74074306       0.79938961 </v>
    <v>       0.47828560       0.66933532       0.37017500 </v>
    <v>       0.99332267       0.32448881       0.39004194 </v>
    <v>       0.74998785       0.86152167       0.05053463 </v>
    <v>       0.41139237       0.90229801       0.17812764 </v>
    <v>       0.81230702       0.87498569       0.62585548 </v>
    <v>       0.50403495       0.46333146       0.85360165 </v>
    <v>       0.26027575       0.43840241       0.12097579 </v>
    <v>       0.96444923       0.11943865       0.79858965 </v>
    <v>       0.93301850       0.03989830       0.26677091 </v>
    <v>       0.48272615       0.34817462       0.13571177 </v>
    <v>       0.29311205       0.00831343       0.27489392 </v>
    <v>       0.17866419       0.31990260       0.96450900 </v>
    <v>       0.47970013       0.95754213       0.95007467 </v>
    <v>       0.24608749       0.00731895       0.10145240 </v>
    <v>       0.86638732       0.47114281       0.93251991 </v>
    <v>       0.23956378       0.19424772       0.60201201 </v>
    <v>       0.33627868       0.30943880       0.82151677 </v>
[...]
       <r>     0.1591    51.5585   836.5948 </r>
       <r>     0.3291    49.2223   844.9662 </r>
       <r>     0.4992    98.8842   861.7836 </r>
       <r>     0.6693    36.5510   867.9999 </r>
       <r>     0.8394     0.1320   868.0223 </r>
       <r>     1.0094    12.3495   870.1226 </r>
       <r>     1.1795    17.0449   873.0215 </r>
       <r>     1.3496    17.2497   875.9552 </r>
       <r>     1.5197     2.2041   876.3300 </r>
       <r>     1.6897    26.3710   880.8150 </r>
       <r>     1.8598    15.1676   883.3945 </r>
       <r>     2.0299     5.6362   884.3531 </r>
       <r>     2.1999    14.6350   886.8421 </r>
       <r>     2.3700    23.1012   890.7710 </r>
       <r>     2.5401    18.9292   893.9903 </r>
       <r>     2.7102     0.0671   894.0017 </r>
       <r>     2.8802    11.2481   895.9147 </r>
       <r>     3.0503    20.9179   899.4722 </r>
       <r>     3.2204    21.3608   903.1051 </r>
       <r>     3.3904    33.8767   908.8665 </r>
       <r>     3.5605    28.7809   913.7614 </r>
       <r>     3.7306    48.9881   922.0928 </r>
       <r>     3.9007    47.5503   930.1798 </r>
       <r>     4.0707    55.8634   939.6806 </r>
       <r>     4.2408    51.1345   948.3771 </r>
       <r>     4.4109    81.8188   962.2922 </r>
       <r>     4.5809    84.2146   976.6147 </r>
       <r>     4.7510    74.6281   989.3068 </r>
       <r>     4.9211    91.6813  1004.8992 </r>
       <r>     5.0912    87.5757  1019.7934 </r>
       <r>     5.2612    96.4945  1036.2043 </r>
       <r>     5.4313    22.3157  1039.9996 </r>
       <r>     5.6014     0.0023  1040.0000 </r>
       <r>     5.7714     0.0000  1040.0000 </r>
       <r>     5.9415     0.0000  1040.0000 </r>
       <r>     6.1116     0.0000  1040.0000 </r>
       <r>     6.2817     0.0000  1040.0000 </r>
       <r>     6.4517     0.0000  1040.0000 </r>
       <r>     6.6218     0.0000  1040.0000 </r>
       <r>     6.7919     0.0000  1040.0000 </r>
       <r>     6.9619     0.0000  1040.0000 </r>
       <r>     7.1320     0.0000  1040.0000 </r>
       <r>     7.3021     0.0000  1040.0000 </r>
       <r>     7.4722     0.0000  1040.0000 </r>
       <r>     7.6422     0.0000  1040.0000 </r>
      </set>
     </set>
    </array>
   </total>
  </dos>
 </calculation>
 <structure name="finalpos" >
  <crystal>
   <varray name="basis" >
    <v>      14.01277600       0.00000000       0.00000000 </v>
    <v>       0.00000000      14.01277600       0.00000000 </v>
    <v>       0.00000000       0.00000000      14.01277600 </v>
   </varray>
   <i name="volume">   2751.51914558 </i>
   <varray name="rec_basis" >
    <v>       0.07136345       0.00000000       0.00000000 </v>
    <v>       0.00000000       0.07136345       0.00000000 </v>
    <v>       0.00000000       0.00000000       0.07136345 </v>
   </varray>
  </crystal>
  <varray name="positions" >
   <v>       0.12780389       0.93846596       0.23032878 </v>
   <v>       0.73080187       0.86907611       0.87787100 </v>
   <v>       0.93070573       0.24541512       0.95315879 </v>
   <v>       0.35771433       0.38573089       0.02827948 </v>
   <v>       0.07813334       0.18645113       0.74007213 </v>
   <v>       0.03085850       0.51458826       0.41028543 </v>
   <v>       0.41892980       0.52347855       0.73803402 </v>
   <v>       0.90665854       0.22279941       0.40453359 </v>
   <v>       0.46471007       0.03745822       0.27680532 </v>
   <v>       0.48780778       0.79488737       0.68264597 </v>
   <v>       0.77391110       0.51194475       0.58991497 </v>
   <v>       0.98854288       0.43870326       0.82575831 </v>
   <v>       0.63376755       0.48340595       0.04902362 </v>
   <v>       0.69259789       0.06924600       0.21520602 </v>
   <v>       0.38512106       0.11606533       0.63244811 </v>
   <v>       0.74784005       0.55598873       0.22093212 </v>
   <v>       0.17638817       0.93073193       0.92232639 </v>
   <v>       0.79542917       0.59542505       0.83887065 </v>
   <v>       0.67053839       0.19012967       0.77239244 </v>
   <v>       0.86407161       0.89556559       0.47004555 </v>
   <v>       0.95945414       0.77185590       0.90984123 </v>
   <v>       0.95573031       0.31493903       0.24352513 </v>
   <v>       0.40875761       0.73369805       0.27498066 </v>
   <v>       0.39216542       0.44994907       0.45810354 </v>
   <v>       0.50614106       0.84351105       0.03235776 </v>
   <v>       0.53072102       0.35058762       0.37575999 </v>
   <v>       0.14303020       0.57533490       0.08456633 </v>
   <v>       0.76109862       0.77251361       0.64097450 </v>
   <v>       0.41559570       0.64464264       0.10420592 </v>
   <v>       0.28417868       0.22811400       0.49554138 </v>
   <v>       0.16707794       0.38650767       0.16865850 </v>
   <v>       0.02806579       0.63636542       0.66726104 </v>
   <v>       0.11690080       0.25396972       0.02072465 </v>
   <v>       0.80718512       0.26997029       0.66191009 </v>
   <v>       0.60516956       0.40310005       0.83495766 </v>
   <v>       0.57459489       0.51522725       0.56121903 </v>
   <v>       0.24321966       0.74851459       0.96499718 </v>
   <v>       0.20774562       0.41454809       0.59739580 </v>
   <v>       0.84562472       0.89932704       0.09861594 </v>
   <v>       0.76503571       0.34021227       0.19569127 </v>
   <v>       0.52625704       0.24868884       0.12396821 </v>
   <v>       0.94722247       0.00519875       0.75178288 </v>
   <v>       0.82822304       0.69229000       0.11654003 </v>
   <v>       0.57026244       0.71377668       0.83547780 </v>
   <v>       0.54468830       0.00180325       0.86283921 </v>
   <v>       0.45134406       0.27807028       0.85982886 </v>
   <v>       0.69648651       0.22889042       0.50640476 </v>
   <v>       0.20758290       0.34782097       0.38162861 </v>
   <v>       0.32141556       0.94601060       0.18955151 </v>
   <v>       0.53936213       0.57821182       0.32691127 </v>
   <v>       0.22100227       0.02809594       0.59348551 </v>
   <v>       0.57781862       0.00460667       0.45977434 </v>
   <v>       0.35351940       0.94788172       0.80846944 </v>
   <v>       0.92251049       0.54682243       0.98225051 </v>
   <v>       0.51027453       0.47974207       0.29520796 </v>
   <v>       0.16953955       0.33099601       0.27616875 </v>
   <v>       0.17998221       0.39122450       0.49886601 </v>
   <v>       0.28128430       0.50414226       0.58332796 </v>
   <v>       0.56847797       0.53975066       0.44996622 </v>
   <v>       0.73090168       0.67939333       0.06175614 </v>
   <v>       0.42862217       0.55080335       0.04745092 </v>
   <v>       0.79463248       0.21389550       0.18017341 </v>
   <v>       0.30877627       0.00626316       0.89763094 </v>
   <v>       0.84651067       0.34266069       0.57455551 </v>
   <v>       0.85581450       0.40438672       0.26644738 </v>
   <v>       0.18362190       0.81695091       0.22974736 </v>
   <v>       0.65592200       0.93536160       0.51201922 </v>
   <v>       0.39508699       0.62611454       0.22156113 </v>
   <v>       0.46061089       0.70242005       0.77954947 </v>
   <v>       0.82926430       0.17610112       0.69052664 </v>
   <v>       0.60745238       0.61542762       0.23813589 </v>
   <v>       0.70357094       0.72069017       0.55720550 </v>
   <v>       0.80498961       0.96280043       0.17496141 </v>
   <v>       0.63455725       0.44915111       0.63131855 </v>
   <v>       0.37746697       0.29646383       0.52241803 </v>
   <v>       0.13234643       0.37493292       0.70214639 </v>
   <v>       0.93210521       0.66200091       0.02579989 </v>
   <v>       0.32765823       0.33314414       0.34942279 </v>
   <v>       0.91391213       0.61662804       0.66494015 </v>
   <v>       0.27910330       0.96361460       0.70650112 </v>
   <v>       0.68333650       0.37560438       0.92911367 </v>
   <v>       0.13359429       0.97952081       0.56195840 </v>
   <v>       0.47005792       0.14228267       0.80004798 </v>
   <v>       0.83088205       0.58416161       0.40501002 </v>
   <v>       0.65652269       0.05139539       0.84967675 </v>
   <v>       0.20118420       0.23811587       0.41120455 </v>
   <v>       0.60154618       0.73321959       0.95256389 </v>
   <v>       0.06076011       0.66445298       0.54587316 </v>
   <v>       0.34602499       0.12154440       0.48379752 </v>
   <v>       0.60436411       0.99887842       0.32484425 </v>
   <v>       0.01402647       0.29719756       0.84049349 </v>
   <v>       0.47894045       0.56330498       0.61210090 </v>
   <v>       0.54982151       0.10647325       0.44466230 </v>
   <v>       0.95014528       0.94839613       0.33061754 </v>
   <v>       0.46203014       0.98131672       0.77145423 </v>
   <v>       0.06547979       0.32930368       0.12771794 </v>
   <v>       0.62597814       0.28649779       0.16486787 </v>
   <v>       0.62717291       0.31862140       0.48615327 </v>
   <v>       0.11109509       0.74248345       0.98114395 </v>
   <v>       0.87602067       0.66827793       0.20273966 </v>
   <v>       0.56571676       0.30580749       0.77978629 </v>
   <v>       0.78739900       0.32015985       0.77330222 </v>
   <v>       0.85675515       0.74074306       0.79938961 </v>
   <v>       0.47828560       0.66933532       0.37017500 </v>
   <v>       0.99332267       0.32448881       0.39004194 </v>
   <v>       0.74998785       0.86152167       0.05053463 </v>
   <v>       0.41139237       0.90229801       0.17812764 </v>
   <v>       0.81230702       0.87498569       0.62585548 </v>
   <v>       0.50403495       0.46333146       0.85360165 </v>
   <v>       0.26027575       0.43840241       0.12097579 </v>
   <v>       0.96444923       0.11943865       0.79858965 </v>
   <v>       0.93301850       0.03989830       0.26677091 </v>
   <v>       0.48272615       0.34817462       0.13571177 </v>
   <v>       0.29311205       0.00831343       0.27489392 </v>
   <v>       0.17866419       0.31990260       0.96450900 </v>
   <v>       0.47970013       0.95754213       0.95007467 </v>
   <v>       0.24608749       0.00731895       0.10145240 </v>
   <v>       0.86638732       0.47114281       0.93251991 </v>
   <v>       0.23956378       0.19424772       0.60201201 </v>
   <v>       0.33627868       0.30943880       0.82151677 </v>
   <v>       0.93840405       0.86029176       0.05686199 </v>
   <v>       0.60453114       0.80584680       0.78663713 </v>
   <v>       0.01315927       0.53406734       0.93647545 </v>
   <v>       0.75694186       0.19880930       0.41444936 </v>
   <v>       0.70148212       0.16547177       0.60922459 </v>
   <v>       0.78407225       0.45198590       0.11604633 </v>
   <v>       0.34339237       0.81275179       0.01597506 </v>
   <v>       0.65890500       0.62929842       0.78549301 </v>
   <v>       0.04541743       0.18110390       0.02275578 </v>
   <v>       0.95305538       0.99901961       0.63160770 </v>
   <v>       0.08082277       0.48077225       0.21846299 </v>
   <v>       0.09714222       0.59508961       0.74017962 </v>
   <v>       0.50895895       0.12602659       0.12742972 </v>
   <v>       0.98628067       0.92542003       0.84123294 </v>
   <v>       0.43745692       0.24198180       0.97442544 </v>
  </varray>
  <varray name="velocities" >
   <v>       0.00000000       0.00000000       0.00000000 </v>
   <v>       0.00000000       0.00000000       0.00000000 </v>
   <v>       0.00000000       0.00000000       0.00000000 </v>
   <v>       0.00000000       0.00000000       0.00000000 </v>
   <v>       0.00000000       0.00000000       0.00000000 </v>
   <v>       0.00000000       0.00000000       0.00000000 </v>
   <v>       0.00000000       0.00000000       0.00000000 </v>
   <v>       0.00000000       0.00000000       0.00000000 </v>
   <v>       0.00000000       0.00000000       0.00000000 </v>
   <v>       0.00000000       0.00000000       0.00000000 </v>
   <v>       0.00000000       0.00000000       0.00000000 </v>
   <v>       0.00000000       0.00000000       0.00000000 </v>
   <v>       0.00000000       0.00000000       0.00000000 </v>
   <v>       0.00000000       0.00000000       0.00000000 </v>
   <v>       0.00000000       0.00000000       0.00000000 </v>
   <v>       0.00000000       0.00000000       0.00000000 </v>
   <v>       0.00000000       0.00000000       0.00000000 </v>
   <v>       0.00000000       0.00000000       0.00000000 </v>
   <v>       0.00000000       0.00000000       0.00000000 </v>
   <v>       0.00000000       0.00000000       0.00000000 </v>
   <v>       0.00000000       0.00000000       0.00000000 </v>
   <v>       0.00000000       0.00000000       0.00000000 </v>
   <v>       0.00000000       0.00000000       0.00000000 </v>
   <v>       0.00000000       0.00000000       0.00000000 </v>
   <v>       0.00000000       0.00000000       0.00000000 </v>
   <v>       0.00000000       0.00000000       0.00000000 </v>
   <v>       0.00000000       0.00000000       0.00000000 </v>
   <v>       0.00000000       0.00000000       0.00000000 </v>
   <v>       0.00000000       0.00000000       0.00000000 </v>
   <v>       0.00000000       0.00000000       0.00000000 </v>
   <v>       0.00000000       0.00000000       0.00000000 </v>
   <v>       0.00000000       0.00000000       0.00000000 </v>
   <v>       0.00000000       0.00000000       0.00000000 </v>
   <v>       0.00000000       0.00000000       0.00000000 </v>
   <v>       0.00000000       0.00000000       0.00000000 </v>
   <v>       0.00000000       0.00000000       0.00000000 </v>
   <v>       0.00000000       0.00000000       0.00000000 </v>
   <v>       0.00000000       0.00000000       0.00000000 </v>
   <v>       0.00000000       0.00000000       0.00000000 </v>
   <v>       0.00000000       0.00000000       0.00000000 </v>
   <v>       0.00000000       0.00000000       0.00000000 </v>
   <v>       0.00000000       0.00000000       0.00000000 </v>
   <v>       0.00000000       0.00000000       0.00000000 </v>
   <v>       0.00000000       0.00000000       0.00000000 </v>
   <v>       0.00000000       0.00000000       0.00000000 </v>
   <v>       0.00000000       0.00000000       0.00000000 </v>
   <v>       0.00000000       0.00000000       0.00000000 </v>
   <v>       0.00000000       0.00000000       0.00000000 </v>
   <v>       0.00000000       0.00000000       0.00000000 </v>
   <v>       0.00000000       0.00000000       0.00000000 </v>
   <v>       0.00000000       0.00000000       0.00000000 </v>
   <v>       0.00000000       0.00000000       0.00000000 </v>
   <v>       0.00000000       0.00000000       0.00000000 </v>
   <v>       0.00000000       0.00000000       0.00000000 </v>
   <v>       0.00000000       0.00000000       0.00000000 </v>
   <v>       0.00000000       0.00000000       0.00000000 </v>
   <v>       0.00000000       0.00000000       0.00000000 </v>
   <v>       0.00000000       0.00000000       0.00000000 </v>
   <v>       0.00000000       0.00000000       0.00000000 </v>
   <v>       0.00000000       0.00000000       0.00000000 </v>
   <v>       0.00000000       0.00000000       0.00000000 </v>
   <v>       0.00000000       0.00000000       0.00000000 </v>
   <v>       0.00000000       0.00000000       0.00000000 </v>
   <v>       0.00000000       0.00000000       0.00000000 </v>
   <v>       0.00000000       0.00000000       0.00000000 </v>
   <v>       0.00000000       0.00000000       0.00000000 </v>
   <v>       0.00000000       0.00000000       0.00000000 </v>
   <v>       0.00000000       0.00000000       0.00000000 </v>
   <v>       0.00000000       0.00000000       0.00000000 </v>
   <v>       0.00000000       0.00000000       0.00000000 </v>
   <v>       0.00000000       0.00000000       0.00000000 </v>
   <v>       0.00000000       0.00000000       0.00000000 </v>
   <v>       0.00000000       0.00000000       0.00000000 </v>
   <v>       0.00000000       0.00000000       0.00000000 </v>
   <v>       0.00000000       0.00000000       0.00000000 </v>
   <v>       0.00000000       0.00000000       0.00000000 </v>
   <v>       0.00000000       0.00000000       0.00000000 </v>
   <v>       0.00000000       0.00000000       0.00000000 </v>
   <v>       0.00000000       0.00000000       0.00000000 </v>
   <v>       0.00000000       0.00000000       0.00000000 </v>
   <v>       0.00000000       0.00000000       0.00000000 </v>
   <v>       0.00000000       0.00000000       0.00000000 </v>
   <v>       0.00000000       0.00000000       0.00000000 </v>
   <v>       0.00000000       0.00000000       0.00000000 </v>
   <v>       0.00000000       0.00000000       0.00000000 </v>
   <v>       0.00000000       0.00000000       0.00000000 </v>
   <v>       0.00000000       0.00000000       0.00000000 </v>
   <v>       0.00000000       0.00000000       0.00000000 </v>
   <v>       0.00000000       0.00000000       0.00000000 </v>
   <v>       0.00000000       0.00000000       0.00000000 </v>
   <v>       0.00000000       0.00000000       0.00000000 </v>
   <v>       0.00000000       0.00000000       0.00000000 </v>
   <v>       0.00000000       0.00000000       0.00000000 </v>
   <v>       0.00000000       0.00000000       0.00000000 </v>
   <v>       0.00000000       0.00000000       0.00000000 </v>
   <v>       0.00000000       0.00000000       0.00000000 </v>
   <v>       0.00000000       0.00000000       0.00000000 </v>
   <v>       0.00000000       0.00000000       0.00000000 </v>
   <v>       0.00000000       0.00000000       0.00000000 </v>
   <v>       0.00000000       0.00000000       0.00000000 </v>
   <v>       0.00000000       0.00000000       0.00000000 </v>
   <v>       0.00000000       0.00000000       0.00000000 </v>
   <v>       0.00000000       0.00000000       0.00000000 </v>
   <v>       0.00000000       0.00000000       0.00000000 </v>
   <v>       0.00000000       0.00000000       0.00000000 </v>
   <v>       0.00000000       0.00000000       0.00000000 </v>
   <v>       0.00000000       0.00000000       0.00000000 </v>
   <v>       0.00000000       0.00000000       0.00000000 </v>
   <v>       0.00000000       0.00000000       0.00000000 </v>
   <v>       0.00000000       0.00000000       0.00000000 </v>
   <v>       0.00000000       0.00000000       0.00000000 </v>
   <v>       0.00000000       0.00000000       0.00000000 </v>
   <v>       0.00000000       0.00000000       0.00000000 </v>
   <v>       0.00000000       0.00000000       0.00000000 </v>
   <v>       0.00000000       0.00000000       0.00000000 </v>
   <v>       0.00000000       0.00000000       0.00000000 </v>
   <v>       0.00000000       0.00000000       0.00000000 </v>
   <v>       0.00000000       0.00000000       0.00000000 </v>
   <v>       0.00000000       0.00000000       0.00000000 </v>
   <v>       0.00000000       0.00000000       0.00000000 </v>
   <v>       0.00000000       0.00000000       0.00000000 </v>
   <v>       0.00000000       0.00000000       0.00000000 </v>
   <v>       0.00000000       0.00000000       0.00000000 </v>
   <v>       0.00000000       0.00000000       0.00000000 </v>
   <v>       0.00000000       0.00000000       0.00000000 </v>
   <v>       0.00000000       0.00000000       0.00000000 </v>
   <v>       0.00000000       0.00000000       0.00000000 </v>
   <v>       0.00000000       0.00000000       0.00000000 </v>
   <v>       0.00000000       0.00000000       0.00000000 </v>
   <v>       0.00000000       0.00000000       0.00000000 </v>
   <v>       0.00000000       0.00000000       0.00000000 </v>
   <v>       0.00000000       0.00000000       0.00000000 </v>
   <v>       0.00000000       0.00000000       0.00000000 </v>
   <v>       0.00000000       0.00000000       0.00000000 </v>
   <v>       0.00000000       0.00000000       0.00000000 </v>
  </varray>
 </structure>
</modeling>
