 running on   52 total cores
 distrk:  each k-point on   52 cores,    1 groups
 distr:  one band on   13 cores,    4 groups
 using from now: INCAR     
 vasp.5.4.4.18Apr17-6-g9f103f2a35 (build Oct 31 2019 15:01:46) complex          
  
 POSCAR found type information on POSCAR  Sc Cl C 
 POSCAR found :  3 types and      80 ions
 scaLAPACK is switched off
 LDA part: xc-table for Pade appr. of Perdew
 generate k-points for:    3    3    1
 POSCAR, INCAR and KPOINTS ok, starting setup
 FFT: planning ...
 WAVECAR not read
 entering main loop
       N       E                     dE             d eps       ncg     rms          rms(c)
DAV:   1     0.122127616755E+05    0.12213E+05   -0.26813E+05  4440   0.152E+03
DAV:   2     0.175034930432E+04   -0.10462E+05   -0.10194E+05  5200   0.522E+02
DAV:   3    -0.401606860353E+03   -0.21520E+04   -0.20642E+04  6800   0.284E+02
DAV:   4    -0.641839382395E+03   -0.24023E+03   -0.23527E+03  6088   0.100E+02
DAV:   5    -0.652607062181E+03   -0.10768E+02   -0.10711E+02  6088   0.284E+01    0.699E+01
DAV:   6    -0.522217326294E+03    0.13039E+03   -0.70169E+02  5840   0.498E+01    0.303E+01
DAV:   7    -0.526869032610E+03   -0.46517E+01   -0.85831E+01  5928   0.229E+01    0.154E+01
DAV:   8    -0.524688774927E+03    0.21803E+01   -0.94801E+00  5832   0.767E+00    0.929E+00
DAV:   9    -0.524192140151E+03    0.49663E+00   -0.35618E+00  5392   0.393E+00    0.283E+00
DAV:  10    -0.524068086656E+03    0.12405E+00   -0.52994E-01  5760   0.213E+00    0.167E+00
DAV:  11    -0.524047976299E+03    0.20110E-01   -0.23528E-01  5680   0.949E-01    0.713E-01
DAV:  12    -0.524035371117E+03    0.12605E-01   -0.35698E-02  6104   0.535E-01    0.307E-01
DAV:  13    -0.524033019582E+03    0.23515E-02   -0.10157E-02  5448   0.275E-01    0.191E-01
DAV:  14    -0.524031199934E+03    0.18196E-02   -0.68060E-03  5400   0.161E-01    0.169E-01
DAV:  15    -0.524032569800E+03   -0.13699E-02   -0.20909E-03  5504   0.964E-02    0.101E-01
DAV:  16    -0.524034429291E+03   -0.18595E-02   -0.12476E-03  5904   0.580E-02    0.538E-02
DAV:  17    -0.524037692478E+03   -0.32632E-02   -0.67418E-04  5112   0.513E-02    0.339E-02
DAV:  18    -0.524039943555E+03   -0.22511E-02   -0.22534E-04  4848   0.272E-02    0.266E-02
DAV:  19    -0.524041019485E+03   -0.10759E-02   -0.12921E-04  4960   0.179E-02    0.150E-02
DAV:  20    -0.524042243429E+03   -0.12239E-02   -0.65320E-05  4160   0.138E-02    0.109E-02
DAV:  21    -0.524042671608E+03   -0.42818E-03   -0.18782E-05  4416   0.784E-03    0.796E-03
DAV:  22    -0.524042962686E+03   -0.29108E-03   -0.35590E-06  3672   0.449E-03    0.523E-03
DAV:  23    -0.524043581996E+03   -0.61931E-03   -0.13615E-05  3640   0.525E-03    0.474E-03
DAV:  24    -0.524043775476E+03   -0.19348E-03   -0.53778E-06  3784   0.355E-03    0.408E-03
DAV:  25    -0.524043834763E+03   -0.59287E-04   -0.10324E-06  2800   0.229E-03    0.216E-03
DAV:  26    -0.524043936242E+03   -0.10148E-03   -0.36834E-06  3480   0.276E-03    0.276E-03
DAV:  27    -0.524043961177E+03   -0.24935E-04   -0.33779E-07  2704   0.201E-03    0.198E-03
DAV:  28    -0.524043971974E+03   -0.10797E-04   -0.28440E-07  2544   0.139E-03    0.104E-03
DAV:  29    -0.524043987127E+03   -0.15153E-04   -0.42793E-07  2776   0.144E-03    0.438E-04
DAV:  30    -0.524044000037E+03   -0.12911E-04   -0.39536E-07  2672   0.161E-03    0.607E-04
DAV:  31    -0.524044004305E+03   -0.42672E-05   -0.28613E-07  2552   0.133E-03    0.328E-04
DAV:  32    -0.524044006098E+03   -0.17931E-05   -0.17150E-07  2416   0.103E-03    0.282E-04
DAV:  33    -0.524044007003E+03   -0.90526E-06   -0.11789E-07  2400   0.845E-04
   1 F= -.52404401E+03 E0= -.52404401E+03  d E =-.350589E-18
