<?xml version="1.0" encoding="ISO-8859-1"?>
<modeling>
 <generator>
  <i name="program" type="string">vasp </i>
  <i name="version" type="string">5.4.4.18Apr17-6-g9f103f2a35  </i>
  <i name="subversion" type="string">(build Oct 31 2019 15:01:46) complex            parallel </i>
  <i name="platform" type="string">LinuxIFC </i>
  <i name="date" type="string">2024 04 30 </i>
  <i name="time" type="string">01:18:08 </i>
 </generator>
 <incar>
  <i type="int" name="ISTART">     0</i>
  <i type="string" name="PREC">anormal</i>
  <i type="logical" name="ADDGRID"> T  </i>
  <i type="int" name="IBRION">    -1</i>
  <i name="EDIFF">      0.00000100</i>
  <i name="EDIFFG">     -0.01000000</i>
  <i type="int" name="NSW">     1</i>
  <i type="int" name="ISIF">     2</i>
  <i type="int" name="ISYM">     2</i>
  <i name="ENCUT">    600.00000000</i>
  <i name="POTIM">      1.00000000</i>
  <i type="string" name="LREAL"> Auto.</i>
  <i type="int" name="ISMEAR">     0</i>
  <i name="SIGMA">      0.05000000</i>
  <i name="KSPACING">      0.25000000</i>
  <i type="logical" name="LWAVE"> F  </i>
  <i type="logical" name="LCHARG"> F  </i>
  <i type="logical" name="LSCALAPACK"> F  </i>
  <v type="int" name="KPOINT_BSE">    -1     0     0     0</v>
 </incar>
 <structure name="primitive_cell" >
  <crystal>
   <varray name="basis" >
    <v>      13.79398668       0.00000000       0.00000000 </v>
    <v>      -6.89699334      11.94594288       0.00000000 </v>
    <v>       0.00000000       0.00000000      27.81022107 </v>
   </varray>
   <i name="volume">   4582.62876984 </i>
   <varray name="rec_basis" >
    <v>       0.07249536       0.04185521       0.00000000 </v>
    <v>       0.00000000       0.08371043       0.00000000 </v>
    <v>       0.00000000       0.00000000       0.03595800 </v>
   </varray>
  </crystal>
  <varray name="positions" >
   <v>       0.08095264       0.16866598      -0.45745319 </v>
   <v>       0.00923239       0.01206813       0.49588900 </v>
   <v>      -0.00756889       0.25064179      -0.49637449 </v>
   <v>       0.25325415       0.25056480       0.49805427 </v>
   <v>       0.16362900       0.33137451      -0.39806707 </v>
   <v>      -0.08525782       0.07641593      -0.39422724 </v>
   <v>       0.17358124       0.09163297      -0.39469341 </v>
   <v>       0.17216946       0.33397110       0.45592154 </v>
   <v>      -0.07287197       0.10149964       0.45091512 </v>
   <v>       0.18368930       0.08805091       0.45280631 </v>
   <v>      -0.16063052      -0.07188733      -0.46021083 </v>
   <v>       0.32304264       0.41505450      -0.45806028 </v>
   <v>      -0.16948945       0.15996824      -0.45201030 </v>
   <v>       0.08763902      -0.07506444      -0.45427517 </v>
   <v>       0.09462219       0.43275323      -0.45761321 </v>
   <v>       0.34461499       0.17206049      -0.45516298 </v>
   <v>      -0.23727667       0.00621772      -0.49925590 </v>
   <v>       0.09272381       0.18840559       0.39392155 </v>
   <v>      -0.06818437       0.33508182      -0.39226755 </v>
   <v>       0.25293806      -0.48871296       0.49718282 </v>
   <v>      -0.08221539      -0.16431970      -0.39815352 </v>
   <v>       0.25159369      -0.00553960       0.49737137 </v>
   <v>       0.43006531       0.34198206      -0.40024906 </v>
   <v>      -0.07389682      -0.16279950       0.45512789 </v>
   <v>      -0.09208350       0.33688872       0.46080352 </v>
   <v>       0.41510082       0.32805087       0.45551020 </v>
   <v>       0.06210702       0.40499402       0.39870239 </v>
   <v>       0.34010315       0.41465516       0.39517294 </v>
   <v>       0.49410588       0.24925306       0.49664389 </v>
   <v>       0.49728300      -0.49655508       0.49942447 </v>
   <v>      -0.00536273      -0.49698467      -0.49425463 </v>
   <v>      -0.00378754      -0.24954775       0.49583134 </v>
   <v>      -0.17650252       0.16240855       0.39294958 </v>
   <v>      -0.33212158      -0.16714658      -0.40460563 </v>
   <v>      -0.17204805      -0.08304362       0.39117719 </v>
   <v>      -0.25648018      -0.25171577       0.49676985 </v>
   <v>      -0.25550435       0.26244089      -0.49335645 </v>
   <v>      -0.33942660       0.05969309      -0.39179350 </v>
   <v>       0.10209714      -0.07609670       0.38937099 </v>
   <v>       0.40851629      -0.41555946      -0.39169602 </v>
   <v>       0.16390013      -0.16434496      -0.39121711 </v>
   <v>       0.41476489       0.08136516      -0.39407800 </v>
   <v>       0.34693746       0.17778170       0.38785722 </v>
   <v>       0.15840357      -0.40788885      -0.39516340 </v>
   <v>      -0.33854671       0.07068537       0.46010501 </v>
   <v>       0.41396260      -0.42611423       0.45345695 </v>
   <v>       0.17269764      -0.16003250       0.45741938 </v>
   <v>      -0.33339194      -0.17112678       0.45649330 </v>
   <v>       0.16301929      -0.40969505       0.45403529 </v>
   <v>      -0.41346357      -0.08011711      -0.45543243 </v>
   <v>       0.41745762       0.07372728       0.45637289 </v>
   <v>      -0.16853541       0.41519791      -0.44818329 </v>
   <v>       0.30872322      -0.10000862      -0.45583983 </v>
   <v>       0.33198042      -0.33229602      -0.45488240 </v>
   <v>      -0.17249036      -0.33374789      -0.45929552 </v>
   <v>      -0.41157350       0.41091027      -0.46224394 </v>
   <v>       0.06778273      -0.35004132      -0.44733835 </v>
   <v>      -0.43442215       0.16006120      -0.45303393 </v>
   <v>      -0.41865023      -0.33836048      -0.45762377 </v>
   <v>       0.31200681      -0.35003010       0.39176372 </v>
   <v>      -0.49223251       0.00914790      -0.49973324 </v>
   <v>      -0.17917465       0.40826487       0.39850667 </v>
   <v>       0.49576698      -0.25363480      -0.49791303 </v>
   <v>      -0.08514986      -0.39778521      -0.38857391 </v>
   <v>      -0.14525647      -0.32385317       0.39166455 </v>
   <v>       0.25570945      -0.24838904      -0.49835285 </v>
   <v>      -0.42606941      -0.10984860       0.39912772 </v>
   <v>      -0.34239672       0.33325592      -0.39536654 </v>
   <v>      -0.33336121      -0.42943027      -0.39764182 </v>
   <v>      -0.39694964       0.42596163       0.39696626 </v>
   <v>       0.34941349      -0.08605089       0.39545681 </v>
   <v>      -0.33043030       0.33455741       0.45817672 </v>
   <v>      -0.34424069      -0.41991885       0.45378425 </v>
   <v>      -0.08783346      -0.42056570       0.45593203 </v>
   <v>      -0.41256106       0.16549435       0.40087380 </v>
   <v>      -0.40629606      -0.31944699       0.39577450 </v>
   <v>      -0.24808866       0.49225412      -0.49681041 </v>
   <v>       0.08812074      -0.33512887       0.38979562 </v>
   <v>       0.40072669      -0.16938357      -0.39196236 </v>
   <v>       0.42511475      -0.16095189       0.45991837 </v>
  </varray>
 </structure>
 <varray name="primitive_index" >
  <v type="int" >        1 </v>
  <v type="int" >       65 </v>
  <v type="int" >       66 </v>
  <v type="int" >       70 </v>
  <v type="int" >       50 </v>
  <v type="int" >       61 </v>
  <v type="int" >       49 </v>
  <v type="int" >       18 </v>
  <v type="int" >       29 </v>
  <v type="int" >       17 </v>
  <v type="int" >       16 </v>
  <v type="int" >        6 </v>
  <v type="int" >       13 </v>
  <v type="int" >        4 </v>
  <v type="int" >        2 </v>
  <v type="int" >        5 </v>
  <v type="int" >       77 </v>
  <v type="int" >       33 </v>
  <v type="int" >       62 </v>
  <v type="int" >       71 </v>
  <v type="int" >       64 </v>
  <v type="int" >       69 </v>
  <v type="int" >       54 </v>
  <v type="int" >       32 </v>
  <v type="int" >       30 </v>
  <v type="int" >       22 </v>
  <v type="int" >       34 </v>
  <v type="int" >       38 </v>
  <v type="int" >       74 </v>
  <v type="int" >       75 </v>
  <v type="int" >       67 </v>
  <v type="int" >       68 </v>
  <v type="int" >       45 </v>
  <v type="int" >       60 </v>
  <v type="int" >       48 </v>
  <v type="int" >       80 </v>
  <v type="int" >       78 </v>
  <v type="int" >       57 </v>
  <v type="int" >       36 </v>
  <v type="int" >       55 </v>
  <v type="int" >       52 </v>
  <v type="int" >       53 </v>
  <v type="int" >       37 </v>
  <v type="int" >       51 </v>
  <v type="int" >       25 </v>
  <v type="int" >       23 </v>
  <v type="int" >       20 </v>
  <v type="int" >       28 </v>
  <v type="int" >       19 </v>
  <v type="int" >       12 </v>
  <v type="int" >       21 </v>
  <v type="int" >       14 </v>
  <v type="int" >        8 </v>
  <v type="int" >        7 </v>
  <v type="int" >       15 </v>
  <v type="int" >       10 </v>
  <v type="int" >        3 </v>
  <v type="int" >        9 </v>
  <v type="int" >       11 </v>
  <v type="int" >       39 </v>
  <v type="int" >       73 </v>
  <v type="int" >       46 </v>
  <v type="int" >       76 </v>
  <v type="int" >       63 </v>
  <v type="int" >       47 </v>
  <v type="int" >       72 </v>
  <v type="int" >       44 </v>
  <v type="int" >       58 </v>
  <v type="int" >       59 </v>
  <v type="int" >       42 </v>
  <v type="int" >       40 </v>
  <v type="int" >       26 </v>
  <v type="int" >       27 </v>
  <v type="int" >       31 </v>
  <v type="int" >       41 </v>
  <v type="int" >       43 </v>
  <v type="int" >       79 </v>
  <v type="int" >       35 </v>
  <v type="int" >       56 </v>
  <v type="int" >       24 </v>
 </varray>
 <kpoints>
  <generation param="Gamma">
   <v type="int" name="divisions">       3        3        1 </v>
   <v name="usershift">      0.00000000       0.00000000       0.00000000 </v>
   <v name="genvec1">      0.33333333      -0.00000000       0.00000000 </v>
   <v name="genvec2">      0.00000000       0.33333333       0.00000000 </v>
   <v name="genvec3">      0.00000000       0.00000000       1.00000000 </v>
   <v name="shift">      0.00000000       0.00000000       0.00000000 </v>
  </generation>
  <varray name="kpointlist" >
   <v>       0.00000000       0.00000000       0.00000000 </v>
   <v>       0.33333333      -0.00000000       0.00000000 </v>
   <v>       0.00000000       0.33333333       0.00000000 </v>
   <v>       0.33333333       0.33333333       0.00000000 </v>
   <v>      -0.33333333       0.33333333       0.00000000 </v>
  </varray>
  <varray name="weights" >
   <v>       0.11111111 </v>
   <v>       0.22222222 </v>
   <v>       0.22222222 </v>
   <v>       0.22222222 </v>
   <v>       0.22222222 </v>
  </varray>
 </kpoints>
 <parameters>
  <separator name="general" >
   <i type="string" name="SYSTEM">unknown system</i>
   <i type="logical" name="LCOMPAT"> F  </i>
  </separator>
  <separator name="electronic" >
   <i type="string" name="PREC">anorma</i>
   <i name="ENMAX">    600.00000000</i>
   <i name="ENAUG">    644.87300000</i>
   <i name="EDIFF">      0.00000100</i>
   <i type="int" name="IALGO">    38</i>
   <i type="int" name="IWAVPR">    10</i>
   <i type="int" name="NBANDS">   384</i>
   <i name="NELECT">    640.00000000</i>
   <i type="int" name="TURBO">     0</i>
   <i type="int" name="IRESTART">     0</i>
   <i type="int" name="NREBOOT">     0</i>
   <i type="int" name="NMIN">     0</i>
   <i name="EREF">      0.00000000</i>
   <separator name="electronic smearing" >
    <i type="int" name="ISMEAR">     0</i>
    <i name="SIGMA">      0.05000000</i>
    <i name="KSPACING">      0.25000000</i>
    <i type="logical" name="KGAMMA"> T  </i>
   </separator>
   <separator name="electronic projectors" >
    <i type="logical" name="LREAL"> T  </i>
    <v name="ROPT">     -0.00025000     -0.00025000     -0.00025000</v>
    <i type="int" name="LMAXPAW">  -100</i>
    <i type="int" name="LMAXMIX">     2</i>
    <i type="logical" name="NLSPLINE"> F  </i>
   </separator>
   <separator name="electronic startup" >
    <i type="int" name="ISTART">     0</i>
    <i type="int" name="ICHARG">     2</i>
    <i type="int" name="INIWAV">     1</i>
   </separator>
   <separator name="electronic spin" >
    <i type="int" name="ISPIN">     1</i>
    <i type="logical" name="LNONCOLLINEAR"> F  </i>
    <v name="MAGMOM">      1.00000000      1.00000000      1.00000000      1.00000000      1.00000000      1.00000000      1.00000000      1.00000000      1.00000000      1.00000000      1.00000000      1.00000000      1.00000000      1.00000000      1.00000000      1.00000000      1.00000000      1.00000000      1.00000000      1.00000000
      1.00000000      1.00000000      1.00000000      1.00000000      1.00000000      1.00000000      1.00000000      1.00000000      1.00000000      1.00000000      1.00000000      1.00000000      1.00000000      1.00000000      1.00000000      1.00000000      1.00000000      1.00000000      1.00000000      1.00000000
      1.00000000      1.00000000      1.00000000      1.00000000      1.00000000      1.00000000      1.00000000      1.00000000      1.00000000      1.00000000      1.00000000      1.00000000      1.00000000      1.00000000      1.00000000      1.00000000      1.00000000      1.00000000      1.00000000      1.00000000
      1.00000000      1.00000000      1.00000000      1.00000000      1.00000000      1.00000000      1.00000000      1.00000000      1.00000000      1.00000000      1.00000000      1.00000000      1.00000000      1.00000000      1.00000000      1.00000000      1.00000000      1.00000000      1.00000000      1.00000000
</v>
    <i name="NUPDOWN">     -1.00000000</i>
    <i type="logical" name="LSORBIT"> F  </i>
    <v name="SAXIS">      0.00000000      0.00000000      1.00000000</v>
    <i type="logical" name="LSPIRAL"> F  </i>
    <v name="QSPIRAL">      0.00000000      0.00000000      0.00000000</v>
    <i type="logical" name="LZEROZ"> F  </i>
   </separator>
   <separator name="electronic exchange-correlation" >
    <i type="logical" name="LASPH"> F  </i>
    <i type="logical" name="LMETAGGA"> F  </i>
   </separator>
   <separator name="electronic convergence" >
    <i type="int" name="NELM">    60</i>
    <i type="int" name="NELMDL">    -5</i>
    <i type="int" name="NELMIN">     2</i>
    <i name="ENINI">    600.00000000</i>
    <separator name="electronic convergence detail" >
     <i type="logical" name="LDIAG"> T  </i>
     <i type="logical" name="LSUBROT"> F  </i>
     <i name="WEIMIN">      0.00000000</i>
     <i name="EBREAK">      0.00000000</i>
     <i name="DEPER">      0.30000000</i>
     <i type="int" name="NRMM">     4</i>
     <i name="TIME">      0.40000000</i>
    </separator>
   </separator>
   <separator name="electronic mixer" >
    <i name="AMIX">      0.40000000</i>
    <i name="BMIX">      1.00000000</i>
    <i name="AMIN">      0.10000000</i>
    <i name="AMIX_MAG">      1.60000000</i>
    <i name="BMIX_MAG">      1.00000000</i>
    <separator name="electronic mixer details" >
     <i type="int" name="IMIX">     4</i>
     <i type="logical" name="MIXFIRST"> F  </i>
     <i type="int" name="MAXMIX">   -45</i>
     <i name="WC">    100.00000000</i>
     <i type="int" name="INIMIX">     1</i>
     <i type="int" name="MIXPRE">     1</i>
     <i type="int" name="MREMOVE">     5</i>
    </separator>
   </separator>
   <separator name="electronic dipolcorrection" >
    <i type="logical" name="LDIPOL"> F  </i>
    <i type="logical" name="LMONO"> F  </i>
    <i type="int" name="IDIPOL">     0</i>
    <i name="EPSILON">      1.00000000</i>
    <v name="DIPOL">   -100.00000000   -100.00000000   -100.00000000</v>
    <i name="EFIELD">      0.00000000</i>
   </separator>
  </separator>
  <separator name="grids" >
   <i type="int" name="NGX">   112</i>
   <i type="int" name="NGY">   112</i>
   <i type="int" name="NGZ">   224</i>
   <i type="int" name="NGXF">   224</i>
   <i type="int" name="NGYF">   224</i>
   <i type="int" name="NGZF">   448</i>
   <i type="logical" name="ADDGRID"> T  </i>
  </separator>
  <separator name="ionic" >
   <i type="int" name="NSW">     1</i>
   <i type="int" name="IBRION">    -1</i>
   <i type="int" name="MDALGO">     0</i>
   <i type="int" name="ISIF">     2</i>
   <i name="PSTRESS">      0.00000000</i>
   <i name="EDIFFG">     -0.01000000</i>
   <i type="int" name="NFREE">     0</i>
   <i name="POTIM">      1.00000000</i>
   <i name="SMASS">     -3.00000000</i>
   <i name="SCALEE">      1.00000000</i>
  </separator>
  <separator name="ionic md" >
   <i name="TEBEG">      0.00010000</i>
   <i name="TEEND">      0.00010000</i>
   <i type="int" name="NBLOCK">     1</i>
   <i type="int" name="KBLOCK">     1</i>
   <i type="int" name="NPACO">   256</i>
   <i name="APACO">     16.00000000</i>
  </separator>
  <separator name="symmetry" >
   <i type="int" name="ISYM">     2</i>
   <i name="SYMPREC">      0.00001000</i>
  </separator>
  <separator name="dos" >
   <i type="int" name="LORBIT">     0</i>
   <v name="RWIGS">     -1.00000000     -1.00000000     -1.00000000</v>
   <i type="int" name="NEDOS">   301</i>
   <i name="EMIN">     10.00000000</i>
   <i name="EMAX">    -10.00000000</i>
   <i name="EFERMI">      0.00000000</i>
  </separator>
  <separator name="writing" >
   <i type="int" name="NWRITE">     2</i>
   <i type="logical" name="LWAVE"> F  </i>
   <i type="logical" name="LDOWNSAMPLE"> F  </i>
   <i type="logical" name="LCHARG"> F  </i>
   <i type="logical" name="LPARD"> F  </i>
   <i type="logical" name="LVTOT"> F  </i>
   <i type="logical" name="LVHAR"> F  </i>
   <i type="logical" name="LELF"> F  </i>
   <i type="logical" name="LOPTICS"> F  </i>
   <v name="STM">      0.00000000      0.00000000      0.00000000      0.00000000      0.00000000      0.00000000      0.00000000</v>
  </separator>
  <separator name="performance" >
   <i type="int" name="NPAR">     4</i>
   <i type="int" name="NSIM">     4</i>
   <i type="int" name="NBLK">    -1</i>
   <i type="logical" name="LPLANE"> T  </i>
   <i type="logical" name="LSCALAPACK"> F  </i>
   <i type="logical" name="LSCAAWARE"> F  </i>
   <i type="logical" name="LSCALU"> F  </i>
   <i type="logical" name="LASYNC"> F  </i>
   <i type="logical" name="LORBITALREAL"> F  </i>
  </separator>
  <separator name="miscellaneous" >
   <i type="int" name="IDIOT">     3</i>
   <i type="int" name="ISPECIAL">     0</i>
   <i type="logical" name="LMUSIC"> F  </i>
   <v name="POMASS">     44.95600000     35.45300000     12.01100000</v>
   <v name="DARWINR">      0.00000000      0.00000000      0.00000000</v>
   <v name="DARWINV">      1.00000000      1.00000000      1.00000000</v>
   <i type="logical" name="LCORR"> T  </i>
  </separator>
  <i type="logical" name="GGA_COMPAT"> T  </i>
  <i type="logical" name="LBERRY"> F  </i>
  <i type="int" name="ICORELEVEL">     0</i>
  <i type="logical" name="LDAU"> F  </i>
  <i type="int" name="I_CONSTRAINED_M">     0</i>
  <separator name="electronic exchange-correlation" >
   <i type="string" name="GGA">--</i>
   <i type="int" name="VOSKOWN">     0</i>
   <i type="logical" name="LHFCALC"> F  </i>
   <i type="string" name="PRECFOCK"></i>
   <i type="logical" name="LSYMGRAD"> F  </i>
   <i type="logical" name="LHFONE"> F  </i>
   <i type="logical" name="LRHFCALC"> F  </i>
   <i type="logical" name="LTHOMAS"> F  </i>
   <i type="logical" name="LMODELHF"> F  </i>
   <i name="ENCUT4O">     -1.00000000</i>
   <i type="int" name="EXXOEP">     0</i>
   <i type="int" name="FOURORBIT">     0</i>
   <i name="AEXX">      0.00000000</i>
   <i name="HFALPHA">      0.00000000</i>
   <i name="MCALPHA">      0.00000000</i>
   <i name="ALDAX">      1.00000000</i>
   <i name="AGGAX">      1.00000000</i>
   <i name="ALDAC">      1.00000000</i>
   <i name="AGGAC">      1.00000000</i>
   <i type="int" name="NKREDX">     1</i>
   <i type="int" name="NKREDY">     1</i>
   <i type="int" name="NKREDZ">     1</i>
   <i type="logical" name="SHIFTRED"> F  </i>
   <i type="logical" name="ODDONLY"> F  </i>
   <i type="logical" name="EVENONLY"> F  </i>
   <i type="int" name="LMAXFOCK">     0</i>
   <i type="int" name="NMAXFOCKAE">     0</i>
   <i type="logical" name="LFOCKAEDFT"> F  </i>
   <i name="HFSCREEN">      0.00000000</i>
   <i name="HFSCREENC">      0.00000000</i>
   <i type="int" name="NBANDSGWLOW">     0</i>
  </separator>
  <separator name="vdW DFT" >
   <i type="logical" name="LUSE_VDW"> F  </i>
   <i name="Zab_VDW">     -0.84910000</i>
   <i name="PARAM1">      0.12340000</i>
   <i name="PARAM2">      1.00000000</i>
   <i name="PARAM3">      0.00000000</i>
  </separator>
  <separator name="model GW" >
   <i type="int" name="MODEL_GW">     0</i>
   <i name="MODEL_EPS0">     34.36971577</i>
   <i name="MODEL_ALPHA">      1.00000000</i>
  </separator>
  <separator name="linear response parameters" >
   <i type="logical" name="LEPSILON"> F  </i>
   <i type="logical" name="LRPA"> F  </i>
   <i type="logical" name="LNABLA"> F  </i>
   <i type="logical" name="LVEL"> F  </i>
   <i type="int" name="KINTER">     0</i>
   <i name="CSHIFT">      0.10000000</i>
   <i name="OMEGAMAX">     -1.00000000</i>
   <i name="DEG_THRESHOLD">      0.00200000</i>
   <i name="RTIME">     -0.10000000</i>
   <i name="WPLASMAI">      0.00000000</i>
   <v name="DFIELD">      0.00000000      0.00000000      0.00000000</v>
   <v name="WPLASMA">      0.00000000      0.00000000      0.00000000      0.00000000      0.00000000      0.00000000      0.00000000      0.00000000      0.00000000</v>
  </separator>
  <separator name="orbital magnetization" >
   <i type="logical" name="NUCIND"> F  </i>
   <v name="MAGPOS">      0.00000000      0.00000000      0.00000000</v>
   <i type="logical" name="LNICSALL"> T  </i>
   <i type="logical" name="ORBITALMAG"> F  </i>
   <i type="logical" name="LMAGBLOCH"> F  </i>
   <i type="logical" name="LCHIMAG"> F  </i>
   <i type="logical" name="LGAUGE"> T  </i>
   <i type="int" name="MAGATOM">     0</i>
   <v name="MAGDIPOL">      0.00000000      0.00000000      0.00000000</v>
   <v name="AVECCONST">      0.00000000      0.00000000      0.00000000</v>
  </separator>
  <separator name="response functions" >
   <i type="logical" name="LADDER"> F  </i>
   <i type="logical" name="LRPAFORCE"> F  </i>
   <i type="logical" name="LFXC"> F  </i>
   <i type="logical" name="LHARTREE"> T  </i>
   <i type="int" name="IBSE">     0</i>
   <v type="int" name="KPOINT">    -1     0     0     0</v>
   <i type="logical" name="LTCTE"> F  </i>
   <i type="logical" name="LTETE"> F  </i>
   <i type="logical" name="LTRIPLET"> F  </i>
   <i type="logical" name="LFXCEPS"> F  </i>
   <i type="logical" name="LFXHEG"> F  </i>
   <i type="int" name="NATURALO">     2</i>
   <i type="logical" name="L2ORDER"> F  </i>
   <i type="logical" name="LMP2LT"> F  </i>
   <i type="logical" name="LUSEW"> F  </i>
   <i name="ENCUTGW">     -2.00000000</i>
   <i name="ENCUTGWSOFT">     -2.00000000</i>
   <i name="ENCUTLF">     -1.00000000</i>
   <i type="int" name="LMAXMP2">    -1</i>
   <i name="SCISSOR">      0.00000000</i>
   <i type="int" name="NOMEGA">     0</i>
   <i type="int" name="NOMEGAR">     0</i>
   <i type="int" name="NBANDSGW">    -1</i>
   <i type="int" name="NBANDSO">    -1</i>
   <i type="int" name="NBANDSV">    -1</i>
   <i type="int" name="NELM">     1</i>
   <i type="int" name="NELMHF">     1</i>
   <i type="int" name="DIM">     3</i>
   <i type="int" name="ANTIRES">     0</i>
   <i name="OMEGAMAX">    -30.00000000</i>
   <i name="OMEGAMIN">    -30.00000000</i>
   <i name="OMEGATL">   -200.00000000</i>
   <i type="int" name="OMEGAGRID">   140</i>
   <i name="CSHIFT">     -0.10000000</i>
   <i type="logical" name="SELFENERGY"> F  </i>
   <i type="logical" name="LSPECTRAL"> F  </i>
   <i type="logical" name="LSPECTRALGW"> F  </i>
   <i type="logical" name="LSINGLES"> F  </i>
   <i type="logical" name="LFERMIGW"> F  </i>
   <i type="logical" name="ODDONLYGW"> F  </i>
   <i type="logical" name="EVENONLYGW"> F  </i>
   <i type="int" name="NKREDLFX">     1</i>
   <i type="int" name="NKREDLFY">     1</i>
   <i type="int" name="NKREDLFZ">     1</i>
   <i type="int" name="MAXMEM">  2800</i>
   <i type="int" name="TELESCOPE">     0</i>
   <i type="int" name="TAUPAR">     1</i>
   <i type="int" name="OMEGAPAR">    -1</i>
   <i name="LAMBDA">      1.00000000</i>
  </separator>
  <separator name="External order field" >
   <i name="OFIELD_KAPPA">      0.00000000</i>
   <v name="OFIELD_K">      0.00000000      0.00000000      0.00000000</v>
   <i name="OFIELD_Q6_NEAR">      0.00000000</i>
   <i name="OFIELD_Q6_FAR">      0.00000000</i>
   <i name="OFIELD_A">      0.00000000</i>
  </separator>
 </parameters>
 <atominfo>
  <atoms>      80 </atoms>
  <types>       3 </types>
  <array name="atoms" >
   <dimension dim="1">ion</dimension>
   <field type="string">element</field>
   <field type="int">atomtype</field>
   <set>
    <rc><c>Sc</c><c>   1</c></rc>
    <rc><c>Sc</c><c>   1</c></rc>
    <rc><c>Sc</c><c>   1</c></rc>
    <rc><c>Sc</c><c>   1</c></rc>
    <rc><c>Sc</c><c>   1</c></rc>
    <rc><c>Sc</c><c>   1</c></rc>
    <rc><c>Sc</c><c>   1</c></rc>
    <rc><c>Sc</c><c>   1</c></rc>
    <rc><c>Sc</c><c>   1</c></rc>
    <rc><c>Sc</c><c>   1</c></rc>
    <rc><c>Sc</c><c>   1</c></rc>
    <rc><c>Sc</c><c>   1</c></rc>
    <rc><c>Sc</c><c>   1</c></rc>
    <rc><c>Sc</c><c>   1</c></rc>
    <rc><c>Sc</c><c>   1</c></rc>
    <rc><c>Sc</c><c>   1</c></rc>
    <rc><c>Sc</c><c>   1</c></rc>
    <rc><c>Sc</c><c>   1</c></rc>
    <rc><c>Sc</c><c>   1</c></rc>
    <rc><c>Sc</c><c>   1</c></rc>
    <rc><c>Sc</c><c>   1</c></rc>
    <rc><c>Sc</c><c>   1</c></rc>
    <rc><c>Sc</c><c>   1</c></rc>
    <rc><c>Sc</c><c>   1</c></rc>
    <rc><c>Sc</c><c>   1</c></rc>
    <rc><c>Sc</c><c>   1</c></rc>
    <rc><c>Sc</c><c>   1</c></rc>
    <rc><c>Sc</c><c>   1</c></rc>
    <rc><c>Sc</c><c>   1</c></rc>
    <rc><c>Sc</c><c>   1</c></rc>
    <rc><c>Sc</c><c>   1</c></rc>
    <rc><c>Sc</c><c>   1</c></rc>
    <rc><c>Cl</c><c>   2</c></rc>
    <rc><c>Cl</c><c>   2</c></rc>
    <rc><c>Cl</c><c>   2</c></rc>
    <rc><c>Cl</c><c>   2</c></rc>
    <rc><c>Cl</c><c>   2</c></rc>
    <rc><c>Cl</c><c>   2</c></rc>
    <rc><c>Cl</c><c>   2</c></rc>
    <rc><c>Cl</c><c>   2</c></rc>
    <rc><c>Cl</c><c>   2</c></rc>
    <rc><c>Cl</c><c>   2</c></rc>
    <rc><c>Cl</c><c>   2</c></rc>
    <rc><c>Cl</c><c>   2</c></rc>
    <rc><c>Cl</c><c>   2</c></rc>
    <rc><c>Cl</c><c>   2</c></rc>
    <rc><c>Cl</c><c>   2</c></rc>
    <rc><c>Cl</c><c>   2</c></rc>
    <rc><c>Cl</c><c>   2</c></rc>
    <rc><c>Cl</c><c>   2</c></rc>
    <rc><c>Cl</c><c>   2</c></rc>
    <rc><c>Cl</c><c>   2</c></rc>
    <rc><c>Cl</c><c>   2</c></rc>
    <rc><c>Cl</c><c>   2</c></rc>
    <rc><c>Cl</c><c>   2</c></rc>
    <rc><c>Cl</c><c>   2</c></rc>
    <rc><c>Cl</c><c>   2</c></rc>
    <rc><c>Cl</c><c>   2</c></rc>
    <rc><c>Cl</c><c>   2</c></rc>
    <rc><c>Cl</c><c>   2</c></rc>
    <rc><c>Cl</c><c>   2</c></rc>
    <rc><c>Cl</c><c>   2</c></rc>
    <rc><c>Cl</c><c>   2</c></rc>
    <rc><c>Cl</c><c>   2</c></rc>
    <rc><c>C </c><c>   3</c></rc>
    <rc><c>C </c><c>   3</c></rc>
    <rc><c>C </c><c>   3</c></rc>
    <rc><c>C </c><c>   3</c></rc>
    <rc><c>C </c><c>   3</c></rc>
    <rc><c>C </c><c>   3</c></rc>
    <rc><c>C </c><c>   3</c></rc>
    <rc><c>C </c><c>   3</c></rc>
    <rc><c>C </c><c>   3</c></rc>
    <rc><c>C </c><c>   3</c></rc>
    <rc><c>C </c><c>   3</c></rc>
    <rc><c>C </c><c>   3</c></rc>
    <rc><c>C </c><c>   3</c></rc>
    <rc><c>C </c><c>   3</c></rc>
    <rc><c>C </c><c>   3</c></rc>
    <rc><c>C </c><c>   3</c></rc>
   </set>
  </array>
  <array name="atomtypes" >
   <dimension dim="1">type</dimension>
   <field type="int">atomspertype</field>
   <field type="string">element</field>
   <field>mass</field>
   <field>valence</field>
   <field type="string">pseudopotential</field>
   <set>
    <rc><c>  32</c><c>Sc</c><c>     44.95600000</c><c>     11.00000000</c><c>  PAW_PBE Sc_sv 07Sep2000               </c></rc>
    <rc><c>  32</c><c>Cl</c><c>     35.45300000</c><c>      7.00000000</c><c>  PAW_PBE Cl 06Sep2000                  </c></rc>
    <rc><c>  16</c><c>C </c><c>     12.01100000</c><c>      4.00000000</c><c>  PAW_PBE C 08Apr2002                   </c></rc>
   </set>
  </array>
 </atominfo>
 <structure name="initialpos" >
  <crystal>
   <varray name="basis" >
    <v>      13.79398668       0.00000000       0.00000000 </v>
    <v>      -6.89699334      11.94594288       0.00000000 </v>
    <v>       0.00000000       0.00000000      27.81022107 </v>
   </varray>
   <i name="volume">   4582.62876984 </i>
   <varray name="rec_basis" >
    <v>       0.07249536       0.04185521       0.00000000 </v>
    <v>       0.00000000       0.08371043       0.00000000 </v>
    <v>       0.00000000       0.00000000       0.03595800 </v>
   </varray>
  </crystal>
  <varray name="positions" >
   <v>       0.08095264       0.16866598       0.54254681 </v>
   <v>       0.09462219       0.43275323       0.54238679 </v>
   <v>       0.06778273       0.64995868       0.55266165 </v>
   <v>       0.08763902       0.92493556       0.54572483 </v>
   <v>       0.34461499       0.17206049       0.54483702 </v>
   <v>       0.32304264       0.41505450       0.54193972 </v>
   <v>       0.33198042       0.66770398       0.54511760 </v>
   <v>       0.30872322       0.89999138       0.54416017 </v>
   <v>       0.56557785       0.16006120       0.54696607 </v>
   <v>       0.58842650       0.41091027       0.53775606 </v>
   <v>       0.58134977       0.66163952       0.54237623 </v>
   <v>       0.58653643       0.91988289       0.54456757 </v>
   <v>       0.83051055       0.15996824       0.54798970 </v>
   <v>       0.83146459       0.41519791       0.55181671 </v>
   <v>       0.82750964       0.66625211       0.54070448 </v>
   <v>       0.83936948       0.92811267       0.53978917 </v>
   <v>       0.18368930       0.08805091       0.45280631 </v>
   <v>       0.17216946       0.33397110       0.45592154 </v>
   <v>       0.16301929       0.59030495       0.45403529 </v>
   <v>       0.17269764       0.83996750       0.45741938 </v>
   <v>       0.41745762       0.07372728       0.45637289 </v>
   <v>       0.41510082       0.32805087       0.45551020 </v>
   <v>       0.41396260       0.57388577       0.45345695 </v>
   <v>       0.42511475       0.83904811       0.45991837 </v>
   <v>       0.66145329       0.07068537       0.46010501 </v>
   <v>       0.66956970       0.33455741       0.45817672 </v>
   <v>       0.65575931       0.58008115       0.45378425 </v>
   <v>       0.66660806       0.82887322       0.45649330 </v>
   <v>       0.92712803       0.10149964       0.45091512 </v>
   <v>       0.90791650       0.33688872       0.46080352 </v>
   <v>       0.91216654       0.57943430       0.45593203 </v>
   <v>       0.92610318       0.83720050       0.45512789 </v>
   <v>       0.09272381       0.18840559       0.39392155 </v>
   <v>       0.06210702       0.40499402       0.39870239 </v>
   <v>       0.08812074       0.66487113       0.38979562 </v>
   <v>       0.10209714       0.92390330       0.38937099 </v>
   <v>       0.34693746       0.17778170       0.38785722 </v>
   <v>       0.34010315       0.41465516       0.39517294 </v>
   <v>       0.31200681       0.64996990       0.39176372 </v>
   <v>       0.34941349       0.91394911       0.39545681 </v>
   <v>       0.58743894       0.16549435       0.40087380 </v>
   <v>       0.60305036       0.42596163       0.39696626 </v>
   <v>       0.59370394       0.68055301       0.39577450 </v>
   <v>       0.57393059       0.89015140       0.39912772 </v>
   <v>       0.82349748       0.16240855       0.39294958 </v>
   <v>       0.82082535       0.40826487       0.39850667 </v>
   <v>       0.85474353       0.67614683       0.39166455 </v>
   <v>       0.82795195       0.91695638       0.39117719 </v>
   <v>       0.17358124       0.09163297       0.60530659 </v>
   <v>       0.16362900       0.33137451       0.60193293 </v>
   <v>       0.15840357       0.59211115       0.60483660 </v>
   <v>       0.16390013       0.83565504       0.60878289 </v>
   <v>       0.41476489       0.08136516       0.60592200 </v>
   <v>       0.43006531       0.34198206       0.59975094 </v>
   <v>       0.40851629       0.58444054       0.60830398 </v>
   <v>       0.40072669       0.83061643       0.60803764 </v>
   <v>       0.66057340       0.05969309       0.60820650 </v>
   <v>       0.65760328       0.33325592       0.60463346 </v>
   <v>       0.66663879       0.57056973       0.60235818 </v>
   <v>       0.66787842       0.83285342       0.59539437 </v>
   <v>       0.91474218       0.07641593       0.60577276 </v>
   <v>       0.93181563       0.33508182       0.60773245 </v>
   <v>       0.91485014       0.60221479       0.61142609 </v>
   <v>       0.91778461       0.83568030       0.60184648 </v>
   <v>       0.00923239       0.01206813       0.49588900 </v>
   <v>       0.99243111       0.25064179       0.50362551 </v>
   <v>       0.99463727       0.50301533       0.50574537 </v>
   <v>       0.99621246       0.75045225       0.49583134 </v>
   <v>       0.25159369       0.99446040       0.49737137 </v>
   <v>       0.25325415       0.25056480       0.49805427 </v>
   <v>       0.25293806       0.51128704       0.49718282 </v>
   <v>       0.25570945       0.75161096       0.50164715 </v>
   <v>       0.50776749       0.00914790       0.50026676 </v>
   <v>       0.49410588       0.24925306       0.49664389 </v>
   <v>       0.49728300       0.50344492       0.49942447 </v>
   <v>       0.49576698       0.74636520       0.50208697 </v>
   <v>       0.76272333       0.00621772       0.50074410 </v>
   <v>       0.74449565       0.26244089       0.50664355 </v>
   <v>       0.75191134       0.49225412       0.50318959 </v>
   <v>       0.74351982       0.74828423       0.49676985 </v>
  </varray>
  <varray name="velocities" >
   <v>       0.00000000       0.00000000       0.00000000 </v>
   <v>       0.00000000       0.00000000       0.00000000 </v>
   <v>       0.00000000       0.00000000       0.00000000 </v>
   <v>       0.00000000       0.00000000       0.00000000 </v>
   <v>       0.00000000       0.00000000       0.00000000 </v>
   <v>       0.00000000       0.00000000       0.00000000 </v>
   <v>       0.00000000       0.00000000       0.00000000 </v>
   <v>       0.00000000       0.00000000       0.00000000 </v>
   <v>       0.00000000       0.00000000       0.00000000 </v>
   <v>       0.00000000       0.00000000       0.00000000 </v>
   <v>       0.00000000       0.00000000       0.00000000 </v>
   <v>       0.00000000       0.00000000       0.00000000 </v>
   <v>       0.00000000       0.00000000       0.00000000 </v>
   <v>       0.00000000       0.00000000       0.00000000 </v>
   <v>       0.00000000       0.00000000       0.00000000 </v>
   <v>       0.00000000       0.00000000       0.00000000 </v>
   <v>       0.00000000       0.00000000       0.00000000 </v>
   <v>       0.00000000       0.00000000       0.00000000 </v>
   <v>       0.00000000       0.00000000       0.00000000 </v>
   <v>       0.00000000       0.00000000       0.00000000 </v>
   <v>       0.00000000       0.00000000       0.00000000 </v>
   <v>       0.00000000       0.00000000       0.00000000 </v>
   <v>       0.00000000       0.00000000       0.00000000 </v>
   <v>       0.00000000       0.00000000       0.00000000 </v>
   <v>       0.00000000       0.00000000       0.00000000 </v>
   <v>       0.00000000       0.00000000       0.00000000 </v>
   <v>       0.00000000       0.00000000       0.00000000 </v>
   <v>       0.00000000       0.00000000       0.00000000 </v>
   <v>       0.00000000       0.00000000       0.00000000 </v>
   <v>       0.00000000       0.00000000       0.00000000 </v>
   <v>       0.00000000       0.00000000       0.00000000 </v>
   <v>       0.00000000       0.00000000       0.00000000 </v>
   <v>       0.00000000       0.00000000       0.00000000 </v>
   <v>       0.00000000       0.00000000       0.00000000 </v>
   <v>       0.00000000       0.00000000       0.00000000 </v>
   <v>       0.00000000       0.00000000       0.00000000 </v>
   <v>       0.00000000       0.00000000       0.00000000 </v>
   <v>       0.00000000       0.00000000       0.00000000 </v>
   <v>       0.00000000       0.00000000       0.00000000 </v>
   <v>       0.00000000       0.00000000       0.00000000 </v>
   <v>       0.00000000       0.00000000       0.00000000 </v>
   <v>       0.00000000       0.00000000       0.00000000 </v>
   <v>       0.00000000       0.00000000       0.00000000 </v>
   <v>       0.00000000       0.00000000       0.00000000 </v>
   <v>       0.00000000       0.00000000       0.00000000 </v>
   <v>       0.00000000       0.00000000       0.00000000 </v>
   <v>       0.00000000       0.00000000       0.00000000 </v>
   <v>       0.00000000       0.00000000       0.00000000 </v>
   <v>       0.00000000       0.00000000       0.00000000 </v>
   <v>       0.00000000       0.00000000       0.00000000 </v>
   <v>       0.00000000       0.00000000       0.00000000 </v>
   <v>       0.00000000       0.00000000       0.00000000 </v>
   <v>       0.00000000       0.00000000       0.00000000 </v>
   <v>       0.00000000       0.00000000       0.00000000 </v>
   <v>       0.00000000       0.00000000       0.00000000 </v>
   <v>       0.00000000       0.00000000       0.00000000 </v>
   <v>       0.00000000       0.00000000       0.00000000 </v>
   <v>       0.00000000       0.00000000       0.00000000 </v>
   <v>       0.00000000       0.00000000       0.00000000 </v>
   <v>       0.00000000       0.00000000       0.00000000 </v>
   <v>       0.00000000       0.00000000       0.00000000 </v>
   <v>       0.00000000       0.00000000       0.00000000 </v>
   <v>       0.00000000       0.00000000       0.00000000 </v>
   <v>       0.00000000       0.00000000       0.00000000 </v>
   <v>       0.00000000       0.00000000       0.00000000 </v>
   <v>       0.00000000       0.00000000       0.00000000 </v>
   <v>       0.00000000       0.00000000       0.00000000 </v>
   <v>       0.00000000       0.00000000       0.00000000 </v>
   <v>       0.00000000       0.00000000       0.00000000 </v>
   <v>       0.00000000       0.00000000       0.00000000 </v>
   <v>       0.00000000       0.00000000       0.00000000 </v>
   <v>       0.00000000       0.00000000       0.00000000 </v>
   <v>       0.00000000       0.00000000       0.00000000 </v>
   <v>       0.00000000       0.00000000       0.00000000 </v>
   <v>       0.00000000       0.00000000       0.00000000 </v>
   <v>       0.00000000       0.00000000       0.00000000 </v>
   <v>       0.00000000       0.00000000       0.00000000 </v>
   <v>       0.00000000       0.00000000       0.00000000 </v>
   <v>       0.00000000       0.00000000       0.00000000 </v>
   <v>       0.00000000       0.00000000       0.00000000 </v>
  </varray>
 </structure>
 <calculation>
  <scstep>
   <time name="dav">   50.45   50.45</time>
   <time name="total">   51.28   51.29</time>
   <energy>
    <i name="alphaZ">    784.57699423 </i>
    <i name="ewald"> 252709.38086354 </i>
    <i name="hartreedc">-300355.40054703 </i>
    <i name="XCdc">   2503.28014346 </i>
    <i name="pawpsdc">  43679.68029659 </i>
    <i name="pawaedc"> -43417.33247688 </i>
    <i name="eentropy">     -0.06068924 </i>
    <i name="bandstr">     97.91315358 </i>
    <i name="atom">  56210.72393729 </i>
    <i name="e_fr_energy">  12212.76167554 </i>
    <i name="e_wo_entrp">  12212.82236478 </i>
    <i name="e_0_energy">  12212.79202016 </i>
   </energy>
  </scstep>
  <scstep>
   <time name="dav">   57.12   57.13</time>
   <time name="total">   57.12   57.13</time>
   <energy>
    <i name="e_fr_energy">   1750.34930432 </i>
    <i name="e_wo_entrp">   1750.39566914 </i>
    <i name="e_0_energy">   1750.37248673 </i>
   </energy>
  </scstep>
  <scstep>
   <time name="dav">   71.43   71.44</time>
   <time name="total">   71.43   71.44</time>
   <energy>
    <i name="e_fr_energy">   -401.60686035 </i>
    <i name="e_wo_entrp">   -401.60685775 </i>
    <i name="e_0_energy">   -401.60685905 </i>
   </energy>
  </scstep>
  <scstep>
   <time name="dav">   65.12   65.13</time>
   <time name="total">   65.12   65.13</time>
   <energy>
    <i name="e_fr_energy">   -641.83938240 </i>
    <i name="e_wo_entrp">   -641.83938240 </i>
    <i name="e_0_energy">   -641.83938240 </i>
   </energy>
  </scstep>
  <scstep>
   <time name="dav">   65.12   65.13</time>
   <time name="total">   69.05   69.06</time>
   <energy>
    <i name="e_fr_energy">   -652.60706218 </i>
    <i name="e_wo_entrp">   -652.60706218 </i>
    <i name="e_0_energy">   -652.60706218 </i>
   </energy>
  </scstep>
  <scstep>
   <time name="dav">   63.10   63.10</time>
   <time name="total">   67.83   67.84</time>
   <energy>
    <i name="e_fr_energy">   -522.21732629 </i>
    <i name="e_wo_entrp">   -522.21732629 </i>
    <i name="e_0_energy">   -522.21732629 </i>
   </energy>
  </scstep>
  <scstep>
   <time name="dav">   63.90   63.91</time>
   <time name="total">   68.63   68.65</time>
   <energy>
    <i name="e_fr_energy">   -526.86903261 </i>
    <i name="e_wo_entrp">   -526.86903261 </i>
    <i name="e_0_energy">   -526.86903261 </i>
   </energy>
  </scstep>
  <scstep>
   <time name="dav">   63.05   63.05</time>
   <time name="total">   67.78   67.79</time>
   <energy>
    <i name="e_fr_energy">   -524.68877493 </i>
    <i name="e_wo_entrp">   -524.68877493 </i>
    <i name="e_0_energy">   -524.68877493 </i>
   </energy>
  </scstep>
  <scstep>
   <time name="dav">   59.18   59.18</time>
   <time name="total">   63.91   63.92</time>
   <energy>
    <i name="e_fr_energy">   -524.19214015 </i>
    <i name="e_wo_entrp">   -524.19214015 </i>
    <i name="e_0_energy">   -524.19214015 </i>
   </energy>
  </scstep>
  <scstep>
   <time name="dav">   62.46   62.47</time>
   <time name="total">   67.19   67.21</time>
   <energy>
    <i name="e_fr_energy">   -524.06808666 </i>
    <i name="e_wo_entrp">   -524.06808666 </i>
    <i name="e_0_energy">   -524.06808666 </i>
   </energy>
  </scstep>
  <scstep>
   <time name="dav">   61.69   61.70</time>
   <time name="total">   66.40   66.41</time>
   <energy>
    <i name="e_fr_energy">   -524.04797630 </i>
    <i name="e_wo_entrp">   -524.04797630 </i>
    <i name="e_0_energy">   -524.04797630 </i>
   </energy>
  </scstep>
  <scstep>
   <time name="dav">   65.45   65.45</time>
   <time name="total">   70.18   70.19</time>
   <energy>
    <i name="e_fr_energy">   -524.03537112 </i>
    <i name="e_wo_entrp">   -524.03537112 </i>
    <i name="e_0_energy">   -524.03537112 </i>
   </energy>
  </scstep>
  <scstep>
   <time name="dav">   59.62   59.62</time>
   <time name="total">   64.35   64.36</time>
   <energy>
    <i name="e_fr_energy">   -524.03301958 </i>
    <i name="e_wo_entrp">   -524.03301958 </i>
    <i name="e_0_energy">   -524.03301958 </i>
   </energy>
  </scstep>
  <scstep>
   <time name="dav">   59.23   59.23</time>
   <time name="total">   63.95   63.96</time>
   <energy>
    <i name="e_fr_energy">   -524.03119993 </i>
    <i name="e_wo_entrp">   -524.03119993 </i>
    <i name="e_0_energy">   -524.03119993 </i>
   </energy>
  </scstep>
  <scstep>
   <time name="dav">   60.09   60.09</time>
   <time name="total">   64.83   64.85</time>
   <energy>
    <i name="e_fr_energy">   -524.03256980 </i>
    <i name="e_wo_entrp">   -524.03256980 </i>
    <i name="e_0_energy">   -524.03256980 </i>
   </energy>
  </scstep>
  <scstep>
   <time name="dav">   63.55   63.55</time>
   <time name="total">   68.28   68.29</time>
   <energy>
    <i name="e_fr_energy">   -524.03442929 </i>
    <i name="e_wo_entrp">   -524.03442929 </i>
    <i name="e_0_energy">   -524.03442929 </i>
   </energy>
  </scstep>
  <scstep>
   <time name="dav">   56.55   56.55</time>
   <time name="total">   61.27   61.28</time>
   <energy>
    <i name="e_fr_energy">   -524.03769248 </i>
    <i name="e_wo_entrp">   -524.03769248 </i>
    <i name="e_0_energy">   -524.03769248 </i>
   </energy>
  </scstep>
  <scstep>
   <time name="dav">   54.22   54.22</time>
   <time name="total">   58.95   58.96</time>
   <energy>
    <i name="e_fr_energy">   -524.03994356 </i>
    <i name="e_wo_entrp">   -524.03994356 </i>
    <i name="e_0_energy">   -524.03994356 </i>
   </energy>
  </scstep>
  <scstep>
   <time name="dav">   55.22   55.22</time>
   <time name="total">   59.96   59.97</time>
   <energy>
    <i name="e_fr_energy">   -524.04101949 </i>
    <i name="e_wo_entrp">   -524.04101949 </i>
    <i name="e_0_energy">   -524.04101949 </i>
   </energy>
  </scstep>
  <scstep>
   <time name="dav">   48.12   48.12</time>
   <time name="total">   52.87   52.88</time>
   <energy>
    <i name="e_fr_energy">   -524.04224343 </i>
    <i name="e_wo_entrp">   -524.04224343 </i>
    <i name="e_0_energy">   -524.04224343 </i>
   </energy>
  </scstep>
  <scstep>
   <time name="dav">   50.58   50.58</time>
   <time name="total">   55.32   55.33</time>
   <energy>
    <i name="e_fr_energy">   -524.04267161 </i>
    <i name="e_wo_entrp">   -524.04267161 </i>
    <i name="e_0_energy">   -524.04267161 </i>
   </energy>
  </scstep>
  <scstep>
   <time name="dav">   44.01   44.01</time>
   <time name="total">   48.71   48.72</time>
   <energy>
    <i name="e_fr_energy">   -524.04296269 </i>
    <i name="e_wo_entrp">   -524.04296269 </i>
    <i name="e_0_energy">   -524.04296269 </i>
   </energy>
  </scstep>
  <scstep>
   <time name="dav">   43.64   43.65</time>
   <time name="total">   48.35   48.36</time>
   <energy>
    <i name="e_fr_energy">   -524.04358200 </i>
    <i name="e_wo_entrp">   -524.04358200 </i>
    <i name="e_0_energy">   -524.04358200 </i>
   </energy>
  </scstep>
  <scstep>
   <time name="dav">   44.98   44.98</time>
   <time name="total">   49.72   49.73</time>
   <energy>
    <i name="e_fr_energy">   -524.04377548 </i>
    <i name="e_wo_entrp">   -524.04377548 </i>
    <i name="e_0_energy">   -524.04377548 </i>
   </energy>
  </scstep>
  <scstep>
   <time name="dav">   36.29   36.29</time>
   <time name="total">   41.02   41.03</time>
   <energy>
    <i name="e_fr_energy">   -524.04383476 </i>
    <i name="e_wo_entrp">   -524.04383476 </i>
    <i name="e_0_energy">   -524.04383476 </i>
   </energy>
  </scstep>
  <scstep>
   <time name="dav">   42.26   42.26</time>
   <time name="total">   47.00   47.01</time>
   <energy>
    <i name="e_fr_energy">   -524.04393624 </i>
    <i name="e_wo_entrp">   -524.04393624 </i>
    <i name="e_0_energy">   -524.04393624 </i>
   </energy>
  </scstep>
  <scstep>
   <time name="dav">   35.41   35.41</time>
   <time name="total">   40.13   40.14</time>
   <energy>
    <i name="e_fr_energy">   -524.04396118 </i>
    <i name="e_wo_entrp">   -524.04396118 </i>
    <i name="e_0_energy">   -524.04396118 </i>
   </energy>
  </scstep>
  <scstep>
   <time name="dav">   34.04   34.04</time>
   <time name="total">   38.80   38.81</time>
   <energy>
    <i name="e_fr_energy">   -524.04397197 </i>
    <i name="e_wo_entrp">   -524.04397197 </i>
    <i name="e_0_energy">   -524.04397197 </i>
   </energy>
  </scstep>
  <scstep>
   <time name="dav">   36.08   36.08</time>
   <time name="total">   40.83   40.84</time>
   <energy>
    <i name="e_fr_energy">   -524.04398713 </i>
    <i name="e_wo_entrp">   -524.04398713 </i>
    <i name="e_0_energy">   -524.04398713 </i>
   </energy>
  </scstep>
  <scstep>
   <time name="dav">   35.14   35.14</time>
   <time name="total">   39.88   39.89</time>
   <energy>
    <i name="e_fr_energy">   -524.04400004 </i>
    <i name="e_wo_entrp">   -524.04400004 </i>
    <i name="e_0_energy">   -524.04400004 </i>
   </energy>
  </scstep>
  <scstep>
   <time name="dav">   34.00   34.00</time>
   <time name="total">   38.75   38.76</time>
   <energy>
    <i name="e_fr_energy">   -524.04400430 </i>
    <i name="e_wo_entrp">   -524.04400430 </i>
    <i name="e_0_energy">   -524.04400430 </i>
   </energy>
  </scstep>
  <scstep>
   <time name="dav">   32.80   32.80</time>
   <time name="total">   37.56   37.58</time>
   <energy>
    <i name="e_fr_energy">   -524.04400610 </i>
    <i name="e_wo_entrp">   -524.04400610 </i>
    <i name="e_0_energy">   -524.04400610 </i>
   </energy>
  </scstep>
  <scstep>
   <time name="dav">   32.62   32.62</time>
   <time name="total">   33.44   33.44</time>
   <energy>
    <i name="alphaZ">    784.57699423 </i>
    <i name="ewald"> 252709.38086354 </i>
    <i name="hartreedc">-300666.60836176 </i>
    <i name="XCdc">   2490.71324529 </i>
    <i name="pawpsdc">  59760.54074710 </i>
    <i name="pawaedc"> -59593.21181597 </i>
    <i name="eentropy">     -0.00000000 </i>
    <i name="bandstr"> -12220.15961672 </i>
    <i name="atom">  56210.72393729 </i>
    <i name="e_fr_energy">   -524.04400700 </i>
    <i name="e_wo_entrp">   -524.04400700 </i>
    <i name="e_0_energy">   -524.04400700 </i>
   </energy>
  </scstep>
  <structure>
   <crystal>
    <varray name="basis" >
     <v>      13.79398668       0.00000000       0.00000000 </v>
     <v>      -6.89699334      11.94594288       0.00000000 </v>
     <v>       0.00000000       0.00000000      27.81022107 </v>
    </varray>
    <i name="volume">   4582.62876984 </i>
    <varray name="rec_basis" >
     <v>       0.07249536       0.04185521       0.00000000 </v>
     <v>       0.00000000       0.08371043       0.00000000 </v>
     <v>       0.00000000       0.00000000       0.03595800 </v>
    </varray>
   </crystal>
   <varray name="positions" >
    <v>       0.08095264       0.16866598       0.54254681 </v>
    <v>       0.09462219       0.43275323       0.54238679 </v>
    <v>       0.06778273       0.64995868       0.55266165 </v>
    <v>       0.08763902       0.92493556       0.54572483 </v>
    <v>       0.34461499       0.17206049       0.54483702 </v>
    <v>       0.32304264       0.41505450       0.54193972 </v>
    <v>       0.33198042       0.66770398       0.54511760 </v>
    <v>       0.30872322       0.89999138       0.54416017 </v>
    <v>       0.56557785       0.16006120       0.54696607 </v>
    <v>       0.58842650       0.41091027       0.53775606 </v>
    <v>       0.58134977       0.66163952       0.54237623 </v>
    <v>       0.58653643       0.91988289       0.54456757 </v>
    <v>       0.83051055       0.15996824       0.54798970 </v>
    <v>       0.83146459       0.41519791       0.55181671 </v>
    <v>       0.82750964       0.66625211       0.54070448 </v>
    <v>       0.83936948       0.92811267       0.53978917 </v>
    <v>       0.18368930       0.08805091       0.45280631 </v>
    <v>       0.17216946       0.33397110       0.45592154 </v>
    <v>       0.16301929       0.59030495       0.45403529 </v>
    <v>       0.17269764       0.83996750       0.45741938 </v>
    <v>       0.41745762       0.07372728       0.45637289 </v>
    <v>       0.41510082       0.32805087       0.45551020 </v>
    <v>       0.41396260       0.57388577       0.45345695 </v>
    <v>       0.42511475       0.83904811       0.45991837 </v>
    <v>       0.66145329       0.07068537       0.46010501 </v>
    <v>       0.66956970       0.33455741       0.45817672 </v>
    <v>       0.65575931       0.58008115       0.45378425 </v>
    <v>       0.66660806       0.82887322       0.45649330 </v>
    <v>       0.92712803       0.10149964       0.45091512 </v>
    <v>       0.90791650       0.33688872       0.46080352 </v>
    <v>       0.91216654       0.57943430       0.45593203 </v>
    <v>       0.92610318       0.83720050       0.45512789 </v>
    <v>       0.09272381       0.18840559       0.39392155 </v>
    <v>       0.06210702       0.40499402       0.39870239 </v>
    <v>       0.08812074       0.66487113       0.38979562 </v>
    <v>       0.10209714       0.92390330       0.38937099 </v>
    <v>       0.34693746       0.17778170       0.38785722 </v>
    <v>       0.34010315       0.41465516       0.39517294 </v>
    <v>       0.31200681       0.64996990       0.39176372 </v>
    <v>       0.34941349       0.91394911       0.39545681 </v>
    <v>       0.58743894       0.16549435       0.40087380 </v>
    <v>       0.60305036       0.42596163       0.39696626 </v>
    <v>       0.59370394       0.68055301       0.39577450 </v>
    <v>       0.57393059       0.89015140       0.39912772 </v>
    <v>       0.82349748       0.16240855       0.39294958 </v>
    <v>       0.82082535       0.40826487       0.39850667 </v>
    <v>       0.85474353       0.67614683       0.39166455 </v>
    <v>       0.82795195       0.91695638       0.39117719 </v>
    <v>       0.17358124       0.09163297       0.60530659 </v>
    <v>       0.16362900       0.33137451       0.60193293 </v>
    <v>       0.15840357       0.59211115       0.60483660 </v>
    <v>       0.16390013       0.83565504       0.60878289 </v>
    <v>       0.41476489       0.08136516       0.60592200 </v>
    <v>       0.43006531       0.34198206       0.59975094 </v>
    <v>       0.40851629       0.58444054       0.60830398 </v>
    <v>       0.40072669       0.83061643       0.60803764 </v>
    <v>       0.66057340       0.05969309       0.60820650 </v>
    <v>       0.65760328       0.33325592       0.60463346 </v>
    <v>       0.66663879       0.57056973       0.60235818 </v>
    <v>       0.66787842       0.83285342       0.59539437 </v>
    <v>       0.91474218       0.07641593       0.60577276 </v>
    <v>       0.93181563       0.33508182       0.60773245 </v>
    <v>       0.91485014       0.60221479       0.61142609 </v>
    <v>       0.91778461       0.83568030       0.60184648 </v>
    <v>       0.00923239       0.01206813       0.49588900 </v>
    <v>       0.99243111       0.25064179       0.50362551 </v>
    <v>       0.99463727       0.50301533       0.50574537 </v>
    <v>       0.99621246       0.75045225       0.49583134 </v>
    <v>       0.25159369       0.99446040       0.49737137 </v>
    <v>       0.25325415       0.25056480       0.49805427 </v>
    <v>       0.25293806       0.51128704       0.49718282 </v>
    <v>       0.25570945       0.75161096       0.50164715 </v>
    <v>       0.50776749       0.00914790       0.50026676 </v>
    <v>       0.49410588       0.24925306       0.49664389 </v>
    <v>       0.49728300       0.50344492       0.49942447 </v>
    <v>       0.49576698       0.74636520       0.50208697 </v>
    <v>       0.76272333       0.00621772       0.50074410 </v>
    <v>       0.74449565       0.26244089       0.50664355 </v>
    <v>       0.75191134       0.49225412       0.50318959 </v>
    <v>       0.74351982       0.74828423       0.49676985 </v>
   </varray>
  </structure>
  <varray name="forces" >
   <v>       0.22485887      -0.22060464      -0.01556463 </v>
   <v>      -0.69529847      -1.54731154       0.45209303 </v>
   <v>      -1.08597441       1.84162146      -1.96180578 </v>
   <v>      -0.62466601      -0.35196877      -0.48995694 </v>
   <v>      -1.10633628      -0.04943776      -0.07221460 </v>
   <v>       1.26048538       0.56959593       0.75082824 </v>
   <v>       0.57901654       0.53264048      -0.10712546 </v>
   <v>       1.66497671       0.74720828       1.29573827 </v>
   <v>       2.08972320       0.66112376      -0.34641689 </v>
   <v>      -1.01411700       0.85698343       1.70927506 </v>
   <v>      -0.33771580       0.09584628       0.59161658 </v>
   <v>      -0.25055194      -1.04515638       0.44670941 </v>
   <v>      -0.03188004       1.06504153      -0.14383614 </v>
   <v>      -0.26470138      -0.29398453      -0.32090396 </v>
   <v>       0.19536131       0.14260076       0.46217935 </v>
   <v>       0.73660184      -0.87520386       0.30163080 </v>
   <v>      -1.24359308      -0.27720990      -0.20395866 </v>
   <v>      -0.96374481       0.45361418      -0.37506689 </v>
   <v>       0.40398745      -0.06215156      -0.00404086 </v>
   <v>      -0.50168642      -1.58451080      -1.32340163 </v>
   <v>      -0.07362030       0.74234176      -0.74011795 </v>
   <v>       0.07565325       0.42640945      -0.70557779 </v>
   <v>      -0.70387726       1.43034995       0.07598484 </v>
   <v>      -0.57304916      -1.39440783      -0.36259881 </v>
   <v>       0.24484473       1.67241860      -1.21728250 </v>
   <v>       0.28249667      -0.70302401      -0.09071354 </v>
   <v>       0.75412965       0.83922737       0.04268976 </v>
   <v>       0.38844286       0.44300296       0.04836931 </v>
   <v>      -0.37821926      -1.11414394       0.43445404 </v>
   <v>       0.37010558      -0.64725232       0.10892651 </v>
   <v>       0.08563313       0.73428743       0.09811656 </v>
   <v>      -0.55443695       0.00770073      -1.17247165 </v>
   <v>       0.31796382      -0.80321986      -0.31434840 </v>
   <v>       0.37682761       0.45563903       0.16084741 </v>
   <v>      -0.37046044       0.05698076       0.81584120 </v>
   <v>      -0.27402461       0.11085392       0.73183073 </v>
   <v>      -0.04925164      -0.32739667       0.78331638 </v>
   <v>      -0.29676445       0.08775973      -0.27799317 </v>
   <v>       0.81735489       0.31514889       0.38019588 </v>
   <v>      -0.59712765       0.09312364       0.09623578 </v>
   <v>      -0.00055618      -0.21604323      -0.34579890 </v>
   <v>      -0.80170906      -0.33807717      -0.43967845 </v>
   <v>      -0.06621929      -1.26276647      -0.46622872 </v>
   <v>      -0.47633198       1.27831694      -0.55694845 </v>
   <v>      -0.03512179       0.06943097       0.62008112 </v>
   <v>       0.71418119       0.41400338      -0.40755836 </v>
   <v>      -0.58161938      -0.23333062       0.43106742 </v>
   <v>       0.48386130       0.29857552       0.66008299 </v>
   <v>      -0.04087991      -0.10571469      -0.33434341 </v>
   <v>       0.15877895       0.31797442       0.19723811 </v>
   <v>       1.37976786      -0.77459226       1.13808716 </v>
   <v>      -0.30772401       0.08752470      -0.32931698 </v>
   <v>      -0.37101655      -0.16627125       0.17694463 </v>
   <v>      -0.72497307      -0.29789068       0.15476460 </v>
   <v>       0.27149644      -0.21244405      -0.57242629 </v>
   <v>       0.47563644       0.13298468      -0.50816019 </v>
   <v>      -0.37516126       1.05911471       0.12355434 </v>
   <v>       0.34976365      -0.32260810       0.42725708 </v>
   <v>      -0.47551374       0.61771960      -0.21237882 </v>
   <v>       0.34065551      -0.22558836       1.06096229 </v>
   <v>       0.15656613       0.24444008      -0.07636265 </v>
   <v>      -0.61569000      -0.03357787      -0.09771649 </v>
   <v>       0.17605823      -0.66700241      -0.29941245 </v>
   <v>      -0.15790246       0.12552456      -0.19266927 </v>
   <v>       0.37969542      -0.45182540       0.37742693 </v>
   <v>       0.75087554       0.27303296      -0.75662145 </v>
   <v>       0.55663012      -0.02760727      -0.61244999 </v>
   <v>       0.32153042       0.18952756       0.94508997 </v>
   <v>      -0.41024419       0.74854274       0.65396950 </v>
   <v>      -0.13381869       0.24081561       0.12380060 </v>
   <v>       0.16748215      -1.38223398       0.52350673 </v>
   <v>      -0.80898083      -0.07397805      -0.46793340 </v>
   <v>      -0.17979990      -1.09157301       0.35785182 </v>
   <v>       0.34428713      -0.70321413       0.91244331 </v>
   <v>       0.40241348      -0.63809906      -0.74492265 </v>
   <v>       0.15335043       0.47961130      -0.23554296 </v>
   <v>      -1.44547827      -0.05359560      -0.27910608 </v>
   <v>       1.06342268      -1.26540523      -0.15995241 </v>
   <v>      -0.41794369       1.08998872      -0.74111704 </v>
   <v>       0.90286506      -0.20822550       0.41103394 </v>
  </varray>
  <varray name="stress" >
   <v>       4.68117550      -0.12229268       2.75179626 </v>
   <v>      -0.12229266       3.52221421       0.50116603 </v>
   <v>       2.75179625       0.50116604       0.88025297 </v>
  </varray>
  <energy>
   <i name="e_fr_energy">   -524.04400700 </i>
   <i name="e_wo_entrp">   -524.04400700 </i>
   <i name="e_0_energy">     -0.00000000 </i>
  </energy>
  <time name="totalsc"> 1907.55 1907.92</time>
  <eigenvalues>
   <array>
    <dimension dim="1">band</dimension>
    <dimension dim="2">kpoint</dimension>
    <dimension dim="3">spin</dimension>
    <field>eigene</field>
    <field>occ</field>
    <set>
     <set comment="spin 1">
      <set comment="kpoint 1">
       <r>  -51.8862    1.0000 </r>
       <r>  -51.7494    1.0000 </r>
       <r>  -51.7361    1.0000 </r>
       <r>  -51.7149    1.0000 </r>
       <r>  -51.6612    1.0000 </r>
       <r>  -51.6308    1.0000 </r>
       <r>  -51.6214    1.0000 </r>
       <r>  -51.6073    1.0000 </r>
       <r>  -51.5964    1.0000 </r>
       <r>  -51.5918    1.0000 </r>
       <r>  -51.5723    1.0000 </r>
       <r>  -51.5041    1.0000 </r>
       <r>  -51.4837    1.0000 </r>
       <r>  -51.4758    1.0000 </r>
       <r>  -51.4615    1.0000 </r>
       <r>  -51.4398    1.0000 </r>
       <r>  -51.4364    1.0000 </r>
       <r>  -51.4273    1.0000 </r>
       <r>  -51.4203    1.0000 </r>
       <r>  -51.4125    1.0000 </r>
       <r>  -51.3975    1.0000 </r>
       <r>  -51.3821    1.0000 </r>
       <r>  -51.3654    1.0000 </r>
       <r>  -51.3582    1.0000 </r>
       <r>  -51.3042    1.0000 </r>
       <r>  -51.3017    1.0000 </r>
       <r>  -51.2650    1.0000 </r>
       <r>  -51.2225    1.0000 </r>
       <r>  -51.2155    1.0000 </r>
       <r>  -51.1847    1.0000 </r>
       <r>  -51.1605    1.0000 </r>
       <r>  -51.0272    1.0000 </r>
       <r>  -30.5699    1.0000 </r>
       <r>  -30.5471    1.0000 </r>
       <r>  -30.5334    1.0000 </r>
       <r>  -30.5297    1.0000 </r>
       <r>  -30.4894    1.0000 </r>
       <r>  -30.4642    1.0000 </r>
       <r>  -30.4595    1.0000 </r>
       <r>  -30.4252    1.0000 </r>
       <r>  -30.4203    1.0000 </r>
       <r>  -30.4090    1.0000 </r>
       <r>  -30.4078    1.0000 </r>
       <r>  -30.3715    1.0000 </r>
       <r>  -30.3581    1.0000 </r>
       <r>  -30.3487    1.0000 </r>
       <r>  -30.3400    1.0000 </r>
       <r>  -30.3374    1.0000 </r>
       <r>  -30.3299    1.0000 </r>
       <r>  -30.3277    1.0000 </r>
       <r>  -30.3219    1.0000 </r>
       <r>  -30.3114    1.0000 </r>
       <r>  -30.3084    1.0000 </r>
       <r>  -30.3001    1.0000 </r>
       <r>  -30.2952    1.0000 </r>
       <r>  -30.2890    1.0000 </r>
       <r>  -30.2757    1.0000 </r>
       <r>  -30.2690    1.0000 </r>
       <r>  -30.2645    1.0000 </r>
       <r>  -30.2639    1.0000 </r>
       <r>  -30.2554    1.0000 </r>
       <r>  -30.2496    1.0000 </r>
       <r>  -30.2467    1.0000 </r>
       <r>  -30.2391    1.0000 </r>
       <r>  -30.2295    1.0000 </r>
       <r>  -30.2195    1.0000 </r>
       <r>  -30.2126    1.0000 </r>
       <r>  -30.2015    1.0000 </r>
       <r>  -30.1823    1.0000 </r>
       <r>  -30.1798    1.0000 </r>
       <r>  -30.1685    1.0000 </r>
       <r>  -30.1536    1.0000 </r>
       <r>  -30.1475    1.0000 </r>
       <r>  -30.1445    1.0000 </r>
       <r>  -30.1372    1.0000 </r>
       <r>  -30.1331    1.0000 </r>
       <r>  -30.1201    1.0000 </r>
       <r>  -30.1140    1.0000 </r>
       <r>  -30.1114    1.0000 </r>
       <r>  -30.1032    1.0000 </r>
       <r>  -30.1019    1.0000 </r>
       <r>  -30.0913    1.0000 </r>
       <r>  -30.0876    1.0000 </r>
       <r>  -30.0856    1.0000 </r>
       <r>  -30.0812    1.0000 </r>
       <r>  -30.0781    1.0000 </r>
       <r>  -30.0721    1.0000 </r>
       <r>  -30.0597    1.0000 </r>
       <r>  -30.0570    1.0000 </r>
       <r>  -30.0531    1.0000 </r>
       <r>  -30.0487    1.0000 </r>
       <r>  -30.0419    1.0000 </r>
       <r>  -30.0361    1.0000 </r>
       <r>  -30.0272    1.0000 </r>
       <r>  -30.0241    1.0000 </r>
       <r>  -30.0221    1.0000 </r>
       <r>  -30.0189    1.0000 </r>
       <r>  -30.0166    1.0000 </r>
       <r>  -30.0138    1.0000 </r>
       <r>  -30.0086    1.0000 </r>
       <r>  -30.0048    1.0000 </r>
       <r>  -29.9965    1.0000 </r>
       <r>  -29.9917    1.0000 </r>
       <r>  -29.9796    1.0000 </r>
       <r>  -29.9648    1.0000 </r>
       <r>  -29.9580    1.0000 </r>
       <r>  -29.9540    1.0000 </r>
       <r>  -29.9527    1.0000 </r>
       <r>  -29.9415    1.0000 </r>
       <r>  -29.9357    1.0000 </r>
       <r>  -29.9236    1.0000 </r>
       <r>  -29.9157    1.0000 </r>
       <r>  -29.9114    1.0000 </r>
       <r>  -29.8935    1.0000 </r>
       <r>  -29.8881    1.0000 </r>
       <r>  -29.8820    1.0000 </r>
       <r>  -29.8672    1.0000 </r>
       <r>  -29.8641    1.0000 </r>
       <r>  -29.8557    1.0000 </r>
       <r>  -29.8401    1.0000 </r>
       <r>  -29.8313    1.0000 </r>
       <r>  -29.8194    1.0000 </r>
       <r>  -29.8060    1.0000 </r>
       <r>  -29.7761    1.0000 </r>
       <r>  -29.7705    1.0000 </r>
       <r>  -29.7264    1.0000 </r>
       <r>  -29.6739    1.0000 </r>
       <r>  -29.6403    1.0000 </r>
       <r>  -18.6935    1.0000 </r>
       <r>  -18.5307    1.0000 </r>
       <r>  -18.5024    1.0000 </r>
       <r>  -18.4106    1.0000 </r>
       <r>  -18.3972    1.0000 </r>
       <r>  -18.3917    1.0000 </r>
       <r>  -18.3442    1.0000 </r>
       <r>  -18.2675    1.0000 </r>
       <r>  -18.2531    1.0000 </r>
       <r>  -18.2326    1.0000 </r>
       <r>  -18.1575    1.0000 </r>
       <r>  -18.1272    1.0000 </r>
       <r>  -18.0874    1.0000 </r>
       <r>  -18.0820    1.0000 </r>
       <r>  -18.0378    1.0000 </r>
       <r>  -18.0050    1.0000 </r>
       <r>  -17.9722    1.0000 </r>
       <r>  -17.9716    1.0000 </r>
       <r>  -17.9529    1.0000 </r>
       <r>  -17.8697    1.0000 </r>
       <r>  -17.8584    1.0000 </r>
       <r>  -17.8098    1.0000 </r>
       <r>  -17.7456    1.0000 </r>
       <r>  -17.7268    1.0000 </r>
       <r>  -17.7078    1.0000 </r>
       <r>  -17.6863    1.0000 </r>
       <r>  -17.6787    1.0000 </r>
       <r>  -17.5906    1.0000 </r>
       <r>  -17.5808    1.0000 </r>
       <r>  -17.4991    1.0000 </r>
       <r>  -17.3998    1.0000 </r>
       <r>  -17.3452    1.0000 </r>
       <r>  -11.9067    1.0000 </r>
       <r>  -11.5922    1.0000 </r>
       <r>  -11.5184    1.0000 </r>
       <r>  -11.4904    1.0000 </r>
       <r>  -11.4465    1.0000 </r>
       <r>  -11.4271    1.0000 </r>
       <r>  -11.3322    1.0000 </r>
       <r>  -11.1420    1.0000 </r>
       <r>  -11.0761    1.0000 </r>
       <r>  -11.0035    1.0000 </r>
       <r>  -10.9668    1.0000 </r>
       <r>  -10.9376    1.0000 </r>
       <r>  -10.8825    1.0000 </r>
       <r>  -10.8536    1.0000 </r>
       <r>  -10.7950    1.0000 </r>
       <r>  -10.7530    1.0000 </r>
       <r>   -8.0558    1.0000 </r>
       <r>   -8.0299    1.0000 </r>
       <r>   -7.9679    1.0000 </r>
       <r>   -7.8583    1.0000 </r>
       <r>   -7.7676    1.0000 </r>
       <r>   -7.7336    1.0000 </r>
       <r>   -7.6795    1.0000 </r>
       <r>   -7.6014    1.0000 </r>
       <r>   -7.5770    1.0000 </r>
       <r>   -7.5657    1.0000 </r>
       <r>   -7.5607    1.0000 </r>
       <r>   -7.4992    1.0000 </r>
       <r>   -7.4960    1.0000 </r>
       <r>   -7.3959    1.0000 </r>
       <r>   -7.3832    1.0000 </r>
       <r>   -7.3271    1.0000 </r>
       <r>   -7.2976    1.0000 </r>
       <r>   -7.2879    1.0000 </r>
       <r>   -7.2251    1.0000 </r>
       <r>   -7.1856    1.0000 </r>
       <r>   -7.1517    1.0000 </r>
       <r>   -7.1313    1.0000 </r>
       <r>   -7.1079    1.0000 </r>
       <r>   -7.0562    1.0000 </r>
       <r>   -7.0457    1.0000 </r>
       <r>   -7.0206    1.0000 </r>
       <r>   -6.9742    1.0000 </r>
       <r>   -6.9582    1.0000 </r>
       <r>   -6.9288    1.0000 </r>
       <r>   -6.9059    1.0000 </r>
       <r>   -6.8755    1.0000 </r>
       <r>   -6.8695    1.0000 </r>
       <r>   -6.8478    1.0000 </r>
       <r>   -6.8377    1.0000 </r>
       <r>   -6.8147    1.0000 </r>
       <r>   -6.7983    1.0000 </r>
       <r>   -6.7961    1.0000 </r>
       <r>   -6.7692    1.0000 </r>
       <r>   -6.7321    1.0000 </r>
       <r>   -6.7265    1.0000 </r>
       <r>   -6.6940    1.0000 </r>
       <r>   -6.6814    1.0000 </r>
       <r>   -6.6569    1.0000 </r>
       <r>   -6.6544    1.0000 </r>
       <r>   -6.6305    1.0000 </r>
       <r>   -6.6034    1.0000 </r>
       <r>   -6.5937    1.0000 </r>
       <r>   -6.5730    1.0000 </r>
       <r>   -6.5697    1.0000 </r>
       <r>   -6.5373    1.0000 </r>
       <r>   -6.5113    1.0000 </r>
       <r>   -6.5003    1.0000 </r>
       <r>   -6.4671    1.0000 </r>
       <r>   -6.4484    1.0000 </r>
       <r>   -6.4354    1.0000 </r>
       <r>   -6.4180    1.0000 </r>
       <r>   -6.4100    1.0000 </r>
       <r>   -6.3804    1.0000 </r>
       <r>   -6.3544    1.0000 </r>
       <r>   -6.3412    1.0000 </r>
       <r>   -6.3351    1.0000 </r>
       <r>   -6.3268    1.0000 </r>
       <r>   -6.3038    1.0000 </r>
       <r>   -6.2862    1.0000 </r>
       <r>   -6.2641    1.0000 </r>
       <r>   -6.2468    1.0000 </r>
       <r>   -6.2078    1.0000 </r>
       <r>   -6.1944    1.0000 </r>
       <r>   -6.1583    1.0000 </r>
       <r>   -6.1506    1.0000 </r>
       <r>   -6.0901    1.0000 </r>
       <r>   -6.0626    1.0000 </r>
       <r>   -6.0500    1.0000 </r>
       <r>   -6.0352    1.0000 </r>
       <r>   -5.8999    1.0000 </r>
       <r>   -5.8786    1.0000 </r>
       <r>   -5.8343    1.0000 </r>
       <r>   -5.7567    1.0000 </r>
       <r>   -5.6992    1.0000 </r>
       <r>   -5.6435    1.0000 </r>
       <r>   -5.6375    1.0000 </r>
       <r>   -5.6299    1.0000 </r>
       <r>   -5.5776    1.0000 </r>
       <r>   -5.5625    1.0000 </r>
       <r>   -5.4938    1.0000 </r>
       <r>   -5.4257    1.0000 </r>
       <r>   -5.3927    1.0000 </r>
       <r>   -5.3693    1.0000 </r>
       <r>   -5.3537    1.0000 </r>
       <r>   -5.3230    1.0000 </r>
       <r>   -5.2887    1.0000 </r>
       <r>   -5.2596    1.0000 </r>
       <r>   -5.2240    1.0000 </r>
       <r>   -5.1653    1.0000 </r>
       <r>   -5.0612    1.0000 </r>
       <r>   -4.9816    1.0000 </r>
       <r>   -4.9727    1.0000 </r>
       <r>   -4.9218    1.0000 </r>
       <r>   -4.8408    1.0000 </r>
       <r>   -4.7430    1.0000 </r>
       <r>   -4.7213    1.0000 </r>
       <r>   -4.6538    1.0000 </r>
       <r>   -4.6321    1.0000 </r>
       <r>   -4.5992    1.0000 </r>
       <r>   -4.5559    1.0000 </r>
       <r>   -4.3783    1.0000 </r>
       <r>   -4.3596    1.0000 </r>
       <r>   -4.2670    1.0000 </r>
       <r>   -4.2295    1.0000 </r>
       <r>   -4.2046    1.0000 </r>
       <r>   -4.1848    1.0000 </r>
       <r>   -4.1647    1.0000 </r>
       <r>   -4.1262    1.0000 </r>
       <r>   -4.1077    1.0000 </r>
       <r>   -4.0826    1.0000 </r>
       <r>   -4.0675    1.0000 </r>
       <r>   -4.0318    1.0000 </r>
       <r>   -4.0121    1.0000 </r>
       <r>   -3.9672    1.0000 </r>
       <r>   -3.9569    1.0000 </r>
       <r>   -3.9244    1.0000 </r>
       <r>   -3.8959    1.0000 </r>
       <r>   -3.8246    1.0000 </r>
       <r>   -3.7901    1.0000 </r>
       <r>   -3.7695    1.0000 </r>
       <r>   -3.7186    1.0000 </r>
       <r>   -3.7112    1.0000 </r>
       <r>   -3.6946    1.0000 </r>
       <r>   -3.6003    1.0000 </r>
       <r>   -3.5867    1.0000 </r>
       <r>   -3.5463    1.0000 </r>
       <r>   -3.5122    1.0000 </r>
       <r>   -3.4986    1.0000 </r>
       <r>   -3.4658    1.0000 </r>
       <r>   -3.4486    1.0000 </r>
       <r>   -3.4381    1.0000 </r>
       <r>   -3.3925    1.0000 </r>
       <r>   -3.3325    1.0000 </r>
       <r>   -3.2796    1.0000 </r>
       <r>   -3.2558    1.0000 </r>
       <r>   -3.2148    1.0000 </r>
       <r>   -3.1515    1.0000 </r>
       <r>   -3.0603    1.0000 </r>
       <r>   -2.9991    1.0000 </r>
       <r>   -2.1952    0.0000 </r>
       <r>   -2.1540    0.0000 </r>
       <r>   -2.0936    0.0000 </r>
       <r>   -1.6063    0.0000 </r>
       <r>   -1.5754    0.0000 </r>
       <r>   -1.5363    0.0000 </r>
       <r>   -1.4483    0.0000 </r>
       <r>   -1.4404    0.0000 </r>
       <r>   -1.3992    0.0000 </r>
       <r>   -0.8330    0.0000 </r>
       <r>   -0.7998    0.0000 </r>
       <r>   -0.7592    0.0000 </r>
       <r>   -0.7266    0.0000 </r>
       <r>   -0.6592    0.0000 </r>
       <r>   -0.6513    0.0000 </r>
       <r>   -0.6186    0.0000 </r>
       <r>   -0.5987    0.0000 </r>
       <r>   -0.5687    0.0000 </r>
       <r>   -0.5448    0.0000 </r>
       <r>   -0.4767    0.0000 </r>
       <r>   -0.4485    0.0000 </r>
       <r>   -0.4354    0.0000 </r>
       <r>   -0.3934    0.0000 </r>
       <r>   -0.3261    0.0000 </r>
       <r>   -0.0983    0.0000 </r>
       <r>   -0.0230    0.0000 </r>
       <r>    0.0328    0.0000 </r>
       <r>    0.0723    0.0000 </r>
       <r>    0.1053    0.0000 </r>
       <r>    0.1159    0.0000 </r>
       <r>    0.1411    0.0000 </r>
       <r>    0.1745    0.0000 </r>
       <r>    0.1835    0.0000 </r>
       <r>    0.2207    0.0000 </r>
       <r>    0.2430    0.0000 </r>
       <r>    0.2846    0.0000 </r>
       <r>    0.3993    0.0000 </r>
       <r>    0.4575    0.0000 </r>
       <r>    0.4979    0.0000 </r>
       <r>    0.5341    0.0000 </r>
       <r>    0.5702    0.0000 </r>
       <r>    0.5982    0.0000 </r>
       <r>    0.6160    0.0000 </r>
       <r>    0.6241    0.0000 </r>
       <r>    0.6598    0.0000 </r>
       <r>    0.6724    0.0000 </r>
       <r>    0.6903    0.0000 </r>
       <r>    0.6990    0.0000 </r>
       <r>    0.7172    0.0000 </r>
       <r>    0.7621    0.0000 </r>
       <r>    0.7687    0.0000 </r>
       <r>    0.7846    0.0000 </r>
       <r>    0.8002    0.0000 </r>
       <r>    0.8060    0.0000 </r>
       <r>    0.8243    0.0000 </r>
       <r>    0.8690    0.0000 </r>
       <r>    0.8736    0.0000 </r>
       <r>    0.8954    0.0000 </r>
       <r>    0.9082    0.0000 </r>
       <r>    0.9241    0.0000 </r>
       <r>    0.9411    0.0000 </r>
       <r>    0.9553    0.0000 </r>
       <r>    0.9699    0.0000 </r>
       <r>    1.0061    0.0000 </r>
      </set>
      <set comment="kpoint 2">
       <r>  -51.8862    1.0000 </r>
       <r>  -51.7494    1.0000 </r>
       <r>  -51.7361    1.0000 </r>
       <r>  -51.7149    1.0000 </r>
       <r>  -51.6612    1.0000 </r>
       <r>  -51.6308    1.0000 </r>
       <r>  -51.6214    1.0000 </r>
       <r>  -51.6073    1.0000 </r>
       <r>  -51.5965    1.0000 </r>
       <r>  -51.5918    1.0000 </r>
       <r>  -51.5723    1.0000 </r>
       <r>  -51.5041    1.0000 </r>
       <r>  -51.4837    1.0000 </r>
       <r>  -51.4758    1.0000 </r>
       <r>  -51.4615    1.0000 </r>
       <r>  -51.4398    1.0000 </r>
       <r>  -51.4364    1.0000 </r>
       <r>  -51.4273    1.0000 </r>
       <r>  -51.4203    1.0000 </r>
       <r>  -51.4125    1.0000 </r>
       <r>  -51.3975    1.0000 </r>
       <r>  -51.3821    1.0000 </r>
       <r>  -51.3654    1.0000 </r>
       <r>  -51.3582    1.0000 </r>
       <r>  -51.3042    1.0000 </r>
       <r>  -51.3017    1.0000 </r>
       <r>  -51.2650    1.0000 </r>
       <r>  -51.2225    1.0000 </r>
       <r>  -51.2155    1.0000 </r>
       <r>  -51.1847    1.0000 </r>
       <r>  -51.1605    1.0000 </r>
       <r>  -51.0272    1.0000 </r>
       <r>  -30.5698    1.0000 </r>
       <r>  -30.5470    1.0000 </r>
       <r>  -30.5334    1.0000 </r>
       <r>  -30.5296    1.0000 </r>
       <r>  -30.4892    1.0000 </r>
       <r>  -30.4639    1.0000 </r>
       <r>  -30.4593    1.0000 </r>
       <r>  -30.4256    1.0000 </r>
       <r>  -30.4200    1.0000 </r>
       <r>  -30.4090    1.0000 </r>
       <r>  -30.4073    1.0000 </r>
       <r>  -30.3706    1.0000 </r>
       <r>  -30.3582    1.0000 </r>
       <r>  -30.3484    1.0000 </r>
       <r>  -30.3399    1.0000 </r>
       <r>  -30.3382    1.0000 </r>
       <r>  -30.3310    1.0000 </r>
       <r>  -30.3284    1.0000 </r>
       <r>  -30.3217    1.0000 </r>
       <r>  -30.3108    1.0000 </r>
       <r>  -30.3066    1.0000 </r>
       <r>  -30.3001    1.0000 </r>
       <r>  -30.2960    1.0000 </r>
       <r>  -30.2890    1.0000 </r>
       <r>  -30.2792    1.0000 </r>
       <r>  -30.2703    1.0000 </r>
       <r>  -30.2654    1.0000 </r>
       <r>  -30.2611    1.0000 </r>
       <r>  -30.2555    1.0000 </r>
       <r>  -30.2518    1.0000 </r>
       <r>  -30.2473    1.0000 </r>
       <r>  -30.2398    1.0000 </r>
       <r>  -30.2321    1.0000 </r>
       <r>  -30.2173    1.0000 </r>
       <r>  -30.2131    1.0000 </r>
       <r>  -30.2053    1.0000 </r>
       <r>  -30.1808    1.0000 </r>
       <r>  -30.1754    1.0000 </r>
       <r>  -30.1652    1.0000 </r>
       <r>  -30.1537    1.0000 </r>
       <r>  -30.1454    1.0000 </r>
       <r>  -30.1439    1.0000 </r>
       <r>  -30.1361    1.0000 </r>
       <r>  -30.1334    1.0000 </r>
       <r>  -30.1208    1.0000 </r>
       <r>  -30.1143    1.0000 </r>
       <r>  -30.1120    1.0000 </r>
       <r>  -30.1047    1.0000 </r>
       <r>  -30.0992    1.0000 </r>
       <r>  -30.0920    1.0000 </r>
       <r>  -30.0869    1.0000 </r>
       <r>  -30.0853    1.0000 </r>
       <r>  -30.0815    1.0000 </r>
       <r>  -30.0782    1.0000 </r>
       <r>  -30.0732    1.0000 </r>
       <r>  -30.0612    1.0000 </r>
       <r>  -30.0567    1.0000 </r>
       <r>  -30.0524    1.0000 </r>
       <r>  -30.0502    1.0000 </r>
       <r>  -30.0442    1.0000 </r>
       <r>  -30.0375    1.0000 </r>
       <r>  -30.0288    1.0000 </r>
       <r>  -30.0245    1.0000 </r>
       <r>  -30.0226    1.0000 </r>
       <r>  -30.0180    1.0000 </r>
       <r>  -30.0149    1.0000 </r>
       <r>  -30.0115    1.0000 </r>
       <r>  -30.0082    1.0000 </r>
       <r>  -30.0015    1.0000 </r>
       <r>  -29.9975    1.0000 </r>
       <r>  -29.9930    1.0000 </r>
       <r>  -29.9799    1.0000 </r>
       <r>  -29.9652    1.0000 </r>
       <r>  -29.9577    1.0000 </r>
       <r>  -29.9540    1.0000 </r>
       <r>  -29.9520    1.0000 </r>
       <r>  -29.9410    1.0000 </r>
       <r>  -29.9352    1.0000 </r>
       <r>  -29.9237    1.0000 </r>
       <r>  -29.9158    1.0000 </r>
       <r>  -29.9107    1.0000 </r>
       <r>  -29.8938    1.0000 </r>
       <r>  -29.8885    1.0000 </r>
       <r>  -29.8818    1.0000 </r>
       <r>  -29.8669    1.0000 </r>
       <r>  -29.8643    1.0000 </r>
       <r>  -29.8556    1.0000 </r>
       <r>  -29.8401    1.0000 </r>
       <r>  -29.8317    1.0000 </r>
       <r>  -29.8198    1.0000 </r>
       <r>  -29.8065    1.0000 </r>
       <r>  -29.7761    1.0000 </r>
       <r>  -29.7705    1.0000 </r>
       <r>  -29.7265    1.0000 </r>
       <r>  -29.6740    1.0000 </r>
       <r>  -29.6403    1.0000 </r>
       <r>  -18.6903    1.0000 </r>
       <r>  -18.5166    1.0000 </r>
       <r>  -18.4904    1.0000 </r>
       <r>  -18.4328    1.0000 </r>
       <r>  -18.4222    1.0000 </r>
       <r>  -18.4004    1.0000 </r>
       <r>  -18.3537    1.0000 </r>
       <r>  -18.2886    1.0000 </r>
       <r>  -18.2147    1.0000 </r>
       <r>  -18.1991    1.0000 </r>
       <r>  -18.1638    1.0000 </r>
       <r>  -18.1205    1.0000 </r>
       <r>  -18.0913    1.0000 </r>
       <r>  -18.0668    1.0000 </r>
       <r>  -18.0503    1.0000 </r>
       <r>  -18.0051    1.0000 </r>
       <r>  -17.9983    1.0000 </r>
       <r>  -17.9586    1.0000 </r>
       <r>  -17.9466    1.0000 </r>
       <r>  -17.8748    1.0000 </r>
       <r>  -17.8586    1.0000 </r>
       <r>  -17.8074    1.0000 </r>
       <r>  -17.7376    1.0000 </r>
       <r>  -17.7365    1.0000 </r>
       <r>  -17.7181    1.0000 </r>
       <r>  -17.6850    1.0000 </r>
       <r>  -17.6720    1.0000 </r>
       <r>  -17.5945    1.0000 </r>
       <r>  -17.5788    1.0000 </r>
[...]
       <r>   -32.4200     0.0000    64.0000 </r>
       <r>   -32.2260     0.0000    64.0000 </r>
       <r>   -32.0321     0.0000    64.0000 </r>
       <r>   -31.8381     0.0000    64.0000 </r>
       <r>   -31.6441     0.0000    64.0000 </r>
       <r>   -31.4502     0.0000    64.0000 </r>
       <r>   -31.2562     0.0000    64.0000 </r>
       <r>   -31.0623     0.0000    64.0000 </r>
       <r>   -30.8683     0.0000    64.0000 </r>
       <r>   -30.6744     0.0182    64.0035 </r>
       <r>   -30.4804    53.1592    74.3141 </r>
       <r>   -30.2864   190.1037   111.1861 </r>
       <r>   -30.0925   274.5511   164.4372 </r>
       <r>   -29.8985   320.6487   226.6293 </r>
       <r>   -29.7046   129.8219   251.8092 </r>
       <r>   -29.5106    21.6056   255.9998 </r>
       <r>   -29.3167     0.0013   256.0000 </r>
       <r>   -29.1227     0.0000   256.0000 </r>
       <r>   -28.9287     0.0000   256.0000 </r>
       <r>   -28.7348     0.0000   256.0000 </r>
       <r>   -28.5408     0.0000   256.0000 </r>
       <r>   -28.3469     0.0000   256.0000 </r>
       <r>   -28.1529     0.0000   256.0000 </r>
       <r>   -27.9590     0.0000   256.0000 </r>
       <r>   -27.7650     0.0000   256.0000 </r>
       <r>   -27.5710     0.0000   256.0000 </r>
       <r>   -27.3771     0.0000   256.0000 </r>
       <r>   -27.1831     0.0000   256.0000 </r>
       <r>   -26.9892     0.0000   256.0000 </r>
       <r>   -26.7952     0.0000   256.0000 </r>
       <r>   -26.6013     0.0000   256.0000 </r>
       <r>   -26.4073     0.0000   256.0000 </r>
       <r>   -26.2133     0.0000   256.0000 </r>
       <r>   -26.0194     0.0000   256.0000 </r>
       <r>   -25.8254     0.0000   256.0000 </r>
       <r>   -25.6315     0.0000   256.0000 </r>
       <r>   -25.4375     0.0000   256.0000 </r>
       <r>   -25.2436     0.0000   256.0000 </r>
       <r>   -25.0496     0.0000   256.0000 </r>
       <r>   -24.8556     0.0000   256.0000 </r>
       <r>   -24.6617     0.0000   256.0000 </r>
       <r>   -24.4677     0.0000   256.0000 </r>
       <r>   -24.2738     0.0000   256.0000 </r>
       <r>   -24.0798     0.0000   256.0000 </r>
       <r>   -23.8859     0.0000   256.0000 </r>
       <r>   -23.6919     0.0000   256.0000 </r>
       <r>   -23.4979     0.0000   256.0000 </r>
       <r>   -23.3040     0.0000   256.0000 </r>
       <r>   -23.1100     0.0000   256.0000 </r>
       <r>   -22.9161     0.0000   256.0000 </r>
       <r>   -22.7221     0.0000   256.0000 </r>
       <r>   -22.5282     0.0000   256.0000 </r>
       <r>   -22.3342     0.0000   256.0000 </r>
       <r>   -22.1402     0.0000   256.0000 </r>
       <r>   -21.9463     0.0000   256.0000 </r>
       <r>   -21.7523     0.0000   256.0000 </r>
       <r>   -21.5584     0.0000   256.0000 </r>
       <r>   -21.3644     0.0000   256.0000 </r>
       <r>   -21.1705     0.0000   256.0000 </r>
       <r>   -20.9765     0.0000   256.0000 </r>
       <r>   -20.7825     0.0000   256.0000 </r>
       <r>   -20.5886     0.0000   256.0000 </r>
       <r>   -20.3946     0.0000   256.0000 </r>
       <r>   -20.2007     0.0000   256.0000 </r>
       <r>   -20.0067     0.0000   256.0000 </r>
       <r>   -19.8128     0.0000   256.0000 </r>
       <r>   -19.6188     0.0000   256.0000 </r>
       <r>   -19.4249     0.0000   256.0000 </r>
       <r>   -19.2309     0.0000   256.0000 </r>
       <r>   -19.0369     0.0000   256.0000 </r>
       <r>   -18.8430     0.0001   256.0000 </r>
       <r>   -18.6490     8.9835   257.7424 </r>
       <r>   -18.4551    25.7010   262.7273 </r>
       <r>   -18.2611    47.3713   271.9153 </r>
       <r>   -18.0672    57.8738   283.1404 </r>
       <r>   -17.8732    64.2168   295.5957 </r>
       <r>   -17.6792    61.1571   307.4575 </r>
       <r>   -17.4853    40.2596   315.2662 </r>
       <r>   -17.2913    23.5911   319.8418 </r>
       <r>   -17.0974     0.8155   320.0000 </r>
       <r>   -16.9034     0.0000   320.0000 </r>
       <r>   -16.7095     0.0000   320.0000 </r>
       <r>   -16.5155     0.0000   320.0000 </r>
       <r>   -16.3215     0.0000   320.0000 </r>
       <r>   -16.1276     0.0000   320.0000 </r>
       <r>   -15.9336     0.0000   320.0000 </r>
       <r>   -15.7397     0.0000   320.0000 </r>
       <r>   -15.5457     0.0000   320.0000 </r>
       <r>   -15.3518     0.0000   320.0000 </r>
       <r>   -15.1578     0.0000   320.0000 </r>
       <r>   -14.9638     0.0000   320.0000 </r>
       <r>   -14.7699     0.0000   320.0000 </r>
       <r>   -14.5759     0.0000   320.0000 </r>
       <r>   -14.3820     0.0000   320.0000 </r>
       <r>   -14.1880     0.0000   320.0000 </r>
       <r>   -13.9941     0.0000   320.0000 </r>
       <r>   -13.8001     0.0000   320.0000 </r>
       <r>   -13.6061     0.0000   320.0000 </r>
       <r>   -13.4122     0.0000   320.0000 </r>
       <r>   -13.2182     0.0000   320.0000 </r>
       <r>   -13.0243     0.0000   320.0000 </r>
       <r>   -12.8303     0.0000   320.0000 </r>
       <r>   -12.6364     0.0000   320.0000 </r>
       <r>   -12.4424     0.0000   320.0000 </r>
       <r>   -12.2484     0.0000   320.0000 </r>
       <r>   -12.0545     0.0000   320.0000 </r>
       <r>   -11.8605     5.7789   321.1209 </r>
       <r>   -11.6666    12.3757   323.5212 </r>
       <r>   -11.4726    20.5881   327.5144 </r>
       <r>   -11.2787    25.3025   332.4220 </r>
       <r>   -11.0847    25.5741   337.3823 </r>
       <r>   -10.8907    38.7682   344.9016 </r>
       <r>   -10.6968    34.7734   351.6462 </r>
       <r>   -10.5028     1.8241   352.0000 </r>
       <r>   -10.3089     0.0000   352.0000 </r>
       <r>   -10.1149     0.0000   352.0000 </r>
       <r>    -9.9210     0.0000   352.0000 </r>
       <r>    -9.7270     0.0000   352.0000 </r>
       <r>    -9.5330     0.0000   352.0000 </r>
       <r>    -9.3391     0.0000   352.0000 </r>
       <r>    -9.1451     0.0000   352.0000 </r>
       <r>    -8.9512     0.0000   352.0000 </r>
       <r>    -8.7572     0.0000   352.0000 </r>
       <r>    -8.5633     0.0000   352.0000 </r>
       <r>    -8.3693     0.0000   352.0000 </r>
       <r>    -8.1753     0.0004   352.0001 </r>
       <r>    -7.9814     6.2959   353.2212 </r>
       <r>    -7.7874    32.5781   359.5400 </r>
       <r>    -7.5935    52.6025   369.7426 </r>
       <r>    -7.3995    65.3827   382.4240 </r>
       <r>    -7.2056    56.6217   393.4062 </r>
       <r>    -7.0116    68.3942   406.6718 </r>
       <r>    -6.8176    83.9567   422.9557 </r>
       <r>    -6.6237    98.9459   442.1470 </r>
       <r>    -6.4297    87.9058   459.1970 </r>
       <r>    -6.2358    93.6077   477.3528 </r>
       <r>    -6.0418    68.9292   490.7222 </r>
       <r>    -5.8479    60.4950   502.4556 </r>
       <r>    -5.6539    62.1975   514.5192 </r>
       <r>    -5.4599    52.8375   524.7674 </r>
       <r>    -5.2660    60.7390   536.5482 </r>
       <r>    -5.0720    26.3132   541.6518 </r>
       <r>    -4.8781    29.8115   547.4340 </r>
       <r>    -4.6841    38.3915   554.8803 </r>
       <r>    -4.4902    39.8767   562.6147 </r>
       <r>    -4.2962    31.5911   568.7420 </r>
       <r>    -4.1022    39.4640   576.3963 </r>
       <r>    -3.9083    68.1266   589.6099 </r>
       <r>    -3.7143    71.2842   603.4360 </r>
       <r>    -3.5204    74.1317   617.8144 </r>
       <r>    -3.3264    66.7321   630.7575 </r>
       <r>    -3.1325    35.4974   637.6425 </r>
       <r>    -2.9385    12.0939   639.9882 </r>
       <r>    -2.7445     0.0608   640.0000 </r>
       <r>    -2.5506     0.0000   640.0000 </r>
       <r>    -2.3566     0.0000   640.0000 </r>
       <r>    -2.1627     1.5974   640.3098 </r>
       <r>    -1.9687     9.7425   642.1995 </r>
       <r>    -1.7748    23.4444   646.7467 </r>
       <r>    -1.5808    12.3775   649.1474 </r>
       <r>    -1.3868    19.4462   652.9191 </r>
       <r>    -1.1929    26.2267   658.0060 </r>
       <r>    -0.9989    30.7989   663.9796 </r>
       <r>    -0.8050    13.8603   666.6679 </r>
       <r>    -0.6110    29.8982   672.4669 </r>
       <r>    -0.4171    38.5674   679.9473 </r>
       <r>    -0.2231    26.3869   685.0652 </r>
       <r>    -0.0291    34.8416   691.8230 </r>
       <r>     0.1648    36.2033   698.8449 </r>
       <r>     0.3588    39.0906   706.4268 </r>
       <r>     0.5527    65.8253   719.1941 </r>
       <r>     0.7467   106.8414   739.9167 </r>
       <r>     0.9406   110.5919   761.3668 </r>
       <r>     1.1346    34.1982   767.9998 </r>
       <r>     1.3286     0.0011   768.0000 </r>
       <r>     1.5225     0.0000   768.0000 </r>
       <r>     1.7165     0.0000   768.0000 </r>
       <r>     1.9104     0.0000   768.0000 </r>
       <r>     2.1044     0.0000   768.0000 </r>
       <r>     2.2983     0.0000   768.0000 </r>
       <r>     2.4923     0.0000   768.0000 </r>
       <r>     2.6863     0.0000   768.0000 </r>
       <r>     2.8802     0.0000   768.0000 </r>
       <r>     3.0742     0.0000   768.0000 </r>
       <r>     3.2681     0.0000   768.0000 </r>
       <r>     3.4621     0.0000   768.0000 </r>
       <r>     3.6560     0.0000   768.0000 </r>
      </set>
     </set>
    </array>
   </total>
  </dos>
 </calculation>
 <structure name="finalpos" >
  <crystal>
   <varray name="basis" >
    <v>      13.79398668       0.00000000       0.00000000 </v>
    <v>      -6.89699334      11.94594288       0.00000000 </v>
    <v>       0.00000000       0.00000000      27.81022107 </v>
   </varray>
   <i name="volume">   4582.62876984 </i>
   <varray name="rec_basis" >
    <v>       0.07249536       0.04185521       0.00000000 </v>
    <v>       0.00000000       0.08371043       0.00000000 </v>
    <v>       0.00000000       0.00000000       0.03595800 </v>
   </varray>
  </crystal>
  <varray name="positions" >
   <v>       0.08095264       0.16866598       0.54254681 </v>
   <v>       0.09462219       0.43275323       0.54238679 </v>
   <v>       0.06778273       0.64995868       0.55266165 </v>
   <v>       0.08763902       0.92493556       0.54572483 </v>
   <v>       0.34461499       0.17206049       0.54483702 </v>
   <v>       0.32304264       0.41505450       0.54193972 </v>
   <v>       0.33198042       0.66770398       0.54511760 </v>
   <v>       0.30872322       0.89999138       0.54416017 </v>
   <v>       0.56557785       0.16006120       0.54696607 </v>
   <v>       0.58842650       0.41091027       0.53775606 </v>
   <v>       0.58134977       0.66163952       0.54237623 </v>
   <v>       0.58653643       0.91988289       0.54456757 </v>
   <v>       0.83051055       0.15996824       0.54798970 </v>
   <v>       0.83146459       0.41519791       0.55181671 </v>
   <v>       0.82750964       0.66625211       0.54070448 </v>
   <v>       0.83936948       0.92811267       0.53978917 </v>
   <v>       0.18368930       0.08805091       0.45280631 </v>
   <v>       0.17216946       0.33397110       0.45592154 </v>
   <v>       0.16301929       0.59030495       0.45403529 </v>
   <v>       0.17269764       0.83996750       0.45741938 </v>
   <v>       0.41745762       0.07372728       0.45637289 </v>
   <v>       0.41510082       0.32805087       0.45551020 </v>
   <v>       0.41396260       0.57388577       0.45345695 </v>
   <v>       0.42511475       0.83904811       0.45991837 </v>
   <v>       0.66145329       0.07068537       0.46010501 </v>
   <v>       0.66956970       0.33455741       0.45817672 </v>
   <v>       0.65575931       0.58008115       0.45378425 </v>
   <v>       0.66660806       0.82887322       0.45649330 </v>
   <v>       0.92712803       0.10149964       0.45091512 </v>
   <v>       0.90791650       0.33688872       0.46080352 </v>
   <v>       0.91216654       0.57943430       0.45593203 </v>
   <v>       0.92610318       0.83720050       0.45512789 </v>
   <v>       0.09272381       0.18840559       0.39392155 </v>
   <v>       0.06210702       0.40499402       0.39870239 </v>
   <v>       0.08812074       0.66487113       0.38979562 </v>
   <v>       0.10209714       0.92390330       0.38937099 </v>
   <v>       0.34693746       0.17778170       0.38785722 </v>
   <v>       0.34010315       0.41465516       0.39517294 </v>
   <v>       0.31200681       0.64996990       0.39176372 </v>
   <v>       0.34941349       0.91394911       0.39545681 </v>
   <v>       0.58743894       0.16549435       0.40087380 </v>
   <v>       0.60305036       0.42596163       0.39696626 </v>
   <v>       0.59370394       0.68055301       0.39577450 </v>
   <v>       0.57393059       0.89015140       0.39912772 </v>
   <v>       0.82349748       0.16240855       0.39294958 </v>
   <v>       0.82082535       0.40826487       0.39850667 </v>
   <v>       0.85474353       0.67614683       0.39166455 </v>
   <v>       0.82795195       0.91695638       0.39117719 </v>
   <v>       0.17358124       0.09163297       0.60530659 </v>
   <v>       0.16362900       0.33137451       0.60193293 </v>
   <v>       0.15840357       0.59211115       0.60483660 </v>
   <v>       0.16390013       0.83565504       0.60878289 </v>
   <v>       0.41476489       0.08136516       0.60592200 </v>
   <v>       0.43006531       0.34198206       0.59975094 </v>
   <v>       0.40851629       0.58444054       0.60830398 </v>
   <v>       0.40072669       0.83061643       0.60803764 </v>
   <v>       0.66057340       0.05969309       0.60820650 </v>
   <v>       0.65760328       0.33325592       0.60463346 </v>
   <v>       0.66663879       0.57056973       0.60235818 </v>
   <v>       0.66787842       0.83285342       0.59539437 </v>
   <v>       0.91474218       0.07641593       0.60577276 </v>
   <v>       0.93181563       0.33508182       0.60773245 </v>
   <v>       0.91485014       0.60221479       0.61142609 </v>
   <v>       0.91778461       0.83568030       0.60184648 </v>
   <v>       0.00923239       0.01206813       0.49588900 </v>
   <v>       0.99243111       0.25064179       0.50362551 </v>
   <v>       0.99463727       0.50301533       0.50574537 </v>
   <v>       0.99621246       0.75045225       0.49583134 </v>
   <v>       0.25159369       0.99446040       0.49737137 </v>
   <v>       0.25325415       0.25056480       0.49805427 </v>
   <v>       0.25293806       0.51128704       0.49718282 </v>
   <v>       0.25570945       0.75161096       0.50164715 </v>
   <v>       0.50776749       0.00914790       0.50026676 </v>
   <v>       0.49410588       0.24925306       0.49664389 </v>
   <v>       0.49728300       0.50344492       0.49942447 </v>
   <v>       0.49576698       0.74636520       0.50208697 </v>
   <v>       0.76272333       0.00621772       0.50074410 </v>
   <v>       0.74449565       0.26244089       0.50664355 </v>
   <v>       0.75191134       0.49225412       0.50318959 </v>
   <v>       0.74351982       0.74828423       0.49676985 </v>
  </varray>
  <varray name="velocities" >
   <v>       0.00000000       0.00000000       0.00000000 </v>
   <v>       0.00000000       0.00000000       0.00000000 </v>
   <v>       0.00000000       0.00000000       0.00000000 </v>
   <v>       0.00000000       0.00000000       0.00000000 </v>
   <v>       0.00000000       0.00000000       0.00000000 </v>
   <v>       0.00000000       0.00000000       0.00000000 </v>
   <v>       0.00000000       0.00000000       0.00000000 </v>
   <v>       0.00000000       0.00000000       0.00000000 </v>
   <v>       0.00000000       0.00000000       0.00000000 </v>
   <v>       0.00000000       0.00000000       0.00000000 </v>
   <v>       0.00000000       0.00000000       0.00000000 </v>
   <v>       0.00000000       0.00000000       0.00000000 </v>
   <v>       0.00000000       0.00000000       0.00000000 </v>
   <v>       0.00000000       0.00000000       0.00000000 </v>
   <v>       0.00000000       0.00000000       0.00000000 </v>
   <v>       0.00000000       0.00000000       0.00000000 </v>
   <v>       0.00000000       0.00000000       0.00000000 </v>
   <v>       0.00000000       0.00000000       0.00000000 </v>
   <v>       0.00000000       0.00000000       0.00000000 </v>
   <v>       0.00000000       0.00000000       0.00000000 </v>
   <v>       0.00000000       0.00000000       0.00000000 </v>
   <v>       0.00000000       0.00000000       0.00000000 </v>
   <v>       0.00000000       0.00000000       0.00000000 </v>
   <v>       0.00000000       0.00000000       0.00000000 </v>
   <v>       0.00000000       0.00000000       0.00000000 </v>
   <v>       0.00000000       0.00000000       0.00000000 </v>
   <v>       0.00000000       0.00000000       0.00000000 </v>
   <v>       0.00000000       0.00000000       0.00000000 </v>
   <v>       0.00000000       0.00000000       0.00000000 </v>
   <v>       0.00000000       0.00000000       0.00000000 </v>
   <v>       0.00000000       0.00000000       0.00000000 </v>
   <v>       0.00000000       0.00000000       0.00000000 </v>
   <v>       0.00000000       0.00000000       0.00000000 </v>
   <v>       0.00000000       0.00000000       0.00000000 </v>
   <v>       0.00000000       0.00000000       0.00000000 </v>
   <v>       0.00000000       0.00000000       0.00000000 </v>
   <v>       0.00000000       0.00000000       0.00000000 </v>
   <v>       0.00000000       0.00000000       0.00000000 </v>
   <v>       0.00000000       0.00000000       0.00000000 </v>
   <v>       0.00000000       0.00000000       0.00000000 </v>
   <v>       0.00000000       0.00000000       0.00000000 </v>
   <v>       0.00000000       0.00000000       0.00000000 </v>
   <v>       0.00000000       0.00000000       0.00000000 </v>
   <v>       0.00000000       0.00000000       0.00000000 </v>
   <v>       0.00000000       0.00000000       0.00000000 </v>
   <v>       0.00000000       0.00000000       0.00000000 </v>
   <v>       0.00000000       0.00000000       0.00000000 </v>
   <v>       0.00000000       0.00000000       0.00000000 </v>
   <v>       0.00000000       0.00000000       0.00000000 </v>
   <v>       0.00000000       0.00000000       0.00000000 </v>
   <v>       0.00000000       0.00000000       0.00000000 </v>
   <v>       0.00000000       0.00000000       0.00000000 </v>
   <v>       0.00000000       0.00000000       0.00000000 </v>
   <v>       0.00000000       0.00000000       0.00000000 </v>
   <v>       0.00000000       0.00000000       0.00000000 </v>
   <v>       0.00000000       0.00000000       0.00000000 </v>
   <v>       0.00000000       0.00000000       0.00000000 </v>
   <v>       0.00000000       0.00000000       0.00000000 </v>
   <v>       0.00000000       0.00000000       0.00000000 </v>
   <v>       0.00000000       0.00000000       0.00000000 </v>
   <v>       0.00000000       0.00000000       0.00000000 </v>
   <v>       0.00000000       0.00000000       0.00000000 </v>
   <v>       0.00000000       0.00000000       0.00000000 </v>
   <v>       0.00000000       0.00000000       0.00000000 </v>
   <v>       0.00000000       0.00000000       0.00000000 </v>
   <v>       0.00000000       0.00000000       0.00000000 </v>
   <v>       0.00000000       0.00000000       0.00000000 </v>
   <v>       0.00000000       0.00000000       0.00000000 </v>
   <v>       0.00000000       0.00000000       0.00000000 </v>
   <v>       0.00000000       0.00000000       0.00000000 </v>
   <v>       0.00000000       0.00000000       0.00000000 </v>
   <v>       0.00000000       0.00000000       0.00000000 </v>
   <v>       0.00000000       0.00000000       0.00000000 </v>
   <v>       0.00000000       0.00000000       0.00000000 </v>
   <v>       0.00000000       0.00000000       0.00000000 </v>
   <v>       0.00000000       0.00000000       0.00000000 </v>
   <v>       0.00000000       0.00000000       0.00000000 </v>
   <v>       0.00000000       0.00000000       0.00000000 </v>
   <v>       0.00000000       0.00000000       0.00000000 </v>
   <v>       0.00000000       0.00000000       0.00000000 </v>
  </varray>
 </structure>
</modeling>
