 running on   52 total cores
 distrk:  each k-point on   52 cores,    1 groups
 distr:  one band on   13 cores,    4 groups
 using from now: INCAR     
 vasp.5.4.4.18Apr17-6-g9f103f2a35 (build Oct 31 2019 15:01:46) complex          
  
 POSCAR found type information on POSCAR  Sc Cl C 
 POSCAR found :  3 types and      80 ions
 scaLAPACK is switched off
 LDA part: xc-table for Pade appr. of Perdew
 generate k-points for:    3    3    1
 POSCAR, INCAR and KPOINTS ok, starting setup
 FFT: planning ...
 WAVECAR not read
 entering main loop
       N       E                     dE             d eps       ncg     rms          rms(c)
DAV:   1     0.122057528567E+05    0.12206E+05   -0.26805E+05  4440   0.152E+03
DAV:   2     0.172956150646E+04   -0.10476E+05   -0.10217E+05  5224   0.523E+02
DAV:   3    -0.408277686847E+03   -0.21378E+04   -0.20527E+04  6800   0.285E+02
DAV:   4    -0.643915390095E+03   -0.23564E+03   -0.23083E+03  6096   0.991E+01
DAV:   5    -0.654347569215E+03   -0.10432E+02   -0.10379E+02  6080   0.280E+01    0.691E+01
DAV:   6    -0.524084433553E+03    0.13026E+03   -0.70159E+02  5840   0.495E+01    0.299E+01
DAV:   7    -0.528656523187E+03   -0.45721E+01   -0.84072E+01  5872   0.225E+01    0.151E+01
DAV:   8    -0.526505741761E+03    0.21508E+01   -0.93162E+00  5832   0.717E+00    0.910E+00
DAV:   9    -0.526022830498E+03    0.48291E+00   -0.34733E+00  5400   0.386E+00    0.291E+00
DAV:  10    -0.525898369326E+03    0.12446E+00   -0.56074E-01  5656   0.211E+00    0.167E+00
DAV:  11    -0.525879705944E+03    0.18663E-01   -0.20452E-01  5672   0.910E-01    0.747E-01
DAV:  12    -0.525867032581E+03    0.12673E-01   -0.32726E-02  6064   0.517E-01    0.296E-01
DAV:  13    -0.525864951197E+03    0.20814E-02   -0.85536E-03  5552   0.281E-01    0.186E-01
DAV:  14    -0.525863172063E+03    0.17791E-02   -0.63108E-03  5384   0.162E-01    0.159E-01
DAV:  15    -0.525864510290E+03   -0.13382E-02   -0.22574E-03  5472   0.973E-02    0.104E-01
DAV:  16    -0.525866290983E+03   -0.17807E-02   -0.10561E-03  5960   0.586E-02    0.540E-02
DAV:  17    -0.525869298723E+03   -0.30077E-02   -0.72137E-04  5328   0.544E-02    0.374E-02
DAV:  18    -0.525871627623E+03   -0.23289E-02   -0.24590E-04  4904   0.303E-02    0.263E-02
DAV:  19    -0.525872601850E+03   -0.97423E-03   -0.12017E-04  4760   0.176E-02    0.157E-02
DAV:  20    -0.525873847006E+03   -0.12452E-02   -0.63774E-05  4208   0.130E-02    0.102E-02
DAV:  21    -0.525874339867E+03   -0.49286E-03   -0.19958E-05  4392   0.826E-03    0.810E-03
DAV:  22    -0.525874633136E+03   -0.29327E-03   -0.24772E-06  3248   0.424E-03    0.527E-03
DAV:  23    -0.525875223670E+03   -0.59053E-03   -0.14522E-05  3672   0.500E-03    0.426E-03
DAV:  24    -0.525875387090E+03   -0.16342E-03   -0.39559E-06  3744   0.350E-03    0.422E-03
DAV:  25    -0.525875463654E+03   -0.76563E-04   -0.14139E-06  2904   0.244E-03    0.217E-03
DAV:  26    -0.525875557983E+03   -0.94330E-04   -0.30402E-06  3288   0.274E-03    0.274E-03
DAV:  27    -0.525875572178E+03   -0.14194E-04   -0.29290E-07  2656   0.190E-03    0.193E-03
DAV:  28    -0.525875582774E+03   -0.10596E-04   -0.25807E-07  2616   0.141E-03    0.876E-04
DAV:  29    -0.525875599888E+03   -0.17114E-04   -0.44042E-07  2704   0.145E-03    0.820E-04
DAV:  30    -0.525875611233E+03   -0.11345E-04   -0.33783E-07  2632   0.175E-03    0.643E-04
DAV:  31    -0.525875614845E+03   -0.36117E-05   -0.24953E-07  2512   0.120E-03    0.349E-04
DAV:  32    -0.525875617546E+03   -0.27016E-05   -0.18096E-07  2512   0.103E-03    0.442E-04
DAV:  33    -0.525875618656E+03   -0.11097E-05   -0.12099E-07  2408   0.930E-04    0.309E-04
DAV:  34    -0.525875619357E+03   -0.70097E-06   -0.89519E-08  2448   0.695E-04
   1 F= -.52587562E+03 E0= -.52587562E+03  d E =-.920438E-20
