
***************************************************************
*                 Welcome to use GPUMD                        *
*     (Graphics Processing Units Molecular Dynamics)          *
*                    Version 3.9.2                            *
*              This is the gpumd executable                   *
***************************************************************


---------------------------------------------------------------
Compiling options:
---------------------------------------------------------------

DEBUG is off: Use different PRNG seeds for different runs.

---------------------------------------------------------------
GPU information:
---------------------------------------------------------------

number of GPUs = 1
Device id:                   0
    Device name:             NVIDIA GeForce RTX 4090
    Compute capability:      8.9
    Amount of global memory: 23.6497 GB
    Number of SMs:           128

---------------------------------------------------------------
Started running GPUMD.
---------------------------------------------------------------


---------------------------------------------------------------
Started initializing positions and related parameters.
---------------------------------------------------------------

Number of atoms is 80.
Use periodic boundary conditions along x.
Use periodic boundary conditions along y.
Use free boundary conditions along z.
Use triclinic box.
Box matrix h = [a, b, c] is
    1.3793986681e+01   -6.8969933404e+00    0.0000000000e+00
    0.0000000000e+00    1.1945942885e+01    0.0000000000e+00
    0.0000000000e+00    0.0000000000e+00    2.7810221072e+01
Inverse box matrix g = inv(h) is
    7.2495357806e-02    4.1855214345e-02   -0.0000000000e+00
    0.0000000000e+00    8.3710428689e-02    0.0000000000e+00
    0.0000000000e+00   -0.0000000000e+00    3.5958002542e-02
Do not specify initial velocities here.
Have no grouping method.
There are 3 atom types.
    32 atoms of type 0.
    16 atoms of type 1.
    32 atoms of type 2.

---------------------------------------------------------------
Finished initializing positions and related parameters.
---------------------------------------------------------------


---------------------------------------------------------------
Started executing the commands in run.in.
---------------------------------------------------------------

Use the NEP4 potential with 3 atom types.
    type 0 (Sc with Z = 21).
    type 1 (C with Z = 6).
    type 2 (Cl with Z = 17).
    radial cutoff = 6 A.
    angular cutoff = 4 A.
    MN_radial = 60.
    MN_angular = 23.
    enlarged MN_radial = 75.
    enlarged MN_angular = 29.
    n_max_radial = 4.
    n_max_angular = 4.
    basis_size_radial = 8.
    basis_size_angular = 8.
    l_max_3body = 4.
    l_max_4body = 2.
    l_max_5body = 0.
    ANN = 30-50-1.
    number of neural network parameters = 4801.
    number of descriptor parameters = 810.
    total number of parameters = 5611.
Initialized velocities with T = 300 K.
Use NVT ensemble for this run.
    choose the Nose-Hoover chain method.
    initial temperature is 300 K.
    final temperature is 300 K.
    tau_T is 100 time_step.
Time step for this run is 1 fs.
Dump thermo every 5000 steps.
Dump extended XYZ.
    every 50000 steps.
Run 5000000 steps.
    500000 steps completed.
    1000000 steps completed.
    1500000 steps completed.
    2000000 steps completed.
    2500000 steps completed.
    3000000 steps completed.
    3500000 steps completed.
    4000000 steps completed.
    4500000 steps completed.
    5000000 steps completed.

---------------------------------------------------------------
Time used for this run = 3424.42 second.
Speed of this run = 116808 atom*step/second.
---------------------------------------------------------------


---------------------------------------------------------------
Finished executing the commands in run.in.
---------------------------------------------------------------


---------------------------------------------------------------
Time used = 3424.420000 s.
---------------------------------------------------------------


---------------------------------------------------------------
Finished running GPUMD.
---------------------------------------------------------------


***************************************************************
*                 Welcome to use GPUMD                        *
*     (Graphics Processing Units Molecular Dynamics)          *
*                    Version 3.9.2                            *
*              This is the gpumd executable                   *
***************************************************************


---------------------------------------------------------------
Compiling options:
---------------------------------------------------------------

DEBUG is off: Use different PRNG seeds for different runs.

---------------------------------------------------------------
GPU information:
---------------------------------------------------------------

number of GPUs = 1
Device id:                   0
    Device name:             NVIDIA GeForce RTX 4090
    Compute capability:      8.9
    Amount of global memory: 23.6497 GB
    Number of SMs:           128

---------------------------------------------------------------
Started running GPUMD.
---------------------------------------------------------------


---------------------------------------------------------------
Started initializing positions and related parameters.
---------------------------------------------------------------

Number of atoms is 80.
Use periodic boundary conditions along x.
Use periodic boundary conditions along y.
Use free boundary conditions along z.
Use triclinic box.
Box matrix h = [a, b, c] is
    1.3793986681e+01   -6.8969933404e+00    0.0000000000e+00
    0.0000000000e+00    1.1945942885e+01    0.0000000000e+00
    0.0000000000e+00    0.0000000000e+00    2.7810221072e+01
Inverse box matrix g = inv(h) is
    7.2495357806e-02    4.1855214345e-02   -0.0000000000e+00
    0.0000000000e+00    8.3710428689e-02    0.0000000000e+00
    0.0000000000e+00   -0.0000000000e+00    3.5958002542e-02
Do not specify initial velocities here.
Have no grouping method.
There are 3 atom types.
    32 atoms of type 0.
    16 atoms of type 1.
    32 atoms of type 2.

---------------------------------------------------------------
Finished initializing positions and related parameters.
---------------------------------------------------------------


---------------------------------------------------------------
Started executing the commands in run.in.
---------------------------------------------------------------

Use the NEP4 potential with 3 atom types.
    type 0 (Sc with Z = 21).
    type 1 (C with Z = 6).
    type 2 (Cl with Z = 17).
    radial cutoff = 6 A.
    angular cutoff = 4 A.
    MN_radial = 60.
    MN_angular = 23.
    enlarged MN_radial = 75.
    enlarged MN_angular = 29.
    n_max_radial = 4.
    n_max_angular = 4.
    basis_size_radial = 8.
    basis_size_angular = 8.
    l_max_3body = 4.
    l_max_4body = 2.
    l_max_5body = 0.
    ANN = 30-50-1.
    number of neural network parameters = 4801.
    number of descriptor parameters = 810.
    total number of parameters = 5611.
Initialized velocities with T = 400 K.
Use NVT ensemble for this run.
    choose the Nose-Hoover chain method.
    initial temperature is 400 K.
    final temperature is 400 K.
    tau_T is 100 time_step.
Time step for this run is 1 fs.
Dump thermo every 5000 steps.
Dump extended XYZ.
    every 50000 steps.
Run 5000000 steps.
    500000 steps completed.
    1000000 steps completed.
    1500000 steps completed.
    2000000 steps completed.
    2500000 steps completed.
    3000000 steps completed.
    3500000 steps completed.
    4000000 steps completed.
    4500000 steps completed.
    5000000 steps completed.

---------------------------------------------------------------
Time used for this run = 3431.75 second.
Speed of this run = 116559 atom*step/second.
---------------------------------------------------------------


---------------------------------------------------------------
Finished executing the commands in run.in.
---------------------------------------------------------------


---------------------------------------------------------------
Time used = 3431.750000 s.
---------------------------------------------------------------


---------------------------------------------------------------
Finished running GPUMD.
---------------------------------------------------------------


***************************************************************
*                 Welcome to use GPUMD                        *
*     (Graphics Processing Units Molecular Dynamics)          *
*                    Version 3.9.2                            *
*              This is the gpumd executable                   *
***************************************************************


---------------------------------------------------------------
Compiling options:
---------------------------------------------------------------

DEBUG is off: Use different PRNG seeds for different runs.

---------------------------------------------------------------
GPU information:
---------------------------------------------------------------

number of GPUs = 1
Device id:                   0
    Device name:             NVIDIA GeForce RTX 4090
    Compute capability:      8.9
    Amount of global memory: 23.6497 GB
    Number of SMs:           128

---------------------------------------------------------------
Started running GPUMD.
---------------------------------------------------------------


---------------------------------------------------------------
Started initializing positions and related parameters.
---------------------------------------------------------------

Number of atoms is 80.
Use periodic boundary conditions along x.
Use periodic boundary conditions along y.
Use free boundary conditions along z.
Use triclinic box.
Box matrix h = [a, b, c] is
    1.3793986681e+01   -6.8969933404e+00    0.0000000000e+00
    0.0000000000e+00    1.1945942885e+01    0.0000000000e+00
    0.0000000000e+00    0.0000000000e+00    2.7810221072e+01
Inverse box matrix g = inv(h) is
    7.2495357806e-02    4.1855214345e-02   -0.0000000000e+00
    0.0000000000e+00    8.3710428689e-02    0.0000000000e+00
    0.0000000000e+00   -0.0000000000e+00    3.5958002542e-02
Do not specify initial velocities here.
Have no grouping method.
There are 3 atom types.
    32 atoms of type 0.
    16 atoms of type 1.
    32 atoms of type 2.

---------------------------------------------------------------
Finished initializing positions and related parameters.
---------------------------------------------------------------


---------------------------------------------------------------
Started executing the commands in run.in.
---------------------------------------------------------------

Use the NEP4 potential with 3 atom types.
    type 0 (Sc with Z = 21).
    type 1 (C with Z = 6).
    type 2 (Cl with Z = 17).
    radial cutoff = 6 A.
    angular cutoff = 4 A.
    MN_radial = 60.
    MN_angular = 23.
    enlarged MN_radial = 75.
    enlarged MN_angular = 29.
    n_max_radial = 4.
    n_max_angular = 4.
    basis_size_radial = 8.
    basis_size_angular = 8.
    l_max_3body = 4.
    l_max_4body = 2.
    l_max_5body = 0.
    ANN = 30-50-1.
    number of neural network parameters = 4801.
    number of descriptor parameters = 810.
    total number of parameters = 5611.
Initialized velocities with T = 500 K.
Use NVT ensemble for this run.
    choose the Nose-Hoover chain method.
    initial temperature is 500 K.
    final temperature is 500 K.
    tau_T is 100 time_step.
Time step for this run is 1 fs.
Dump thermo every 5000 steps.
Dump extended XYZ.
    every 50000 steps.
Run 5000000 steps.
    500000 steps completed.
    1000000 steps completed.
    1500000 steps completed.
    2000000 steps completed.
    2500000 steps completed.
    3000000 steps completed.
    3500000 steps completed.
    4000000 steps completed.
    4500000 steps completed.
    5000000 steps completed.

---------------------------------------------------------------
Time used for this run = 3437.98 second.
Speed of this run = 116347 atom*step/second.
---------------------------------------------------------------


---------------------------------------------------------------
Finished executing the commands in run.in.
---------------------------------------------------------------


---------------------------------------------------------------
Time used = 3437.980000 s.
---------------------------------------------------------------


---------------------------------------------------------------
Finished running GPUMD.
---------------------------------------------------------------


***************************************************************
*                 Welcome to use GPUMD                        *
*     (Graphics Processing Units Molecular Dynamics)          *
*                    Version 3.9.2                            *
*              This is the gpumd executable                   *
***************************************************************


---------------------------------------------------------------
Compiling options:
---------------------------------------------------------------

DEBUG is off: Use different PRNG seeds for different runs.

---------------------------------------------------------------
GPU information:
---------------------------------------------------------------

number of GPUs = 1
Device id:                   0
    Device name:             NVIDIA GeForce RTX 4090
    Compute capability:      8.9
    Amount of global memory: 23.6497 GB
    Number of SMs:           128

---------------------------------------------------------------
Started running GPUMD.
---------------------------------------------------------------


---------------------------------------------------------------
Started initializing positions and related parameters.
---------------------------------------------------------------

Number of atoms is 80.
Use periodic boundary conditions along x.
Use periodic boundary conditions along y.
Use free boundary conditions along z.
Use triclinic box.
Box matrix h = [a, b, c] is
    1.3793986681e+01   -6.8969933404e+00    0.0000000000e+00
    0.0000000000e+00    1.1945942885e+01    0.0000000000e+00
    0.0000000000e+00    0.0000000000e+00    2.7810221072e+01
Inverse box matrix g = inv(h) is
    7.2495357806e-02    4.1855214345e-02   -0.0000000000e+00
    0.0000000000e+00    8.3710428689e-02    0.0000000000e+00
    0.0000000000e+00   -0.0000000000e+00    3.5958002542e-02
Do not specify initial velocities here.
Have no grouping method.
There are 3 atom types.
    32 atoms of type 0.
    16 atoms of type 1.
    32 atoms of type 2.

---------------------------------------------------------------
Finished initializing positions and related parameters.
---------------------------------------------------------------


---------------------------------------------------------------
Started executing the commands in run.in.
---------------------------------------------------------------

Use the NEP4 potential with 3 atom types.
    type 0 (Sc with Z = 21).
    type 1 (C with Z = 6).
    type 2 (Cl with Z = 17).
    radial cutoff = 6 A.
    angular cutoff = 4 A.
    MN_radial = 60.
    MN_angular = 23.
    enlarged MN_radial = 75.
    enlarged MN_angular = 29.
    n_max_radial = 4.
    n_max_angular = 4.
    basis_size_radial = 8.
    basis_size_angular = 8.
    l_max_3body = 4.
    l_max_4body = 2.
    l_max_5body = 0.
    ANN = 30-50-1.
    number of neural network parameters = 4801.
    number of descriptor parameters = 810.
    total number of parameters = 5611.
Initialized velocities with T = 600 K.
Use NVT ensemble for this run.
    choose the Nose-Hoover chain method.
    initial temperature is 600 K.
    final temperature is 600 K.
    tau_T is 100 time_step.
Time step for this run is 1 fs.
Dump thermo every 5000 steps.
Dump extended XYZ.
    every 50000 steps.
Run 5000000 steps.
    500000 steps completed.
    1000000 steps completed.
    1500000 steps completed.
    2000000 steps completed.
    2500000 steps completed.
    3000000 steps completed.
    3500000 steps completed.
    4000000 steps completed.
    4500000 steps completed.
    5000000 steps completed.

---------------------------------------------------------------
Time used for this run = 3441.19 second.
Speed of this run = 116239 atom*step/second.
---------------------------------------------------------------


---------------------------------------------------------------
Finished executing the commands in run.in.
---------------------------------------------------------------


---------------------------------------------------------------
Time used = 3441.200000 s.
---------------------------------------------------------------


---------------------------------------------------------------
Finished running GPUMD.
---------------------------------------------------------------


***************************************************************
*                 Welcome to use GPUMD                        *
*     (Graphics Processing Units Molecular Dynamics)          *
*                    Version 3.9.2                            *
*              This is the gpumd executable                   *
***************************************************************


---------------------------------------------------------------
Compiling options:
---------------------------------------------------------------

DEBUG is off: Use different PRNG seeds for different runs.

---------------------------------------------------------------
GPU information:
---------------------------------------------------------------

number of GPUs = 1
Device id:                   0
    Device name:             NVIDIA GeForce RTX 4090
    Compute capability:      8.9
    Amount of global memory: 23.6497 GB
    Number of SMs:           128

---------------------------------------------------------------
Started running GPUMD.
---------------------------------------------------------------


---------------------------------------------------------------
Started initializing positions and related parameters.
---------------------------------------------------------------

Number of atoms is 80.
Use periodic boundary conditions along x.
Use periodic boundary conditions along y.
Use free boundary conditions along z.
Use triclinic box.
Box matrix h = [a, b, c] is
    1.3793986681e+01   -6.8969933404e+00    0.0000000000e+00
    0.0000000000e+00    1.1945942885e+01    0.0000000000e+00
    0.0000000000e+00    0.0000000000e+00    2.7810221072e+01
Inverse box matrix g = inv(h) is
    7.2495357806e-02    4.1855214345e-02   -0.0000000000e+00
    0.0000000000e+00    8.3710428689e-02    0.0000000000e+00
    0.0000000000e+00   -0.0000000000e+00    3.5958002542e-02
Do not specify initial velocities here.
Have no grouping method.
There are 3 atom types.
    32 atoms of type 0.
    16 atoms of type 1.
    32 atoms of type 2.

---------------------------------------------------------------
Finished initializing positions and related parameters.
---------------------------------------------------------------


---------------------------------------------------------------
Started executing the commands in run.in.
---------------------------------------------------------------

Use the NEP4 potential with 3 atom types.
    type 0 (Sc with Z = 21).
    type 1 (C with Z = 6).
    type 2 (Cl with Z = 17).
    radial cutoff = 6 A.
    angular cutoff = 4 A.
    MN_radial = 60.
    MN_angular = 23.
    enlarged MN_radial = 75.
    enlarged MN_angular = 29.
    n_max_radial = 4.
    n_max_angular = 4.
    basis_size_radial = 8.
    basis_size_angular = 8.
    l_max_3body = 4.
    l_max_4body = 2.
    l_max_5body = 0.
    ANN = 30-50-1.
    number of neural network parameters = 4801.
    number of descriptor parameters = 810.
    total number of parameters = 5611.
Initialized velocities with T = 700 K.
Use NVT ensemble for this run.
    choose the Nose-Hoover chain method.
    initial temperature is 700 K.
    final temperature is 700 K.
    tau_T is 100 time_step.
Time step for this run is 1 fs.
Dump thermo every 5000 steps.
Dump extended XYZ.
    every 50000 steps.
Run 5000000 steps.
    500000 steps completed.
    1000000 steps completed.
    1500000 steps completed.
    2000000 steps completed.
    2500000 steps completed.
    3000000 steps completed.
    3500000 steps completed.
    4000000 steps completed.
    4500000 steps completed.
    5000000 steps completed.

---------------------------------------------------------------
Time used for this run = 3444.69 second.
Speed of this run = 116121 atom*step/second.
---------------------------------------------------------------


---------------------------------------------------------------
Finished executing the commands in run.in.
---------------------------------------------------------------


---------------------------------------------------------------
Time used = 3444.690000 s.
---------------------------------------------------------------


---------------------------------------------------------------
Finished running GPUMD.
---------------------------------------------------------------

