  6.2311225e-02   8.3924104e-03
 -9.6358828e-02   8.0647944e-03
  1.2722483e-02   1.6730789e-03
  3.5456660e-01   1.6120853e-04
  1.6679669e-02   7.9729164e-04
 -1.2437223e-01   2.2003313e-03
  1.1580649e-02   1.3264563e-03
 -2.2435025e-03   4.8624948e-03
  9.3770251e-02   3.2227745e-03
  3.7161174e-01   3.7402152e-03
 -4.0412135e-02   6.4238934e-03
 -1.2945615e-01   2.3166928e-03
 -1.1118595e-01   8.0827055e-03
 -3.0500025e-02   6.4744810e-03
  3.9247382e+00   6.7739387e-04
 -4.7985155e-02   8.9187073e-03
 -1.6974424e-01   3.0095552e-03
 -1.1054707e-01   3.8145485e-03
  6.6010080e-02   4.8746150e-03
  2.3437779e-01   4.5647025e-03
 -1.7713469e-02   2.2672787e-03
 -2.7270012e-02   6.8540950e-03
  7.0449687e-03   3.8833548e-03
 -2.1890404e-02   5.6025991e-03
 -5.7938588e-03   1.2158336e-02
 -1.3098817e-03   3.1941989e-03
  3.0089604e-02   8.0613764e-03
  5.5478807e-03   5.2238354e-03
 -2.9207021e-02   2.6336659e-02
  9.8094925e-02   8.5751396e-03
 -2.4057033e-02   1.2534413e-02
  3.6393110e-02   6.8554273e-03
  1.9621991e-02   3.9559230e-03
  6.4338222e-02   2.5095346e-03
 -4.7786649e-02   9.1056610e-03
 -1.9061573e-02   7.9878699e-03
  1.2267608e-02   5.5329157e-03
  6.5443419e-02   2.3696839e-03
 -3.4777474e-02   1.3361287e-03
  2.8445856e-03   2.4082227e-02
 -1.9028729e-02   9.2085181e-03
  1.5877469e-01   4.8539303e-03
 -7.9522938e-02   1.0197646e-02
 -1.3591294e-01   4.6659452e-03
 -4.6167504e-03   3.4088378e-03
  1.5263237e-02   3.4034627e-03
 -6.3877910e-02   4.8106355e-03
  1.8773582e-02   9.5178233e-03
 -8.7274931e-02   2.0185936e-02
  1.1668640e-01   3.2105742e-03
  9.1884054e-02   1.4517568e-03
 -1.8128488e-02   1.3617169e-02
  8.4521407e-03   8.5317474e-03
 -7.8912191e-03   7.9164309e-03
 -1.0365099e+00   3.6451611e-04
  2.4003904e-01   3.5933589e-04
 -4.1740620e-01   1.6489172e-03
 -3.8241088e-01   3.7045882e-04
  3.1704143e-01   1.4453415e-04
  5.0775021e-01   7.2644220e-04
 -1.0652908e-02   7.3451712e-04
 -8.2975262e-01   5.2233029e-04
 -2.2091493e-01   4.1361517e-04
 -4.0549818e-01   3.6629832e-03
 -4.7802325e-02   5.4990035e-04
  1.7387199e-01   2.0999853e-04
 -3.3976519e-01   1.1794177e-03
 -3.0190101e-01   1.7484955e-03
 -3.4385583e-01   1.0269502e-03
 -3.3453517e-02   1.5697124e-03
 -4.9677095e-01   3.8435761e-04
 -1.6338847e-03   3.4813609e-04
 -5.5869526e-01   1.0222320e-02
 -1.9216366e-01   1.4032174e-03
  5.0874289e-02   5.6063343e-04
 -3.5670039e-01   2.8265803e-03
 -3.5931933e-01   3.0109396e-03
 -3.9487880e-01   1.4362230e-03
  1.1076950e-02   8.4808283e-03
 -5.4796994e-01   5.9906654e-03
  7.1143299e-01   1.1732756e-03
 -9.3777299e-01   6.4885751e-03
 -2.9571074e-01   4.2690610e-04
  1.7464864e-01   1.9185765e-03
  3.0479715e-03   7.2152971e-04
 -1.2966038e-01   9.8209223e-03
 -3.1522602e-01   7.3284045e-04
 -5.3125761e-02   5.1457034e-03
  8.5150510e-01   5.6104193e-04
  4.6828362e-01   4.7273567e-04
 -1.4086404e-02   1.4019678e-02
 -4.1096923e-01   9.7512041e-04
  2.4191026e-01   3.3808663e-03
 -2.5813312e-03   8.8490825e-04
  5.5669681e-03   2.8759593e-03
 -1.4336468e+00   7.0694485e-04
  9.8891824e-02   2.3682658e-03
 -9.7258024e-02   1.2404167e-03
  1.4138786e+00   2.1747188e-03
 -5.5993563e-03   2.3668513e-03
  2.5989252e-01   1.5000512e-02
 -6.5477163e-02   4.2135242e-04
  1.8796653e-02   1.3505618e-02
 -1.7025092e-01   1.4250684e-03
  8.1810262e-03   2.1092003e-02
  3.4744266e-02   5.6474609e-03
 -2.2218491e-01   5.9577865e-03
  6.5714922e-03   6.7497771e-03
 -6.3288562e-02   9.6072874e-04
  9.0463897e-03   3.0980198e-04
  1.2943427e-01   1.0598286e-03
  4.7958456e-02   4.1297695e-04
  1.2358408e-01   7.9547911e-04
 -6.1969388e-02   1.4894870e-04
 -5.0807863e-01   9.5253426e-04
  9.5845628e-01   4.6948597e-04
  3.7798852e-02   4.9909484e-04
  5.8457848e-02   1.0379816e-02
  1.2652078e-01   1.4240887e-03
  3.0864749e-02   4.5790896e-03
  1.4023565e+00   6.2464591e-04
  1.9721627e-01   1.5521612e-03
 -2.5664452e-03   6.5724453e-04
  1.0998144e-01   5.6023948e-04
 -9.5458269e-01   2.7058966e-04
 -2.5116122e-01   1.8912400e-04
  7.8436114e-02   9.8255733e-03
  5.3786725e-01   4.3602642e-03
  1.7248176e-02   4.5679114e-03
  6.7715243e-02   4.9057254e-03
  1.7540441e+00   1.3429126e-05
  1.6436991e-01   5.2144979e-03
 -1.5250762e-01   8.8289566e-03
  9.0869583e-02   4.9415347e-03
 -2.2227652e-01   9.4848248e-04
  1.7241502e-02   4.8560668e-03
  1.3368790e-01   1.6841204e-03
 -4.0409338e-02   1.8701961e-03
  1.0872134e-01   3.3970410e-03
 -1.0588540e-02   7.4808155e-03
 -1.7741680e-01   1.3999762e-03
  9.2901820e-03   7.6524378e-03
  3.2949767e-01   4.9235653e-03
  2.0232689e-02   1.1977295e-03
 -4.2440232e-02   4.1798139e-03
  8.2622796e-02   2.2720038e-03
 -4.2032126e-01   1.9360088e-03
  2.0794714e-02   5.1205778e-03
 -7.2868004e-02   8.8964414e-04
  2.6375505e-01   2.8669571e-03
 -2.4404034e-01   5.0448403e-03
 -2.0799479e-02   2.6445794e-03
  6.0844886e-01   1.0918728e-03
 -2.1220375e-02   9.6659304e-04
 -7.7975094e-03   1.0527956e-02
  7.6268464e-02   2.0757187e-03
 -5.9264135e-02   1.1095493e-02
  3.3960856e-02   5.3720302e-03
 -1.0937929e-01   6.1367191e-03
 -2.2336889e-02   7.6212739e-03
  1.6345058e-01   1.9268427e-02
  2.2442323e-01   5.1340153e-03
 -8.2961522e-02   1.0671061e-02
  4.4701686e-03   8.3177164e-03
 -4.4848867e-02   9.8683918e-03
  9.7280487e-02   4.8984312e-03
  5.1011965e-02   1.7479333e-03
  7.9453945e-02   1.5391023e-03
  2.5558721e-02   1.5523096e-02
 -2.1395823e-02   8.2939090e-03
 -1.1707012e-01   7.4668094e-03
  1.7038764e-01   3.6869550e-04
  1.0523665e-01   7.9478314e-03
  7.4388091e-03   1.8196296e-02
 -1.5324593e+00   2.4852515e-03
  1.0293880e-02   1.1494127e-02
  6.9151647e-02   4.7115088e-03
 -2.3152884e-02   6.5027168e-03
 -7.2735329e-03   1.0731349e-02
  5.7301078e-02   5.3870734e-03
 -1.3496593e+00   3.2314958e-04
  1.2892291e-02   1.0152463e-02
 -6.9303550e-02   9.2929875e-04
  8.1159577e-02   1.6325438e-02
  1.2343241e-01   1.7048044e-02
  1.2596914e-01   1.1363854e-02
  6.5320745e-02   3.8529187e-03
 -6.9893703e-02   6.3170597e-04
 -9.8927300e-03   7.0434981e-03
  9.8082796e-02   2.6319581e-03
 -2.2849800e-02   1.1957005e-02
  6.1796978e-02   3.6230616e-03
 -7.5978828e-03   2.5904546e-03
  1.0997215e-02   1.2086581e-02
  6.5582688e-03   2.3963570e-03
  1.2677670e-02   5.2327090e-03
 -6.3950762e-02   3.1745012e-03
 -2.9545402e-02   4.7082463e-03
 -2.8077155e-02   6.1495621e-03
 -6.4882927e-02   7.9914341e-03
  2.0260638e-02   7.9035405e-03
 -2.8765060e-02   7.0050093e-03
 -2.8684256e-03   7.4802069e-03
 -4.9398425e-03   4.9532671e-03
  1.3236478e-01   1.7123738e-02
  4.9140439e-03   2.4149504e-02
  1.5182091e-01   4.0549766e-03
  5.7961721e-02   2.0999955e-02
 -1.4441606e-01   9.5778462e-03
 -2.1675179e-02   6.9666351e-03
 -1.9819476e-03   8.9940270e-03
 -5.4410263e-03   4.4827969e-03
 -4.9984258e-02   4.5157201e-03
  7.0032045e-02   7.5598555e-03
  2.7986066e-03   5.5952673e-03
 -7.9868566e-03   3.1891421e-03
  1.5633439e-01   1.1064945e-03
  1.7869939e-01   1.8729070e-03
  2.6527303e-01   1.3646932e-04
 -4.3651989e-01   5.5814208e-04
 -5.2283663e-02   1.3946148e-03
 -2.1703789e-01   5.3443569e-03
 -1.8941550e-01   3.9651813e-03
  1.0755632e-02   5.4490720e-03
  1.5153082e-01   1.6934420e-03
  4.5572980e-03   1.2752011e-03
 -1.9142261e-02   5.3941491e-03
 -2.9879808e-02   3.4621770e-03
  1.0671394e-01   5.4394044e-03
 -6.1524939e-02   4.5014075e-03
 -1.1232466e-03   3.3315967e-03
 -2.2883527e-02   2.9986419e-03
  6.5165991e-03   2.0827996e-03
  7.0970970e-01   1.0801787e-03
 -7.7496693e-02   2.0705734e-03
  1.2572482e-01   5.6501706e-03
 -3.2535958e-01   2.2325599e-04
 -3.6423627e-02   4.6003144e-03
  2.5400167e-02   1.6782548e-03
  1.1266089e-02   2.1164878e-03
 -8.0446623e-02   1.2130828e-02
  2.2810737e-02   2.1533171e-02
  3.6662918e-02   9.8610595e-03
  1.3447906e-01   6.5916325e-03
  3.1935296e-03   4.9849874e-03
 -7.2130427e-02   1.0306347e-02
 -2.5603762e-03   7.8677861e-03
  7.3050489e-03   1.6805213e-02
  7.7478416e-02   2.1760662e-03
  3.3634990e-02   7.8935996e-03
 -3.9576486e-02   3.2897308e-03
  3.4402180e-01   3.0860738e-03
 -2.2272624e-02   1.7162519e-02
  1.0462455e-01   5.2900752e-03
  2.1158205e-01   2.9451041e-03
 -6.9900438e-02   6.4343773e-03
 -5.9001375e-02   5.5943383e-03
  3.0682257e-01   3.7136307e-04
 -2.2886265e-02   1.3212875e-02
 -2.2546601e-02   1.2234037e-02
  3.0871367e-02   9.6049579e-03
  7.1030892e-02   7.9798466e-03
 -4.3473158e-02   1.6738951e-02
 -6.2080000e-02   1.2165133e-02
  4.6631298e-03   2.1275114e-03
  1.9192001e-02   4.5214300e-03
  3.7991792e-02   7.8289639e-03
 -1.1774780e-01   2.2708359e-03
  3.4721121e-02   6.2088966e-03
  8.4126851e-04   1.0908891e-02
 -6.3712917e-02   3.7188989e-03
  1.7280111e+00   1.8864426e-04
  1.0407829e-01   9.6940454e-03
  4.1641373e-02   2.6561015e-03
 -4.5549747e-02   1.0673109e-03
 -2.8264749e-01   1.9228759e-03
  1.2111674e-01   1.5476919e-03
 -1.9719837e-02   6.5294909e-03
  1.7950598e-02   7.2541544e-03
  8.2818925e-02   9.3358215e-03
  2.8746169e-02   3.6911939e-03
  2.8662259e-02   1.6917543e-03
 -8.1949078e-02   4.3052741e-04
 -7.8307856e-03   5.2200239e-03
  2.4601206e-02   3.0135764e-03
  7.4990690e-02   5.4032668e-03
  4.8401233e-02   7.3332014e-03
  2.4803990e-02   4.5172470e-03
 -1.3308863e-02   3.6937813e-03
 -6.8942659e-02   6.5566795e-03
  8.3164191e-03   4.1872882e-03
 -1.2813219e-02   1.0130311e-02
 -2.3901839e-02   5.8842194e-03
 -1.0806248e-01   1.4702446e-03
  5.1780272e-02   3.3993102e-03
 -5.2552451e-03   5.7766284e-03
 -1.8447779e-02   3.3542474e-03
 -4.4957850e-02   3.4960301e-03
 -2.5568588e-02   5.8606872e-03
 -1.3640656e-01   1.6661074e-02
  1.7226043e-01   1.1057620e-03
  5.9477519e-02   6.4729811e-03
  3.9778318e-02   5.3211167e-03
 -1.3876222e-03   6.6469978e-03
 -1.0344820e-01   1.4337621e-02
  9.6310321e-03   5.6074234e-03
  1.9897442e-01   2.1794559e-03
  5.7751153e-02   5.8164033e-03
  2.8212663e-02   1.2217516e-02
  1.2431231e-02   4.4856211e-03
 -2.8176859e-02   9.3956813e-03
 -2.7137192e-02   1.3083043e-02
 -1.5741418e-01   7.0722536e-03
 -7.4736816e-03   1.1171988e-02
 -2.6297108e-03   6.8619736e-03
 -4.3023217e-02   1.1714218e-02
 -4.6380375e-02   7.7705719e-03
  5.0081175e-02   1.1141567e-02
 -1.5838685e-02   5.4580146e-03
 -8.3383180e-02   1.1666904e-02
  5.8494058e-02   1.0737097e-02
  9.4750851e-02   1.0296687e-02
  7.3111206e-02   5.6602168e-03
 -5.5906214e-03   2.4934274e-03
 -2.0964542e-02   6.5199513e-04
 -4.2561421e-01   1.2785404e-03
  3.4859413e-01   4.8179890e-04
 -4.3566614e-02   3.5824894e-04
  1.6262707e+00   2.0646711e-04
  3.0500838e-01   2.2408809e-03
  5.3284109e-01   1.5369906e-03
  3.2294679e-01   1.9037226e-03
  1.2137461e+00   9.8283810e-04
 -1.8485948e-01   3.1973061e-03
  1.1429594e-01   4.8497585e-03
 -2.9303612e-02   4.2485469e-03
  4.5152210e-02   3.2480152e-03
  1.6996475e-01   4.3675135e-04
 -4.2214006e-02   2.4950015e-03
  1.1772193e-02   4.4568684e-03
  4.3422487e-01   4.2018970e-03
  9.5649034e-02   2.9712319e-03
 -4.0623105e-01   2.2987304e-03
 -4.0983923e-02   6.4896233e-03
  2.8217396e-01   7.6884910e-04
  1.0579058e-01   1.8121475e-02
 -1.8865027e-02   1.5041444e-02
  4.5146201e-02   6.7942417e-03
  1.1712474e-01   8.9862375e-03
  1.2883212e-01   8.3404956e-03
 -2.4152638e-01   8.3886145e-04
  7.2525916e-05   8.2892515e-03
 -6.2198089e-03   3.0705594e-03
 -6.6603296e-02   4.8203780e-03
 -4.5908231e-04   4.3880804e-03
  6.9131953e-01   2.2389765e-03
 -1.1222297e-02   3.8855544e-03
  2.0201886e-02   5.2055521e-03
  3.8408600e-02   7.4079144e-03
  1.0236502e-01   2.6966352e-03
 -1.8370273e-02   4.7492324e-03
 -4.1814320e-02   1.3403042e-02
 -1.9989095e-03   7.9923272e-03
 -6.6918884e-03   5.6411144e-03
 -4.2138668e-03   7.9490552e-03
 -2.3791750e-01   4.8940033e-03
  1.7533485e-02   3.8157399e-03
  4.2978697e-02   4.5099440e-03
  1.7022785e-02   7.1456027e-03
 -1.1582311e-02   1.1238727e-02
 -7.8707747e-02   6.5977388e-04
  1.3166256e-02   4.4655502e-03
 -4.6583783e-02   1.6480593e-02
 -1.9109556e-02   1.0034538e-02
 -2.2549399e-03   7.1483538e-03
  3.9031859e-03   6.1308970e-03
  2.1681696e-02   1.0996466e-02
  5.9034820e-03   3.9160699e-03
 -3.1376550e-01   3.9686842e-04
  9.4471470e-02   1.6032945e-03
  1.2700747e-02   9.4957399e-04
 -4.9953029e-01   5.5121921e-04
 -2.3494951e-01   5.0067046e-04
 -8.4713869e-02   2.1546481e-03
 -1.5496738e-01   1.2524943e-03
 -3.9650574e-01   1.6152520e-03
 -1.7808248e-01   3.6971454e-04
  2.2067301e-01   9.9001965e-04
 -2.5681226e-02   4.8672007e-03
 -2.2351369e-02   3.1456018e-03
  1.4137150e-01   2.0525472e-03
  2.7318284e-01   1.1956097e-03
 -2.0677156e+00   4.4809360e-04
  5.4813248e-01   1.6505367e-03
 -1.7245027e-01   1.7647593e-03
 -5.3989118e-01   2.5775137e-03
  2.6810443e-02   9.5338570e-03
 -6.7160563e-03   2.4487861e-03
  4.7927637e-02   6.8923538e-03
  2.6219206e-02   5.0432468e-03
  7.7519870e-01   1.1703178e-03
  4.4044167e-02   8.7536229e-03
 -3.3790514e-02   5.9820907e-03
  3.3148703e-01   1.0483130e-03
  1.1128133e-01   5.8478117e-03
 -2.3682037e-02   8.2200449e-03
  5.8471750e-02   2.5595769e-03
 -2.4763170e-01   3.9614239e-04
 -8.4537470e-01   2.3024988e-04
  6.3406862e-02   3.4409424e-03
 -1.6396631e-01   4.4907653e-03
 -1.5086140e-02   1.4416559e-02
  5.4850900e-01   2.1912453e-04
  1.5873636e-01   1.3953215e-03
 -9.3960576e-02   9.4024111e-03
  3.6085490e-02   4.9120616e-03
 -1.2836476e-01   1.2546644e-02
  5.7370301e-02   1.1409250e-02
  5.4118026e-02   7.1177138e-03
  8.9700237e-02   9.4977515e-03
  9.0336457e-02   4.8384271e-03
 -7.0577525e-02   8.7487176e-03
  1.0124265e-01   1.7920629e-03
  5.3525125e-03   1.7316133e-02
 -6.2010068e-02   4.3093013e-03
 -5.5880910e-01   7.4793113e-04
  1.5409523e-02   2.3847159e-03
 -7.0107557e-02   1.9116598e-03
  5.5232055e-02   2.8763823e-03
 -1.8254939e-01   1.0601170e-02
 -6.4802349e-02   3.5244748e-03
  4.1012350e-02   3.9203744e-03
 -5.2770257e-01   1.6996604e-03
  2.3743886e-01   1.0267076e-03
  5.6375451e-02   6.6932588e-04
  3.0590925e-01   6.7886029e-04
  7.7982450e-01   5.5987039e-04
  2.4172455e-01   1.6140055e-03
  2.2248308e-01   8.2341570e-04
  4.9895603e-02   2.6422788e-03
 -2.7215036e-02   2.8190117e-03
  4.9666509e-02   4.2380346e-03
  4.4718534e-02   1.3995519e-03
 -1.1871748e-01   3.1536040e-03
 -5.6840681e-02   1.2796359e-03
  1.0330152e-02   2.2521955e-03
 -6.9258370e-02   1.4973338e-03
 -8.9405231e-02   2.1970083e-03
  1.1300503e-02   1.8976668e-03
  3.6947682e-02   6.6323834e-04
 -3.3592567e-02   3.9924635e-03
 -4.3417636e-01   4.7599585e-03
 -2.4505893e-02   4.1555497e-03
 -1.6059333e-02   4.9269139e-03
 -1.7957784e-02   1.0507835e-02
 -3.7830442e-02   2.2369372e-03
  1.5124312e-03   1.2519499e-02
 -1.1356216e-01   5.0446414e-03
  4.2869497e-02   6.1975996e-04
 -4.2944651e-02   5.0118417e-03
 -1.8483835e-01   8.0541871e-04
  2.9215075e-02   1.6065912e-03
 -2.1770597e-01   4.1595139e-03
 -3.0072671e-01   2.3025533e-03
 -1.6176425e-01   9.6718402e-04
 -6.8008360e-03   2.7983866e-03
 -2.3990622e-01   3.8281584e-03
  1.2832563e-01   1.1701434e-03
  1.2036040e-02   1.1680338e-02
 -1.5582822e-01   2.8846723e-03
  1.3100663e-01   3.2804254e-03
  5.6653731e-03   8.3706258e-03
 -7.0361011e-02   7.4711847e-03
 -1.3866967e-01   6.9683003e-03
  3.0551702e-02   6.8214280e-03
  1.4403915e-01   4.5889686e-03
 -1.1552889e-01   1.4719304e-03
 -2.5943553e-01   4.3505857e-05
  2.0383369e-02   7.4280300e-03
 -1.5289097e-01   9.3001674e-04
 -5.5601494e-03   1.2731178e-02
 -3.9102461e-02   4.5952760e-03
 -2.0345251e-01   1.5432900e-02
 -1.0474080e-03   1.2890096e-02
 -9.3535043e-02   4.1478504e-03
  7.7610254e-02   4.8227245e-03
  1.4832135e-01   1.2144382e-03
  2.0339966e-01   9.3307602e-04
  2.9018592e-02   5.6170560e-03
 -1.5278210e-02   6.4224447e-04
  2.2989413e-02   1.7730135e-03
 -4.2505108e-02   2.2779086e-03
 -2.2046471e-02   2.5194865e-03
  1.8940687e-02   2.4535679e-03
 -3.6668926e-01   1.2801312e-03
 -2.6638918e-02   4.0967539e-03
 -1.8442960e-01   6.2646572e-03
  6.1206080e-02   4.6693487e-03
  1.4245686e-01   3.2940877e-03
  1.2293501e-01   7.1576177e-03
 -5.3104308e-02   3.1880140e-03
  4.9700413e-02   6.7913695e-03
  4.2197593e-02   1.9073328e-03
  5.6597989e-02   4.8182052e-04
 -1.6930608e-02   7.9791006e-03
  2.0677423e-01   7.2378847e-03
 -1.5973428e-01   4.0628435e-03
 -5.2261770e-02   3.0839816e-03
 -4.8245401e-03   9.3202740e-03
 -2.3368768e-02   3.9812443e-03
 -5.0661124e-02   3.7422362e-03
 -2.8633529e-02   5.9789452e-03
  1.1701455e-01   2.0411869e-03
  5.5731822e-02   1.0742222e-02
  3.9256472e-02   1.1489060e-03
  2.7374377e-02   4.1126749e-03
  1.3591853e-01   7.5352741e-03
  1.1630359e-01   1.3206644e-02
  3.1529669e-02   2.0587696e-03
 -1.6533602e-02   3.8612233e-03
 -1.1106128e-02   1.7415078e-03
 -9.2971943e-02   2.6513019e-03
 -4.4165600e-02   1.0007746e-02
  8.7228185e-03   6.7850146e-03
  3.1380213e-03   6.4715808e-03
  3.4764182e-02   4.7742832e-03
 -4.8987672e-02   1.7773559e-02
 -3.8145106e-02   6.0773632e-03
  9.3130935e-03   4.7642193e-03
  1.9364607e-02   1.0015770e-02
  1.2971092e-02   2.1589410e-03
  1.8331110e-01   1.3612662e-03
  2.1933295e-02   5.2374694e-03
  6.6465825e-02   9.0367887e-03
  9.9015916e-03   3.8942858e-03
 -7.6014504e-02   9.5688542e-03
 -2.4946375e-02   5.6154793e-03
 -5.1555000e-03   1.6043033e-03
 -1.8245829e-02   5.3674015e-03
  1.7011108e-02   1.6517831e-02
 -2.8931733e-02   3.1902180e-03
 -3.5861276e-02   2.4266357e-03
  1.3992970e-02   1.3894345e-02
  6.1316327e-03   1.1008643e-03
  9.5218536e-04   2.7561905e-03
 -1.1635911e-01   2.1952498e-03
 -5.6875013e-03   8.7510119e-04
 -3.9673876e-02   3.1100332e-03
  1.3829158e-02   4.2170733e-03
 -5.8581728e-02   3.3184825e-03
  2.1484447e+00   4.1838922e-04
  1.0527141e-01   6.2017087e-03
  6.1387911e-02   5.4928032e-03
 -5.2801166e-02   1.1568080e-02
 -4.5864113e-02   1.0416638e-03
 -3.5027970e-02   2.4134566e-03
  5.4573327e-02   1.3373911e-03
 -6.0705386e-02   8.3801273e-04
  3.1977004e-01   2.9827459e-04
  2.0629463e-01   1.4000729e-03
 -5.4753208e-01   9.1207982e-04
  9.9052172e-03   4.5913365e-03
 -6.6638381e-06   1.0375284e-02
  4.0170036e-02   5.8658971e-03
  1.2242609e-01   5.8993505e-04
 -6.8467498e-02   8.9026522e-03
  2.2584548e-02   6.6672228e-03
  1.7054128e-02   5.0898860e-03
  1.1196662e-04   3.9681192e-03
  1.5520389e-02   2.2362763e-02
 -5.8269225e-02   1.5827211e-02
 -1.2263654e-02   3.0704644e-03
  4.8651859e-02   6.2338253e-03
  9.6165545e-02   6.3048680e-03
  2.0112309e-01   3.3009255e-03
  3.4118809e-02   2.7846955e-03
 -9.7769136e-03   8.3161620e-03
  6.1982054e-02   9.0532348e-04
 -6.5067649e-02   1.4650246e-02
  8.3853483e-02   4.3334565e-03
  1.2501382e-03   1.5235702e-03
  1.5904750e-01   1.0216523e-02
 -1.2333356e-01   1.5192804e-03
 -4.7299415e-02   3.3328170e-03
 -7.8227296e-02   4.9947435e-03
  9.1923833e-02   1.6817734e-02
 -6.9000937e-02   1.4014723e-02
  2.6507380e+00   6.0171010e-03
 -6.1469998e-02   2.5523617e-03
  3.1290212e-04   9.6928822e-03
 -2.5060756e-02   3.6465763e-03
  1.8098071e-01   1.3859052e-03
  5.0359357e-02   4.6866853e-03
 -1.2400645e-02   1.6734453e-02
 -2.5227818e+00   3.1864992e-04
  3.9184338e-01   9.7500969e-04
  1.1108886e+00   1.8721041e-03
  8.1152713e-01   9.0967875e-04
 -3.8837808e-01   8.6047257e-06
 -3.1126982e-02   2.8792832e-03
 -1.6571831e+00   1.1760070e-03
 -2.1531487e+00   5.1300653e-04
  7.6391171e-03   1.1392110e-03
  5.1791883e-01   4.9737561e-04
 -5.3469747e-01   4.8623807e-04
  1.3383617e-01   2.5560183e-03
 -1.0882246e-01   2.9909029e-03
 -4.8873973e-01   2.1803263e-03
  3.3168618e-02   2.2179435e-03
 -5.0732559e-01   1.9723496e-03
 -1.4406607e-01   1.4941449e-03
  1.0528747e+00   1.4698558e-04
  7.0179864e-03   6.7544496e-03
 -2.7986649e-01   1.3269943e-03
  1.2442023e-02   4.4522989e-03
 -7.2227672e-02   6.1252434e-03
  4.4520225e-02   5.8055189e-03
 -1.5822994e-02   2.3786291e-03
 -1.2328794e-01   1.6722847e-02
 -1.6786391e+00   1.3431053e-03
  2.1837500e-01   2.7196697e-04
 -1.7735880e-02   9.6228570e-03
 -8.0266678e-01   3.2718659e-03
  2.4027202e-01   8.0909804e-03
 -2.0480804e-02   8.0867187e-04
 -2.4484022e-01   2.3143424e-03
 -2.0635413e-01   3.1090130e-03
 -2.6587330e-02   9.1311187e-03
  5.5337906e-02   8.7283086e-03
  2.1892819e-01   3.7498926e-03
 -1.0912283e-02   7.5550387e-03
  5.6542814e-02   1.0998668e-03
  2.3504564e-01   1.1443119e-03
  3.8487047e-02   6.5535763e-03
  1.1778739e-01   4.3788788e-04
  3.4874562e-02   3.2395900e-03
  2.6435761e-02   7.2075007e-03
 -5.0335478e-02   1.1246266e-02
 -1.1459606e+00   2.3908988e-03
 -5.2749015e-02   2.8131327e-02
  6.0050625e-02   1.6986806e-03
 -7.9092100e-02   9.2130313e-03
 -5.6463741e-02   1.0450372e-02
 -2.2545114e-02   2.0567805e-03
 -2.4679871e-02   6.2283217e-03
  5.3867560e-02   8.2473839e-03
 -4.7797389e-02   5.3919200e-03
  6.7789041e-02   1.8520150e-02
 -1.3122295e-01   4.3863541e-04
  3.7099835e-02   2.1339727e-03
 -7.3632956e-02   7.1954476e-03
 -4.0274605e-02   1.0132215e-03
  1.9223402e-01   1.0631952e-03
  2.9722910e-02   7.7862077e-04
  4.0815690e-01   1.7740126e-03
  1.1806582e-01   1.1346946e-03
  1.2478449e-02   3.6290009e-03
 -4.8712537e-02   4.7097323e-03
 -5.4604799e-02   7.0111034e-03
  8.1421854e-03   7.0026410e-03
 -4.1208964e-02   2.3541762e-03
 -5.9443425e-02   4.0028063e-03
  4.0376242e-02   4.1104965e-03
 -2.5289685e-01   1.1338590e-03
 -3.3600498e-02   1.4028753e-03
 -1.1411565e-01   1.5555735e-03
 -7.0053421e-02   4.5192591e-03
 -1.6075875e-01   5.0528487e-03
 -2.0312124e-03   5.7269987e-03
 -7.7783398e-02   2.9765449e-03
  4.1312432e-01   5.5037613e-04
 -1.3163999e-01   2.7949731e-03
 -2.8461583e-02   1.0230904e-02
 -8.0404244e-02   7.3008942e-03
 -4.9191296e-02   9.1819884e-03
  3.3137459e-02   2.3224594e-02
 -1.4989661e-01   4.3928917e-03
  1.8652014e-02   8.7962421e-03
 -1.3168633e-01   9.4308495e-04
 -3.1324420e-02   1.3354776e-02
  3.4115322e-02   6.5582348e-03
  2.6094828e-02   3.2741637e-03
  2.5685433e-02   7.0452469e-04
  1.3888214e-03   5.2353502e-03
 -1.1156555e-01   4.0726974e-03
  1.4872721e-02   1.3775893e-03
  3.3462483e-02   2.4024635e-03
  1.1582724e-02   1.0101528e-02
  6.5909654e-02   4.9219839e-03
  1.4210137e-02   8.0517381e-03
 -4.8748322e-02   9.0738758e-03
 -2.9860154e-01   6.3551404e-04
 -4.9343735e-01   2.6233052e-03
  2.0424521e-02   3.6031348e-03
  3.9356980e-02   2.2373868e-03
 -4.9151734e-02   1.0526236e-02
 -5.2924171e-02   2.5629497e-03
 -1.7986294e-02   2.1447070e-02
 -4.3253065e-03   8.8447696e-03
  1.4560329e-02   2.2037899e-02
  1.8550649e-02   1.2236615e-02
 -3.3620343e-02   6.3493415e-03
 -1.2891773e+00   6.2637968e-04
  1.4037343e+00   9.1858802e-04
 -7.3390797e-02   2.6642645e-03
 -1.6801795e+00   7.3051022e-04
 -1.0905790e+00   4.8965681e-04
  1.0866886e+00   2.7835376e-03
 -1.2575521e+00   8.1340468e-04
 -3.9070946e-01   3.1368462e-03
  2.3380782e-01   3.8810502e-04
  3.7705866e-01   2.2215925e-02
  5.8867771e-02   6.9272413e-04
  5.0429797e-01   4.7378978e-03
 -2.3435643e-01   2.9984983e-03
  1.1443193e-01   1.2717792e-02
  5.9869152e-01   2.6837618e-03
  3.1033527e-02   8.1673078e-03
  1.4748301e-01   2.1491470e-03
  5.7554698e-01   7.5716490e-04
 -4.2554673e-02   2.0407677e-02
  2.6781119e-02   4.2404132e-03
 -4.1156594e-02   2.1715637e-03
  1.6852185e-02   5.9875883e-03
  3.4831572e-02   1.1030680e-02
 -2.3269302e-01   1.4329077e-03
 -1.1785838e-02   1.2609581e-02
 -1.6636495e-01   7.7263732e-03
  9.2491323e-01   4.4583029e-04
  2.3769662e-02   1.5491253e-02
  3.4064922e-02   2.4825286e-03
  3.9981422e-01   8.1952298e-03
 -7.4318714e-02   2.3187590e-03
  1.9887753e-02   8.8164667e-03
 -5.0135278e-03   6.6614659e-03
  1.0627153e-02   6.6363616e-03
 -7.9876773e-02   4.8635108e-03
 -4.1647293e-02   1.2680782e-03
  8.9751314e-03   7.6384994e-04
  5.5134699e-02   6.8997536e-03
  1.4177407e-02   1.9782525e-03
  1.4807666e-03   1.2563310e-02
  6.7525834e-02   4.3860329e-03
  3.1044888e-01   5.9091365e-03
 -5.7570487e-02   1.5688006e-02
 -7.7992855e-03   7.1815513e-03
  1.6981478e-01   1.2673620e-03
  3.5388421e-02   1.9078536e-02
  1.5442282e-01   9.0130651e-03
 -5.7313967e-02   1.0956082e-02
  2.4435308e-02   1.1740780e-02
 -8.8263035e-04   6.7468770e-03
 -8.5049860e-02   4.9198326e-03
 -2.9471812e-01   6.2981271e-04
 -2.0858720e-03   1.9417566e-03
  3.3117321e-03   1.7777368e-02
 -5.2060761e-02   1.8957991e-02
  2.2246556e-02   1.2220874e-02
  2.3829754e-02   8.3130114e-03
 -1.1010922e-02   6.3108155e-03
 -2.7772155e-02   4.8656613e-03
 -1.3515230e-03   9.4424877e-03
 -2.7414970e-02   1.9547157e-03
 -6.0582157e-02   3.8051545e-03
  5.8636114e-02   2.1824775e-02
  2.9871609e-02   4.7919527e-03
 -8.3359823e-02   8.5794423e-03
 -5.6054979e-03   1.4359015e-02
 -6.3181795e-02   9.9975187e-03
 -2.9976504e-02   3.9362134e-03
  3.2910479e-03   1.1705777e-02
  1.9293310e-03   2.5168238e-03
 -3.9357219e-02   1.4057367e-02
  2.3319975e-01   4.3798573e-03
 -4.1345879e-03   9.2684468e-03
  2.0679016e-02   5.9508123e-03
 -1.5424716e-01   1.8458801e-03
  2.7765220e-03   4.4576651e-03
 -7.4113742e-02   5.8667245e-03
 -5.7338074e-02   5.5002477e-03
  1.1336381e-02   1.1328453e-02
  1.0713723e-02   1.1088047e-02
 -7.1173646e-03   3.1767837e-03
 -7.9475835e-02   9.7349146e-03
 -1.7758444e-02   1.9362284e-02
  1.9124325e-03   5.0245952e-03
 -8.2219660e-02   3.9271391e-03
  1.0801143e-02   6.2552500e-03
  2.9354738e-03   9.5436433e-03
  5.1055980e-01   1.0754678e-03
 -6.0005397e-02   1.7812358e-02
 -6.1340933e-03   4.9124029e-03
 -1.3152991e-02   5.3505404e-03
 -1.4930139e-02   1.6036423e-02
 -2.4643732e-02   5.7707401e-03
 -8.2058705e-02   7.5107543e-03
  6.8287753e-02   1.9788237e-02
 -3.1173392e-03   6.0853269e-03
 -1.2492607e-01   9.1617303e-03
 -2.8871391e-03   7.7664489e-03
  1.6419495e-02   5.2799499e-03
  1.4444803e-02   1.6427701e-02
  2.6060574e-02   3.8576794e-03
  1.3911220e-02   7.8063230e-03
  2.6646331e-02   1.6097456e-02
  3.4837153e-02   1.1164467e-02
 -3.7197743e-02   1.3407947e-02
  2.1758802e-02   8.3251642e-03
  7.6801136e-02   1.2588805e-03
  4.0159922e-02   1.3178120e-02
 -8.7691092e-01   4.4795891e-04
  1.7333120e+00   9.3643815e-05
 -1.1120399e+00   7.9137553e-04
 -3.1862023e+00   2.7561220e-04
 -1.3950670e+00   5.0990726e-04
  4.9957246e-01   2.0344614e-04
  1.6108639e+00   4.9270212e-04
  9.5795028e-02   2.9117445e-04
 -3.4940472e+00   4.5686428e-04
  9.1029882e-02   1.7275233e-03
 -1.9402739e-02   1.7407114e-03
 -1.5328578e-02   4.2004483e-03
 -5.6814279e-02   2.6736135e-04
  4.1244221e-03   4.3894579e-03
  1.8649383e-01   2.2213368e-03
  4.6352904e-02   1.9588479e-04
 -1.8434809e-01   1.3115124e-03
  1.0706898e+00   1.3095583e-04
  2.0716041e-02   6.0044690e-03
 -4.8137328e-01   2.6453417e-03
  3.3191162e-01   1.1411243e-03
  1.7020494e-01   1.4452175e-04
 -1.5795603e-02   1.5232523e-02
 -1.5100575e-02   4.3017738e-03
 -2.4216199e-02   1.0971695e-02
 -7.2034341e-01   1.3537164e-04
  3.4054157e-01   3.4974162e-03
 -1.0092893e-02   9.4338516e-03
 -2.7093136e+00   2.5235073e-04
  4.2287681e-01   2.8485800e-03
 -4.5512292e-01   6.9698272e-03
 -2.8508019e-01   4.6204161e-03
 -4.0645331e-01   2.6068713e-03
 -1.7201389e+00   2.3902280e-03
 -1.0304956e-01   7.9603260e-04
  1.1366374e+00   2.5687015e-03
  2.2303563e-02   1.4174856e-02
 -2.2007055e+00   1.4063357e-03
  1.3171507e-02   2.6349530e-03
  1.5814164e-01   2.4283980e-03
  1.6411416e-02   1.0696406e-02
 -1.0334509e-01   1.4641595e-03
  4.7571484e-02   4.6381522e-03
  3.7770916e-02   6.5615093e-03
 -1.0787106e-01   1.2177697e-03
 -9.9638417e-02   2.5391968e-03
  4.1973948e-02   3.0052573e-03
 -2.4408329e-02   6.1594672e-03
  9.0759203e-02   1.1065202e-02
  9.3060203e-02   1.9334740e-03
  4.5600954e-02   5.4107751e-03
  6.8461709e-02   1.9701153e-02
  1.9789085e-02   5.9691733e-03
 -4.0878009e-02   1.9089572e-02
 -1.5473437e-01   3.6799004e-03
 -7.8544900e-04   4.2549982e-03
 -5.5946995e-02   1.8581103e-03
  3.2908197e-02   1.9241538e-03
  4.7861926e-02   4.2110779e-03
  2.0426562e-01   3.9879326e-03
 -2.4276489e-02   9.2054475e-03
  3.2910068e-02   1.3861192e-02
 -6.7847632e-02   7.8005912e-03
  1.5628664e-01   7.7198651e-03
 -7.9860710e-02   9.4906874e-03
 -8.5151839e-01   3.5761148e-04
 -1.1322034e-02   3.2781577e-03
 -1.8390569e-01   5.1789843e-03
  4.0547737e-01   4.7380603e-03
 -6.5709427e-02   5.2578223e-04
 -3.0486551e-04   4.1236333e-03
  6.1339725e-02   3.5596944e-03
  1.2071417e-02   5.3929794e-03
 -7.8756887e-01   7.6211442e-04
 -1.3710826e-02   7.8082718e-03
  1.1892250e-02   4.2866934e-03
  1.0996863e-01   8.2793776e-03
 -6.0556412e-02   9.2286372e-04
 -2.1898497e-02   2.9331488e-03
 -2.0097174e-02   1.0790694e-02
  5.3309947e-02   1.5428945e-02
  3.2182686e-02   6.4161704e-03
 -5.0418053e-02   2.2546127e-03
 -3.3826029e-01   1.6074523e-03
 -1.0505867e-01   8.5776281e-03
  6.8529709e-03   1.5810926e-02
 -8.1631169e-02   1.5004231e-03
  9.2207156e-02   9.6306400e-03
 -1.7503979e-02   1.6714975e-02
  2.7608471e-02   2.7402458e-03
  1.2820442e-01   4.8231673e-03
  1.0234392e-02   8.2281753e-03
 -2.5428003e-03   1.2990302e-02
  4.7344889e-02   5.8109034e-03
  6.0397223e-02   7.9177460e-03
 -5.4420400e-02   6.3625067e-03
 -2.0001905e-02   1.6137047e-02
  3.5754178e-02   4.1849199e-03
  1.3556572e-02   8.1777610e-03
 -1.8093904e-02   1.1934737e-02
  4.9895654e-03   6.7401268e-03
 -1.8640667e-02   9.6407356e-03
  1.4724996e-02   9.5379474e-03
 -4.2666417e-02   7.2165988e-03
 -2.9465921e-02   1.0740682e-02
  7.2434120e-02   1.4538727e-02
 -1.0729602e-02   7.5828978e-03
  1.8175758e-02   6.6897748e-03
  2.9437470e-03   4.5036124e-03
 -2.8531101e-02   1.5555703e-03
 -5.6154888e-02   1.3004327e-02
 -1.7187791e-01   7.5170113e-04
 -1.1652931e-01   2.3868559e-03
 -2.7914276e-02   1.9163700e-03
 -3.2449529e-02   2.8629408e-03
 -8.3328587e-01   4.3060805e-04
 -6.5439202e-02   1.1463780e-02
  7.7995069e-02   1.4780967e-02
 -4.7334973e-02   2.0857181e-03
 -1.0410971e-02   1.8791027e-02
 -1.5309070e-03   3.0607954e-03
  3.0512160e-03   1.0074852e-02
  8.5954458e-02   6.8593859e-03
 -5.2752220e-03   5.0799050e-03
  4.0410854e-02   4.8292573e-03
 -1.2587349e-01   2.1947785e-03
  9.4473615e-02   1.3537200e-02