135
Time=99999.99999996 pbc="T T T" Lattice="10.26287559 0.00000000 0.00000000 0.00000000 10.26287559 0.00000000 0.00000000 0.00000000 10.26287559" energy=-848.06036778 virial="554.28974069 34.92208909 8.94838114 34.92208909 508.00292443 -22.25092586 8.94838114 -22.25092586 540.99027491" stress="0.53968374 0.03230673 0.00827823 0.03230673 0.49686340 -0.02058453 0.00827823 -0.02058453 0.52738029" Properties=species:S:1:pos:R:3
Ca 5.58858657 2.80996650 6.11862081
Ca 0.49307405 2.70750603 2.48310612
Ca 3.61209762 2.00472273 1.28536751
Ca 5.24414904 6.73225603 5.31912552
Ca 5.93999021 6.38637140 1.22395430
Ca 8.82262622 4.69379235 1.50971781
Ca 10.11950440 9.31023615 4.70121454
Ca 3.25894331 9.80525644 4.74871712
Ca 0.51266689 1.46513837 8.77537470
Ca 0.14892407 4.90807076 4.67352345
Ca 0.89430802 9.69742434 7.47919635
Ca 2.75928536 4.77772701 2.28671826
Ca 5.61027948 7.97656610 8.66332355
Ca 7.14460636 10.04700635 10.03781392
Ca 10.13176615 3.84442978 7.28435740
Ca 3.30201118 6.03990250 10.07764947
Ca 8.50252042 10.24448306 7.71669082
Ca 8.99218690 2.44659973 0.24540255
Ca 7.75443551 3.48435231 3.89881106
Ca 2.49484012 5.38504531 7.58094809
Ca 3.17085576 4.60425850 5.04310879
Ca 0.05918286 6.86892341 2.82112676
Ca 5.44334152 0.97849471 3.14909917
Ca 1.37416905 0.07596390 2.52706594
Ca 5.19839707 0.68322398 8.70928214
Ca 8.35093600 1.73655515 5.90605566
Ca 7.68786441 7.75067977 6.43525700
Si 7.63763999 5.19665638 6.37241799
Si 2.79639103 9.63073412 9.77923496
Si 5.38187887 4.00680569 9.92000335
Si 3.03964909 1.71986026 6.71120530
Si 5.22149535 4.31907437 2.80184298
Si 5.41477614 9.84074727 6.24144974
Si 0.72752947 1.91960022 5.50523757
Si 8.67326863 1.09450062 2.64450898
Si 2.96448676 2.66973177 9.18533400
Si 2.10971482 8.06062430 1.31290132
Si 4.74692083 9.19087627 1.21398089
Si 8.66589306 7.58910277 10.02815141
Si 0.99867007 4.14197566 0.22280825
Si 6.36669206 2.14731292 0.98310312
Si 2.13770365 7.24680910 4.83241919
Si 0.72084441 7.12734347 9.38932353
Si 0.01498141 6.80028757 6.69806179
Si 7.35573447 2.69570335 8.53990942
Si 4.69407632 7.62433677 2.98023847
Si 3.04553800 7.87057413 7.21951029
Si 8.72731149 5.38344273 9.27252907
Si 7.79587907 6.23747665 3.35017197
Si 4.96332128 5.19920372 7.98079499
Si 2.83056097 2.24622909 4.09217359
Si 10.03835439 9.60120214 0.16262753
Si 7.25784998 10.06922728 4.57849331
Si 7.70749643 8.75565865 2.23024617
O 8.52586427 8.98898589 0.78587447
O 2.17470156 6.65616935 1.70734885
O 6.88389955 3.93274629 0.52219083
O 1.99048139 8.70715343 6.04069289
O 4.38743690 9.19712207 9.80931174
O 1.70224847 3.34507138 4.11872316
O 6.20980525 3.93631071 8.46599181
O 7.07229063 5.52667768 4.70593661
O 1.93055287 3.08390711 6.40374256
O 0.60947337 4.71705214 1.60484897
O 8.86251834 5.96802195 6.29980510
O 4.00197005 4.11779121 8.95329186
O 4.58069928 5.84428167 3.38276658
O 3.21498989 1.06519982 3.05283453
O 0.46787710 7.10667620 4.99119114
O 2.07063702 0.96962736 7.64149817
O 2.91302248 9.68596034 1.21922008
O 1.56605149 3.59571886 8.67385906
O 1.21941128 10.10820184 9.85138089
O 2.97697473 6.55488961 6.18717607
O 3.92973459 6.74234454 8.20580806
O 3.23754575 0.97194316 9.76124871
O 3.98719896 2.29689140 7.85454653
O 6.30333236 8.49864853 0.91331306
O 7.74601401 6.06897202 10.13701285
O 7.63673070 3.70251731 5.97948557
O 1.18270354 2.32684163 0.58854239
O 7.63203574 1.54118761 3.96059765
O 6.58745245 9.74173618 2.92414282
O 1.41980279 5.48174838 9.63017999
O 4.02218637 2.24330713 5.45396642
O 8.87870749 9.70253254 3.03799365
O 2.76810086 3.58067641 0.35036387
O 9.08206575 0.52717549 9.60929707
O 0.86053784 5.31218167 6.45632363
O 4.43894594 8.41784131 6.54209200
O 8.81256456 2.76311231 2.36453627
O 4.64224601 4.55235938 1.27897337
O 6.84220467 1.91937457 7.38470364
O 4.16514272 7.41527038 1.51637742
O 9.82626981 2.97224202 5.10114036
O 1.91413720 5.87759528 3.88915543
O 2.27358048 7.77652807 10.03272383
O 6.38308623 6.14291162 7.21828586
O 5.40641271 5.98739197 9.55708420
O 8.15206096 7.10321549 1.84176598
O 6.77342583 5.10222157 2.56258383
O 10.25132571 1.28958594 3.93442742
O 8.67991203 7.31314566 4.33786086
O 9.66564375 4.11334813 9.73808016
O 3.91935716 3.19989677 3.24164383
O 9.68668740 8.32895241 6.90565972
O 5.41902622 4.06502917 4.52786721
O 4.90606612 2.44324506 10.18154035
O 2.99925347 9.29618535 8.03930702
O 10.07223446 6.62048064 0.60317778
O 7.46156815 0.97926458 1.55466880
O 7.69341471 8.17722258 8.94837331
O 1.64920080 8.44126487 3.44574275
O 9.76503651 0.62323929 1.28214038
O 6.45190073 7.58110156 3.24942024
O 2.03418019 1.10654184 5.15170408
O 6.88837524 1.67012783 9.67268013
O 9.72062551 6.22009716 8.50819446
O 5.22834200 0.55319890 1.02839827
O 1.37268459 7.30189335 7.76570827
O 6.35393730 2.79842694 2.48013085
O 4.52498977 9.21079136 2.84345116
O 4.16681981 0.26320096 6.44374939
O 8.25101873 4.59073950 8.02740627
O 0.60041467 8.77618525 1.35398644
O 6.04428085 9.01162406 5.11618382
O 8.82819982 2.37483843 8.03082867
O 3.65733186 7.77013994 4.17373313
O 10.01250468 8.57089315 9.16637622
O 10.08137970 0.94681417 6.51477626
O 6.28800333 9.56671299 7.61212392
O 4.27539088 4.59437212 6.82645199
O 6.01634057 0.99238636 5.32192502
O 8.98689282 5.02445376 3.49308655
O 8.39877373 9.68328787 5.53831675
135
Time=199999.99999918 pbc="T T T" Lattice="10.26287559 0.00000000 0.00000000 0.00000000 10.26287559 0.00000000 0.00000000 0.00000000 10.26287559" energy=-850.33815833 virial="572.54401034 29.60448378 5.13107807 29.60448378 529.67702644 -50.48263837 5.13107807 -50.48263837 573.34326735" stress="0.55657093 0.02738737 0.00474681 0.02738737 0.51691430 -0.04670193 0.00474681 -0.04670193 0.55731033" Properties=species:S:1:pos:R:3
Ca 5.22441170 2.95750022 6.35220366
Ca 0.39921604 3.46965794 3.07881940
Ca 3.31441130 1.68474518 0.88556861
Ca 5.01492339 6.62208116 5.49016516
Ca 6.37416527 6.65804168 1.36589941
Ca 8.85252662 4.88292958 1.38342802
Ca 10.06238657 9.14801288 4.77384748
Ca 3.44556983 9.77024878 4.61239177
Ca 0.77787160 1.48257457 8.72854873
Ca 0.01392095 4.68926540 4.90022093
Ca 0.89009900 9.33991643 7.80855350
Ca 2.62159513 4.86252729 2.04186014
Ca 5.85315285 7.96973758 9.06330560
Ca 7.57177546 0.00860020 9.87652540
Ca 9.98170032 3.78543704 7.55621940
Ca 3.41930394 6.47328461 9.91089944
Ca 8.45384864 9.94129859 7.67261956
Ca 8.97343718 2.34547899 0.01080861
Ca 7.56723257 3.57810331 3.96791860
Ca 2.50088854 4.76561072 7.45331754
Ca 3.39052245 4.42637725 4.86870697
Ca 0.35186881 6.75968576 2.77756325
Ca 5.44521402 1.54169657 3.38885908
Ca 1.31857194 0.40107021 2.83833567
Ca 4.93122629 0.77058284 8.57706313
Ca 8.13355440 1.41942071 5.78148622
Ca 7.85311142 7.69341894 6.44509418
Si 7.51242293 5.02307209 6.50712486
Si 2.90299637 9.31192789 9.92592259
Si 5.66334220 4.18887366 10.18647917
Si 2.80045565 1.54502055 6.37323036
Si 5.37209065 4.21312995 2.81073679
Si 5.42242193 9.55076117 6.29548515
Si 0.32792627 1.68850809 5.56358256
Si 8.81120042 1.28498494 2.72100926
Si 3.15975611 3.19617750 9.10282876
Si 2.14053215 8.38632004 1.87631611
Si 5.10632277 9.20268902 1.52820679
Si 8.81453362 7.60946810 9.81573437
Si 1.09455944 4.01387657 0.10457269
Si 6.24378304 1.77482509 1.07776984
Si 2.12200213 7.07423656 4.70320492
Si 0.76026645 6.93327225 9.74045571
Si 0.26960003 6.75046856 6.81057171
Si 7.20209651 2.61012207 8.30495743
Si 4.47360523 7.24134590 3.02691482
Si 3.10021937 7.71886649 7.07905941
Si 8.53984903 5.25854335 9.12307787
Si 7.47476369 6.59327339 3.54076467
Si 5.21144168 5.24760220 8.12325377
Si 2.70422173 2.21606090 3.73717944
Si 0.16774123 9.71964157 0.39757953
Si 7.00124273 9.61528213 4.49168970
Si 8.03460030 8.94357160 2.04436922
O 8.93167262 8.96169475 0.71156683
O 2.66830311 6.83900517 1.93345206
O 7.43969945 4.10307498 0.28076656
O 1.94822811 8.54378177 5.96867085
O 4.46669622 9.15332168 10.09255220
O 1.73755545 2.23135756 2.26870093
O 5.84974468 3.85328838 8.55102289
O 6.80447026 5.85391235 4.93098852
O 1.58952890 3.08734482 4.46613546
O 0.74174354 4.94596772 1.74613890
O 8.86496791 5.83186457 6.45477598
O 3.90980807 4.67852196 9.06069695
O 4.54817733 5.65989528 3.30191853
O 3.51079550 0.83464381 3.21119852
O 0.41914723 6.93787320 5.10262917
O 1.40015967 2.50014525 6.64573916
O 2.79429412 9.67238259 1.34111386
O 1.41829122 3.53021982 8.78735180
O 1.46090156 10.20223454 9.94090465
O 2.83476653 6.30327510 6.11705625
O 4.34336093 6.92788246 8.11684733
O 3.11665574 1.68219407 9.37533782
O 3.31667026 2.96699912 7.56751909
O 6.70984877 8.69082793 0.69254136
O 7.72436453 6.40376258 9.98479035
O 7.02093979 3.46477709 6.15858082
O 0.60107947 2.53797020 0.30406262
O 7.62514271 1.37915112 4.00645508
O 6.53533519 9.51257148 2.81864577
O 1.57782961 5.52433460 9.88588374
O 3.67063268 2.14227943 5.11069467
O 8.90854136 9.88195907 2.97350267
O 2.72684623 3.91034896 0.30113700
O 9.64159515 0.29472710 9.28356824
O 0.88013628 5.15049758 6.58643583
O 4.25014656 8.63953289 6.43244057
O 8.81369056 3.04006436 2.51154622
O 4.94406244 4.79244359 1.31853424
O 6.43813564 1.70985777 7.34098052
O 4.68706835 7.55858904 1.18591833
O 9.59974424 3.03377273 5.74985769
O 1.71976199 5.68140991 3.96437790
O 2.14242761 7.95065581 10.07349222
O 6.57340517 6.18975060 7.54629016
O 5.67188132 5.81318450 9.76743919
O 8.15360311 7.23883826 2.05619133
O 6.78102200 5.14885201 2.73375320
O 10.08929963 1.30188494 4.13188149
O 8.24079675 7.90608716 4.20376923
O 9.75549486 4.44191145 9.66599407
O 3.72263270 3.05196246 2.85863914
O 9.79916758 8.28918086 6.91346631
O 5.45081853 3.73782606 4.32194799
O 4.96794746 2.59744625 10.25306544
O 3.20519289 9.29269565 8.31448985
O 9.98349213 6.67119808 0.58110077
O 7.67782779 1.02414366 1.47871259
O 7.86334877 8.21723023 8.70321475
O 1.57981332 8.42642329 3.56613098
O 10.02635229 0.77391801 1.40459824
O 6.07235209 7.48278729 3.41153304
O 1.65848031 0.56690893 5.39450497
O 6.87355731 1.90447350 9.88234873
O 9.88158521 6.35091454 8.40546268
O 5.28209872 0.58291007 1.10507635
O 1.60761001 7.18224275 7.72553173
O 6.17033225 2.92899151 2.10882607
O 4.44714956 8.92098939 2.92940774
O 3.90406391 0.45742559 6.76002616
O 7.80130048 4.49683778 7.93839752
O 0.60612083 8.71950634 1.55507459
O 6.25421310 8.45761318 5.34531542
O 8.80522004 2.10462522 8.04144002
O 3.57607054 7.43782832 4.26600675
O 10.20742596 8.34446490 9.44569993
O 10.00021554 0.38246745 6.62119244
O 6.35425119 9.69573185 7.49680844
O 4.95287682 5.04131459 6.58655894
O 5.66220162 0.26913599 5.11071056
O 8.86524802 5.43127191 3.28954354
O 8.28332487 9.86537500 5.43370605
135
Time=299999.99999840 pbc="T T T" Lattice="10.26287559 0.00000000 0.00000000 0.00000000 10.26287559 0.00000000 0.00000000 0.00000000 10.26287559" energy=-849.61521481 virial="588.28431623 31.82508513 37.21613002 31.82508513 543.00627980 -4.63860139 37.21613002 -4.63860139 587.55759172" stress="0.57113242 0.02944167 0.03442897 0.02944167 0.52924531 -0.00429121 0.03442897 -0.00429121 0.57046012" Properties=species:S:1:pos:R:3
Ca 5.52460750 2.96658336 6.18567193
Ca 0.25028430 2.99927707 2.87406779
Ca 3.47574727 1.86539604 1.31288849
Ca 5.18899338 6.52805065 5.34720870
Ca 6.26510568 6.45800880 1.07812420
Ca 8.62363775 4.98906803 1.64782710
Ca 10.02901962 9.38628098 4.88038132
Ca 3.41684694 9.91052553 4.82179813
Ca 0.47686966 1.68389287 8.74266932
Ca 0.38544653 4.79722292 4.53979604
Ca 1.05565450 9.35396499 7.71004776
Ca 2.48631007 4.90534853 2.33098169
Ca 5.36281612 7.79002084 8.55116784
Ca 6.94423482 9.88902543 9.77323900
Ca 10.16834493 3.77547637 7.31027534
Ca 3.45206603 6.01074874 0.01217975
Ca 8.63949144 0.08542685 7.75402548
Ca 9.06008518 1.97196576 0.23097045
Ca 7.72634972 3.70468513 3.96736873
Ca 2.46213939 5.10078431 7.76899203
Ca 3.40769186 4.64968052 4.82133724
Ca 10.24960514 7.41393423 2.74831854
Ca 5.57892573 1.07124150 3.27674150
Ca 1.37999223 0.16257925 2.91369541
Ca 5.13555277 0.81123459 8.41094320
Ca 8.28791907 1.62854323 5.67502702
Ca 7.61904976 7.71767547 6.59856578
Si 7.78533348 4.95788265 6.34289616
Si 3.06056691 9.85260365 9.51094637
Si 5.69384463 4.10375795 10.03138397
Si 2.98944127 1.86856463 6.63249136
Si 5.28645654 4.17000833 2.83804487
Si 5.77814380 9.65702466 6.44062674
Si 0.67423844 2.01026695 5.48383712
Si 8.43015079 1.19813775 2.66961113
Si 3.07491992 3.00560387 9.02243522
Si 2.41092749 8.26829480 1.45683512
Si 4.86393324 9.20721564 1.34152870
Si 8.96788777 7.51109479 9.66185347
Si 0.91623339 3.93279209 0.13617744
Si 6.14561205 1.72956183 0.84341719
Si 2.13727525 7.45188500 4.67172309
Si 0.96378080 6.92809189 0.19706103
Si 0.04304019 6.90463640 6.76218019
Si 7.42004052 2.73666331 8.13683956
Si 4.61049062 7.54419907 3.12205716
Si 3.00194853 7.72101628 7.21745686
Si 8.36633049 5.18286825 9.25880664
Si 7.72234659 6.35591127 3.56452127
Si 5.12202129 5.09151072 7.89690684
Si 2.93071895 2.30319975 3.94335828
Si 10.17402711 9.73172961 0.46580904
Si 7.54323759 9.04630467 4.36776554
Si 7.64583538 8.82392010 2.01385005
O 8.70519586 8.98158051 0.92947011
O 1.94731625 6.72832700 1.62304561
O 7.42441486 4.11356321 10.05089977
O 2.08330460 8.72573105 5.83385250
O 4.87045896 9.34693262 9.75406659
O 1.94627620 2.19407144 2.60744238
O 6.01207426 3.55973683 8.20116400
O 7.04348225 5.63897809 4.97813286
O 1.65955475 3.29334059 4.60263298
O 0.53687338 4.80578256 1.97733854
O 9.08264333 5.85785145 6.25396377
O 3.77563558 4.40143878 8.97834238
O 4.27590641 5.57337820 2.80991183
O 3.50844875 0.97905499 3.33089238
O 0.39155789 7.39096171 5.07952522
O 1.53279327 2.42614711 6.71413774
O 3.16048734 9.61859057 0.91393525
O 1.46436912 3.57271016 8.81503331
O 1.47646738 0.16368115 9.93740136
O 3.15745539 6.60260586 6.13737302
O 3.85983370 6.50436858 8.23600615
O 3.47513302 1.11597613 9.39129050
O 3.77573888 2.82126105 7.62526889
O 6.42844352 8.54819764 0.87752647
O 7.67829148 6.52792549 9.86399281
O 7.45072007 3.52199021 6.15670689
O 0.68749866 2.35375909 0.66704765
O 7.49854070 1.28140456 3.95948904
O 6.56083766 9.50186469 3.05235919
O 1.39845821 5.40501983 9.84714567
O 3.71689113 2.53840192 5.19042290
O 8.69812688 9.41330778 3.16234232
O 2.61162363 3.66212133 0.36272985
O 9.36356322 0.21926826 9.50834712
O 0.86252858 5.28036590 6.38221452
O 4.46163090 8.65600736 6.56569548
O 8.53327690 2.79648685 2.41682920
O 5.02127515 4.70160514 1.19697505
O 6.69619450 1.61577744 7.33580380
O 4.22775403 7.35190493 1.56179771
O 9.84848089 3.20270560 5.35481232
O 2.13683738 6.10150158 3.91903183
O 2.39041057 7.79234113 10.01276018
O 6.37198184 5.99442447 7.26439242
O 5.42274244 5.77902709 9.37052936
O 8.03367108 7.22593368 2.12836571
O 6.97444448 5.07935495 2.72987810
O 9.96005559 1.23653544 4.23570986
O 8.30365655 7.60843188 4.32520319
O 9.52367931 4.17040485 10.07391664
O 3.73954540 3.42552049 2.96235066
O 9.47387331 8.39970626 6.69116001
O 5.65532553 3.83325606 4.40165898
O 4.93949175 2.56316007 0.07226596
O 3.25821379 8.94111003 8.25461456
O 9.79130473 6.40305575 0.52361612
O 7.25040649 0.63242204 1.60135279
O 7.93385675 8.39775440 8.98210808
O 2.06859429 8.48909772 3.17963715
O 9.94362989 0.77501260 1.57008237
O 6.10712846 7.07907680 3.43858743
O 1.94356877 1.08725554 5.09493682
O 6.98451183 1.77058039 9.76082999
O 9.59117730 6.41329387 8.36730486
O 5.04252182 0.60669575 1.36929409
O 1.37773330 7.24707099 7.74369663
O 6.10160233 2.87130390 2.04799311
O 4.35535463 9.15484308 2.79468516
O 3.01809454 0.56297696 7.32339212
O 8.08610177 4.45715027 7.91244683
O 0.83870272 9.00915883 1.46177312
O 6.29208859 8.50300639 5.35071041
O 8.87099121 2.20860577 8.05979799
O 3.81441462 7.67554121 4.29437206
O 0.06824509 8.26697072 9.67937731
O 10.22976819 0.69883239 6.70326788
O 6.45510215 9.62066130 7.82441606
O 4.36944660 4.87149269 6.52601918
O 5.29369233 0.77477870 5.70218744
O 8.97753563 5.35247643 3.67822470
O 7.98294894 9.88861754 5.75476679
135
Time=400000.00000008 pbc="T T T" Lattice="10.26287559 0.00000000 0.00000000 0.00000000 10.26287559 0.00000000 0.00000000 0.00000000 10.26287559" energy=-852.02224255 virial="567.55978919 43.43554949 7.75812955 43.43554949 474.93778919 -12.46355649 7.75812955 -12.46355649 569.23038657" stress="0.55195998 0.04018261 0.00717711 0.04018261 0.46627455 -0.01153015 0.00717711 -0.01153015 0.55350547" Properties=species:S:1:pos:R:3
Ca 5.35298664 3.02644272 5.95156678
Ca 10.14595346 3.57691970 2.58999183
Ca 3.54144413 1.85960033 1.34463242
Ca 4.85493355 6.59771857 5.62722167
Ca 6.17549908 6.01028331 1.02738779
Ca 8.71883154 5.34481715 1.35254779
Ca 10.20053984 9.64026798 4.64473243
Ca 3.54344951 9.62029436 4.55102460
Ca 0.54110421 1.74185045 9.12922006
Ca 0.13316839 4.96416971 5.10246590
Ca 1.14852880 9.57500480 7.79486601
Ca 2.55938996 4.94956519 2.37420121
Ca 5.66024597 7.81647364 9.02390906
Ca 6.93884502 0.06537380 9.68555551
Ca 10.19267024 3.74685386 7.27582099
Ca 3.56754421 6.00044410 0.32947048
Ca 8.56636211 10.13946269 7.69521981
Ca 9.01858423 2.14669861 0.12664917
Ca 7.87480316 3.58863107 4.25280864
Ca 2.55303415 5.04063366 7.62574123
Ca 3.00124097 4.66466391 4.85279127
Ca 0.18928664 6.96759654 2.35651908
Ca 5.59253062 0.64449730 3.60706795
Ca 1.49668624 0.94794609 1.85801883
Ca 4.75438282 1.14467143 8.42093918
Ca 7.91610547 1.53770144 5.92033502
Ca 7.37932113 7.89918216 6.52343260
Si 7.46052762 5.26508723 6.54062677
Si 2.89882608 9.45671878 9.86140069
Si 5.97985072 3.58774332 10.11180811
Si 2.68162871 1.52605301 6.39623893
Si 5.38569259 4.29627377 2.94284141
Si 5.33253359 9.73480111 6.37575454
Si 0.63493689 1.84553277 5.32239295
Si 8.86246944 0.85736771 2.54345562
Si 3.21024249 2.98482353 9.16378426
Si 2.18819543 8.56328974 1.93711004
Si 5.03369210 9.38656517 1.29000739
Si 8.78102494 7.67953374 9.50439556
Si 1.20353058 4.08754615 0.06875205
Si 6.64731394 1.99025681 1.79327704
Si 1.97064676 7.35221142 4.93282028
Si 1.00014608 6.98335264 9.43040425
Si 0.01150054 6.87886744 6.86626065
Si 7.37800902 3.10402466 8.01669165
Si 4.31946441 7.37425974 2.92803105
Si 2.97792861 7.77236766 7.30856338
Si 8.89394715 5.14604000 9.27127370
Si 7.28451260 6.42742260 3.43483688
Si 5.08220849 5.17058172 8.07863525
Si 3.05726445 2.33250003 3.80871765
Si 10.16559028 9.58611018 0.15549142
Si 7.67322587 9.13556676 4.21724977
Si 7.65288023 8.87810763 1.66628603
O 8.94585783 8.55114636 0.68205902
O 2.73364881 6.97562318 1.94705631
O 7.86231547 4.28441194 10.20668911
O 2.10862899 8.57272416 6.00804690
O 4.59478112 9.51520415 10.04739129
O 1.63273069 3.20554779 3.59891435
O 5.76855539 3.61317157 8.18924164
O 7.01410997 5.53146991 4.94914216
O 1.59336268 2.89421807 5.97750264
O 0.67222329 4.85008669 1.39285744
O 8.98462296 5.95614891 6.22863110
O 4.02254408 4.36909552 9.19392160
O 4.97570026 4.70349582 4.58436919
O 3.27144533 0.87542642 3.09895765
O 0.28490449 7.30876738 5.15355587
O 1.66397797 1.14729875 7.51247373
O 3.02599179 9.65911797 1.19173247
O 1.66791933 3.38333750 8.61816496
O 1.39859772 0.00794554 10.09903714
O 2.69831448 6.53878197 6.14979343
O 4.09169965 6.50212980 8.47762601
O 2.89832751 1.11973753 9.58821175
O 3.46178369 2.49095903 7.52613215
O 6.41531104 8.59969835 0.73577413
O 7.78418879 6.38808629 9.54775258
O 7.41747511 3.54412883 6.41943868
O 0.90478259 2.46870104 0.73183142
O 7.75568807 0.97524348 3.65055438
O 6.78181148 9.25858823 2.84057123
O 1.77872614 5.56558347 9.60375554
O 3.75677819 2.16267947 5.16854543
O 9.03065667 9.32673569 2.96489018
O 2.79951821 3.73552519 0.62164003
O 9.19001697 0.01105791 9.50578789
O 0.99735540 5.48826920 6.72108177
O 4.38209977 8.22764669 6.64607926
O 8.31300310 2.51793282 2.23752212
O 4.48055032 5.65664124 2.30137272
O 6.86851499 1.58624578 7.69801693
O 4.70669821 7.63983853 0.96790357
O 9.67994264 2.94979934 5.09420924
O 1.54461170 5.93686513 3.97415477
O 2.15212119 7.86676305 10.25180760
O 6.36871129 6.13772784 7.32560995
O 5.65956167 5.28400687 9.65674076
O 7.76146148 7.04543614 2.07019884
O 6.98591599 4.91441660 2.60304320
O 0.08477388 1.36928104 3.50961712
O 8.25796582 7.59110956 4.29497437
O 10.00874169 4.00935177 9.54731738
O 3.97464188 3.35793241 2.96947367
O 9.60198314 8.35054356 7.03797797
O 6.18680821 2.73303668 3.48513539
O 4.67473964 2.51567958 9.91605485
O 3.16276739 8.93179094 8.30732056
O 9.85698904 6.82842736 0.29616118
O 7.61312846 0.52919817 1.39479478
O 7.73626727 8.60028654 8.70653027
O 1.79969007 8.60821204 3.44741623
O 9.86107237 0.62341851 1.21637584
O 5.82334902 7.17151643 3.28815358
O 1.72430277 0.71568599 5.06249812
O 7.00586194 2.18004919 10.12508566
O 9.81060657 6.11772041 8.40665667
O 5.47316620 0.90337793 1.63522445
O 1.50645766 7.27821676 7.96031345
O 5.60380589 3.50982058 1.45438931
O 4.38561183 9.03005750 2.70359244
O 3.83102862 0.10091417 6.39201599
O 8.21698196 4.50975261 7.94915170
O 0.62632972 8.87509304 1.67304312
O 5.99107551 8.98727694 5.08710611
O 8.91845063 2.24315913 8.15997261
O 3.53142727 7.32963511 4.32039202
O 0.02533662 8.29577868 9.20276655
O 10.01625738 0.84508086 6.13655250
O 6.18387190 9.69902646 7.79115664
O 4.41630247 4.64516470 6.72433374
O 6.09446590 0.76100823 5.84976637
O 8.96246045 5.28370880 3.54302028
O 8.34255755 9.81279439 5.51306201
135
Time=500000.00000301 pbc="T T T" Lattice="10.26287559 0.00000000 0.00000000 0.00000000 10.26287559 0.00000000 0.00000000 0.00000000 10.26287559" energy=-846.67809702 virial="592.24951940 39.96884704 11.35933880 39.96884704 531.97976418 -2.59731627 11.35933880 -2.59731627 553.09698838" stress="0.57480067 0.03697553 0.01050862 0.03697553 0.51904459 -0.00240280 0.01050862 -0.00240280 0.53858032" Properties=species:S:1:pos:R:3
Ca 5.36187300 2.83089670 6.24297747
Ca 0.14366459 2.86483588 2.28634615
Ca 4.21375982 2.07126867 1.37041822
Ca 5.04398864 6.51993619 5.58532178
Ca 6.10915117 6.75486437 0.99173598
Ca 8.54966652 4.89892863 1.64804478
Ca 0.24394588 9.41137915 4.98579808
Ca 3.12913192 9.43798126 4.70150293
Ca 1.12603617 1.63589453 8.54433838
Ca 0.35427794 4.85462883 4.87428809
Ca 0.74486155 9.46271387 7.36616455
Ca 2.47160369 4.77833774 2.32011201
Ca 5.99636312 8.11142321 9.00891931
Ca 6.58075242 0.33625191 9.58928463
Ca 9.95932306 4.02828601 7.66363939
Ca 3.51774924 6.05346687 0.17390349
Ca 8.56474879 0.09163418 7.62041327
Ca 9.05887965 2.32978111 0.01075046
Ca 7.41490749 3.58889001 4.00627479
Ca 2.73638977 4.65913393 7.32016444
Ca 3.53800981 4.85462269 4.90897380
Ca 10.25560699 7.17488370 2.87073146
Ca 5.17892223 0.68877523 3.84021241
Ca 1.88312900 1.07867610 1.25044898
Ca 4.46280753 0.59572498 8.03191089
Ca 8.02691183 1.70753378 5.76743751
Ca 7.49963891 7.84844740 7.00557020
Si 7.29436433 5.14755999 6.49311263
Si 2.84648224 9.73405730 9.74884506
Si 5.96218618 3.68533785 9.96332243
Si 2.84661037 1.69972696 6.21726823
Si 5.28990702 4.24948005 2.86939782
Si 5.41556375 9.48305143 6.17634506
Si 0.40193449 1.91611101 5.21331844
Si 9.17046369 0.52407837 2.85823933
Si 3.35822285 2.92863047 9.15989337
Si 2.09977279 8.33068682 1.73995393
Si 4.85238390 9.19081563 1.42408290
Si 8.90572765 7.75682742 9.71526468
Si 1.18270112 4.21642816 10.22456069
Si 7.00970435 1.83682214 1.82329575
Si 2.12486106 7.11656530 4.87491126
Si 0.91327712 7.17916831 9.68985353
Si 10.20898463 6.68468396 6.95202583
Si 7.30519927 3.03206691 7.78223413
Si 4.72441027 7.45298928 3.18927995
Si 2.81764606 7.58496006 7.41290435
Si 8.46477728 5.20688385 9.37075857
Si 7.78991468 6.27176494 3.69265520
Si 4.94007064 5.48881015 8.33033839
Si 2.67960786 2.25722840 3.89653116
Si 10.01875222 9.86167726 0.21496493
Si 7.70451461 9.08894652 4.30195593
Si 7.76929231 8.67250060 1.94136188
O 8.78923221 8.75767296 0.66593136
O 1.79622392 6.69688275 1.88068310
O 7.17196564 4.62218692 10.20593955
O 2.04899220 8.36630216 6.09068314
O 4.67598055 9.47837887 9.83562225
O 1.27983931 3.09470772 4.04775137
O 5.90802301 4.01089534 8.43103384
O 6.79159822 5.78209217 5.00387135
O 1.48740784 2.81321583 6.32696720
O 0.64399218 4.45547347 1.51752758
O 8.75603624 5.80387196 6.38636995
O 3.98660258 4.61038188 9.28311219
O 5.46067476 4.06275837 4.41765166
O 2.84621325 1.00284092 3.07119312
O 0.55901968 7.13885194 5.30713671
O 2.52533994 0.49891632 7.22522689
O 3.08126295 9.64113112 1.16556063
O 1.55823084 3.44669291 8.73798329
O 1.34859792 9.98954713 9.67131358
O 2.86587339 6.37599198 6.13331768
O 3.86259364 6.63210193 8.18237208
O 2.96756478 1.26475556 9.65626633
O 3.70584574 2.64466073 7.60778641
O 6.63328288 8.69128059 0.66581994
O 7.86659275 6.60606206 9.86319722
O 7.22607285 3.70948889 6.27804700
O 0.77303104 2.38142221 0.36408952
O 7.84445395 1.21427300 3.55092985
O 6.76646122 9.47840263 3.06645904
O 1.60565646 5.56886500 9.43105026
O 3.61787939 2.62021967 5.15367208
O 9.11717414 8.97029713 2.94133002
O 2.74865770 3.41541015 0.43564287
O 9.43408633 0.64057083 9.25528884
O 0.83418303 5.22432059 6.78015300
O 4.25962406 8.24014942 6.59628276
O 7.99884483 3.13506578 2.07510917
O 4.38243971 5.70193117 2.92888474
O 6.56111976 1.64377310 7.65860247
O 4.34077496 7.59206445 1.39908175
O 9.47939839 3.11693089 5.23721592
O 1.88960227 5.69043285 4.01110626
O 2.43992200 7.94983039 0.11310627
O 6.28455707 6.18560736 7.29645497
O 5.48744176 6.40704914 9.48916101
O 8.13896455 6.91936409 2.19395497
O 6.80768194 4.99877905 2.57330528
O 10.13118588 1.19710385 3.78539732
O 8.19062879 7.58184446 4.62388598
O 9.61383522 4.23343212 9.85389568
O 3.74957337 3.29690504 3.12486773
O 9.51578607 8.34031483 6.96429725
O 5.82836141 2.47838257 2.56637356
O 4.87144001 2.43561937 9.73623349
O 2.82870104 8.91958175 8.37591563
O 10.05686005 6.81261398 0.57196132
O 7.84145012 0.64391518 1.21527744
O 7.88689301 8.71538825 8.86020938
O 1.67718205 8.09474250 3.56942834
O 9.95992622 0.68119101 1.57558513
O 6.21131528 7.21019941 3.29813117
O 1.72523207 0.97437635 4.83460489
O 6.82819430 2.22122983 0.26206768
O 9.70359561 6.29290739 8.61457382
O 5.52835375 0.40514279 1.59909634
O 1.29542469 7.17222273 8.13443228
O 5.09246517 4.10776159 1.08650841
O 4.60157645 9.22123624 3.26197074
O 4.21495808 0.64894303 5.86378087
O 7.97409103 4.56999038 7.98212673
O 0.71503647 9.05071073 1.23804864
O 6.26470395 8.50564694 5.37218005
O 8.76596678 2.35471533 7.81663494
O 3.77172657 7.21555268 4.36415591
O 10.23465506 8.58575933 9.21847349
O 10.10534501 0.90680360 6.46489938
O 6.06308563 9.68484502 7.66684281
O 4.77914832 4.75109981 6.65234902
O 6.35769467 0.52058878 5.39961443
O 9.00498027 5.30567539 3.50996947
O 8.52831271 9.75034151 5.48247923
135
Time=600000.00000594 pbc="T T T" Lattice="10.26287559 0.00000000 0.00000000 0.00000000 10.26287559 0.00000000 0.00000000 0.00000000 10.26287559" energy=-851.63075251 virial="568.04656959 14.92165983 11.77846710 14.92165983 538.19675291 -13.17298771 11.77846710 -13.17298771 585.36214856" stress="0.55241031 0.01380416 0.01089636 0.01380416 0.52479598 -0.01218645 0.01089636 -0.01218645 0.56842910" Properties=species:S:1:pos:R:3
Ca 5.42264078 3.17751816 6.27541595
Ca 0.26394166 3.23092879 2.77523375
Ca 3.10715342 1.82509073 1.27056478
Ca 5.20750579 6.62818739 5.28385672
Ca 6.17095764 6.43215309 1.18986423
Ca 8.71268535 5.00672571 1.34890707
Ca 0.09631651 9.28812438 4.94350574
Ca 3.49348050 9.73488985 4.72009809
Ca 0.89081779 1.49517860 8.48656912
Ca 0.11829097 5.11556607 4.97101341
Ca 1.09854366 9.52149182 7.82349907
Ca 2.57972061 4.78646639 2.45308045
Ca 5.58184704 8.21700744 8.66981181
Ca 7.27211529 10.05860391 9.93700185
Ca 9.99257102 3.59672514 7.33562019
Ca 3.19284776 6.08322285 10.25308448
Ca 8.73842685 9.98820621 7.89402892
Ca 9.02587258 2.45998428 0.29786665
Ca 7.76205179 3.48034537 4.04392651
Ca 2.59588438 5.14220301 7.65542813
Ca 3.12936501 4.57622248 5.08042147
Ca 10.16710038 7.20607016 2.86009293
Ca 5.67363215 1.16192550 3.50878591
Ca 1.29573160 10.25695738 2.76295450
Ca 4.81902176 0.85871353 8.00752714
Ca 8.19571703 1.57292032 5.58228702
Ca 7.81095807 7.82933402 6.85909044
Si 7.65825097 5.12956451 6.57386728
Si 3.00900499 9.80551831 9.87110555
Si 5.54719510 4.26151646 10.02412843
Si 2.83461367 1.91341407 6.36195715
Si 5.34327275 4.05336944 2.83301514
Si 5.67855166 9.36371770 6.27933872
Si 0.41011449 1.75282889 5.15155740
Si 8.56957362 0.96497323 2.67932008
Si 3.23687828 2.91311651 9.10401316
Si 2.17074889 8.03302122 1.62152811
Si 4.87382276 9.16169625 1.46579531
Si 8.81923817 7.64356529 9.81118557
Si 1.16570405 4.12832643 0.05825795
Si 6.18415019 1.70900107 0.75860101
Si 2.04233943 7.30861425 4.80191904
Si 0.79189409 7.09758300 9.44601290
Si 10.25202121 6.92476058 6.90741327
Si 7.28825257 2.76468425 8.30547346
Si 4.51110891 7.37518359 3.04972471
Si 3.11174446 7.95437395 7.27440589
Si 8.94907500 5.41954770 9.26108143
Si 7.77891727 6.07056039 3.67519795
Si 5.18885542 5.26826901 8.03876656
Si 2.81292230 2.27069718 3.64136873
Si 10.22572679 9.92944162 0.31991960
Si 7.57831297 8.71548684 4.26314174
Si 7.86560042 8.65145861 1.90321320
O 8.63878451 9.16925095 0.62403014
O 2.35436475 6.59114100 1.94743796
O 7.19871093 3.87778711 0.08897812
O 2.08675902 8.75504311 6.11775670
O 4.57229377 9.34560565 9.99265862
O 1.74079328 2.02522884 2.68073863
O 6.03225118 3.88757447 8.21954393
O 6.89273404 5.44483464 5.09289761
O 1.66465559 3.48114089 4.49015355
O 0.53912226 4.77167864 1.45313534
O 9.03680399 5.76751121 6.48030820
O 4.04308283 4.30325551 8.97815265
O 5.60388699 3.39521714 4.26206287
O 3.54992100 0.84920530 3.27158582
O 0.49583060 7.18665962 5.14104993
O 1.45695824 2.70592397 6.41997546
O 2.92790710 9.62251106 1.36940653
O 1.71140151 3.33645957 8.67014152
O 1.41561019 0.07910459 10.01432969
O 2.87998472 6.42215852 6.12631865
O 3.85926317 6.79244869 8.31170967
O 3.24249548 1.23919942 9.29792073
O 3.64673361 2.61988245 7.58512578
O 6.43325672 8.72864097 0.90219238
O 7.81422385 6.27763211 10.11770397
O 7.70874265 3.64715315 6.33328662
O 0.90903783 2.54387417 0.70637959
O 7.64057859 1.45486195 3.72431656
O 6.81646058 9.39707420 3.12086252
O 1.32464651 5.63041137 9.44380837
O 3.88147036 2.27834323 5.24423320
O 8.76548184 9.37699709 3.17879511
O 2.71833253 3.85543957 0.39645786
O 9.55852789 0.77054160 9.46110089
O 0.70780093 5.42762099 6.87994656
O 4.43003742 8.41377038 6.57870045
O 8.65109173 2.61514932 2.32708590
O 4.56339343 5.64033313 3.35189025
O 6.61253691 1.64996430 7.24052583
O 4.38278877 7.56555788 1.40047413
O 9.80458480 3.11484958 5.07074033
O 1.67174360 6.11317937 3.85608471
O 2.04374353 7.74929717 10.07283803