 running on   52 total cores
 distrk:  each k-point on   52 cores,    1 groups
 distr:  one band on   13 cores,    4 groups
 using from now: INCAR     
 vasp.5.4.4.18Apr17-6-g9f103f2a35 (build Oct 31 2019 15:01:46) complex          
  
 POSCAR found type information on POSCAR  Ca Si O 
 POSCAR found :  3 types and     135 ions
 scaLAPACK is switched off
 LDA part: xc-table for Pade appr. of Perdew
 generate k-points for:    2    2    2
 POSCAR, INCAR and KPOINTS ok, starting setup
 FFT: planning ...
 WAVECAR not read
 entering main loop
       N       E                     dE             d eps       ncg     rms          rms(c)
DAV:   1     0.953278928662E+04    0.95328E+04   -0.47774E+05  8320   0.181E+03
DAV:   2     0.313412838069E+02   -0.95014E+04   -0.92007E+04  9888   0.485E+02
DAV:   3    -0.100327066493E+04   -0.10346E+04   -0.10270E+04 10248   0.163E+02
DAV:   4    -0.105488251860E+04   -0.51612E+02   -0.51418E+02 11448   0.328E+01
DAV:   5    -0.106037593072E+04   -0.54934E+01   -0.54905E+01 14464   0.776E+00    0.839E+01
DAV:   6    -0.908718056061E+03    0.15166E+03   -0.69878E+02  9848   0.414E+01    0.358E+01
DAV:   7    -0.910262710052E+03   -0.15447E+01   -0.76950E+01 10688   0.147E+01    0.179E+01
DAV:   8    -0.908763530145E+03    0.14992E+01   -0.11793E+01 11096   0.619E+00    0.814E+00
DAV:   9    -0.908726795808E+03    0.36734E-01   -0.24095E+00 10976   0.365E+00    0.957E+00
DAV:  10    -0.908528678651E+03    0.19812E+00   -0.92071E-01 10832   0.181E+00    0.303E+00
DAV:  11    -0.908537284359E+03   -0.86057E-02   -0.40719E-01 10312   0.117E+00    0.185E+00
DAV:  12    -0.908542722375E+03   -0.54380E-02   -0.13998E-01 11120   0.713E-01    0.148E+00
DAV:  13    -0.908537802696E+03    0.49197E-02   -0.68771E-02 11360   0.404E-01    0.115E+00
DAV:  14    -0.908529043860E+03    0.87588E-02   -0.16184E-02 10344   0.260E-01    0.874E-01
DAV:  15    -0.908520433441E+03    0.86104E-02   -0.10067E-02 11104   0.243E-01    0.464E-01
DAV:  16    -0.908519107678E+03    0.13258E-02   -0.11035E-02 11336   0.172E-01    0.219E-01
DAV:  17    -0.908519156387E+03   -0.48709E-04   -0.26070E-03 11528   0.677E-02    0.139E-01
DAV:  18    -0.908519092814E+03    0.63573E-04   -0.91030E-04 10848   0.404E-02    0.935E-02
DAV:  19    -0.908519084964E+03    0.78498E-05   -0.31467E-04  9800   0.297E-02    0.249E-02
DAV:  20    -0.908519096202E+03   -0.11237E-04   -0.77257E-05 11360   0.187E-02    0.239E-02
DAV:  21    -0.908519096856E+03   -0.65472E-06   -0.46345E-05 10392   0.114E-02    0.102E-02
DAV:  22    -0.908519097557E+03   -0.70075E-06   -0.77532E-06  9200   0.489E-03
   1 F= -.90851910E+03 E0= -.90851146E+03  d E =-.152659E-01
