 vasp.5.4.4.18Apr17-6-g9f103f2a35 (build Oct 31 2019 15:01:46) complex          
  
 executed on             LinuxIFC date 2024.04.29  22:01:17
 running on   52 total cores
 distrk:  each k-point on   52 cores,    1 groups
 distr:  one band on NCORES_PER_BAND=  13 cores,    4 groups


--------------------------------------------------------------------------------------------------------


 INCAR:
 POTCAR:    PAW_PBE Ca_sv 06Sep2000               
 POTCAR:    PAW_PBE Si 05Jan2001                  
 POTCAR:    PAW_PBE O 08Apr2002                   
 POTCAR:    PAW_PBE Ca_sv 06Sep2000               
   SHA256 =  a47365830e737f14e0e6c5cf1ed81b94e081eecf0a33df105380881bc9da05d5 Ca
   COPYR  = (c) Copyright 06Sep2000 Georg Kresse                                
   COPYR  = This file is part of the software VASP. Any use, copying, and all ot
   COPYR  = If you do not have a valid VASP license, you may not use, copy or di
   VRHFIN =Ca: 3s3p4s                                                           
   LEXCH  = PE                                                                  
   EATOM  =  1006.0909 eV,   73.9456 Ry                                         
                                                                                
   TITEL  = PAW_PBE Ca_sv 06Sep2000                                             
   LULTRA =        F    use ultrasoft PP ?                                      
   IUNSCR =        1    unscreen: 0-lin 1-nonlin 2-no                           
   RPACOR =    2.000    partial core radius                                     
   POMASS =   40.078; ZVAL   =   10.000    mass and valenz                      
   RCORE  =    2.300    outmost cutoff radius                                   
   RWIGS  =    2.500; RWIGS  =    1.323    wigner-seitz radius (au A)           
   ENMAX  =  266.622; ENMIN  =  199.967 eV                                      
   RCLOC  =    1.808    cutoff for local pot                                    
   LCOR   =        T    correct aug charges                                     
   LPAW   =        T    paw PP                                                  
   EAUG   =  420.852                                                            
   RMAX   =    2.359    core radius for proj-oper                               
   RAUG   =    1.300    factor for augmentation sphere                          
   RDEP   =    2.392    radius for radial grids                                 
   RDEPT  =    1.987    core radius for aug-charge                              
                                                                                
   Atomic configuration                                                         
    7 entries                                                                   
     n  l   j            E        occ.                                          
     1  0  0.50     -3949.1705   2.0000                                         
     2  0  0.50      -414.3434   2.0000                                         
     2  1  1.50      -334.7047   6.0000                                         
     3  0  0.50       -47.0896   2.0000                                         
     4  0  0.50        -3.7663   2.0000                                         
     3  1  1.50       -28.0061   6.0000                                         
     3  2  1.50        -4.0817   0.0000                                         
   Description                                                                  
     l       E           TYP  RCUT    TYP  RCUT                                 
     0    -47.0896403     23  2.300                                             
     0     -3.7663320     23  2.300                                             
     1    -28.0060855     23  2.300                                             
     1      6.8029130     23  2.300                                             
     2     -4.0817478     23  2.300                                             
     2      0.4464412     23  2.300                                             
  local pseudopotential read in
  partial core-charges read in
  partial kinetic energy density read in
  atomic valenz-charges read in
  non local Contribution for L=           0  read in
    real space projection operators read in
  non local Contribution for L=           0  read in
    real space projection operators read in
  non local Contribution for L=           1  read in
    real space projection operators read in
  non local Contribution for L=           1  read in
    real space projection operators read in
  non local Contribution for L=           2  read in
    real space projection operators read in
  non local Contribution for L=           2  read in
    real space projection operators read in
    PAW grid and wavefunctions read in
 
   number of l-projection  operators is LMAX  =           6
   number of lm-projection operators is LMMAX =          18
 
 POTCAR:    PAW_PBE Si 05Jan2001                  
   SHA256 =  79d9987ad8750f624c4d6acb2a16d13abf6a777132adc04dc6c8399be72b42bb Si
   COPYR  = (c) Copyright 05Jan2001 Georg Kresse                                
   COPYR  = This file is part of the software VASP. Any use, copying, and all ot
   COPYR  = If you do not have a valid VASP license, you may not use, copy or di
   VRHFIN =Si: s2p2                                                             
   LEXCH  = PE                                                                  
   EATOM  =   103.0669 eV,    7.5752 Ry                                         
                                                                                
   TITEL  = PAW_PBE Si 05Jan2001                                                
   LULTRA =        F    use ultrasoft PP ?                                      
   IUNSCR =        1    unscreen: 0-lin 1-nonlin 2-no                           
   RPACOR =    1.500    partial core radius                                     
   POMASS =   28.085; ZVAL   =    4.000    mass and valenz                      
   RCORE  =    1.900    outmost cutoff radius                                   
   RWIGS  =    2.480; RWIGS  =    1.312    wigner-seitz radius (au A)           
   ENMAX  =  245.345; ENMIN  =  184.009 eV                                      
   ICORE  =        2    local potential                                         
   LCOR   =        T    correct aug charges                                     
   LPAW   =        T    paw PP                                                  
   EAUG   =  322.069                                                            
   DEXC   =    0.000                                                            
   RMAX   =    1.950    core radius for proj-oper                               
   RAUG   =    1.300    factor for augmentation sphere                          
   RDEP   =    1.993    radius for radial grids                                 
   RDEPT  =    1.837    core radius for aug-charge                              
                                                                                
   Atomic configuration                                                         
    6 entries                                                                   
     n  l   j            E        occ.                                          
     1  0  0.50     -1785.8828   2.0000                                         
     2  0  0.50      -139.4969   2.0000                                         
     2  1  1.50       -95.5546   6.0000                                         
     3  0  0.50       -10.8127   2.0000                                         
     3  1  0.50        -4.0811   2.0000                                         
     3  2  1.50        -4.0817   0.0000                                         
   Description                                                                  
     l       E           TYP  RCUT    TYP  RCUT                                 
     0    -10.8127223     23  1.900                                             
     0     -7.6451159     23  1.900                                             
     1     -4.0811372     23  1.900                                             
     1      2.4879257     23  1.900                                             
     2     -4.0817478      7  1.900                                             
  local pseudopotential read in
  partial core-charges read in
  partial kinetic energy density read in
  atomic valenz-charges read in
  non local Contribution for L=           0  read in
    real space projection operators read in
  non local Contribution for L=           0  read in
    real space projection operators read in
  non local Contribution for L=           1  read in
    real space projection operators read in
  non local Contribution for L=           1  read in
    real space projection operators read in
    PAW grid and wavefunctions read in
 
   number of l-projection  operators is LMAX  =           4
   number of lm-projection operators is LMMAX =           8
 
 POTCAR:    PAW_PBE O 08Apr2002                   
   SHA256 =  818f92134a0a090dccd8ba1447fa70422a3b330e708bb4f08108d8ae51209ddf O/
   COPYR  = (c) Copyright 08Apr2002 Georg Kresse                                
   COPYR  = This file is part of the software VASP. Any use, copying, and all ot
   COPYR  = If you do not have a valid VASP license, you may not use, copy or di
   VRHFIN =O: s2p4                                                              
   LEXCH  = PE                                                                  
   EATOM  =   432.3788 eV,   31.7789 Ry                                         
                                                                                
   TITEL  = PAW_PBE O 08Apr2002                                                 
   LULTRA =        F    use ultrasoft PP ?                                      
   IUNSCR =        1    unscreen: 0-lin 1-nonlin 2-no                           
   RPACOR =    1.200    partial core radius                                     
   POMASS =   16.000; ZVAL   =    6.000    mass and valenz                      
   RCORE  =    1.520    outmost cutoff radius                                   
   RWIGS  =    1.550; RWIGS  =    0.820    wigner-seitz radius (au A)           
   ENMAX  =  400.000; ENMIN  =  300.000 eV                                      
   ICORE  =        2    local potential                                         
   LCOR   =        T    correct aug charges                                     
   LPAW   =        T    paw PP                                                  
   EAUG   =  605.392                                                            
   DEXC   =    0.000                                                            
   RMAX   =    1.553    core radius for proj-oper                               
   RAUG   =    1.300    factor for augmentation sphere                          
   RDEP   =    1.550    radius for radial grids                                 
   RDEPT  =    1.329    core radius for aug-charge                              
                                                                                
   Atomic configuration                                                         
    4 entries                                                                   
     n  l   j            E        occ.                                          
     1  0  0.50      -514.6923   2.0000                                         
     2  0  0.50       -23.9615   2.0000                                         
     2  1  0.50        -9.0305   4.0000                                         
     3  2  1.50        -9.5241   0.0000                                         
   Description                                                                  
     l       E           TYP  RCUT    TYP  RCUT                                 
     0    -23.9615318     23  1.200                                             
     0     -9.5240782     23  1.200                                             
     1     -9.0304911     23  1.520                                             
     1      8.1634956     23  1.520                                             
     2     -9.5240782      7  1.500                                             
  local pseudopotential read in
  partial core-charges read in
  partial kinetic energy density read in
  kinetic energy density of atom read in
  atomic valenz-charges read in
  non local Contribution for L=           0  read in
    real space projection operators read in
  non local Contribution for L=           0  read in
    real space projection operators read in
  non local Contribution for L=           1  read in
    real space projection operators read in
  non local Contribution for L=           1  read in
    real space projection operators read in
    PAW grid and wavefunctions read in
 
   number of l-projection  operators is LMAX  =           4
   number of lm-projection operators is LMMAX =           8
 
 Optimization of the real space projectors (new method)

 maximal supplied QI-value         = 16.25
 optimisation between [QCUT,QGAM] = [ 12.51, 25.03] = [ 43.85,175.40] Ry 
 Optimized for a Real-space Cutoff    1.47 Angstroem

   l    n(q)    QCUT    max X(q) W(low)/X(q) W(high)/X(q)  e(spline) 
   0     11    12.514    11.817    0.25E-04    0.32E-05    0.87E-07
   0     11    12.514     8.461    0.39E-04    0.59E-05    0.18E-06
   1     11    12.514     3.957    0.97E-05    0.57E-05    0.28E-07
   1     11    12.514     4.314    0.42E-04    0.14E-04    0.23E-06
   2     10    12.514    14.565    0.79E-04    0.50E-03    0.16E-05
   2     10    12.514    14.552    0.75E-04    0.48E-03    0.15E-05
 Optimization of the real space projectors (new method)

 maximal supplied QI-value         = 19.84
 optimisation between [QCUT,QGAM] = [ 12.50, 25.00] = [ 43.76,175.03] Ry 
 Optimized for a Real-space Cutoff    1.16 Angstroem

   l    n(q)    QCUT    max X(q) W(low)/X(q) W(high)/X(q)  e(spline) 
   0      9    12.501   159.560    0.10E-03    0.83E-04    0.71E-07
   0      9    12.501   115.863    0.99E-04    0.81E-04    0.70E-07
   1      8    12.501    88.339    0.20E-03    0.25E-03    0.76E-07
   1      8    12.501    48.592    0.20E-03    0.24E-03    0.75E-07
 Optimization of the real space projectors (new method)

 maximal supplied QI-value         = 24.76
 optimisation between [QCUT,QGAM] = [ 12.38, 25.00] = [ 42.90,175.06] Ry 
 Optimized for a Real-space Cutoff    1.16 Angstroem

   l    n(q)    QCUT    max X(q) W(low)/X(q) W(high)/X(q)  e(spline) 
   0      9    12.378    20.381    0.16E-03    0.67E-05    0.31E-06
   0      9    12.378    15.268    0.17E-03    0.81E-05    0.33E-06
   1      8    12.378     5.964    0.20E-03    0.16E-03    0.30E-06
   1      8    12.378     5.382    0.18E-03    0.14E-03    0.26E-06
  PAW_PBE Ca_sv 06Sep2000               :
 energy of atom  1       EATOM=-1006.0909
 kinetic energy error for atom=    0.0012 (will be added to EATOM!!)
  PAW_PBE Si 05Jan2001                  :
 energy of atom  2       EATOM= -103.0669
 kinetic energy error for atom=    0.0003 (will be added to EATOM!!)
  PAW_PBE O 08Apr2002                   :
 energy of atom  3       EATOM= -432.3788
 kinetic energy error for atom=    0.0168 (will be added to EATOM!!)
 
 
 POSCAR: Ca Si  O                                
  positions in direct lattice
  No initial velocities read in
 exchange correlation table for  LEXCH =        8
   RHO(1)=    0.500       N(1)  =     2000
   RHO(2)=  100.500       N(2)  =     4000
 


--------------------------------------------------------------------------------------------------------


 ion  position               nearest neighbor table
   1  0.564  0.522  0.765-  56 1.84  75 2.20 123 2.38  46 2.93
   2  0.147  0.815  0.615-  59 2.09 120 2.09  91 2.29 110 2.35  49 3.00  35 3.08  50 3.12
   3  0.106  0.437  0.909-  65 2.15  61 2.21 115 2.44  51 3.12
   4  0.612  0.165  0.235-  87 1.96  67 2.10  74 2.15 116 2.43
   5  0.595  0.941  0.063- 121 2.13  69 2.30  67 2.36  85 2.46  82 2.50  41 2.94
   6  0.679  0.430  0.329-  87 1.81  79 2.24 113 2.46  93 2.49 102 2.55  34 3.02
   7  0.666  0.729  0.280- 135 2.10 102 2.13 121 2.32  92 2.48  85 2.57  29 2.60  19 2.65  21 3.01

   8  0.845  0.475  0.804-  95 2.07 103 2.13 109 2.17  56 2.56  48 2.97
   9  0.919  0.992  0.583- 105 1.97  72 2.12  66 2.22  70 2.31  36 3.13
  10  0.762  0.262  0.637-  89 1.97 130 2.08 103 2.14 112 2.36 106 2.52  43 2.86  45 2.86  36 3.05
                            15 3.07
  11  0.283  0.160  0.339-  68 2.07 114 2.38 100 2.56  54 2.99  24 3.03
  12  0.493  0.295  0.577- 127 2.09 100 2.29  75 2.52  52 3.13
  13  0.715  0.796  0.625-  76 2.11  98 2.19  72 2.20 101 2.28 104 2.34 105 2.46  35 2.89  46 2.92
                            34 3.02
  14  0.866  0.034  0.279-  70 2.15  73 2.30 116 2.31  99 2.54  45 2.87  32 3.02  26 3.14
  15  0.936  0.417  0.538- 106 2.07  80 2.12  79 2.28  50 2.68  45 3.00  10 3.07
  16  0.458  0.784  0.689-  76 2.04  57 2.06  55 2.12  88 2.32  44 2.71
  17  0.925  0.782  0.397-  70 2.04  92 2.43  99 2.50  33 3.13
  18  0.280  0.872  0.268-  83 2.23  64 2.36  91 2.45  54 2.93  30 3.05  32 3.16
  19  0.481  0.645  0.363- 113 2.00 135 2.06  84 2.50   7 2.65  52 2.71
  20  0.486  0.428  0.132-  87 2.38  97 2.40  53 3.06  37 3.14
  21  0.753  0.597  0.088-  93 2.20  78 2.43  92 2.44  33 2.87   7 3.01
  22  0.748  0.028  0.807- 126 2.14  58 2.18  66 2.21  28 3.15
  23  0.168  0.532  0.355-  90 2.28  60 2.32  80 2.46 125 2.51  52 2.94
  24  0.170  0.263  0.538- 118 2.37 100 2.48 133 2.51 106 2.56  11 3.03
  25  0.275  0.810  0.954-  88 2.11 124 2.22 119 2.34  96 2.38  40 2.93
  26  0.943  0.263  0.184- 129 2.11 116 2.24  73 2.54  28 2.90  39 3.07  45 3.11  14 3.14  27 3.15

  27  0.008  0.145  0.961- 129 2.09 111 2.11  73 2.25 115 2.34  28 2.71  36 2.96  32 3.10  26 3.15

  28  0.795  0.154  0.030-  67 1.61 129 1.66  58 1.88 126 2.13  27 2.71  48 2.85  26 2.90  22 3.15

  29  0.632  0.918  0.377-  99 1.49  84 1.61 121 1.74  63 1.84   7 2.60  43 2.77  44 2.90
  30  0.110  0.717  0.165-  83 1.53 131 1.63 124 1.66 117 2.00  33 2.97  51 3.03  18 3.05
  31  0.277  0.495  0.642- 134 1.53 123 1.90 125 2.08 120 2.17  80 2.47  40 2.60  50 2.74
  32  0.076  0.987  0.151- 108 1.54  73 1.58 117 1.86  68 2.03  14 3.02  54 3.06  27 3.10  18 3.16

  33  0.928  0.572  0.246-  92 1.48  90 1.50 131 1.74  93 1.79  21 2.87  30 2.97  17 3.13
  34  0.707  0.562  0.539- 104 1.53 112 1.67 102 1.68 101 1.80   6 3.02  13 3.02
  35  0.928  0.713  0.696- 128 1.72  98 1.76  95 1.79 105 1.79 104 2.23 110 2.33  50 2.50  13 2.89
                             2 3.08  51 3.11
  36  0.990  0.197  0.723- 115 1.57  66 1.64 106 1.69 133 1.98  49 2.96  27 2.96  10 3.05   9 3.13

  37  0.406  0.191  0.061-  71 1.66  94 1.67  74 1.68  82 2.00  42 2.73  47 2.97  39 2.99  20 3.14

  38  0.449  0.043  0.648- 127 1.55  55 1.74 107 1.80  44 2.81  43 2.86  42 3.03
  39  0.188  0.289  0.121- 111 1.55 114 1.56  94 1.63  65 1.84  37 2.99  26 3.07
  40  0.293  0.605  0.826-  88 1.56  61 1.78 123 1.79  86 2.15 120 2.45  31 2.60  25 2.93
  41  0.822  0.868  0.015-  85 1.52 126 1.79  81 1.80  69 1.88   5 2.94
  42  0.355  0.067  0.880- 122 1.61  82 1.64 107 1.76  96 1.83  37 2.73  49 2.91  38 3.03
  43  0.661  0.069  0.546-  63 1.63  72 1.63 130 1.79  89 1.80  29 2.77  10 2.86  38 2.86
  44  0.424  0.877  0.488-  57 1.56  84 1.68  55 1.74  64 1.79  16 2.71  38 2.81  29 2.90
  45  0.836  0.227  0.415-  89 1.56 116 1.59  62 1.60  79 1.61  10 2.86  14 2.87  15 3.00  26 3.11

  46  0.673  0.721  0.851-  76 1.54  56 1.63  98 1.88  69 1.90  78 2.00  13 2.92   1 2.93
  47  0.403  0.324  0.854-  86 1.58 122 1.74  75 1.90  71 1.99  37 2.97
  48  0.686  0.310  0.891- 103 1.56 132 1.65  58 1.65  75 2.31  28 2.85   8 2.97
  49  0.154  0.019  0.757-  77 1.57 133 1.59  59 1.63  96 1.82  42 2.91  36 2.96   2 3.00
  50  0.064  0.571  0.634-  95 1.63 110 1.64  80 1.76 120 1.91 134 2.34  35 2.50  15 2.68  31 2.74
                             2 3.12
  51  0.034  0.684  0.928- 128 1.74 124 1.75  81 1.83 109 1.88  61 1.89  30 3.03  35 3.11   3 3.12

  52  0.391  0.441  0.390-  60 1.60 113 1.65 100 1.73 125 1.83  19 2.71  23 2.94  12 3.13
  53  0.488  0.673  0.069-  97 1.58  78 1.63 119 1.72 135 1.79  20 3.06
  54  0.115  0.990  0.401-  91 1.56 118 1.60  68 1.80  70 1.93  18 2.93  11 2.99  32 3.06
  55  0.508  0.924  0.595-  44 1.74  38 1.74  16 2.12
  56  0.671  0.586  0.852-  46 1.63   1 1.84   8 2.56
  57  0.380  0.767  0.538-  44 1.56  16 2.06
  58  0.707  0.175  0.903-  48 1.65  28 1.88  22 2.18
  59  0.240  0.941  0.688-  49 1.63   2 2.09
  60  0.327  0.459  0.276-  52 1.60  23 2.32
  61  0.170  0.608  0.907-  40 1.78  51 1.89   3 2.21
  62  0.953  0.173  0.443-  45 1.60
  63  0.589  0.052  0.433-  43 1.63  29 1.84
  64  0.389  0.980  0.388-  44 1.79  18 2.36
  65  0.142  0.429  0.082-  39 1.84   3 2.15
  66  0.888  0.109  0.721-  36 1.64  22 2.21   9 2.22
  67  0.707  0.093  0.110-  28 1.61   4 2.10   5 2.36
  68  0.166  0.052  0.276-  54 1.80  32 2.03  11 2.07
  69  0.695  0.857  0.926-  41 1.88  46 1.90   5 2.30
  70  0.961  0.947  0.402-  54 1.93  17 2.04  14 2.15   9 2.31
  71  0.491  0.254  0.973-  37 1.66  47 1.99
  72  0.746  0.967  0.569-  43 1.63   9 2.12  13 2.20
  73  0.973  0.064  0.125-  32 1.58  27 2.25  14 2.30  26 2.54
  74  0.443  0.205  0.194-  37 1.68   4 2.15
  75  0.537  0.342  0.775-  47 1.90   1 2.20  48 2.31  12 2.52
  76  0.609  0.790  0.764-  46 1.54  16 2.04  13 2.11
  77  0.037  0.986  0.802-  49 1.57
  78  0.599  0.685  0.994-  53 1.63  46 2.00  21 2.43
  79  0.838  0.358  0.388-  45 1.61   6 2.24  15 2.28
  80  0.104  0.470  0.538-  50 1.76  15 2.12  23 2.46  31 2.47
  81  0.939  0.777  0.999-  41 1.80  51 1.83
  82  0.457  0.063  0.969-  42 1.64  37 2.00   5 2.50
  83  0.222  0.704  0.221-  30 1.53  18 2.23
  84  0.539  0.835  0.421-  29 1.61  44 1.68  19 2.50
  85  0.752  0.820  0.108-  41 1.52   5 2.46   7 2.57
  86  0.347  0.441  0.872-  47 1.58  40 2.15
  87  0.614  0.327  0.242-   6 1.81   4 1.96  20 2.38
  88  0.363  0.712  0.840-  40 1.56  25 2.11  16 2.32
  89  0.753  0.176  0.499-  45 1.56  43 1.80  10 1.97
  90  0.985  0.577  0.357-  33 1.50  23 2.28
  91  0.188  0.894  0.447-  54 1.56   2 2.29  18 2.45
  92  0.860  0.673  0.242-  33 1.48  17 2.43  21 2.44   7 2.48
  93  0.831  0.474  0.196-  33 1.79  21 2.20   6 2.49
  94  0.312  0.292  0.069-  39 1.63  37 1.67
  95  0.955  0.568  0.713-  50 1.63  35 1.79   8 2.07
  96  0.227  0.988  0.885-  49 1.82  42 1.83  25 2.38
  97  0.391  0.586  0.058-  53 1.58  20 2.40
  98  0.805  0.737  0.771-  35 1.76  46 1.88  13 2.19
  99  0.753  0.897  0.391-  29 1.49  17 2.50  14 2.54
 100  0.349  0.323  0.457-  52 1.73  12 2.29  24 2.48  11 2.56
 101  0.598  0.660  0.567-  34 1.80  13 2.28
 102  0.708  0.621  0.413-  34 1.68   7 2.13   6 2.55
 103  0.783  0.310  0.806-  48 1.56   8 2.13  10 2.14
 104  0.795  0.620  0.608-  34 1.53  35 2.23  13 2.34
 105  0.915  0.830  0.606-  35 1.79   9 1.97  13 2.46
 106  0.968  0.261  0.600-  36 1.69  15 2.07  10 2.52  24 2.56
 107  0.422  0.983  0.781-  42 1.76  38 1.80
 108  0.124  0.947  0.040-  32 1.54
 109  0.935  0.565  0.932-  51 1.88   8 2.17
 110  0.038  0.670  0.545-  50 1.64  35 2.33   2 2.35
 111  0.140  0.183  0.069-  39 1.55  27 2.11
 112  0.692  0.426  0.557-  34 1.67  10 2.36
 113  0.512  0.495  0.426-  52 1.65  19 2.00   6 2.46
 114  0.154  0.276  0.245-  39 1.56  11 2.38
 115  0.017  0.278  0.821-  36 1.57  27 2.34   3 2.44
 116  0.799  0.213  0.289-  45 1.59  26 2.24  14 2.31   4 2.43
 117  0.020  0.852  0.200-  32 1.86  30 2.00
 118  0.121  0.078  0.500-  54 1.60  24 2.37
 119  0.411  0.791  0.091-  53 1.72  25 2.34
 120  0.197  0.655  0.655-  50 1.91   2 2.09  31 2.17  40 2.45
 121  0.608  0.906  0.236-  29 1.74   5 2.13   7 2.32
 122  0.336  0.196  0.855-  42 1.61  47 1.74
 123  0.385  0.584  0.713-  40 1.79  31 1.90   1 2.38
 124  0.130  0.726  0.029-  30 1.66  51 1.75  25 2.22
 125  0.330  0.541  0.485-  52 1.83  31 2.08  23 2.51
 126  0.842  0.002  0.955-  41 1.79  28 2.13  22 2.14
 127  0.398  0.153  0.604-  38 1.55  12 2.09
 128  0.018  0.747  0.800-  35 1.72  51 1.74
 129  0.888  0.255  0.019-  28 1.66  27 2.09  26 2.11
 130  0.631  0.154  0.663-  43 1.79  10 2.08
 131  0.048  0.597  0.170-  30 1.63  33 1.74
 132  0.641  0.398  0.985-  48 1.65
 133  0.140  0.136  0.699-  49 1.59  36 1.98  24 2.51
 134  0.183  0.432  0.698-  31 1.53  50 2.34
 135  0.540  0.637  0.203-  53 1.79  19 2.06   7 2.10
 

IMPORTANT INFORMATION: All symmetrisations will be switched off!
NOSYMM: (Re-)initialisation of all symmetry stuff for point group C_1.

 
 

Automatic generation of k-mesh.
 generate k-points for:    2    2    2
Space group operators:
 irot       det(A)        alpha          n_x          n_y          n_z        tau_x        tau_y        tau_z
    1     1.000000     0.000000     1.000000     0.000000     0.000000     0.000000     0.000000     0.000000
 
 Subroutine IBZKPT returns following result:
 ===========================================
 
 Found      8 irreducible k-points:
 
 Following reciprocal coordinates:
            Coordinates               Weight
  0.000000  0.000000  0.000000      1.000000
  0.500000  0.000000  0.000000      1.000000
  0.000000  0.500000  0.000000      1.000000
  0.500000  0.500000  0.000000      1.000000
  0.000000  0.000000  0.500000      1.000000
  0.500000  0.000000  0.500000      1.000000
  0.000000  0.500000  0.500000      1.000000
  0.500000  0.500000  0.500000      1.000000
 
 Following cartesian coordinates:
            Coordinates               Weight
  0.000000  0.000000  0.000000      1.000000
  0.041344  0.000000  0.000000      1.000000
  0.000000  0.041344  0.000000      1.000000
  0.041344  0.041344  0.000000      1.000000
  0.000000  0.000000  0.041344      1.000000
  0.041344  0.000000  0.041344      1.000000
  0.000000  0.041344  0.041344      1.000000
  0.041344  0.041344  0.041344      1.000000
 


--------------------------------------------------------------------------------------------------------




 Dimension of arrays:
   k-points           NKPTS =      8   k-points in BZ     NKDIM =      8   number of bands    NBANDS=    520
   number of dos      NEDOS =    301   number of ions     NIONS =    135
   non local maximal  LDIM  =      6   non local SUM 2l+1 LMDIM =     18
   total plane-waves  NPLWV = 941192
   max r-space proj   IRMAX =   7140   max aug-charges    IRDMAX= 203274
   dimension x,y,z NGX =    98 NGY =   98 NGZ =   98
   dimension x,y,z NGXF=   196 NGYF=  196 NGZF=  196
   support grid    NGXF=   392 NGYF=  392 NGZF=  392
   ions per type =              27  27  81
   NGX,Y,Z   is equivalent  to a cutoff of  13.47, 13.47, 13.47 a.u.
   NGXF,Y,Z  is equivalent  to a cutoff of  26.94, 26.94, 26.94 a.u.

 SYSTEM =  unknown system                          
 POSCAR =  Ca Si  O                                

 Startparameter for this run:
   NWRITE =      2    write-flag & timer
   PREC   = a         normal or accurate (medium, high low for compatibility)
   ISTART =      0    job   : 0-new  1-cont  2-samecut
   ICHARG =      2    charge: 1-file 2-atom 10-const
   ISPIN  =      1    spin polarized calculation?
   LNONCOLLINEAR =      F non collinear calculations
   LSORBIT =      F    spin-orbit coupling
   INIWAV =      1    electr: 0-lowe 1-rand  2-diag
   LASPH  =      F    aspherical Exc in radial PAW
   METAGGA=      F    non-selfconsistent MetaGGA calc.

 Electronic Relaxation 1
   ENCUT  =  600.0 eV  44.10 Ry    6.64 a.u.  24.15 24.15 24.15*2*pi/ulx,y,z
   ENINI  =  600.0     initial cutoff
   ENAUG  =  605.4 eV  augmentation charge cutoff
   NELM   =     60;   NELMIN=  2; NELMDL= -5     # of ELM steps 
   EDIFF  = 0.1E-05   stopping-criterion for ELM
   LREAL  =      T    real-space projection
   NLSPLINE    = F    spline interpolate recip. space projectors
   LCOMPAT=      F    compatible to vasp.4.4
   GGA_COMPAT  = T    GGA compatible to vasp.4.4-vasp.4.6
   LMAXPAW     = -100 max onsite density
   LMAXMIX     =    2 max onsite mixed and CHGCAR
   VOSKOWN=      0    Vosko Wilk Nusair interpolation
   ROPT   =   -0.00025  -0.00025  -0.00025
 Ionic relaxation
   EDIFFG = -.1E-01   stopping-criterion for IOM
   NSW    =      1    number of steps for IOM
   NBLOCK =      1;   KBLOCK =      1    inner block; outer block 
   IBRION =     -1    ionic relax: 0-MD 1-quasi-New 2-CG
   NFREE  =      0    steps in history (QN), initial steepest desc. (CG)
   ISIF   =      2    stress and relaxation
   IWAVPR =     10    prediction:  0-non 1-charg 2-wave 3-comb
   ISYM   =      0    0-nonsym 1-usesym 2-fastsym
   LCORR  =      T    Harris-Foulkes like correction to forces

   POTIM  = 1.0000    time-step for ionic-motion
   TEIN   =    0.0    initial temperature
   TEBEG  =    0.0;   TEEND  =   0.0 temperature during run
   SMASS  =  -3.00    Nose mass-parameter (am)
   estimated Nose-frequenzy (Omega)   =  0.10E-29 period in steps =****** mass=  -0.334E-26a.u.
   SCALEE = 1.0000    scale energy and forces
   NPACO  =    256;   APACO  = 16.0  distance and # of slots for P.C.
   PSTRESS=    0.0 pullay stress

  Mass of Ions in am
   POMASS =  40.08 28.09 16.00
  Ionic Valenz
   ZVAL   =  10.00  4.00  6.00
  Atomic Wigner-Seitz radii
   RWIGS  =  -1.00 -1.00 -1.00
  virtual crystal weights 
   VCA    =   1.00  1.00  1.00
   NELECT =     864.0000    total number of electrons
   NUPDOWN=      -1.0000    fix difference up-down

 DOS related values:
   EMIN   =  10.00;   EMAX   =-10.00  energy-range for DOS
   EFERMI =   0.00
   ISMEAR =     0;   SIGMA  =   0.05  broadening in eV -4-tet -1-fermi 0-gaus

 Electronic relaxation 2 (details)
   IALGO  =     38    algorithm
   LDIAG  =      T    sub-space diagonalisation (order eigenvalues)
   LSUBROT=      F    optimize rotation matrix (better conditioning)
   TURBO    =      0    0=normal 1=particle mesh
   IRESTART =      0    0=no restart 2=restart with 2 vectors
   NREBOOT  =      0    no. of reboots
   NMIN     =      0    reboot dimension
   EREF     =   0.00    reference energy to select bands
   IMIX   =      4    mixing-type and parameters
     AMIX     =   0.40;   BMIX     =  1.00
     AMIX_MAG =   1.60;   BMIX_MAG =  1.00
     AMIN     =   0.10
     WC   =   100.;   INIMIX=   1;  MIXPRE=   1;  MAXMIX= -45

 Intra band minimization:
   WEIMIN = 0.0000     energy-eigenvalue tresh-hold
   EBREAK =  0.48E-09  absolut break condition
   DEPER  =   0.30     relativ break condition  

   TIME   =   0.40     timestep for ELM

  volume/ion in A,a.u.               =      13.10        88.42
  Fermi-wavevector in a.u.,A,eV,Ry     =   1.289289  2.436404 22.616517  1.662267
  Thomas-Fermi vector in A             =   2.421191
 
 Write flags
   LWAVE        =      F    write WAVECAR
   LDOWNSAMPLE  =      F    k-point downsampling of WAVECAR
   LCHARG       =      F    write CHGCAR
   LVTOT        =      F    write LOCPOT, total local potential
   LVHAR        =      F    write LOCPOT, Hartree potential only
   LELF         =      F    write electronic localiz. function (ELF)
   LORBIT       =      0    0 simple, 1 ext, 2 COOP (PROOUT), +10 PAW based schemes


 Dipole corrections
   LMONO  =      F    monopole corrections only (constant potential shift)
   LDIPOL =      F    correct potential (dipole corrections)
   IDIPOL =      0    1-x, 2-y, 3-z, 4-all directions 
   EPSILON=  1.0000000 bulk dielectric constant

 Exchange correlation treatment:
   GGA     =    --    GGA type
   LEXCH   =     8    internal setting for exchange type
   VOSKOWN=      0    Vosko Wilk Nusair interpolation
   LHFCALC =     F    Hartree Fock is set to
   LHFONE  =     F    Hartree Fock one center treatment
   AEXX    =    0.0000 exact exchange contribution

 Linear response parameters
   LEPSILON=     F    determine dielectric tensor
   LRPA    =     F    only Hartree local field effects (RPA)
   LNABLA  =     F    use nabla operator in PAW spheres
   LVEL    =     F    velocity operator in full k-point grid
   LINTERFAST=   F  fast interpolation
   KINTER  =     0    interpolate to denser k-point grid
   CSHIFT  =0.1000    complex shift for real part using Kramers Kronig
   OMEGAMAX=  -1.0    maximum frequency
   DEG_THRESHOLD= 0.2000000E-02 threshold for treating states as degnerate
   RTIME   =   -0.100 relaxation time in fs
  (WPLASMAI=    0.000 imaginary part of plasma frequency in eV, 0.658/RTIME)
   DFIELD  = 0.0000000 0.0000000 0.0000000 field for delta impulse in time
 
 Orbital magnetization related:
   ORBITALMAG=     F  switch on orbital magnetization
   LCHIMAG   =     F  perturbation theory with respect to B field
   DQ        =  0.001000  dq finite difference perturbation B field
   LLRAUG    =     F  two centre corrections for induced B field



--------------------------------------------------------------------------------------------------------


 Static calculation
 charge density and potential will be updated during run
 non-spin polarized calculation
 Variant of blocked Davidson
 Davidson routine will perform the subspace rotation
 perform sub-space diagonalisation
    after iterative eigenvector-optimisation
 modified Broyden-mixing scheme, WC =      100.0
 initial mixing is a Kerker type mixing with AMIX =  0.4000 and BMIX =      1.0000
 Hartree-type preconditioning will be used
 using additional bands           88
 real space projection scheme for non local part
 use partial core corrections
 calculate Harris-corrections to forces 
   (improved forces if not selfconsistent)
 use gradient corrections 
 use of overlap-Matrix (Vanderbilt PP)
 Gauss-broadening in eV      SIGMA  =   0.05


--------------------------------------------------------------------------------------------------------


  energy-cutoff  :      600.00
  volume of cell :     1768.83
      direct lattice vectors                 reciprocal lattice vectors
    12.093787620  0.000000000  0.000000000     0.082687081  0.000000000  0.000000000
     0.000000000 12.093787620  0.000000000     0.000000000  0.082687081  0.000000000
     0.000000000  0.000000000 12.093787620     0.000000000  0.000000000  0.082687081

  length of vectors
    12.093787620 12.093787620 12.093787620     0.082687081  0.082687081  0.082687081


 
 k-points in units of 2pi/SCALE and weight: read from INCAR                         
   0.00000000  0.00000000  0.00000000       0.125
   0.04134354  0.00000000  0.00000000       0.125
   0.00000000  0.04134354  0.00000000       0.125
   0.04134354  0.04134354  0.00000000       0.125
   0.00000000  0.00000000  0.04134354       0.125
   0.04134354  0.00000000  0.04134354       0.125
   0.00000000  0.04134354  0.04134354       0.125
   0.04134354  0.04134354  0.04134354       0.125
 
 k-points in reciprocal lattice and weights: read from INCAR                         
   0.00000000  0.00000000  0.00000000       0.125
   0.50000000  0.00000000  0.00000000       0.125
   0.00000000  0.50000000  0.00000000       0.125
   0.50000000  0.50000000  0.00000000       0.125
   0.00000000  0.00000000  0.50000000       0.125
   0.50000000  0.00000000  0.50000000       0.125
   0.00000000  0.50000000  0.50000000       0.125
   0.50000000  0.50000000  0.50000000       0.125
 
 position of ions in fractional coordinates (direct lattice) 
   0.56407815  0.52169771  0.76548477
   0.14662529  0.81536737  0.61494356
   0.10567122  0.43697319  0.90850401
   0.61156890  0.16480945  0.23501465
   0.59482828  0.94092759  0.06326231
   0.67895893  0.42987030  0.32915697
   0.66648034  0.72858498  0.28005463
   0.84511811  0.47489724  0.80435170
   0.91863159  0.99166049  0.58349915
   0.76211166  0.26186551  0.63702594
   0.28250885  0.16036303  0.33882991
   0.49291462  0.29483732  0.57738784
   0.71508487  0.79611149  0.62500774
   0.86641332  0.03442734  0.27948960
   0.93640753  0.41742480  0.53823194
   0.45792285  0.78422842  0.68932652
   0.92461208  0.78226995  0.39728011
   0.27964510  0.87249812  0.26765024
   0.48120521  0.64478371  0.36271368
   0.48581800  0.42811933  0.13186590
   0.75331942  0.59706933  0.08780792
   0.74806346  0.02832029  0.80734218
   0.16820215  0.53174343  0.35546046
   0.16991108  0.26317310  0.53777785
   0.27492485  0.80954160  0.95399486
   0.94314803  0.26291202  0.18402849
   0.00839775  0.14527447  0.96132369
   0.79527735  0.15402639  0.03025887
   0.63248459  0.91769287  0.37656591
   0.10976770  0.71683649  0.16501428
   0.27748998  0.49466696  0.64182907
   0.07567781  0.98670980  0.15109500
   0.92846856  0.57227932  0.24589724
   0.70701851  0.56166748  0.53895222
   0.92775458  0.71276547  0.69630589
   0.99030010  0.19745093  0.72312361
   0.40649302  0.19134925  0.06050329
   0.44883665  0.04344039  0.64825022
   0.18799493  0.28933701  0.12141782
   0.29280464  0.60453535  0.82621306
   0.82172209  0.86784272  0.01492778
   0.35490299  0.06698386  0.87970189
   0.66082954  0.06871878  0.54602891
   0.42431824  0.87704882  0.48801275
   0.83599211  0.22675062  0.41476301
   0.67254613  0.72132385  0.85071197
   0.40274911  0.32399279  0.85380919
   0.68596610  0.30954247  0.89088186
   0.15370965  0.01878179  0.75686854
   0.06443660  0.57126326  0.63399583
   0.03441631  0.68378978  0.92816275
   0.39123526  0.44093054  0.39002214
   0.48799840  0.67321972  0.06946516
   0.11465202  0.98976233  0.40149038
   0.50796148  0.92358856  0.59503980
   0.67128610  0.58625894  0.85157097
   0.37992587  0.76716594  0.53841762
   0.70726040  0.17504414  0.90348633
   0.23989787  0.94112414  0.68816482
   0.32708574  0.45943797  0.27570225
   0.16984436  0.60840637  0.90732266
   0.95347900  0.17255827  0.44259157
   0.58949492  0.05195351  0.43292887
   0.38903514  0.98014987  0.38803679
   0.14230161  0.42928807  0.08230204
   0.88768713  0.10880099  0.72089505
   0.70746021  0.09280767  0.10988072
   0.16581722  0.05194202  0.27625814
   0.69528814  0.85723479  0.92558715
   0.96058962  0.94731867  0.40209358
   0.49128554  0.25389168  0.97315331
   0.74590635  0.96651751  0.56942771
   0.97341537  0.06405044  0.12462917
   0.44303471  0.20501804  0.19393871
   0.53734671  0.34189218  0.77508029
   0.60901034  0.78969670  0.76367006
   0.03661611  0.98558057  0.80244322
   0.59872180  0.68531419  0.99392351
   0.83846387  0.35752432  0.38839133
   0.10384392  0.46972944  0.53790832
   0.93863506  0.77680063  0.99908345
   0.45680887  0.06266444  0.96910443
   0.22182510  0.70367927  0.22143060
   0.53887756  0.83479707  0.42130569
   0.75172640  0.81995787  0.10806198
   0.34700395  0.44113665  0.87166251
   0.61353701  0.32697580  0.24171328
   0.36330192  0.71203274  0.84006144
   0.75264363  0.17646107  0.49892434
   0.98471198  0.57674787  0.35656309
   0.18801155  0.89372531  0.44734136
   0.85972022  0.67296704  0.24150215
   0.83059694  0.47352408  0.19630603
   0.31230031  0.29197073  0.06856366
   0.95530650  0.56819131  0.71286233
   0.22654255  0.98755069  0.88474041
   0.39111434  0.58577044  0.05753714
   0.80473259  0.73669765  0.77081160
   0.75303537  0.89697878  0.39140846
   0.34865222  0.32253512  0.45741572
   0.59837902  0.66004678  0.56673766
   0.70769524  0.62098128  0.41348011
   0.78265814  0.30985054  0.80607816
   0.79510866  0.62036603  0.60845059
   0.91503464  0.83020887  0.60649134
   0.96755843  0.26082035  0.60033584
   0.42221307  0.98305404  0.78146839
   0.12352718  0.94731553  0.04032951
   0.93499943  0.56456486  0.93156731
   0.03815287  0.67014567  0.54473276
   0.14015789  0.18270819  0.06872587
   0.69244440  0.42597615  0.55721041
   0.51182851  0.49492400  0.42560079
   0.15410935  0.27554552  0.24473289
   0.01734686  0.27823894  0.82127697
   0.79924614  0.21293231  0.28906099
   0.02022991  0.85172932  0.20013377
   0.12105182  0.07764724  0.49987530
   0.41102369  0.79075426  0.09053388
   0.19716501  0.65478228  0.65531040
   0.60772846  0.90557504  0.23558180
   0.33586115  0.19638487  0.85469284
   0.38522036  0.58425056  0.71272454
   0.12965307  0.72583595  0.02925072
   0.33020261  0.54132496  0.48523968
   0.84179439  0.00184349  0.95468110
   0.39791009  0.15286386  0.60393109
   0.01820579  0.74717614  0.80001790
   0.88790411  0.25460016  0.01912611
   0.63050853  0.15430264  0.66270830
   0.04841545  0.59688771  0.17029522
   0.64103190  0.39798510  0.98450549
   0.13976644  0.13615920  0.69893553
   0.18271130  0.43236295  0.69829962
   0.54048081  0.63737937  0.20297402
 
 position of ions in cartesian coordinates  (Angst):
   6.82184139  6.30930128  9.25761026
   1.77325514  9.86087980  7.43699687
   1.27796533  5.28466091 10.98725455
   7.39618436  1.99317050  2.84221729
   7.19372683 11.37937839  0.76508094
   8.21118506  5.19876014  3.98075445
   8.06027172  8.81135198  3.38692122
  10.22067888  5.74330636  9.72765865
  11.10973539 11.99293136  7.05671478
   9.21681659  3.16694590  7.70405639
   3.41660199  1.93939640  4.09773698
   5.96120476  3.56569995  6.98280587
   8.64808457  9.62800328  7.55871088
  10.47821866  0.41635690  3.38008781
  11.32471379  5.04824689  6.50926277
   5.53802166  9.48429190  8.33656859
  11.18206217  9.46060658  4.80462132
   3.38196844 10.55180694  3.23690516
   5.81959357  7.79787729  4.38658223
   5.87537972  5.17758428  1.59475818
   9.11048511  7.22082964  1.06193035
   9.04692064  0.34249958  9.76382489
   2.03420113  6.43079216  4.29886330
   2.05486850  3.18275961  6.50377113
   3.32488280  9.79042415 11.53741128
  11.40623202  3.17960214  2.22560151
   0.10156065  1.75691857 11.62604449
   9.61791532  1.86276240  0.36594435
   7.64913427 11.09838261  4.55410812
   1.32750725  8.66926822  1.99564767
   3.35590491  5.98239714  7.76214445
   0.91523138 11.93305873  1.82731079
  11.22870156  6.92102461  2.97382903
   8.55053173  6.79268720  6.51797370
  11.22006685  8.62003425  8.42097559
  11.97647903  2.38792964  8.74530335
   4.91604024  2.31413714  0.73171390
   5.42813514  0.52535887  7.83980046
   2.27357070  3.49918040  1.46840137
   3.54111716  7.31112209  9.99204531
   9.93773238 10.49550559  0.18053346
   4.29212137  0.81008859 10.63892781
   7.99193208  0.83107038  6.60355764
   5.13161462 10.60684213  5.90192259
  10.11031100  2.74227384  5.01605574
   8.13363003  8.72353750 10.28832993
   4.87076223  3.91830002 10.32578698
   8.29592838  3.74354091 10.77413599
   1.85893184  0.22714293  9.15340740
   0.77928260  6.90873656  7.66741094
   0.41622353  8.26960839 11.22500323
   4.73151617  5.33252035  4.71684496
   5.90174902  8.14177632  0.84009685
   1.38657720 11.96997543  4.85553943
   6.14317828 11.16968385  7.19628491
   8.11839147  7.09009109 10.29871849
   4.59474273  9.27794199  6.51150835
   8.55345710  2.11694671 10.92657175
   2.90127395 11.38175544  8.32251915
   3.95570551  5.55634529  3.33428442
   2.05406164  7.35793747 10.97296760
  11.53117254  2.08688307  5.35260851
   7.12922638  0.62831472  5.23574978
   4.70490830 11.85372442  4.69283449
   1.72096547  5.19171875  0.99534336
  10.73549967  1.31581601  8.71835158
   8.55587357  1.12239626  1.32887410
   2.00535830  0.62817572  3.34100731
   8.40866708 10.36721554 11.19385447
  11.61716690 11.45667075  4.86283438
   5.94150295  3.07051207 11.76910947
   9.02083299 11.68885755  6.88653777
  11.77227871  0.77461237  1.50723876
   5.35796764  2.47944467  2.34545354
   6.49855704  4.13477143  9.37365644
   7.36524176  9.55042419  9.23566355
   0.44282751 11.91940204  9.70457782
   7.24081426  8.28804424 12.02029989
  10.14020401  4.32382325  4.69712227
   1.25586632  5.68080806  6.50534903
  11.35165312  9.39446181 12.08270306
   5.52454951  0.75785048 11.72014319
   2.68270560  8.51014762  2.67793459
   6.51707073 10.09585853  5.09518154
   9.09121943  9.91639630  1.30687864
   4.19659212  5.33501290 10.54170132
   7.41998627  3.95437583  2.92322902
   4.39369628  8.61117273 10.15952467
   9.10231224  2.13408268  6.03388496
  11.90889758  6.97506630  4.31219829
   2.27377174 10.80852414  5.41005135
  10.39727376  8.13872045  2.92067568
  10.04506297  5.72669960  2.37408346
   3.77689360  3.53103205  0.82919430
  11.55327387  6.87158499  8.62120560
   2.73975744 11.94322825 10.69986265
   4.73005371  7.08418324  0.69584195
   9.73226508  8.90946492  9.32203184
   9.10704985 10.84787083  4.73361075
   4.21652586  3.90067125  5.53188861
   7.23666876  7.98246558  6.85400494
   8.55871592  7.51001574  5.00054066
   9.46530134  3.74726665  9.74853802
   9.61587522  7.50257498  7.35847219
  11.06623466 10.04036970  7.33477746
  11.70144622  3.15430596  7.26033411
   5.10615524 11.88884680  9.45091275
   1.49391149 11.45663285  0.48773647
  11.30768449  6.82772748 11.26617717
   0.46141273  8.10459937  6.58788228
   1.69503979  2.20963406  0.83115602
   8.37427554  5.15166512  6.73878438
   6.18994527  5.98550580  5.14712554
   1.86376580  3.33238895  2.95974755
   0.20978919  3.36496268  9.93234930
   9.66591306  2.57515808  3.49584226
   0.24465622 10.30063346  2.42037526
   1.46397495  0.93904917  6.04538568
   4.97083321  9.56321406  1.09489752
   2.38447177  7.91879780  7.92518485
   7.34973890 10.95183216  2.84907625
   4.06183338  2.37503687 10.33647373
   4.65877328  7.06580223  8.61953922
   1.56799675  8.77810587  0.35375196
   3.99340019  6.54666906  5.86838564
  10.18048252  0.02229475 11.54571050
   4.81224017  1.84870300  7.30381429
   0.22017691  9.03618960  9.67524661
  10.73812378  3.07908032  0.23130707
   7.62523620  1.86610336  8.01465338
   0.58552618  7.21863314  2.05951420
   7.75250371  4.81314723 11.90640028
   1.69030568  1.64668049  8.45277790
   2.20967171  5.22890573  8.44508729
   6.53646016  7.70833075  2.45472465
 


--------------------------------------------------------------------------------------------------------


 k-point  1 :   0.0000 0.0000 0.0000  plane waves:   58893
 k-point  2 :   0.5000 0.0000 0.0000  plane waves:   59080
 k-point  3 :   0.0000 0.5000 0.0000  plane waves:   59080
 k-point  4 :   0.5000 0.5000 0.0000  plane waves:   58996
 k-point  5 :   0.0000 0.0000 0.5000  plane waves:   59080
 k-point  6 :   0.5000 0.0000 0.5000  plane waves:   58996
 k-point  7 :   0.0000 0.5000 0.5000  plane waves:   58996
 k-point  8 :   0.5000 0.5000 0.5000  plane waves:   59152

 maximum and minimum number of plane-waves per node :      4596     4500

 maximum number of plane-waves:     59152
 maximum index in each direction: 
   IXMAX=   24   IYMAX=   24   IZMAX=   24
   IXMIN=  -24   IYMIN=  -24   IZMIN=  -24


 real space projection operators:
  total allocation   :      48952.91 KBytes
  max/ min on nodes  :       4058.52       3434.80


 parallel 3D FFT for wavefunctions:
    minimum data exchange during FFTs selected (reduces bandwidth)
 parallel 3D FFT for charge:
    minimum data exchange during FFTs selected (reduces bandwidth)


 total amount of memory used by VASP MPI-rank0   166866. kBytes
=======================================================================

   base      :      30000. kBytes
   nonlr-proj:      21377. kBytes
   fftplans  :      24448. kBytes
   grid      :      12995. kBytes
   one-center:        171. kBytes
   wavefun   :      77875. kBytes
 
     INWAV:  cpu time    0.0000: real time    0.0000
 Broyden mixing: mesh for mixing (old mesh)
   NGX = 49   NGY = 49   NGZ = 49
  (NGX  =196   NGY  =196   NGZ  =196)
  gives a total of 117649 points

 initial charge density was supplied:
 charge density of overlapping atoms calculated
 number of electron     864.0000000 magnetization 
 keeping initial charge density in first step


--------------------------------------------------------------------------------------------------------


 Maximum index for non-local projection operator          768
 Maximum index for augmentation-charges         6534 (set IRDMAX)


--------------------------------------------------------------------------------------------------------


 First call to EWALD:  gamma=   0.147
 Maximum number of real-space cells 3x 3x 3
 Maximum number of reciprocal cells 3x 3x 3

    FEWALD:  cpu time    0.0053: real time    0.0064


--------------------------------------- Iteration      1(   1)  ---------------------------------------


    POTLOK:  cpu time    0.1474: real time    0.1554
    SETDIJ:  cpu time    0.3610: real time    0.3632
     EDDAV:  cpu time   35.7791: real time   35.7822
       DOS:  cpu time    0.0024: real time    0.0024
    --------------------------------------------
      LOOP:  cpu time   36.2898: real time   36.3032

 eigenvalue-minimisations  :  8320
 total energy-change (2. order) : 0.9532789E+04  (-0.4777430E+05)
 number of electron     864.0000000 magnetization 
 augmentation part      864.0000000 magnetization 

 Free energy of the ion-electron system (eV)
  ---------------------------------------------------
  alpha Z        PSCENC =      2701.53174423
  Ewald energy   TEWEN  =    -45293.51455269
  -Hartree energ DENC   =    -18171.24988591
  -exchange      EXHF   =         0.00000000
  -V(xc)+E(xc)   XCENC  =      3166.56497657
  PAW double counting   =     50594.51003143   -49994.65612350
  entropy T*S    EENTRO =        -0.04269400
  eigenvalues    EBANDS =      1561.10555665
  atomic energy  EATOM  =     64968.54023382
  Solvation  Ediel_sol  =         0.00000000
  ---------------------------------------------------
  free energy    TOTEN  =      9532.78928662 eV

  energy without entropy =     9532.83198062  energy(sigma->0) =     9532.81063362


--------------------------------------------------------------------------------------------------------




--------------------------------------- Iteration      1(   2)  ---------------------------------------


     EDDAV:  cpu time   40.8288: real time   40.8597
       DOS:  cpu time    0.0013: real time    0.0013
    --------------------------------------------
      LOOP:  cpu time   40.8302: real time   40.8610

 eigenvalue-minimisations  :  9888
 total energy-change (2. order) :-0.9501448E+04  (-0.9200723E+04)
 number of electron     864.0000000 magnetization 
 augmentation part      864.0000000 magnetization 

 Free energy of the ion-electron system (eV)
  ---------------------------------------------------
  alpha Z        PSCENC =      2701.53174423
  Ewald energy   TEWEN  =    -45293.51455269
  -Hartree energ DENC   =    -18171.24988591
  -exchange      EXHF   =         0.00000000
  -V(xc)+E(xc)   XCENC  =      3166.56497657
  PAW double counting   =     50594.51003143   -49994.65612350
  entropy T*S    EENTRO =        -0.00000000
  eigenvalues    EBANDS =     -7940.38514016
  atomic energy  EATOM  =     64968.54023382
  Solvation  Ediel_sol  =         0.00000000
  ---------------------------------------------------
  free energy    TOTEN  =        31.34128381 eV

  energy without entropy =       31.34128381  energy(sigma->0) =       31.34128381


--------------------------------------------------------------------------------------------------------




--------------------------------------- Iteration      1(   3)  ---------------------------------------


     EDDAV:  cpu time   42.3650: real time   42.3710
       DOS:  cpu time    0.0010: real time    0.0010
    --------------------------------------------
      LOOP:  cpu time   42.3661: real time   42.3721

 eigenvalue-minimisations  : 10248
 total energy-change (2. order) :-0.1034612E+04  (-0.1026975E+04)
 number of electron     864.0000000 magnetization 
 augmentation part      864.0000000 magnetization 

 Free energy of the ion-electron system (eV)
  ---------------------------------------------------
  alpha Z        PSCENC =      2701.53174423
  Ewald energy   TEWEN  =    -45293.51455269
  -Hartree energ DENC   =    -18171.24988591
  -exchange      EXHF   =         0.00000000
  -V(xc)+E(xc)   XCENC  =      3166.56497657
  PAW double counting   =     50594.51003143   -49994.65612350
  entropy T*S    EENTRO =        -0.00000000
  eigenvalues    EBANDS =     -8974.99708890
  atomic energy  EATOM  =     64968.54023382
  Solvation  Ediel_sol  =         0.00000000
  ---------------------------------------------------
  free energy    TOTEN  =     -1003.27066493 eV

  energy without entropy =    -1003.27066493  energy(sigma->0) =    -1003.27066493


--------------------------------------------------------------------------------------------------------




--------------------------------------- Iteration      1(   4)  ---------------------------------------


     EDDAV:  cpu time   45.8694: real time   45.8876
       DOS:  cpu time    0.0012: real time    0.0011
    --------------------------------------------
      LOOP:  cpu time   45.8705: real time   45.8887

 eigenvalue-minimisations  : 11448
 total energy-change (2. order) :-0.5161185E+02  (-0.5141775E+02)
 number of electron     864.0000000 magnetization 
 augmentation part      864.0000000 magnetization 

 Free energy of the ion-electron system (eV)
  ---------------------------------------------------
  alpha Z        PSCENC =      2701.53174423
  Ewald energy   TEWEN  =    -45293.51455269
  -Hartree energ DENC   =    -18171.24988591
  -exchange      EXHF   =         0.00000000
  -V(xc)+E(xc)   XCENC  =      3166.56497657
  PAW double counting   =     50594.51003143   -49994.65612350
  entropy T*S    EENTRO =        -0.00000000
  eigenvalues    EBANDS =     -9026.60894257
  atomic energy  EATOM  =     64968.54023382
  Solvation  Ediel_sol  =         0.00000000
  ---------------------------------------------------
  free energy    TOTEN  =     -1054.88251860 eV

  energy without entropy =    -1054.88251860  energy(sigma->0) =    -1054.88251860


--------------------------------------------------------------------------------------------------------




--------------------------------------- Iteration      1(   5)  ---------------------------------------


     EDDAV:  cpu time   55.4059: real time   55.4129
       DOS:  cpu time    0.0012: real time    0.0012
    CHARGE:  cpu time    1.4101: real time    1.4101
    MIXING:  cpu time    0.0064: real time    0.0066
    --------------------------------------------
      LOOP:  cpu time   56.8235: real time   56.8308

 eigenvalue-minimisations  : 14464
 total energy-change (2. order) :-0.5493412E+01  (-0.5490521E+01)
 number of electron     864.0000007 magnetization 
 augmentation part      133.4220997 magnetization 

 Broyden mixing:
  rms(total) = 0.83889E+01    rms(broyden)= 0.83882E+01
  rms(prec ) = 0.10025E+02
  weight for this iteration     100.00

 Free energy of the ion-electron system (eV)
  ---------------------------------------------------
  alpha Z        PSCENC =      2701.53174423
  Ewald energy   TEWEN  =    -45293.51455269
  -Hartree energ DENC   =    -18171.24988591
  -exchange      EXHF   =         0.00000000
  -V(xc)+E(xc)   XCENC  =      3166.56497657
  PAW double counting   =     50594.51003143   -49994.65612350
  entropy T*S    EENTRO =        -0.00000000
  eigenvalues    EBANDS =     -9032.10235469
  atomic energy  EATOM  =     64968.54023382
  Solvation  Ediel_sol  =         0.00000000
  ---------------------------------------------------
  free energy    TOTEN  =     -1060.37593072 eV

  energy without entropy =    -1060.37593072  energy(sigma->0) =    -1060.37593072


--------------------------------------------------------------------------------------------------------




--------------------------------------- Iteration      1(   6)  ---------------------------------------


    POTLOK:  cpu time    0.1323: real time    0.1485
    SETDIJ:  cpu time    0.3684: real time    0.3686
     EDDAV:  cpu time   40.6559: real time   40.6585
       DOS:  cpu time    0.0012: real time    0.0012
    CHARGE:  cpu time    1.3887: real time    1.3888
    MIXING:  cpu time    0.0059: real time    0.0059
    --------------------------------------------
      LOOP:  cpu time   42.5525: real time   42.5714

 eigenvalue-minimisations  :  9848
 total energy-change (2. order) : 0.1516579E+03  (-0.6987817E+02)
 number of electron     864.0000006 magnetization 
 augmentation part      119.2428431 magnetization 

 Broyden mixing:
  rms(total) = 0.35765E+01    rms(broyden)= 0.35754E+01
  rms(prec ) = 0.38131E+01
  weight for this iteration     100.00

 eigenvalues of (default mixing * dielectric matrix)
  average eigenvalue GAMMA=   0.9873
  0.9873

 Free energy of the ion-electron system (eV)
  ---------------------------------------------------
  alpha Z        PSCENC =      2701.53174423
  Ewald energy   TEWEN  =    -45293.51455269
  -Hartree energ DENC   =    -19580.01595368
  -exchange      EXHF   =         0.00000000
  -V(xc)+E(xc)   XCENC  =      3259.24679083
  PAW double counting   =     64560.21368424   -64100.15024683
  entropy T*S    EENTRO =        -0.00000000
  eigenvalues    EBANDS =     -7424.56975599
  atomic energy  EATOM  =     64968.54023382
  Solvation  Ediel_sol  =         0.00000000
  ---------------------------------------------------
  free energy    TOTEN  =      -908.71805606 eV

  energy without entropy =     -908.71805606  energy(sigma->0) =     -908.71805606


--------------------------------------------------------------------------------------------------------




--------------------------------------- Iteration      1(   7)  ---------------------------------------


    POTLOK:  cpu time    0.1059: real time    0.1124
    SETDIJ:  cpu time    0.3502: real time    0.3502
     EDDAV:  cpu time   43.2441: real time   43.2451
       DOS:  cpu time    0.0018: real time    0.0018
    CHARGE:  cpu time    1.3864: real time    1.3867
    MIXING:  cpu time    0.0064: real time    0.0064
    --------------------------------------------
      LOOP:  cpu time   45.0948: real time   45.1026

 eigenvalue-minimisations  : 10688
 total energy-change (2. order) :-0.1544654E+01  (-0.7694981E+01)
 number of electron     864.0000006 magnetization 
 augmentation part      118.5480728 magnetization 

 Broyden mixing:
  rms(total) = 0.17917E+01    rms(broyden)= 0.17916E+01
  rms(prec ) = 0.19769E+01
  weight for this iteration     100.00

 eigenvalues of (default mixing * dielectric matrix)
  average eigenvalue GAMMA=   1.1757
  1.1757  1.1757

 Free energy of the ion-electron system (eV)
  ---------------------------------------------------
  alpha Z        PSCENC =      2701.53174423
  Ewald energy   TEWEN  =    -45293.51455269
  -Hartree energ DENC   =    -19630.77280130
  -exchange      EXHF   =         0.00000000
  -V(xc)+E(xc)   XCENC  =      3260.69355887
  PAW double counting   =     76019.21252209   -75611.64196358
  entropy T*S    EENTRO =        -0.00000011
  eigenvalues    EBANDS =     -7324.31145139
  atomic energy  EATOM  =     64968.54023382
  Solvation  Ediel_sol  =         0.00000000
  ---------------------------------------------------
  free energy    TOTEN  =      -910.26271005 eV

  energy without entropy =     -910.26270994  energy(sigma->0) =     -910.26271000


--------------------------------------------------------------------------------------------------------




--------------------------------------- Iteration      1(   8)  ---------------------------------------


    POTLOK:  cpu time    0.1343: real time    0.1563
    SETDIJ:  cpu time    0.3820: real time    0.3820
     EDDAV:  cpu time   44.5584: real time   44.5595
       DOS:  cpu time    0.0021: real time    0.0021
    CHARGE:  cpu time    1.3850: real time    1.3851
    MIXING:  cpu time    0.0055: real time    0.0055
    --------------------------------------------
      LOOP:  cpu time   46.4673: real time   46.4904

 eigenvalue-minimisations  : 11096
 total energy-change (2. order) : 0.1499180E+01  (-0.1179323E+01)
 number of electron     864.0000006 magnetization 
 augmentation part      118.6758379 magnetization 

 Broyden mixing:
  rms(total) = 0.81410E+00    rms(broyden)= 0.81403E+00
  rms(prec ) = 0.94269E+00
  weight for this iteration     100.00

 eigenvalues of (default mixing * dielectric matrix)
  average eigenvalue GAMMA=   1.3219
  2.0811  0.9422  0.9422

 Free energy of the ion-electron system (eV)
  ---------------------------------------------------
  alpha Z        PSCENC =      2701.53174423
  Ewald energy   TEWEN  =    -45293.51455269
  -Hartree energ DENC   =    -19631.71028867
  -exchange      EXHF   =         0.00000000
  -V(xc)+E(xc)   XCENC  =      3259.24985814
  PAW double counting   =     82469.50048862   -82099.76391262
  entropy T*S    EENTRO =        -0.00012068
  eigenvalues    EBANDS =     -7282.59698031
  atomic energy  EATOM  =     64968.54023382
  Solvation  Ediel_sol  =         0.00000000
  ---------------------------------------------------
  free energy    TOTEN  =      -908.76353014 eV

  energy without entropy =     -908.76340946  energy(sigma->0) =     -908.76346980


--------------------------------------------------------------------------------------------------------




--------------------------------------- Iteration      1(   9)  ---------------------------------------


    POTLOK:  cpu time    0.1280: real time    0.1317
    SETDIJ:  cpu time    0.3565: real time    0.3565
     EDDAV:  cpu time   44.1399: real time   44.1409
       DOS:  cpu time    0.0023: real time    0.0023
    CHARGE:  cpu time    1.3839: real time    1.3839
    MIXING:  cpu time    0.0061: real time    0.0061
    --------------------------------------------
      LOOP:  cpu time   46.0167: real time   46.0214

 eigenvalue-minimisations  : 10976
 total energy-change (2. order) : 0.3673434E-01  (-0.2409502E+00)
 number of electron     864.0000006 magnetization 
 augmentation part      117.8729187 magnetization 

 Broyden mixing:
  rms(total) = 0.95734E+00    rms(broyden)= 0.95687E+00
  rms(prec ) = 0.13961E+01
  weight for this iteration     100.00

 eigenvalues of (default mixing * dielectric matrix)
  average eigenvalue GAMMA=   1.0663
  2.1239  0.9495  0.9495  0.2424

 Free energy of the ion-electron system (eV)
  ---------------------------------------------------
  alpha Z        PSCENC =      2701.53174423
  Ewald energy   TEWEN  =    -45293.51455269
  -Hartree energ DENC   =    -19709.39306775
  -exchange      EXHF   =         0.00000000
  -V(xc)+E(xc)   XCENC  =      3263.67468843
  PAW double counting   =     88183.77238828   -87839.09384359
  entropy T*S    EENTRO =        -0.00324060
  eigenvalues    EBANDS =     -7184.24114594
  atomic energy  EATOM  =     64968.54023382
  Solvation  Ediel_sol  =         0.00000000
  ---------------------------------------------------
  free energy    TOTEN  =      -908.72679581 eV

  energy without entropy =     -908.72355521  energy(sigma->0) =     -908.72517551


--------------------------------------------------------------------------------------------------------




--------------------------------------- Iteration      1(  10)  ---------------------------------------


    POTLOK:  cpu time    0.1292: real time    0.1465
    SETDIJ:  cpu time    0.3598: real time    0.3598
     EDDAV:  cpu time   43.6667: real time   43.6677
       DOS:  cpu time    0.0025: real time    0.0025
    CHARGE:  cpu time    1.3828: real time    1.3829
    MIXING:  cpu time    0.0065: real time    0.0065
    --------------------------------------------
      LOOP:  cpu time   45.5475: real time   45.5658

 eigenvalue-minimisations  : 10832
 total energy-change (2. order) : 0.1981172E+00  (-0.9207063E-01)
 number of electron     864.0000006 magnetization 
 augmentation part      118.0737596 magnetization 

 Broyden mixing:
  rms(total) = 0.30336E+00    rms(broyden)= 0.30233E+00
  rms(prec ) = 0.37505E+00
  weight for this iteration     100.00

 eigenvalues of (default mixing * dielectric matrix)
  average eigenvalue GAMMA=   1.0730
  2.3666  0.9957  0.9957  0.8547  0.1523

 Free energy of the ion-electron system (eV)
  ---------------------------------------------------
  alpha Z        PSCENC =      2701.53174423
  Ewald energy   TEWEN  =    -45293.51455269
  -Hartree energ DENC   =    -19708.40732628
  -exchange      EXHF   =         0.00000000
  -V(xc)+E(xc)   XCENC  =      3263.71595928
  PAW double counting   =     88332.99351369   -87988.63772590
  entropy T*S    EENTRO =        -0.00669044
  eigenvalues    EBANDS =     -7184.74383437
  atomic energy  EATOM  =     64968.54023382
  Solvation  Ediel_sol  =         0.00000000
  ---------------------------------------------------
  free energy    TOTEN  =      -908.52867865 eV

  energy without entropy =     -908.52198821  energy(sigma->0) =     -908.52533343


--------------------------------------------------------------------------------------------------------




--------------------------------------- Iteration      1(  11)  ---------------------------------------


    POTLOK:  cpu time    0.1400: real time    0.1446
    SETDIJ:  cpu time    0.3649: real time    0.3649
     EDDAV:  cpu time   42.0735: real time   42.0749
       DOS:  cpu time    0.0022: real time    0.0022
    CHARGE:  cpu time    1.4497: real time    1.4498
    MIXING:  cpu time    0.0067: real time    0.0067
    --------------------------------------------
      LOOP:  cpu time   44.0371: real time   44.0430

 eigenvalue-minimisations  : 10312
 total energy-change (2. order) :-0.8605708E-02  (-0.4071858E-01)
 number of electron     864.0000006 magnetization 
 augmentation part      118.0497063 magnetization 

 Broyden mixing:
  rms(total) = 0.18470E+00    rms(broyden)= 0.18462E+00
  rms(prec ) = 0.25583E+00
  weight for this iteration     100.00

 eigenvalues of (default mixing * dielectric matrix)
  average eigenvalue GAMMA=   1.0795
  2.4080  1.3303  0.9164  0.9164  0.7460  0.1597

 Free energy of the ion-electron system (eV)
  ---------------------------------------------------
  alpha Z        PSCENC =      2701.53174423
  Ewald energy   TEWEN  =    -45293.51455269
  -Hartree energ DENC   =    -19726.99245213
  -exchange      EXHF   =         0.00000000
  -V(xc)+E(xc)   XCENC  =      3264.75886961
  PAW double counting   =     89405.15956278   -89063.70350674
  entropy T*S    EENTRO =        -0.00083496
  eigenvalues    EBANDS =     -7164.31634829
  atomic energy  EATOM  =     64968.54023382
  Solvation  Ediel_sol  =         0.00000000
  ---------------------------------------------------
  free energy    TOTEN  =      -908.53728436 eV

  energy without entropy =     -908.53644940  energy(sigma->0) =     -908.53686688


--------------------------------------------------------------------------------------------------------




--------------------------------------- Iteration      1(  12)  ---------------------------------------


    POTLOK:  cpu time    0.1307: real time    0.1523
    SETDIJ:  cpu time    0.3589: real time    0.3625
     EDDAV:  cpu time   44.5918: real time   44.5934
       DOS:  cpu time    0.0025: real time    0.0025
    CHARGE:  cpu time    1.3832: real time    1.3832
    MIXING:  cpu time    0.0056: real time    0.0056
    --------------------------------------------
      LOOP:  cpu time   46.4726: real time   46.4995

 eigenvalue-minimisations  : 11120
 total energy-change (2. order) :-0.5438016E-02  (-0.1399802E-01)
 number of electron     864.0000006 magnetization 
 augmentation part      117.9823803 magnetization 

 Broyden mixing:
  rms(total) = 0.14761E+00    rms(broyden)= 0.14759E+00
  rms(prec ) = 0.20496E+00
  weight for this iteration     100.00

 eigenvalues of (default mixing * dielectric matrix)
  average eigenvalue GAMMA=   1.0360
  2.4258  1.5491  0.8957  0.8957  0.8335  0.4927  0.1591

 Free energy of the ion-electron system (eV)
  ---------------------------------------------------
  alpha Z        PSCENC =      2701.53174423
  Ewald energy   TEWEN  =    -45293.51455269
  -Hartree energ DENC   =    -19735.08876917
  -exchange      EXHF   =         0.00000000
  -V(xc)+E(xc)   XCENC  =      3265.18355382
  PAW double counting   =     89498.37452238   -89156.35525471
  entropy T*S    EENTRO =        -0.00848825
  eigenvalues    EBANDS =     -7157.20571181
  atomic energy  EATOM  =     64968.54023382
  Solvation  Ediel_sol  =         0.00000000
  ---------------------------------------------------
  free energy    TOTEN  =      -908.54272238 eV

  energy without entropy =     -908.53423413  energy(sigma->0) =     -908.53847825


--------------------------------------------------------------------------------------------------------




--------------------------------------- Iteration      1(  13)  ---------------------------------------


    POTLOK:  cpu time    0.1216: real time    0.1255
    SETDIJ:  cpu time    0.3696: real time    0.3696
     EDDAV:  cpu time   45.2788: real time   45.2799
       DOS:  cpu time    0.0024: real time    0.0023
    CHARGE:  cpu time    1.3817: real time    1.3817
    MIXING:  cpu time    0.0062: real time    0.0062
    --------------------------------------------
      LOOP:  cpu time   47.1602: real time   47.1652

 eigenvalue-minimisations  : 11360
 total energy-change (2. order) : 0.4919680E-02  (-0.6877140E-02)
 number of electron     864.0000006 magnetization 
 augmentation part      118.0005304 magnetization 

 Broyden mixing:
  rms(total) = 0.11493E+00    rms(broyden)= 0.11492E+00
  rms(prec ) = 0.17192E+00
  weight for this iteration     100.00

 eigenvalues of (default mixing * dielectric matrix)
  average eigenvalue GAMMA=   1.0469
  2.4944  1.7945  0.9377  0.9377  0.9530  0.7162  0.1593  0.3825

 Free energy of the ion-electron system (eV)
  ---------------------------------------------------
  alpha Z        PSCENC =      2701.53174423
  Ewald energy   TEWEN  =    -45293.51455269
  -Hartree energ DENC   =    -19737.95954103
  -exchange      EXHF   =         0.00000000
  -V(xc)+E(xc)   XCENC  =      3265.29792740
  PAW double counting   =     89445.03261167   -89102.25654589
  entropy T*S    EENTRO =        -0.00424015
  eigenvalues    EBANDS =     -7155.20544007
  atomic energy  EATOM  =     64968.54023382
  Solvation  Ediel_sol  =         0.00000000
  ---------------------------------------------------
  free energy    TOTEN  =      -908.53780270 eV

  energy without entropy =     -908.53356255  energy(sigma->0) =     -908.53568262


--------------------------------------------------------------------------------------------------------




--------------------------------------- Iteration      1(  14)  ---------------------------------------


    POTLOK:  cpu time    0.1306: real time    0.1587
    SETDIJ:  cpu time    0.3584: real time    0.3584
     EDDAV:  cpu time   42.0934: real time   42.0944
       DOS:  cpu time    0.0025: real time    0.0025
    CHARGE:  cpu time    1.3903: real time    1.3903
    MIXING:  cpu time    0.0062: real time    0.0062
    --------------------------------------------
      LOOP:  cpu time   43.9815: real time   44.0105

 eigenvalue-minimisations  : 10344
 total energy-change (2. order) : 0.8758835E-02  (-0.1618393E-02)
 number of electron     864.0000006 magnetization 
 augmentation part      117.9832103 magnetization 

 Broyden mixing:
  rms(total) = 0.87393E-01    rms(broyden)= 0.87393E-01
  rms(prec ) = 0.13185E+00
  weight for this iteration     100.00

 eigenvalues of (default mixing * dielectric matrix)
  average eigenvalue GAMMA=   1.1000
  2.3451  2.3451  1.0645  1.0645  0.9057  0.9057  0.7262  0.1592  0.3838

 Free energy of the ion-electron system (eV)
  ---------------------------------------------------
  alpha Z        PSCENC =      2701.53174423
  Ewald energy   TEWEN  =    -45293.51455269
  -Hartree energ DENC   =    -19742.11416014
  -exchange      EXHF   =         0.00000000
  -V(xc)+E(xc)   XCENC  =      3265.47807854
  PAW double counting   =     89420.13584009   -89076.65309464
  entropy T*S    EENTRO =        -0.00689915
  eigenvalues    EBANDS =     -7151.92623392
  atomic energy  EATOM  =     64968.54023382
  Solvation  Ediel_sol  =         0.00000000
  ---------------------------------------------------
  free energy    TOTEN  =      -908.52904386 eV

  energy without entropy =     -908.52214471  energy(sigma->0) =     -908.52559428


--------------------------------------------------------------------------------------------------------




--------------------------------------- Iteration      1(  15)  ---------------------------------------


    POTLOK:  cpu time    0.1325: real time    0.1362
    SETDIJ:  cpu time    0.3632: real time    0.3632
     EDDAV:  cpu time   44.5220: real time   44.5230
       DOS:  cpu time    0.0026: real time    0.0026
    CHARGE:  cpu time    1.4108: real time    1.4109
    MIXING:  cpu time    0.0073: real time    0.0073
    --------------------------------------------
      LOOP:  cpu time   46.4385: real time   46.4432

 eigenvalue-minimisations  : 11104
 total energy-change (2. order) : 0.8610420E-02  (-0.1006703E-02)
 number of electron     864.0000006 magnetization 
 augmentation part      117.9748980 magnetization 

 Broyden mixing:
  rms(total) = 0.46410E-01    rms(broyden)= 0.46399E-01
  rms(prec ) = 0.70311E-01
  weight for this iteration     100.00

 eigenvalues of (default mixing * dielectric matrix)
  average eigenvalue GAMMA=   1.1429
  2.6220  2.4127  1.1884  1.1884  0.9487  0.9487  0.8549  0.7166  0.1592  0.3890

 Free energy of the ion-electron system (eV)
  ---------------------------------------------------
  alpha Z        PSCENC =      2701.53174423
  Ewald energy   TEWEN  =    -45293.51455269
  -Hartree energ DENC   =    -19744.39873127
  -exchange      EXHF   =         0.00000000
  -V(xc)+E(xc)   XCENC  =      3265.53206032
  PAW double counting   =     89328.07069023   -88983.78761273
  entropy T*S    EENTRO =        -0.01100698
  eigenvalues    EBANDS =     -7150.48325838
  atomic energy  EATOM  =     64968.54023382
  Solvation  Ediel_sol  =         0.00000000
  ---------------------------------------------------
  free energy    TOTEN  =      -908.52043344 eV

  energy without entropy =     -908.50942646  energy(sigma->0) =     -908.51492995


--------------------------------------------------------------------------------------------------------




--------------------------------------- Iteration      1(  16)  ---------------------------------------


    POTLOK:  cpu time    0.1424: real time    0.1657
    SETDIJ:  cpu time    0.3631: real time    0.3631
     EDDAV:  cpu time   45.4064: real time   45.4079
       DOS:  cpu time    0.0023: real time    0.0023
    CHARGE:  cpu time    1.3823: real time    1.3823
    MIXING:  cpu time    0.0062: real time    0.0062
    --------------------------------------------
      LOOP:  cpu time   47.3027: real time   47.3276

 eigenvalue-minimisations  : 11336
 total energy-change (2. order) : 0.1325763E-02  (-0.1103539E-02)
 number of electron     864.0000006 magnetization 
 augmentation part      117.9636074 magnetization 

 Broyden mixing:
  rms(total) = 0.21942E-01    rms(broyden)= 0.21856E-01
  rms(prec ) = 0.28497E-01
  weight for this iteration     100.00

 eigenvalues of (default mixing * dielectric matrix)
  average eigenvalue GAMMA=   1.0938
  2.7409  2.3642  1.1781  1.1781  0.9521  0.9521  0.8349  0.6415  0.6415  0.1592
  0.3890

 Free energy of the ion-electron system (eV)
  ---------------------------------------------------
  alpha Z        PSCENC =      2701.53174423
  Ewald energy   TEWEN  =    -45293.51455269
  -Hartree energ DENC   =    -19746.17805036
  -exchange      EXHF   =         0.00000000
  -V(xc)+E(xc)   XCENC  =      3265.58835791
  PAW double counting   =     89311.20209527   -88966.67509349
  entropy T*S    EENTRO =        -0.01557598
  eigenvalues    EBANDS =     -7148.99826640
  atomic energy  EATOM  =     64968.54023382
  Solvation  Ediel_sol  =         0.00000000
  ---------------------------------------------------
  free energy    TOTEN  =      -908.51910768 eV

  energy without entropy =     -908.50353170  energy(sigma->0) =     -908.51131969


--------------------------------------------------------------------------------------------------------




--------------------------------------- Iteration      1(  17)  ---------------------------------------


    POTLOK:  cpu time    0.1047: real time    0.1090
    SETDIJ:  cpu time    0.3494: real time    0.3494
     EDDAV:  cpu time   45.8071: real time   45.8094
       DOS:  cpu time    0.0023: real time    0.0023
    CHARGE:  cpu time    1.4536: real time    1.4537
    MIXING:  cpu time    0.0062: real time    0.0062
    --------------------------------------------
      LOOP:  cpu time   47.7234: real time   47.7300

 eigenvalue-minimisations  : 11528
 total energy-change (2. order) :-0.4870931E-04  (-0.2607047E-03)
 number of electron     864.0000006 magnetization 
 augmentation part      117.9664710 magnetization 

 Broyden mixing:
  rms(total) = 0.13906E-01    rms(broyden)= 0.13903E-01
  rms(prec ) = 0.17869E-01
  weight for this iteration     100.00

 eigenvalues of (default mixing * dielectric matrix)
  average eigenvalue GAMMA=   1.0653
  2.8661  2.3732  1.1029  1.1029  1.0589  1.0589  0.8231  0.7464  0.7464  0.1592
  0.3843  0.3610

 Free energy of the ion-electron system (eV)
  ---------------------------------------------------
  alpha Z        PSCENC =      2701.53174423
  Ewald energy   TEWEN  =    -45293.51455269
  -Hartree energ DENC   =    -19746.49187511
  -exchange      EXHF   =         0.00000000
  -V(xc)+E(xc)   XCENC  =      3265.59784239
  PAW double counting   =     89312.85780565   -88968.31277123
  entropy T*S    EENTRO =        -0.01657614
  eigenvalues    EBANDS =     -7148.71100731
  atomic energy  EATOM  =     64968.54023382
  Solvation  Ediel_sol  =         0.00000000
  ---------------------------------------------------
  free energy    TOTEN  =      -908.51915639 eV

  energy without entropy =     -908.50258025  energy(sigma->0) =     -908.51086832


--------------------------------------------------------------------------------------------------------




--------------------------------------- Iteration      1(  18)  ---------------------------------------


    POTLOK:  cpu time    0.1398: real time    0.1556
    SETDIJ:  cpu time    0.3773: real time    0.3774
     EDDAV:  cpu time   43.7176: real time   43.7205
       DOS:  cpu time    0.0026: real time    0.0026
    CHARGE:  cpu time    1.4186: real time    1.4187
    MIXING:  cpu time    0.0059: real time    0.0059
    --------------------------------------------
      LOOP:  cpu time   45.6620: real time   45.6807

 eigenvalue-minimisations  : 10848
 total energy-change (2. order) : 0.6357321E-04  (-0.9103001E-04)
 number of electron     864.0000006 magnetization 
 augmentation part      117.9680274 magnetization 

 Broyden mixing:
  rms(total) = 0.93509E-02    rms(broyden)= 0.93485E-02
  rms(prec ) = 0.11720E-01
  weight for this iteration     100.00

 eigenvalues of (default mixing * dielectric matrix)
  average eigenvalue GAMMA=   1.1247
  2.8894  2.3528  1.5313  1.5313  0.9325  0.9325  1.0117  1.0117  0.8042  0.8042
  0.1592  0.3886  0.2724

 Free energy of the ion-electron system (eV)
  ---------------------------------------------------
  alpha Z        PSCENC =      2701.53174423
  Ewald energy   TEWEN  =    -45293.51455269
  -Hartree energ DENC   =    -19746.73601569
  -exchange      EXHF   =         0.00000000
  -V(xc)+E(xc)   XCENC  =      3265.60421906
  PAW double counting   =     89310.40233252   -88965.82842843
  entropy T*S    EENTRO =        -0.01538715
  eigenvalues    EBANDS =     -7148.50323848
  atomic energy  EATOM  =     64968.54023382
  Solvation  Ediel_sol  =         0.00000000
  ---------------------------------------------------
  free energy    TOTEN  =      -908.51909281 eV

  energy without entropy =     -908.50370566  energy(sigma->0) =     -908.51139924


--------------------------------------------------------------------------------------------------------




[...]
   -.489E+02 -.402E+02 -.829E+02   0.696E+02 0.614E+02 0.845E+02   -.201E+02 -.194E+02 -.440E+00   0.192E-02 0.448E-02 0.844E-03
   0.122E+03 0.929E+01 0.984E+02   -.129E+03 -.129E+02 -.914E+02   0.315E+01 -.158E+00 -.710E+01   -.122E-03 -.395E-03 -.173E-02
   -.653E+02 0.685E+02 -.405E+02   0.768E+02 -.652E+02 0.726E+02   -.896E+01 -.508E+01 -.262E+02   -.370E-02 0.109E-02 -.575E-03
   -.101E+03 0.822E+02 0.313E+02   0.120E+03 -.101E+03 -.175E+02   -.184E+02 0.162E+02 -.155E+02   0.136E-02 0.106E-02 -.108E-02
   -.278E+02 -.548E+02 0.643E+02   0.115E+02 0.852E+02 -.659E+02   0.107E+02 -.237E+02 0.556E+00   -.424E-02 -.297E-04 0.407E-02
   -.606E+02 0.124E+03 0.103E+03   0.502E+02 -.140E+03 -.107E+03   0.128E+02 0.175E+02 0.458E+01   -.280E-02 0.839E-03 0.290E-02
   0.149E+02 -.484E+02 0.275E+02   -.901E+01 0.692E+02 -.373E+02   -.473E+01 -.213E+02 0.904E+01   0.321E-02 -.360E-02 0.179E-02
   -.689E+02 0.731E+02 -.526E+02   0.526E+02 -.840E+02 0.689E+02   0.189E+02 0.101E+02 -.176E+02   -.291E-02 0.786E-03 -.175E-02
   -.500E+02 -.444E+02 -.936E+02   0.354E+02 0.317E+02 0.110E+03   0.190E+02 0.168E+02 -.174E+02   0.214E-02 0.730E-03 0.969E-03
   0.133E+03 0.740E+02 0.232E+02   -.162E+03 -.906E+02 -.241E+02   0.297E+02 0.146E+02 -.357E+00   0.225E-02 0.130E-02 0.243E-02
   -.640E+02 -.193E+02 -.169E+03   0.620E+02 0.250E+02 0.175E+03   0.289E+01 -.594E+01 -.516E+01   -.374E-02 0.465E-03 -.312E-02
   -.347E+02 0.336E+01 0.631E+02   0.709E+02 -.779E+01 -.556E+02   -.318E+02 0.248E+01 -.784E+01   -.253E-02 -.266E-02 -.518E-04
   0.157E+02 0.611E+02 0.182E+02   -.227E+02 -.751E+02 -.106E+02   0.751E+01 0.141E+02 -.818E+01   0.236E-02 -.478E-02 -.640E-02
   0.150E+03 0.808E+02 -.162E+02   -.164E+03 -.710E+02 0.137E+02   0.133E+02 -.119E+02 0.411E+01   0.368E-02 0.119E-02 -.693E-02
   -.675E+02 0.476E+02 0.337E+02   0.710E+02 -.372E+02 -.488E+02   -.305E+01 -.123E+02 0.144E+02   -.526E-02 0.258E-02 0.345E-02
   -.238E+02 -.316E+02 -.832E+02   0.482E+02 0.228E+02 0.693E+02   -.236E+02 0.117E+02 0.122E+02   -.305E-03 -.153E-02 0.793E-03
   -.632E+02 0.818E+02 0.130E+02   0.810E+02 -.695E+02 0.290E+01   -.138E+02 -.123E+02 -.143E+02   -.931E-02 0.257E-02 -.609E-02
   -.832E+02 0.406E+02 -.393E+02   0.826E+02 -.315E+02 0.303E+02   0.104E+01 -.138E+02 0.111E+02   -.213E-02 0.418E-03 -.221E-02
   -.120E+03 -.238E+02 -.249E+02   0.118E+03 0.244E+02 0.347E+01   0.308E+01 0.319E-01 0.253E+02   -.139E-02 -.245E-02 -.165E-02
   -.316E+02 -.271E+02 -.840E+02   0.358E+02 0.409E+01 0.893E+02   -.304E+01 0.263E+02 -.761E+01   0.148E-02 0.252E-03 0.137E-02
   -.119E+03 0.656E+01 0.414E+02   0.129E+03 -.175E+02 -.749E+02   -.752E+01 0.106E+02 0.337E+02   0.243E-02 0.150E-02 0.572E-03
   0.329E+01 0.579E+02 -.151E+03   -.144E+02 -.656E+02 0.157E+03   0.141E+02 0.911E+01 -.545E+01   -.163E-02 -.141E-03 0.108E-02
   -.552E+02 -.425E+01 0.143E+03   0.519E+02 0.184E+02 -.166E+03   0.111E+01 -.139E+02 0.244E+02   -.197E-02 0.175E-02 -.224E-02
   -.152E+03 0.346E+02 0.365E+02   0.147E+03 -.612E+02 -.456E+02   0.443E+01 0.250E+02 0.713E+01   0.146E-02 -.254E-02 0.454E-03
   0.102E+03 0.395E+02 -.230E+02   -.105E+03 -.610E+02 0.231E+02   0.353E+01 0.220E+02 0.788E+00   -.206E-03 0.543E-02 -.380E-02
   0.250E+02 0.138E+03 -.638E+02   -.312E+01 -.131E+03 0.780E+02   -.217E+02 -.116E+02 -.154E+02   0.730E-02 0.556E-02 -.160E-02
   -.264E+01 -.859E+02 -.972E+02   -.817E+01 0.839E+02 0.124E+03   0.109E+02 0.222E+01 -.230E+02   0.459E-03 -.303E-02 0.101E-02
   -.115E+03 -.929E+02 -.650E+02   0.122E+03 0.112E+03 0.841E+02   -.664E+01 -.185E+02 -.178E+02   -.839E-03 -.292E-02 0.611E-03
   0.611E+02 -.290E+02 0.109E+03   -.721E+02 0.350E+02 -.131E+03   0.976E+01 -.103E+02 0.193E+02   -.146E-02 -.233E-03 0.966E-04
   -.326E+02 0.353E+02 0.770E+01   0.149E+02 -.408E+02 -.482E+01   0.203E+02 0.545E+01 -.191E+01   -.304E-03 0.948E-03 0.153E-02
   -.129E+03 -.452E+02 -.311E+02   0.128E+03 0.601E+02 0.557E+02   0.258E+01 -.132E+02 -.255E+02   0.132E-04 -.109E-02 -.909E-03
   0.464E+02 -.126E+03 -.422E+02   -.579E+02 0.140E+03 0.483E+02   0.131E+02 -.132E+02 -.649E+01   0.987E-03 0.450E-02 0.200E-02
   -.101E+03 0.242E+02 -.214E+02   0.111E+03 -.133E+02 0.194E+02   -.999E+01 -.170E+02 0.458E+01   -.413E-03 0.453E-02 -.142E-02
   0.160E+03 -.946E+02 0.662E+02   -.164E+03 0.923E+02 -.844E+02   0.319E+01 0.403E+01 0.217E+02   -.214E-02 0.222E-03 0.120E-02
   0.893E+02 -.506E+02 0.605E+02   -.107E+03 0.589E+02 -.653E+02   0.174E+02 -.596E+01 0.304E+01   0.103E-02 -.388E-02 0.262E-02
   -.154E+02 0.976E+02 0.433E+02   0.323E+02 -.880E+02 -.526E+02   -.193E+02 -.139E+02 0.819E+01   0.575E-02 0.641E-02 -.403E-03
   -.510E+02 -.707E+01 -.402E+02   0.662E+02 0.112E+02 0.324E+02   -.165E+02 -.338E+01 0.808E+01   0.958E-03 0.234E-02 0.155E-02
   0.470E+02 -.242E+02 -.336E+02   -.463E+02 0.422E+02 0.379E+02   -.267E+01 -.200E+02 -.296E+01   0.371E-02 0.549E-02 -.601E-02
   -.749E+02 0.370E+02 -.361E+02   0.837E+02 -.318E+02 0.252E+02   -.851E+01 -.409E+01 0.138E+02   -.101E-02 0.112E-02 0.792E-03
   0.126E+03 -.179E+02 -.941E+00   -.145E+03 0.413E+02 -.998E+01   0.191E+02 -.243E+02 0.108E+02   0.122E-02 -.501E-02 -.126E-02
   -.929E+02 -.934E+02 -.763E+02   0.102E+03 0.115E+03 0.766E+02   -.819E+01 -.222E+02 -.867E+00   -.255E-03 0.211E-02 -.299E-03
   0.415E+02 -.215E+03 0.229E+02   -.292E+02 0.241E+03 -.314E+02   -.161E+02 -.275E+02 0.893E+01   -.916E-03 -.132E-02 0.837E-03
   0.212E+03 0.257E+02 -.117E+03   -.218E+03 -.155E+02 0.136E+03   0.299E+01 -.142E+02 -.217E+02   -.458E-03 -.257E-02 -.702E-04
   -.584E+02 0.122E+03 0.684E+02   0.661E+02 -.146E+03 -.819E+02   -.928E+01 0.234E+02 0.136E+02   -.168E-02 0.157E-02 0.244E-02
   0.428E+01 -.351E+02 -.837E+02   -.142E+02 0.516E+02 0.103E+03   0.120E+02 -.176E+02 -.208E+02   -.245E-03 -.205E-02 0.212E-02
   -.164E+03 -.981E+02 -.361E+02   0.173E+03 0.116E+03 0.212E+02   -.109E+02 -.148E+02 0.147E+02   -.679E-04 -.213E-02 0.161E-03
   -.591E+02 0.145E+03 -.102E+03   0.345E+02 -.165E+03 0.115E+03   0.240E+02 0.183E+02 -.103E+02   -.552E-02 -.133E-02 0.225E-02
   0.999E+02 0.635E+02 0.108E+03   -.991E+02 -.688E+02 -.100E+03   -.997E-01 0.421E+01 -.105E+02   0.203E-02 0.136E-02 0.387E-02
 -----------------------------------------------------------------------------------------------
   0.344E+02 0.602E+02 0.477E+02   -.654E-12 -.597E-12 -.995E-12   -.344E+02 -.602E+02 -.477E+02   -.118E-01 0.366E-02 -.140E-01
 
 
 POSITION                                       TOTAL-FORCE (eV/Angst)
 -----------------------------------------------------------------------------------
      6.82184      6.30930      9.25761        -4.132497     -1.365519     -3.398067
      1.77326      9.86088      7.43700        -0.467023      0.343068     -1.152308
      1.27797      5.28466     10.98725        -0.251293     -0.896846      0.781793
      7.39618      1.99317      2.84222         0.095412     -0.958814      2.041270
      7.19373     11.37938      0.76508        -0.736226     -1.355835     -0.209908
      8.21119      5.19876      3.98075         3.655712      3.981456      3.210689
      8.06027      8.81135      3.38692         3.914001      1.393954     -1.218143
     10.22068      5.74331      9.72766        -0.870443      1.676070      1.936145
     11.10974     11.99293      7.05671         2.291864      3.021655     -1.095392
      9.21682      3.16695      7.70406         1.545304      2.754339      2.491563
      3.41660      1.93940      4.09774         1.903049      1.197551     -0.281827
      5.96120      3.56570      6.98281         1.063160      1.485483     -0.063903
      8.64808      9.62800      7.55871         0.360807     -0.937878     -1.951466
     10.47822      0.41636      3.38009        -0.767379     -1.102676      0.177541
     11.32471      5.04825      6.50926        -1.836912      1.378662     -2.827438
      5.53802      9.48429      8.33657        -2.008771     -2.709589      2.733801
     11.18206      9.46061      4.80462        -0.215693     -2.864285     -0.056345
      3.38197     10.55181      3.23691         0.720970     -0.164211     -0.300683
      5.81959      7.79788      4.38658        -1.916406      1.982030      2.877737
      5.87538      5.17758      1.59476        -0.935213     -0.479661     -0.533598
      9.11049      7.22083      1.06193         0.993523      0.171204     -1.465865
      9.04692      0.34250      9.76382        -0.375832     -1.347879     -0.867079
      2.03420      6.43079      4.29886        -0.705210      0.684389     -0.731688
      2.05487      3.18276      6.50377        -1.471223     -1.009782      1.220294
      3.32488      9.79042     11.53741        -0.628418      1.486734      1.948893
     11.40623      3.17960      2.22560         1.814152      2.410326      2.633214
      0.10156      1.75692     11.62604         3.102559     -3.070303     -2.489997
      9.61792      1.86276      0.36594        -2.503383     -2.415307     -3.441256
      7.64913     11.09838      4.55411        -5.322888      3.835171     -4.534110
      1.32751      8.66927      1.99565        -4.230771      0.769879     -3.069350
      3.35590      5.98240      7.76214         3.715198      7.000704     -4.529872
      0.91523     11.93306      1.82731         0.329991     -2.498006      0.590993
     11.22870      6.92102      2.97383         0.538483     -5.634090     -4.146548
      8.55053      6.79269      6.51797        -5.047067      2.813729     -2.432741
     11.22007      8.62003      8.42098        -3.080397      2.974130      0.692796
     11.97648      2.38793      8.74530         1.782305     -0.816863     -2.791247
      4.91604      2.31414      0.73171         2.119293      1.860289      1.100483
      5.42814      0.52536      7.83980        -0.870000     -3.006947      3.930393
      2.27357      3.49918      1.46840        -1.214851      5.976252     -1.709484
      3.54112      7.31112      9.99205        -1.002017     -0.915018      0.238081
      9.93773     10.49551      0.18053         3.054165     -1.594824     -5.172370
      4.29212      0.81009     10.63893        -1.489825     -4.120936     -1.518398
      7.99193      0.83107      6.60356         3.500146      1.739546      0.545233
      5.13161     10.60684      5.90192         0.039765      3.082703     -4.602353
     10.11031      2.74227      5.01606         4.243029      1.967529     -3.182985
      8.13363      8.72354     10.28833         3.422896      1.746767      3.529387
      4.87076      3.91830     10.32579         4.473664     -2.665407      2.314211
      8.29593      3.74354     10.77414        -3.886768      0.570063      2.775141
      1.85893      0.22714      9.15341         1.248292     -2.435321      1.542847
      0.77928      6.90874      7.66741         6.033021      2.087276     -4.240393
      0.41622      8.26961     11.22500        -3.597047      0.810322      1.250215
      4.73152      5.33252      4.71684        -1.715419     -0.101072      3.444828
      5.90175      8.14178      0.84010        -2.286492      2.189086      2.037803
      1.38658     11.96998      4.85554        -3.753704      1.453614      1.293367
      6.14318     11.16968      7.19628        -1.085611      4.844669      0.185741
      8.11839      7.09009     10.29872         4.799803      1.391725      1.348869
      4.59474      9.27794      6.51151        -2.105556     -0.071421     -1.863672
      8.55346      2.11695     10.92657        -0.201452     -1.120851      4.010644
      2.90127     11.38176      8.32252         0.227140      0.570453     -0.794577
      3.95571      5.55635      3.33428         1.623815      0.008098      0.273076
      2.05406      7.35794     10.97297         2.701223     -1.177013     -4.140651
     11.53117      2.08688      5.35261        -0.936525     -0.836801     -2.742089
      7.12923      0.62831      5.23575         0.735069     -0.850315     -0.493509
      4.70491     11.85372      4.69283        -0.281456     -2.358683      2.475264
      1.72097      5.19172      0.99534         0.470809     -4.495050      0.129687
     10.73550      1.31582      8.71835        -0.499565      1.527872      0.557673
      8.55587      1.12240      1.32887         1.843008      0.481081     -0.880690
      2.00536      0.62818      3.34101        -2.938374     -4.276704     -0.988912
      8.40867     10.36722     11.19385         2.370973     -0.498938     -1.071419
     11.61717     11.45667      4.86283         4.492789      2.050054     -0.297823
      5.94150      3.07051     11.76911        -1.421947      2.675090     -1.028457
      9.02083     11.68886      6.88654        -3.118472      2.476137      2.125889
     11.77228      0.77461      1.50724        -2.757359      1.383676      2.578902
      5.35797      2.47944      2.34545        -1.544888     -2.442095     -1.750942
      6.49856      4.13477      9.37366        -2.448917     -1.429093      0.914255
      7.36524      9.55042      9.23566        -2.183349      0.634151     -0.796769
      0.44283     11.91940      9.70458        -0.758394     -0.236266     -0.387046
      7.24081      8.28804     12.02030        -0.348150      0.579243      0.053118
     10.14020      4.32382      4.69712         1.154702      1.975797      3.699672
      1.25587      5.68081      6.50535        -0.620284      0.642920     -0.259206
     11.35165      9.39446     12.08270        -2.673651      1.336091     -0.734186
      5.52455      0.75785     11.72014        -2.315164     -0.099190      2.807569
      2.68271      8.51015      2.67793         2.568068      0.862191      3.066466
      6.51707     10.09586      5.09518         0.279245     -1.784769     -0.053540
      9.09122      9.91640      1.30688        -0.796308     -0.208583      3.717885
      4.19659      5.33501     10.54170        -0.746953      0.353929     -0.309438
      7.41999      3.95438      2.92323        -3.590521     -0.820184     -3.341297
      4.39370      8.61117     10.15952         0.517187      1.732720      1.206866
      9.10231      2.13408      6.03388        -4.265372     -3.739408     -0.027561
     11.90890      6.97507      4.31220         2.543569     -1.823721      5.828684
      2.27377     10.80852      5.41005         0.566193     -2.937789     -1.705735
     10.39727      8.13872      2.92068        -5.618714      6.728118     -1.105901
     10.04506      5.72670      2.37408         2.354978      0.772771      0.240071
      3.77689      3.53103      0.82919         1.136934     -0.429841     -0.805345
     11.55327      6.87158      8.62121         2.542131     -0.760117     -1.306818
      2.73976     11.94323     10.69986         4.332972      4.198394     -0.592936
      4.73005      7.08418      0.69584         0.767677     -1.990706     -1.282070
      9.73227      8.90946      9.32203         0.942392     -0.270816      1.106690
      9.10705     10.84787      4.73361         4.368022     -1.946931     -0.412662
      4.21653      3.90067      5.53189         0.543142      0.065047     -0.602913
      7.23667      7.98247      6.85400        -0.515726     -2.144589      1.640454
      8.55872      7.51002      5.00054         0.475719     -1.865883     -0.722891
      9.46530      3.74727      9.74854         0.880001      2.865339     -1.659722
      9.61588      7.50257      7.35847         4.046270      0.019567      1.607369
     11.06623     10.04037      7.33478         0.368007     -4.734957      2.069935
     11.70145      3.15431      7.26033         0.766798      0.614415      3.850850
      5.10616     11.88885      9.45091         1.257456      3.274272     -2.306137
      1.49391     11.45663      0.48774         2.370525     -0.332583      0.131164
     11.30768      6.82773     11.26618         2.938641      1.415263      0.209255
      0.46141      8.10460      6.58788        -2.168425      0.190135      1.470840
      1.69504      2.20963      0.83116        -0.988399     -1.570058     -1.952396
      8.37428      5.15167      6.73878         0.025239      0.547943      0.864271
      6.18995      5.98551      5.14713         0.166058     -4.297239     -1.129864
      1.86377      3.33239      2.95975         0.122733      0.208999      4.236262
      0.20979      3.36496      9.93235        -0.041892      0.911266      1.316376
      9.66591      2.57516      3.49584        -1.229363     -4.378757     -3.211382
      0.24466     10.30063      2.42038         2.653226     -0.039243      0.963974
      1.46397      0.93905      6.04539         1.431748      1.659648     -0.889621
      4.97083      9.56321      1.09490         1.530468      0.776934     -0.463772
      2.38447      7.91880      7.92518        -0.056914     -6.048887      2.509012
      7.34974     10.95183      2.84908        -0.393356      1.696408      3.536064
      4.06183      2.37504     10.33647        -0.492207      2.364688     -1.755934
      4.65877      7.06580      8.61954        -2.280088     -4.304195     -1.176795
      1.56800      8.77811      0.35375        -1.309460      0.791755      0.297813
      3.99340      6.54667      5.86839        -1.996421     -2.045782      1.352150
     10.18048      0.02229     11.54571         0.301796      1.112969      2.819325
      4.81224      1.84870      7.30381        -0.438524     -0.956838     -0.077054
      0.22018      9.03619      9.67525         0.907543     -0.983261     -0.548279
     10.73812      3.07908      0.23131        -3.703510     -1.340014      0.492602
      7.62524      1.86610      8.01465        -2.630314     -4.074629     -2.188356
      0.58553      7.21863      2.05951        -1.598922      0.084305      0.192384
      7.75250      4.81315     11.90640         2.083462     -1.053086     -1.898308
      1.69031      1.64668      8.45278        -1.803409      3.596297     -0.154783
      2.20967      5.22891      8.44509        -0.604623     -1.940656      3.513419
      6.53646      7.70833      2.45472         0.659416     -1.081409     -2.812985
 -----------------------------------------------------------------------------------
    total drift:                               -0.013772     -0.000182     -0.012327


--------------------------------------------------------------------------------------------------------



  FREE ENERGIE OF THE ION-ELECTRON SYSTEM (eV)
  ---------------------------------------------------
  free  energy   TOTEN  =      -908.51909756 eV

  energy  without entropy=     -908.50383162  energy(sigma->0) =     -908.51146459
 


--------------------------------------------------------------------------------------------------------


    POTLOK:  cpu time    0.4542: real time    0.4543


--------------------------------------------------------------------------------------------------------


     LOOP+:  cpu time 1033.3471: real time 1033.6840
    4ORBIT:  cpu time    0.0000: real time    0.0000

 total amount of memory used by VASP MPI-rank0   166866. kBytes
=======================================================================

   base      :      30000. kBytes
   nonlr-proj:      21377. kBytes
   fftplans  :      24448. kBytes
   grid      :      12995. kBytes
   one-center:        171. kBytes
   wavefun   :      77875. kBytes
 
  
  
 General timing and accounting informations for this job:
 ========================================================
  
                  Total CPU time used (sec):     1057.230
                            User time (sec):     1052.587
                          System time (sec):        4.643
                         Elapsed time (sec):     1057.787
  
                   Maximum memory used (kb):      314656.
                   Average memory used (kb):           0.
  
                          Minor page faults:        92867
                          Major page faults:            0
                 Voluntary context switches:         1652
