<?xml version="1.0" encoding="ISO-8859-1"?>
<modeling>
 <generator>
  <i name="program" type="string">vasp </i>
  <i name="version" type="string">5.4.4.18Apr17-6-g9f103f2a35  </i>
  <i name="subversion" type="string">(build Oct 31 2019 15:01:46) complex            parallel </i>
  <i name="platform" type="string">LinuxIFC </i>
  <i name="date" type="string">2024 04 29 </i>
  <i name="time" type="string">22:01:17 </i>
 </generator>
 <incar>
  <i type="int" name="ISTART">     0</i>
  <i type="string" name="PREC">a</i>
  <i type="logical" name="ADDGRID"> T  </i>
  <i type="int" name="IBRION">    -1</i>
  <i name="EDIFF">      0.00000100</i>
  <i name="EDIFFG">     -0.01000000</i>
  <i type="int" name="NSW">     1</i>
  <i type="int" name="ISIF">     2</i>
  <i type="int" name="ISYM">     0</i>
  <i name="ENCUT">    600.00000000</i>
  <i name="POTIM">      1.00000000</i>
  <i type="string" name="LREAL">  Auto</i>
  <i type="int" name="ISMEAR">     0</i>
  <i name="SIGMA">      0.05000000</i>
  <i name="KSPACING">      0.30000000</i>
  <i type="logical" name="KGAMMA"> T  </i>
  <i type="logical" name="LWAVE"> F  </i>
  <i type="logical" name="LCHARG"> F  </i>
  <i type="logical" name="LSCALAPACK"> F  </i>
  <v type="int" name="KPOINT_BSE">    -1     0     0     0</v>
 </incar>
 <structure name="primitive_cell" >
  <crystal>
   <varray name="basis" >
    <v>      12.09378762       0.00000000       0.00000000 </v>
    <v>       0.00000000      12.09378762       0.00000000 </v>
    <v>       0.00000000       0.00000000      12.09378762 </v>
   </varray>
   <i name="volume">   1768.83373704 </i>
   <varray name="rec_basis" >
    <v>       0.08268708       0.00000000       0.00000000 </v>
    <v>       0.00000000       0.08268708       0.00000000 </v>
    <v>       0.00000000       0.00000000       0.08268708 </v>
   </varray>
  </crystal>
  <varray name="positions" >
   <v>      -0.43592185      -0.47830229      -0.23451523 </v>
   <v>      -0.32871390      -0.41374106      -0.14842903 </v>
   <v>      -0.46265329       0.34189218      -0.22491971 </v>
   <v>       0.38522036      -0.41574944      -0.28727546 </v>
   <v>      -0.32745387      -0.27867615      -0.14928803 </v>
   <v>      -0.40162098      -0.33995322      -0.43326234 </v>
   <v>       0.34700395       0.44113665      -0.12833749 </v>
   <v>      -0.30755560       0.42597615      -0.44278959 </v>
   <v>      -0.35896810       0.39798510      -0.01549451 </v>
   <v>       0.40274911       0.32399279      -0.14619081 </v>
   <v>      -0.29298149      -0.43833252      -0.46104778 </v>
   <v>      -0.39098966      -0.21030330      -0.23632994 </v>
   <v>      -0.31403390       0.30954247      -0.10911814 </v>
   <v>      -0.40127820      -0.31468581      -0.00607649 </v>
   <v>       0.36330192      -0.28796726      -0.15993856 </v>
   <v>      -0.15488189       0.47489724      -0.19564830 </v>
   <v>       0.29280464      -0.39546465      -0.17378694 </v>
   <v>       0.45792285      -0.21577158      -0.31067348 </v>
   <v>      -0.20489134      -0.37963397      -0.39154941 </v>
   <v>       0.49291462       0.29483732      -0.42261216 </v>
   <v>      -0.21734186       0.30985054      -0.19392184 </v>
   <v>       0.27748998       0.49466696      -0.35817093 </v>
   <v>      -0.19526741      -0.26330235      -0.22918840 </v>
   <v>      -0.28491513      -0.20388851      -0.37499226 </v>
   <v>      -0.48817149       0.49492400       0.42560079 </v>
   <v>       0.39111434      -0.41422956       0.05753714 </v>
   <v>       0.49128554       0.25389168      -0.02684669 </v>
   <v>       0.48799840      -0.32678028       0.06946516 </v>
   <v>      -0.23788834       0.26186551      -0.36297406 </v>
   <v>       0.33020261      -0.45867504       0.48523968 </v>
   <v>      -0.24668058      -0.40293067       0.08780792 </v>
   <v>       0.37992587      -0.23283406      -0.46158238 </v>
   <v>       0.48581800       0.42811933       0.13186590 </v>
   <v>      -0.36949147       0.15430264      -0.33729170 </v>
   <v>      -0.29230476      -0.37901872       0.41348011 </v>
   <v>      -0.30471186      -0.14276521      -0.07441285 </v>
   <v>       0.18271130       0.43236295      -0.30170038 </v>
   <v>      -0.04469350      -0.43180869      -0.28713767 </v>
   <v>      -0.29273960       0.17504414      -0.09651367 </v>
   <v>       0.19716501      -0.34521772      -0.34468960 </v>
   <v>       0.33586115       0.19638487      -0.14530716 </v>
   <v>      -0.06500057      -0.43543514      -0.06843269 </v>
   <v>      -0.07224542      -0.28723453      -0.30369411 </v>
   <v>       0.39123526       0.44093054       0.39002214 </v>
   <v>       0.34865222       0.32253512       0.45741572 </v>
   <v>       0.16984436      -0.39159363      -0.09267734 </v>
   <v>       0.48120521      -0.35521629       0.36271368 </v>
   <v>       0.39791009       0.15286386      -0.39606891 </v>
   <v>      -0.49203852      -0.07641144      -0.40496020 </v>
   <v>      -0.06359247       0.41742480      -0.46176806 </v>
   <v>       0.41102369      -0.20924574       0.09053388 </v>
   <v>       0.27492485      -0.19045840      -0.04600514 </v>
   <v>      -0.45951919      -0.36262063       0.20297402 </v>
   <v>       0.31230031       0.29197073       0.06856366 </v>
   <v>      -0.32104107       0.42987030       0.32915697 </v>
   <v>      -0.46112244      -0.16520293       0.42130569 </v>
   <v>       0.40649302       0.19134925       0.06050329 </v>
   <v>       0.42431824      -0.12295118       0.48801275 </v>
   <v>      -0.24735637       0.17646107       0.49892434 </v>
   <v>       0.42221307      -0.01694596      -0.21853161 </v>
   <v>       0.10567122       0.43697319      -0.09149599 </v>
   <v>      -0.11209589       0.25460016       0.01912611 </v>
   <v>      -0.24827360      -0.18004213       0.10806198 </v>
   <v>      -0.08496536      -0.16979113      -0.39350866 </v>
   <v>      -0.16153613       0.35752432       0.38839133 </v>
   <v>      -0.17827791      -0.13215728       0.01492778 </v>
   <v>       0.44883665       0.04344039      -0.35174978 </v>
   <v>      -0.03244157       0.26082035      -0.39966416 </v>
   <v>       0.01820579      -0.25282386      -0.19998210 </v>
   <v>      -0.20472265       0.15402639       0.03025887 </v>
   <v>      -0.16940306       0.47352408       0.19630603 </v>
   <v>      -0.06136494      -0.22319937      -0.00091655 </v>
   <v>      -0.33917046       0.06871878      -0.45397109 </v>
   <v>       0.35490299       0.06698386      -0.12029811 </v>
   <v>       0.45680887       0.06266444      -0.03089557 </v>
   <v>      -0.40517172      -0.05907241       0.06326231 </v>
   <v>       0.10384392       0.46972944      -0.46209168 </v>
   <v>      -0.38646299       0.32697580       0.24171328 </v>
   <v>       0.01734686       0.27823894      -0.17872303 </v>
   <v>      -0.25409365      -0.03348249      -0.43057229 </v>
   <v>       0.06443660      -0.42873674      -0.36600417 </v>
   <v>       0.03441631      -0.31621022      -0.07183725 </v>
   <v>       0.16991108       0.26317310      -0.46222215 </v>
   <v>      -0.11231287       0.10880099      -0.27910495 </v>
   <v>      -0.25193654       0.02832029      -0.19265782 </v>
   <v>       0.14662529      -0.18463263      -0.38505644 </v>
   <v>      -0.16400789       0.22675062       0.41476301 </v>
   <v>       0.14230161       0.42928807       0.08230204 </v>
   <v>       0.23989787      -0.05887586      -0.31183518 </v>
   <v>      -0.00969990       0.19745093      -0.27687639 </v>
   <v>      -0.33351966      -0.27141502       0.28005463 </v>
   <v>       0.03815287      -0.32985433      -0.45526724 </v>
   <v>       0.44303471       0.20501804       0.19393871 </v>
   <v>       0.32708574       0.45943797       0.27570225 </v>
   <v>       0.12965307      -0.27416405       0.02925072 </v>
   <v>      -0.36751541      -0.08230713       0.37656591 </v>
   <v>      -0.24696463      -0.10302122       0.39140846 </v>
   <v>       0.18799493       0.28933701       0.12141782 </v>
   <v>      -0.29253979       0.09280767       0.10988072 </v>
   <v>       0.16820215      -0.46825657       0.35546046 </v>
   <v>      -0.41050508       0.05195351       0.43292887 </v>
   <v>       0.13976644       0.13615920      -0.30106447 </v>
   <v>      -0.07538792      -0.21773005       0.39728011 </v>
   <v>      -0.14027978      -0.32703296       0.24150215 </v>
   <v>      -0.15820561       0.00184349      -0.04531890 </v>
   <v>       0.22654255      -0.01244931      -0.11525959 </v>
   <v>      -0.01528802      -0.42325213       0.35656309 </v>
   <v>      -0.38843110       0.16480945       0.23501465 </v>
   <v>       0.22182510      -0.29632073       0.22143060 </v>
   <v>      -0.07153144      -0.42772068       0.24589724 </v>
   <v>      -0.39227154      -0.09442496       0.23558180 </v>
   <v>       0.00839775       0.14527447      -0.03867631 </v>
   <v>      -0.20075386       0.21293231       0.28906099 </v>
   <v>      -0.04652100       0.17255827       0.44259157 </v>
   <v>      -0.08136841      -0.00833951      -0.41650085 </v>
   <v>       0.18801155      -0.10627469       0.44734136 </v>
   <v>       0.38903514      -0.01985013       0.38803679 </v>
   <v>      -0.05685197       0.26291202       0.18402849 </v>
   <v>       0.14015789       0.18270819       0.06872587 </v>
   <v>       0.28250885       0.16036303       0.33882991 </v>
   <v>       0.10976770      -0.28316351       0.16501428 </v>
   <v>       0.04841545      -0.40311229       0.17029522 </v>
   <v>       0.15370965       0.01878179      -0.24313146 </v>
   <v>       0.03661611      -0.01441943      -0.19755678 </v>
   <v>       0.12352718      -0.05268447       0.04032951 </v>
   <v>       0.27964510      -0.12750188       0.26765024 </v>
   <v>       0.15410935       0.27554552       0.24473289 </v>
   <v>       0.12105182       0.07764724       0.49987530 </v>
   <v>      -0.03941038      -0.05268133       0.40209358 </v>
   <v>       0.02022991      -0.14827068       0.20013377 </v>
   <v>      -0.02658463       0.06405044       0.12462917 </v>
   <v>       0.11465202      -0.01023767       0.40149038 </v>
   <v>      -0.13358668       0.03442734       0.27948960 </v>
   <v>       0.07567781      -0.01329020       0.15109500 </v>
   <v>       0.16581722       0.05194202       0.27625814 </v>
  </varray>
 </structure>
 <varray name="primitive_index" >
  <v type="int" >        1 </v>
  <v type="int" >       56 </v>
  <v type="int" >       75 </v>
  <v type="int" >      123 </v>
  <v type="int" >       46 </v>
  <v type="int" >      101 </v>
  <v type="int" >       86 </v>
  <v type="int" >      112 </v>
  <v type="int" >      132 </v>
  <v type="int" >       47 </v>
  <v type="int" >       34 </v>
  <v type="int" >       76 </v>
  <v type="int" >       48 </v>
  <v type="int" >       78 </v>
  <v type="int" >       88 </v>
  <v type="int" >        8 </v>
  <v type="int" >       40 </v>
  <v type="int" >       16 </v>
  <v type="int" >      104 </v>
  <v type="int" >       12 </v>
  <v type="int" >      103 </v>
  <v type="int" >       31 </v>
  <v type="int" >       98 </v>
  <v type="int" >       13 </v>
  <v type="int" >      113 </v>
  <v type="int" >       97 </v>
  <v type="int" >       71 </v>
  <v type="int" >       53 </v>
  <v type="int" >       10 </v>
  <v type="int" >      125 </v>
  <v type="int" >       21 </v>
  <v type="int" >       57 </v>
  <v type="int" >       20 </v>
  <v type="int" >      130 </v>
  <v type="int" >      102 </v>
  <v type="int" >       69 </v>
  <v type="int" >      134 </v>
  <v type="int" >       95 </v>
  <v type="int" >       58 </v>
  <v type="int" >      120 </v>
  <v type="int" >      122 </v>
  <v type="int" >      109 </v>
  <v type="int" >       35 </v>
  <v type="int" >       52 </v>
  <v type="int" >      100 </v>
  <v type="int" >       61 </v>
  <v type="int" >       19 </v>
  <v type="int" >      127 </v>
  <v type="int" >       55 </v>
  <v type="int" >       15 </v>
  <v type="int" >      119 </v>
  <v type="int" >       25 </v>
  <v type="int" >      135 </v>
  <v type="int" >       94 </v>
  <v type="int" >        6 </v>
  <v type="int" >       84 </v>
  <v type="int" >       37 </v>
  <v type="int" >       44 </v>
  <v type="int" >       89 </v>
  <v type="int" >      107 </v>
  <v type="int" >        3 </v>
  <v type="int" >      129 </v>
  <v type="int" >       85 </v>
  <v type="int" >      105 </v>
  <v type="int" >       79 </v>
  <v type="int" >       41 </v>
  <v type="int" >       38 </v>
  <v type="int" >      106 </v>
  <v type="int" >      128 </v>
  <v type="int" >       28 </v>
  <v type="int" >       93 </v>
  <v type="int" >       81 </v>
  <v type="int" >       43 </v>
  <v type="int" >       42 </v>
  <v type="int" >       82 </v>
  <v type="int" >        5 </v>
  <v type="int" >       80 </v>
  <v type="int" >       87 </v>
  <v type="int" >      115 </v>
  <v type="int" >       72 </v>
  <v type="int" >       50 </v>
  <v type="int" >       51 </v>
  <v type="int" >       24 </v>
  <v type="int" >       66 </v>
  <v type="int" >       22 </v>
  <v type="int" >        2 </v>
  <v type="int" >       45 </v>
  <v type="int" >       65 </v>
  <v type="int" >       59 </v>
  <v type="int" >       36 </v>
  <v type="int" >        7 </v>
  <v type="int" >      110 </v>
  <v type="int" >       74 </v>
  <v type="int" >       60 </v>
  <v type="int" >      124 </v>
  <v type="int" >       29 </v>
  <v type="int" >       99 </v>
  <v type="int" >       39 </v>
  <v type="int" >       67 </v>
  <v type="int" >       23 </v>
  <v type="int" >       63 </v>
  <v type="int" >      133 </v>
  <v type="int" >       17 </v>
  <v type="int" >       92 </v>
  <v type="int" >      126 </v>
  <v type="int" >       96 </v>
  <v type="int" >       90 </v>
  <v type="int" >        4 </v>
  <v type="int" >       83 </v>
  <v type="int" >       33 </v>
  <v type="int" >      121 </v>
  <v type="int" >       27 </v>
  <v type="int" >      116 </v>
  <v type="int" >       62 </v>
  <v type="int" >        9 </v>
  <v type="int" >       91 </v>
  <v type="int" >       64 </v>
  <v type="int" >       26 </v>
  <v type="int" >      111 </v>
  <v type="int" >       11 </v>
  <v type="int" >       30 </v>
  <v type="int" >      131 </v>
  <v type="int" >       49 </v>
  <v type="int" >       77 </v>
  <v type="int" >      108 </v>
  <v type="int" >       18 </v>
  <v type="int" >      114 </v>
  <v type="int" >      118 </v>
  <v type="int" >       70 </v>
  <v type="int" >      117 </v>
  <v type="int" >       73 </v>
  <v type="int" >       54 </v>
  <v type="int" >       14 </v>
  <v type="int" >       32 </v>
  <v type="int" >       68 </v>
 </varray>
 <kpoints>
  <generation param="Gamma">
   <v type="int" name="divisions">       2        2        2 </v>
   <v name="usershift">      0.00000000       0.00000000       0.00000000 </v>
   <v name="genvec1">      0.50000000       0.00000000       0.00000000 </v>
   <v name="genvec2">      0.00000000       0.50000000       0.00000000 </v>
   <v name="genvec3">      0.00000000       0.00000000       0.50000000 </v>
   <v name="shift">      0.00000000       0.00000000       0.00000000 </v>
  </generation>
  <varray name="kpointlist" >
   <v>       0.00000000       0.00000000       0.00000000 </v>
   <v>       0.50000000       0.00000000       0.00000000 </v>
   <v>       0.00000000       0.50000000       0.00000000 </v>
   <v>       0.50000000       0.50000000       0.00000000 </v>
   <v>       0.00000000       0.00000000       0.50000000 </v>
   <v>       0.50000000       0.00000000       0.50000000 </v>
   <v>       0.00000000       0.50000000       0.50000000 </v>
   <v>       0.50000000       0.50000000       0.50000000 </v>
  </varray>
  <varray name="weights" >
   <v>       0.12500000 </v>
   <v>       0.12500000 </v>
   <v>       0.12500000 </v>
   <v>       0.12500000 </v>
   <v>       0.12500000 </v>
   <v>       0.12500000 </v>
   <v>       0.12500000 </v>
   <v>       0.12500000 </v>
  </varray>
 </kpoints>
 <parameters>
  <separator name="general" >
   <i type="string" name="SYSTEM">unknown system</i>
   <i type="logical" name="LCOMPAT"> F  </i>
  </separator>
  <separator name="electronic" >
   <i type="string" name="PREC">a</i>
   <i name="ENMAX">    600.00000000</i>
   <i name="ENAUG">    605.39200000</i>
   <i name="EDIFF">      0.00000100</i>
   <i type="int" name="IALGO">    38</i>
   <i type="int" name="IWAVPR">    10</i>
   <i type="int" name="NBANDS">   520</i>
   <i name="NELECT">    864.00000000</i>
   <i type="int" name="TURBO">     0</i>
   <i type="int" name="IRESTART">     0</i>
   <i type="int" name="NREBOOT">     0</i>
   <i type="int" name="NMIN">     0</i>
   <i name="EREF">      0.00000000</i>
   <separator name="electronic smearing" >
    <i type="int" name="ISMEAR">     0</i>
    <i name="SIGMA">      0.05000000</i>
    <i name="KSPACING">      0.30000000</i>
    <i type="logical" name="KGAMMA"> T  </i>
   </separator>
   <separator name="electronic projectors" >
    <i type="logical" name="LREAL"> T  </i>
    <v name="ROPT">     -0.00025000     -0.00025000     -0.00025000</v>
    <i type="int" name="LMAXPAW">  -100</i>
    <i type="int" name="LMAXMIX">     2</i>
    <i type="logical" name="NLSPLINE"> F  </i>
   </separator>
   <separator name="electronic startup" >
    <i type="int" name="ISTART">     0</i>
    <i type="int" name="ICHARG">     2</i>
    <i type="int" name="INIWAV">     1</i>
   </separator>
   <separator name="electronic spin" >
    <i type="int" name="ISPIN">     1</i>
    <i type="logical" name="LNONCOLLINEAR"> F  </i>
    <v name="MAGMOM">      1.00000000      1.00000000      1.00000000      1.00000000      1.00000000      1.00000000      1.00000000      1.00000000      1.00000000      1.00000000      1.00000000      1.00000000      1.00000000      1.00000000      1.00000000      1.00000000      1.00000000      1.00000000      1.00000000      1.00000000
      1.00000000      1.00000000      1.00000000      1.00000000      1.00000000      1.00000000      1.00000000      1.00000000      1.00000000      1.00000000      1.00000000      1.00000000      1.00000000      1.00000000      1.00000000      1.00000000      1.00000000      1.00000000      1.00000000      1.00000000
      1.00000000      1.00000000      1.00000000      1.00000000      1.00000000      1.00000000      1.00000000      1.00000000      1.00000000      1.00000000      1.00000000      1.00000000      1.00000000      1.00000000      1.00000000      1.00000000      1.00000000      1.00000000      1.00000000      1.00000000
      1.00000000      1.00000000      1.00000000      1.00000000      1.00000000      1.00000000      1.00000000      1.00000000      1.00000000      1.00000000      1.00000000      1.00000000      1.00000000      1.00000000      1.00000000      1.00000000      1.00000000      1.00000000      1.00000000      1.00000000
      1.00000000      1.00000000      1.00000000      1.00000000      1.00000000      1.00000000      1.00000000      1.00000000      1.00000000      1.00000000      1.00000000      1.00000000      1.00000000      1.00000000      1.00000000      1.00000000      1.00000000      1.00000000      1.00000000      1.00000000
      1.00000000      1.00000000      1.00000000      1.00000000      1.00000000      1.00000000      1.00000000      1.00000000      1.00000000      1.00000000      1.00000000      1.00000000      1.00000000      1.00000000      1.00000000      1.00000000      1.00000000      1.00000000      1.00000000      1.00000000
      1.00000000      1.00000000      1.00000000      1.00000000      1.00000000      1.00000000      1.00000000      1.00000000      1.00000000      1.00000000      1.00000000      1.00000000      1.00000000      1.00000000      1.00000000</v>
    <i name="NUPDOWN">     -1.00000000</i>
    <i type="logical" name="LSORBIT"> F  </i>
    <v name="SAXIS">      0.00000000      0.00000000      1.00000000</v>
    <i type="logical" name="LSPIRAL"> F  </i>
    <v name="QSPIRAL">      0.00000000      0.00000000      0.00000000</v>
    <i type="logical" name="LZEROZ"> F  </i>
   </separator>
   <separator name="electronic exchange-correlation" >
    <i type="logical" name="LASPH"> F  </i>
    <i type="logical" name="LMETAGGA"> F  </i>
   </separator>
   <separator name="electronic convergence" >
    <i type="int" name="NELM">    60</i>
    <i type="int" name="NELMDL">    -5</i>
    <i type="int" name="NELMIN">     2</i>
    <i name="ENINI">    600.00000000</i>
    <separator name="electronic convergence detail" >
     <i type="logical" name="LDIAG"> T  </i>
     <i type="logical" name="LSUBROT"> F  </i>
     <i name="WEIMIN">      0.00000000</i>
     <i name="EBREAK">      0.00000000</i>
     <i name="DEPER">      0.30000000</i>
     <i type="int" name="NRMM">     4</i>
     <i name="TIME">      0.40000000</i>
    </separator>
   </separator>
   <separator name="electronic mixer" >
    <i name="AMIX">      0.40000000</i>
    <i name="BMIX">      1.00000000</i>
    <i name="AMIN">      0.10000000</i>
    <i name="AMIX_MAG">      1.60000000</i>
    <i name="BMIX_MAG">      1.00000000</i>
    <separator name="electronic mixer details" >
     <i type="int" name="IMIX">     4</i>
     <i type="logical" name="MIXFIRST"> F  </i>
     <i type="int" name="MAXMIX">   -45</i>
     <i name="WC">    100.00000000</i>
     <i type="int" name="INIMIX">     1</i>
     <i type="int" name="MIXPRE">     1</i>
     <i type="int" name="MREMOVE">     5</i>
    </separator>
   </separator>
   <separator name="electronic dipolcorrection" >
    <i type="logical" name="LDIPOL"> F  </i>
    <i type="logical" name="LMONO"> F  </i>
    <i type="int" name="IDIPOL">     0</i>
    <i name="EPSILON">      1.00000000</i>
    <v name="DIPOL">   -100.00000000   -100.00000000   -100.00000000</v>
    <i name="EFIELD">      0.00000000</i>
   </separator>
  </separator>
  <separator name="grids" >
   <i type="int" name="NGX">    98</i>
   <i type="int" name="NGY">    98</i>
   <i type="int" name="NGZ">    98</i>
   <i type="int" name="NGXF">   196</i>
   <i type="int" name="NGYF">   196</i>
   <i type="int" name="NGZF">   196</i>
   <i type="logical" name="ADDGRID"> T  </i>
  </separator>
  <separator name="ionic" >
   <i type="int" name="NSW">     1</i>
   <i type="int" name="IBRION">    -1</i>
   <i type="int" name="MDALGO">     0</i>
   <i type="int" name="ISIF">     2</i>
   <i name="PSTRESS">      0.00000000</i>
   <i name="EDIFFG">     -0.01000000</i>
   <i type="int" name="NFREE">     0</i>
   <i name="POTIM">      1.00000000</i>
   <i name="SMASS">     -3.00000000</i>
   <i name="SCALEE">      1.00000000</i>
  </separator>
  <separator name="ionic md" >
   <i name="TEBEG">      0.00010000</i>
   <i name="TEEND">      0.00010000</i>
   <i type="int" name="NBLOCK">     1</i>
   <i type="int" name="KBLOCK">     1</i>
   <i type="int" name="NPACO">   256</i>
   <i name="APACO">     16.00000000</i>
  </separator>
  <separator name="symmetry" >
   <i type="int" name="ISYM">     0</i>
   <i name="SYMPREC">      0.00001000</i>
  </separator>
  <separator name="dos" >
   <i type="int" name="LORBIT">     0</i>
   <v name="RWIGS">     -1.00000000     -1.00000000     -1.00000000</v>
   <i type="int" name="NEDOS">   301</i>
   <i name="EMIN">     10.00000000</i>
   <i name="EMAX">    -10.00000000</i>
   <i name="EFERMI">      0.00000000</i>
  </separator>
  <separator name="writing" >
   <i type="int" name="NWRITE">     2</i>
   <i type="logical" name="LWAVE"> F  </i>
   <i type="logical" name="LDOWNSAMPLE"> F  </i>
   <i type="logical" name="LCHARG"> F  </i>
   <i type="logical" name="LPARD"> F  </i>
   <i type="logical" name="LVTOT"> F  </i>
   <i type="logical" name="LVHAR"> F  </i>
   <i type="logical" name="LELF"> F  </i>
   <i type="logical" name="LOPTICS"> F  </i>
   <v name="STM">      0.00000000      0.00000000      0.00000000      0.00000000      0.00000000      0.00000000      0.00000000</v>
  </separator>
  <separator name="performance" >
   <i type="int" name="NPAR">     4</i>
   <i type="int" name="NSIM">     4</i>
   <i type="int" name="NBLK">    -1</i>
   <i type="logical" name="LPLANE"> T  </i>
   <i type="logical" name="LSCALAPACK"> F  </i>
   <i type="logical" name="LSCAAWARE"> F  </i>
   <i type="logical" name="LSCALU"> F  </i>
   <i type="logical" name="LASYNC"> F  </i>
   <i type="logical" name="LORBITALREAL"> F  </i>
  </separator>
  <separator name="miscellaneous" >
   <i type="int" name="IDIOT">     3</i>
   <i type="int" name="ISPECIAL">     0</i>
   <i type="logical" name="LMUSIC"> F  </i>
   <v name="POMASS">     40.07800000     28.08500000     16.00000000</v>
   <v name="DARWINR">      0.00000000      0.00000000      0.00000000</v>
   <v name="DARWINV">      1.00000000      1.00000000      1.00000000</v>
   <i type="logical" name="LCORR"> T  </i>
  </separator>
  <i type="logical" name="GGA_COMPAT"> T  </i>
  <i type="logical" name="LBERRY"> F  </i>
  <i type="int" name="ICORELEVEL">     0</i>
  <i type="logical" name="LDAU"> F  </i>
  <i type="int" name="I_CONSTRAINED_M">     0</i>
  <separator name="electronic exchange-correlation" >
   <i type="string" name="GGA">--</i>
   <i type="int" name="VOSKOWN">     0</i>
   <i type="logical" name="LHFCALC"> F  </i>
   <i type="string" name="PRECFOCK"></i>
   <i type="logical" name="LSYMGRAD"> F  </i>
   <i type="logical" name="LHFONE"> F  </i>
   <i type="logical" name="LRHFCALC"> F  </i>
   <i type="logical" name="LTHOMAS"> F  </i>
   <i type="logical" name="LMODELHF"> F  </i>
   <i name="ENCUT4O">     -1.00000000</i>
   <i type="int" name="EXXOEP">     0</i>
   <i type="int" name="FOURORBIT">     0</i>
   <i name="AEXX">      0.00000000</i>
   <i name="HFALPHA">      0.00000000</i>
   <i name="MCALPHA">      0.00000000</i>
   <i name="ALDAX">      1.00000000</i>
   <i name="AGGAX">      1.00000000</i>
   <i name="ALDAC">      1.00000000</i>
   <i name="AGGAC">      1.00000000</i>
   <i type="int" name="NKREDX">     1</i>
   <i type="int" name="NKREDY">     1</i>
   <i type="int" name="NKREDZ">     1</i>
   <i type="logical" name="SHIFTRED"> F  </i>
   <i type="logical" name="ODDONLY"> F  </i>
   <i type="logical" name="EVENONLY"> F  </i>
   <i type="int" name="LMAXFOCK">     0</i>
   <i type="int" name="NMAXFOCKAE">     0</i>
   <i type="logical" name="LFOCKAEDFT"> F  </i>
   <i name="HFSCREEN">      0.00000000</i>
   <i name="HFSCREENC">      0.00000000</i>
   <i type="int" name="NBANDSGWLOW">     0</i>
  </separator>
  <separator name="vdW DFT" >
   <i type="logical" name="LUSE_VDW"> F  </i>
   <i name="Zab_VDW">     -0.84910000</i>
   <i name="PARAM1">      0.12340000</i>
   <i name="PARAM2">      1.00000000</i>
   <i name="PARAM3">      0.00000000</i>
  </separator>
  <separator name="model GW" >
   <i type="int" name="MODEL_GW">     0</i>
   <i name="MODEL_EPS0">      7.86148328</i>
   <i name="MODEL_ALPHA">      1.00000000</i>
  </separator>
  <separator name="linear response parameters" >
   <i type="logical" name="LEPSILON"> F  </i>
   <i type="logical" name="LRPA"> F  </i>
   <i type="logical" name="LNABLA"> F  </i>
   <i type="logical" name="LVEL"> F  </i>
   <i type="int" name="KINTER">     0</i>
   <i name="CSHIFT">      0.10000000</i>
   <i name="OMEGAMAX">     -1.00000000</i>
   <i name="DEG_THRESHOLD">      0.00200000</i>
   <i name="RTIME">     -0.10000000</i>
   <i name="WPLASMAI">      0.00000000</i>
   <v name="DFIELD">      0.00000000      0.00000000      0.00000000</v>
   <v name="WPLASMA">      0.00000000      0.00000000      0.00000000      0.00000000      0.00000000      0.00000000      0.00000000      0.00000000      0.00000000</v>
  </separator>
  <separator name="orbital magnetization" >
   <i type="logical" name="NUCIND"> F  </i>
   <v name="MAGPOS">      0.00000000      0.00000000      0.00000000</v>
   <i type="logical" name="LNICSALL"> T  </i>
   <i type="logical" name="ORBITALMAG"> F  </i>
   <i type="logical" name="LMAGBLOCH"> F  </i>
   <i type="logical" name="LCHIMAG"> F  </i>
   <i type="logical" name="LGAUGE"> T  </i>
   <i type="int" name="MAGATOM">     0</i>
   <v name="MAGDIPOL">      0.00000000      0.00000000      0.00000000</v>
   <v name="AVECCONST">      0.00000000      0.00000000      0.00000000</v>
  </separator>
  <separator name="response functions" >
   <i type="logical" name="LADDER"> F  </i>
   <i type="logical" name="LRPAFORCE"> F  </i>
   <i type="logical" name="LFXC"> F  </i>
   <i type="logical" name="LHARTREE"> T  </i>
   <i type="int" name="IBSE">     0</i>
   <v type="int" name="KPOINT">    -1     0     0     0</v>
   <i type="logical" name="LTCTE"> F  </i>
   <i type="logical" name="LTETE"> F  </i>
   <i type="logical" name="LTRIPLET"> F  </i>
   <i type="logical" name="LFXCEPS"> F  </i>
   <i type="logical" name="LFXHEG"> F  </i>
   <i type="int" name="NATURALO">     2</i>
   <i type="logical" name="L2ORDER"> F  </i>
   <i type="logical" name="LMP2LT"> F  </i>
   <i type="logical" name="LUSEW"> F  </i>
   <i name="ENCUTGW">     -2.00000000</i>
   <i name="ENCUTGWSOFT">     -2.00000000</i>
   <i name="ENCUTLF">     -1.00000000</i>
   <i type="int" name="LMAXMP2">    -1</i>
   <i name="SCISSOR">      0.00000000</i>
   <i type="int" name="NOMEGA">     0</i>
   <i type="int" name="NOMEGAR">     0</i>
   <i type="int" name="NBANDSGW">    -1</i>
   <i type="int" name="NBANDSO">    -1</i>
   <i type="int" name="NBANDSV">    -1</i>
   <i type="int" name="NELM">     1</i>
   <i type="int" name="NELMHF">     1</i>
   <i type="int" name="DIM">     3</i>
   <i type="int" name="ANTIRES">     0</i>
   <i name="OMEGAMAX">    -30.00000000</i>
   <i name="OMEGAMIN">    -30.00000000</i>
   <i name="OMEGATL">   -200.00000000</i>
   <i type="int" name="OMEGAGRID">   140</i>
   <i name="CSHIFT">     -0.10000000</i>
   <i type="logical" name="SELFENERGY"> F  </i>
   <i type="logical" name="LSPECTRAL"> F  </i>
   <i type="logical" name="LSPECTRALGW"> F  </i>
   <i type="logical" name="LSINGLES"> F  </i>
   <i type="logical" name="LFERMIGW"> F  </i>
   <i type="logical" name="ODDONLYGW"> F  </i>
   <i type="logical" name="EVENONLYGW"> F  </i>
   <i type="int" name="NKREDLFX">     1</i>
   <i type="int" name="NKREDLFY">     1</i>
   <i type="int" name="NKREDLFZ">     1</i>
   <i type="int" name="MAXMEM">  2800</i>
   <i type="int" name="TELESCOPE">     0</i>
   <i type="int" name="TAUPAR">     1</i>
   <i type="int" name="OMEGAPAR">    -1</i>
   <i name="LAMBDA">      1.00000000</i>
  </separator>
  <separator name="External order field" >
   <i name="OFIELD_KAPPA">      0.00000000</i>
   <v name="OFIELD_K">      0.00000000      0.00000000      0.00000000</v>
   <i name="OFIELD_Q6_NEAR">      0.00000000</i>
   <i name="OFIELD_Q6_FAR">      0.00000000</i>
   <i name="OFIELD_A">      0.00000000</i>
  </separator>
 </parameters>
 <atominfo>
  <atoms>     135 </atoms>
  <types>       3 </types>
  <array name="atoms" >
   <dimension dim="1">ion</dimension>
   <field type="string">element</field>
   <field type="int">atomtype</field>
   <set>
    <rc><c>Ca</c><c>   1</c></rc>
    <rc><c>Ca</c><c>   1</c></rc>
    <rc><c>Ca</c><c>   1</c></rc>
    <rc><c>Ca</c><c>   1</c></rc>
    <rc><c>Ca</c><c>   1</c></rc>
    <rc><c>Ca</c><c>   1</c></rc>
    <rc><c>Ca</c><c>   1</c></rc>
    <rc><c>Ca</c><c>   1</c></rc>
    <rc><c>Ca</c><c>   1</c></rc>
    <rc><c>Ca</c><c>   1</c></rc>
    <rc><c>Ca</c><c>   1</c></rc>
    <rc><c>Ca</c><c>   1</c></rc>
    <rc><c>Ca</c><c>   1</c></rc>
    <rc><c>Ca</c><c>   1</c></rc>
    <rc><c>Ca</c><c>   1</c></rc>
    <rc><c>Ca</c><c>   1</c></rc>
    <rc><c>Ca</c><c>   1</c></rc>
    <rc><c>Ca</c><c>   1</c></rc>
    <rc><c>Ca</c><c>   1</c></rc>
    <rc><c>Ca</c><c>   1</c></rc>
    <rc><c>Ca</c><c>   1</c></rc>
    <rc><c>Ca</c><c>   1</c></rc>
    <rc><c>Ca</c><c>   1</c></rc>
    <rc><c>Ca</c><c>   1</c></rc>
    <rc><c>Ca</c><c>   1</c></rc>
    <rc><c>Ca</c><c>   1</c></rc>
    <rc><c>Ca</c><c>   1</c></rc>
    <rc><c>Si</c><c>   2</c></rc>
    <rc><c>Si</c><c>   2</c></rc>
    <rc><c>Si</c><c>   2</c></rc>
    <rc><c>Si</c><c>   2</c></rc>
    <rc><c>Si</c><c>   2</c></rc>
    <rc><c>Si</c><c>   2</c></rc>
    <rc><c>Si</c><c>   2</c></rc>
    <rc><c>Si</c><c>   2</c></rc>
    <rc><c>Si</c><c>   2</c></rc>
    <rc><c>Si</c><c>   2</c></rc>
    <rc><c>Si</c><c>   2</c></rc>
    <rc><c>Si</c><c>   2</c></rc>
    <rc><c>Si</c><c>   2</c></rc>
    <rc><c>Si</c><c>   2</c></rc>
    <rc><c>Si</c><c>   2</c></rc>
    <rc><c>Si</c><c>   2</c></rc>
    <rc><c>Si</c><c>   2</c></rc>
    <rc><c>Si</c><c>   2</c></rc>
    <rc><c>Si</c><c>   2</c></rc>
    <rc><c>Si</c><c>   2</c></rc>
    <rc><c>Si</c><c>   2</c></rc>
    <rc><c>Si</c><c>   2</c></rc>
    <rc><c>Si</c><c>   2</c></rc>
    <rc><c>Si</c><c>   2</c></rc>
    <rc><c>Si</c><c>   2</c></rc>
    <rc><c>Si</c><c>   2</c></rc>
    <rc><c>Si</c><c>   2</c></rc>
    <rc><c>O </c><c>   3</c></rc>
    <rc><c>O </c><c>   3</c></rc>
    <rc><c>O </c><c>   3</c></rc>
    <rc><c>O </c><c>   3</c></rc>
    <rc><c>O </c><c>   3</c></rc>
    <rc><c>O </c><c>   3</c></rc>
    <rc><c>O </c><c>   3</c></rc>
    <rc><c>O </c><c>   3</c></rc>
    <rc><c>O </c><c>   3</c></rc>
    <rc><c>O </c><c>   3</c></rc>
    <rc><c>O </c><c>   3</c></rc>
    <rc><c>O </c><c>   3</c></rc>
    <rc><c>O </c><c>   3</c></rc>
    <rc><c>O </c><c>   3</c></rc>
    <rc><c>O </c><c>   3</c></rc>
    <rc><c>O </c><c>   3</c></rc>
    <rc><c>O </c><c>   3</c></rc>
    <rc><c>O </c><c>   3</c></rc>
    <rc><c>O </c><c>   3</c></rc>
    <rc><c>O </c><c>   3</c></rc>
    <rc><c>O </c><c>   3</c></rc>
    <rc><c>O </c><c>   3</c></rc>
    <rc><c>O </c><c>   3</c></rc>
    <rc><c>O </c><c>   3</c></rc>
    <rc><c>O </c><c>   3</c></rc>
    <rc><c>O </c><c>   3</c></rc>
    <rc><c>O </c><c>   3</c></rc>
    <rc><c>O </c><c>   3</c></rc>
    <rc><c>O </c><c>   3</c></rc>
    <rc><c>O </c><c>   3</c></rc>
    <rc><c>O </c><c>   3</c></rc>
    <rc><c>O </c><c>   3</c></rc>
    <rc><c>O </c><c>   3</c></rc>
    <rc><c>O </c><c>   3</c></rc>
    <rc><c>O </c><c>   3</c></rc>
    <rc><c>O </c><c>   3</c></rc>
    <rc><c>O </c><c>   3</c></rc>
    <rc><c>O </c><c>   3</c></rc>
    <rc><c>O </c><c>   3</c></rc>
    <rc><c>O </c><c>   3</c></rc>
    <rc><c>O </c><c>   3</c></rc>
    <rc><c>O </c><c>   3</c></rc>
    <rc><c>O </c><c>   3</c></rc>
    <rc><c>O </c><c>   3</c></rc>
    <rc><c>O </c><c>   3</c></rc>
    <rc><c>O </c><c>   3</c></rc>
    <rc><c>O </c><c>   3</c></rc>
    <rc><c>O </c><c>   3</c></rc>
    <rc><c>O </c><c>   3</c></rc>
    <rc><c>O </c><c>   3</c></rc>
    <rc><c>O </c><c>   3</c></rc>
    <rc><c>O </c><c>   3</c></rc>
    <rc><c>O </c><c>   3</c></rc>
    <rc><c>O </c><c>   3</c></rc>
    <rc><c>O </c><c>   3</c></rc>
    <rc><c>O </c><c>   3</c></rc>
    <rc><c>O </c><c>   3</c></rc>
    <rc><c>O </c><c>   3</c></rc>
    <rc><c>O </c><c>   3</c></rc>
    <rc><c>O </c><c>   3</c></rc>
    <rc><c>O </c><c>   3</c></rc>
    <rc><c>O </c><c>   3</c></rc>
    <rc><c>O </c><c>   3</c></rc>
    <rc><c>O </c><c>   3</c></rc>
    <rc><c>O </c><c>   3</c></rc>
    <rc><c>O </c><c>   3</c></rc>
    <rc><c>O </c><c>   3</c></rc>
    <rc><c>O </c><c>   3</c></rc>
    <rc><c>O </c><c>   3</c></rc>
    <rc><c>O </c><c>   3</c></rc>
    <rc><c>O </c><c>   3</c></rc>
    <rc><c>O </c><c>   3</c></rc>
    <rc><c>O </c><c>   3</c></rc>
    <rc><c>O </c><c>   3</c></rc>
    <rc><c>O </c><c>   3</c></rc>
    <rc><c>O </c><c>   3</c></rc>
    <rc><c>O </c><c>   3</c></rc>
    <rc><c>O </c><c>   3</c></rc>
    <rc><c>O </c><c>   3</c></rc>
    <rc><c>O </c><c>   3</c></rc>
    <rc><c>O </c><c>   3</c></rc>
   </set>
  </array>
  <array name="atomtypes" >
   <dimension dim="1">type</dimension>
   <field type="int">atomspertype</field>
   <field type="string">element</field>
   <field>mass</field>
   <field>valence</field>
   <field type="string">pseudopotential</field>
   <set>
    <rc><c>  27</c><c>Ca</c><c>     40.07800000</c><c>     10.00000000</c><c>  PAW_PBE Ca_sv 06Sep2000               </c></rc>
    <rc><c>  27</c><c>Si</c><c>     28.08500000</c><c>      4.00000000</c><c>  PAW_PBE Si 05Jan2001                  </c></rc>
    <rc><c>  81</c><c>O </c><c>     16.00000000</c><c>      6.00000000</c><c>  PAW_PBE O 08Apr2002                   </c></rc>
   </set>
  </array>
 </atominfo>
 <structure name="initialpos" >
  <crystal>
   <varray name="basis" >
    <v>      12.09378762       0.00000000       0.00000000 </v>
    <v>       0.00000000      12.09378762       0.00000000 </v>
    <v>       0.00000000       0.00000000      12.09378762 </v>
   </varray>
   <i name="volume">   1768.83373704 </i>
   <varray name="rec_basis" >
    <v>       0.08268708       0.00000000       0.00000000 </v>
    <v>       0.00000000       0.08268708       0.00000000 </v>
    <v>       0.00000000       0.00000000       0.08268708 </v>
   </varray>
  </crystal>
  <varray name="positions" >
   <v>       0.56407815       0.52169771       0.76548477 </v>
   <v>       0.14662529       0.81536737       0.61494356 </v>
   <v>       0.10567122       0.43697319       0.90850401 </v>
   <v>       0.61156890       0.16480945       0.23501465 </v>
   <v>       0.59482828       0.94092759       0.06326231 </v>
   <v>       0.67895893       0.42987030       0.32915697 </v>
   <v>       0.66648034       0.72858498       0.28005463 </v>
   <v>       0.84511811       0.47489724       0.80435170 </v>
   <v>       0.91863159       0.99166049       0.58349915 </v>
   <v>       0.76211166       0.26186551       0.63702594 </v>
   <v>       0.28250885       0.16036303       0.33882991 </v>
   <v>       0.49291462       0.29483732       0.57738784 </v>
   <v>       0.71508487       0.79611149       0.62500774 </v>
   <v>       0.86641332       0.03442734       0.27948960 </v>
   <v>       0.93640753       0.41742480       0.53823194 </v>
   <v>       0.45792285       0.78422842       0.68932652 </v>
   <v>       0.92461208       0.78226995       0.39728011 </v>
   <v>       0.27964510       0.87249812       0.26765024 </v>
   <v>       0.48120521       0.64478371       0.36271368 </v>
   <v>       0.48581800       0.42811933       0.13186590 </v>
   <v>       0.75331942       0.59706933       0.08780792 </v>
   <v>       0.74806346       0.02832029       0.80734218 </v>
   <v>       0.16820215       0.53174343       0.35546046 </v>
   <v>       0.16991108       0.26317310       0.53777785 </v>
   <v>       0.27492485       0.80954160       0.95399486 </v>
   <v>       0.94314803       0.26291202       0.18402849 </v>
   <v>       0.00839775       0.14527447       0.96132369 </v>
   <v>       0.79527735       0.15402639       0.03025887 </v>
   <v>       0.63248459       0.91769287       0.37656591 </v>
   <v>       0.10976770       0.71683649       0.16501428 </v>
   <v>       0.27748998       0.49466696       0.64182907 </v>
   <v>       0.07567781       0.98670980       0.15109500 </v>
   <v>       0.92846856       0.57227932       0.24589724 </v>
   <v>       0.70701851       0.56166748       0.53895222 </v>
   <v>       0.92775458       0.71276547       0.69630589 </v>
   <v>       0.99030010       0.19745093       0.72312361 </v>
   <v>       0.40649302       0.19134925       0.06050329 </v>
   <v>       0.44883665       0.04344039       0.64825022 </v>
   <v>       0.18799493       0.28933701       0.12141782 </v>
   <v>       0.29280464       0.60453535       0.82621306 </v>
   <v>       0.82172209       0.86784272       0.01492778 </v>
   <v>       0.35490299       0.06698386       0.87970189 </v>
   <v>       0.66082954       0.06871878       0.54602891 </v>
   <v>       0.42431824       0.87704882       0.48801275 </v>
   <v>       0.83599211       0.22675062       0.41476301 </v>
   <v>       0.67254613       0.72132385       0.85071197 </v>
   <v>       0.40274911       0.32399279       0.85380919 </v>
   <v>       0.68596610       0.30954247       0.89088186 </v>
   <v>       0.15370965       0.01878179       0.75686854 </v>
   <v>       0.06443660       0.57126326       0.63399583 </v>
   <v>       0.03441631       0.68378978       0.92816275 </v>
   <v>       0.39123526       0.44093054       0.39002214 </v>
   <v>       0.48799840       0.67321972       0.06946516 </v>
   <v>       0.11465202       0.98976233       0.40149038 </v>
   <v>       0.50796148       0.92358856       0.59503980 </v>
   <v>       0.67128610       0.58625894       0.85157097 </v>
   <v>       0.37992587       0.76716594       0.53841762 </v>
   <v>       0.70726040       0.17504414       0.90348633 </v>
   <v>       0.23989787       0.94112414       0.68816482 </v>
   <v>       0.32708574       0.45943797       0.27570225 </v>
   <v>       0.16984436       0.60840637       0.90732266 </v>
   <v>       0.95347900       0.17255827       0.44259157 </v>
   <v>       0.58949492       0.05195351       0.43292887 </v>
   <v>       0.38903514       0.98014987       0.38803679 </v>
   <v>       0.14230161       0.42928807       0.08230204 </v>
   <v>       0.88768713       0.10880099       0.72089505 </v>
   <v>       0.70746021       0.09280767       0.10988072 </v>
   <v>       0.16581722       0.05194202       0.27625814 </v>
   <v>       0.69528814       0.85723479       0.92558715 </v>
   <v>       0.96058962       0.94731867       0.40209358 </v>
   <v>       0.49128554       0.25389168       0.97315331 </v>
   <v>       0.74590635       0.96651751       0.56942771 </v>
   <v>       0.97341537       0.06405044       0.12462917 </v>
   <v>       0.44303471       0.20501804       0.19393871 </v>
   <v>       0.53734671       0.34189218       0.77508029 </v>
   <v>       0.60901034       0.78969670       0.76367006 </v>
   <v>       0.03661611       0.98558057       0.80244322 </v>
   <v>       0.59872180       0.68531419       0.99392351 </v>
   <v>       0.83846387       0.35752432       0.38839133 </v>
   <v>       0.10384392       0.46972944       0.53790832 </v>
   <v>       0.93863506       0.77680063       0.99908345 </v>
   <v>       0.45680887       0.06266444       0.96910443 </v>
   <v>       0.22182510       0.70367927       0.22143060 </v>
   <v>       0.53887756       0.83479707       0.42130569 </v>
   <v>       0.75172640       0.81995787       0.10806198 </v>
   <v>       0.34700395       0.44113665       0.87166251 </v>
   <v>       0.61353701       0.32697580       0.24171328 </v>
   <v>       0.36330192       0.71203274       0.84006144 </v>
   <v>       0.75264363       0.17646107       0.49892434 </v>
   <v>       0.98471198       0.57674787       0.35656309 </v>
   <v>       0.18801155       0.89372531       0.44734136 </v>
   <v>       0.85972022       0.67296704       0.24150215 </v>
   <v>       0.83059694       0.47352408       0.19630603 </v>
   <v>       0.31230031       0.29197073       0.06856366 </v>
   <v>       0.95530650       0.56819131       0.71286233 </v>
   <v>       0.22654255       0.98755069       0.88474041 </v>
   <v>       0.39111434       0.58577044       0.05753714 </v>
   <v>       0.80473259       0.73669765       0.77081160 </v>
   <v>       0.75303537       0.89697878       0.39140846 </v>
   <v>       0.34865222       0.32253512       0.45741572 </v>
   <v>       0.59837902       0.66004678       0.56673766 </v>
   <v>       0.70769524       0.62098128       0.41348011 </v>
   <v>       0.78265814       0.30985054       0.80607816 </v>
   <v>       0.79510866       0.62036603       0.60845059 </v>
   <v>       0.91503464       0.83020887       0.60649134 </v>
   <v>       0.96755843       0.26082035       0.60033584 </v>
   <v>       0.42221307       0.98305404       0.78146839 </v>
   <v>       0.12352718       0.94731553       0.04032951 </v>
   <v>       0.93499943       0.56456486       0.93156731 </v>
   <v>       0.03815287       0.67014567       0.54473276 </v>
   <v>       0.14015789       0.18270819       0.06872587 </v>
   <v>       0.69244440       0.42597615       0.55721041 </v>
   <v>       0.51182851       0.49492400       0.42560079 </v>
   <v>       0.15410935       0.27554552       0.24473289 </v>
   <v>       0.01734686       0.27823894       0.82127697 </v>
   <v>       0.79924614       0.21293231       0.28906099 </v>
   <v>       0.02022991       0.85172932       0.20013377 </v>
   <v>       0.12105182       0.07764724       0.49987530 </v>
   <v>       0.41102369       0.79075426       0.09053388 </v>
   <v>       0.19716501       0.65478228       0.65531040 </v>
   <v>       0.60772846       0.90557504       0.23558180 </v>
   <v>       0.33586115       0.19638487       0.85469284 </v>
   <v>       0.38522036       0.58425056       0.71272454 </v>
   <v>       0.12965307       0.72583595       0.02925072 </v>
   <v>       0.33020261       0.54132496       0.48523968 </v>
   <v>       0.84179439       0.00184349       0.95468110 </v>
   <v>       0.39791009       0.15286386       0.60393109 </v>
   <v>       0.01820579       0.74717614       0.80001790 </v>
   <v>       0.88790411       0.25460016       0.01912611 </v>
   <v>       0.63050853       0.15430264       0.66270830 </v>
   <v>       0.04841545       0.59688771       0.17029522 </v>
   <v>       0.64103190       0.39798510       0.98450549 </v>
   <v>       0.13976644       0.13615920       0.69893553 </v>
   <v>       0.18271130       0.43236295       0.69829962 </v>
   <v>       0.54048081       0.63737937       0.20297402 </v>
  </varray>
  <varray name="velocities" >
   <v>       0.00000000       0.00000000       0.00000000 </v>
   <v>       0.00000000       0.00000000       0.00000000 </v>
   <v>       0.00000000       0.00000000       0.00000000 </v>
   <v>       0.00000000       0.00000000       0.00000000 </v>
   <v>       0.00000000       0.00000000       0.00000000 </v>
   <v>       0.00000000       0.00000000       0.00000000 </v>
   <v>       0.00000000       0.00000000       0.00000000 </v>
   <v>       0.00000000       0.00000000       0.00000000 </v>
   <v>       0.00000000       0.00000000       0.00000000 </v>
   <v>       0.00000000       0.00000000       0.00000000 </v>
   <v>       0.00000000       0.00000000       0.00000000 </v>
   <v>       0.00000000       0.00000000       0.00000000 </v>
   <v>       0.00000000       0.00000000       0.00000000 </v>
   <v>       0.00000000       0.00000000       0.00000000 </v>
   <v>       0.00000000       0.00000000       0.00000000 </v>
   <v>       0.00000000       0.00000000       0.00000000 </v>
   <v>       0.00000000       0.00000000       0.00000000 </v>
   <v>       0.00000000       0.00000000       0.00000000 </v>
   <v>       0.00000000       0.00000000       0.00000000 </v>
   <v>       0.00000000       0.00000000       0.00000000 </v>
   <v>       0.00000000       0.00000000       0.00000000 </v>
   <v>       0.00000000       0.00000000       0.00000000 </v>
   <v>       0.00000000       0.00000000       0.00000000 </v>
   <v>       0.00000000       0.00000000       0.00000000 </v>
   <v>       0.00000000       0.00000000       0.00000000 </v>
   <v>       0.00000000       0.00000000       0.00000000 </v>
   <v>       0.00000000       0.00000000       0.00000000 </v>
   <v>       0.00000000       0.00000000       0.00000000 </v>
   <v>       0.00000000       0.00000000       0.00000000 </v>
   <v>       0.00000000       0.00000000       0.00000000 </v>
   <v>       0.00000000       0.00000000       0.00000000 </v>
   <v>       0.00000000       0.00000000       0.00000000 </v>
   <v>       0.00000000       0.00000000       0.00000000 </v>
   <v>       0.00000000       0.00000000       0.00000000 </v>
   <v>       0.00000000       0.00000000       0.00000000 </v>
   <v>       0.00000000       0.00000000       0.00000000 </v>
   <v>       0.00000000       0.00000000       0.00000000 </v>
   <v>       0.00000000       0.00000000       0.00000000 </v>
   <v>       0.00000000       0.00000000       0.00000000 </v>
   <v>       0.00000000       0.00000000       0.00000000 </v>
   <v>       0.00000000       0.00000000       0.00000000 </v>
   <v>       0.00000000       0.00000000       0.00000000 </v>
   <v>       0.00000000       0.00000000       0.00000000 </v>
   <v>       0.00000000       0.00000000       0.00000000 </v>
   <v>       0.00000000       0.00000000       0.00000000 </v>
   <v>       0.00000000       0.00000000       0.00000000 </v>
   <v>       0.00000000       0.00000000       0.00000000 </v>
   <v>       0.00000000       0.00000000       0.00000000 </v>
   <v>       0.00000000       0.00000000       0.00000000 </v>
   <v>       0.00000000       0.00000000       0.00000000 </v>
   <v>       0.00000000       0.00000000       0.00000000 </v>
   <v>       0.00000000       0.00000000       0.00000000 </v>
   <v>       0.00000000       0.00000000       0.00000000 </v>
   <v>       0.00000000       0.00000000       0.00000000 </v>
   <v>       0.00000000       0.00000000       0.00000000 </v>
   <v>       0.00000000       0.00000000       0.00000000 </v>
   <v>       0.00000000       0.00000000       0.00000000 </v>
   <v>       0.00000000       0.00000000       0.00000000 </v>
   <v>       0.00000000       0.00000000       0.00000000 </v>
   <v>       0.00000000       0.00000000       0.00000000 </v>
   <v>       0.00000000       0.00000000       0.00000000 </v>
   <v>       0.00000000       0.00000000       0.00000000 </v>
   <v>       0.00000000       0.00000000       0.00000000 </v>
   <v>       0.00000000       0.00000000       0.00000000 </v>
   <v>       0.00000000       0.00000000       0.00000000 </v>
   <v>       0.00000000       0.00000000       0.00000000 </v>
   <v>       0.00000000       0.00000000       0.00000000 </v>
   <v>       0.00000000       0.00000000       0.00000000 </v>
   <v>       0.00000000       0.00000000       0.00000000 </v>
   <v>       0.00000000       0.00000000       0.00000000 </v>
   <v>       0.00000000       0.00000000       0.00000000 </v>
   <v>       0.00000000       0.00000000       0.00000000 </v>
   <v>       0.00000000       0.00000000       0.00000000 </v>
   <v>       0.00000000       0.00000000       0.00000000 </v>
   <v>       0.00000000       0.00000000       0.00000000 </v>
   <v>       0.00000000       0.00000000       0.00000000 </v>
   <v>       0.00000000       0.00000000       0.00000000 </v>
   <v>       0.00000000       0.00000000       0.00000000 </v>
   <v>       0.00000000       0.00000000       0.00000000 </v>
   <v>       0.00000000       0.00000000       0.00000000 </v>
   <v>       0.00000000       0.00000000       0.00000000 </v>
   <v>       0.00000000       0.00000000       0.00000000 </v>
   <v>       0.00000000       0.00000000       0.00000000 </v>
   <v>       0.00000000       0.00000000       0.00000000 </v>
   <v>       0.00000000       0.00000000       0.00000000 </v>
   <v>       0.00000000       0.00000000       0.00000000 </v>
   <v>       0.00000000       0.00000000       0.00000000 </v>
   <v>       0.00000000       0.00000000       0.00000000 </v>
   <v>       0.00000000       0.00000000       0.00000000 </v>
   <v>       0.00000000       0.00000000       0.00000000 </v>
   <v>       0.00000000       0.00000000       0.00000000 </v>
   <v>       0.00000000       0.00000000       0.00000000 </v>
   <v>       0.00000000       0.00000000       0.00000000 </v>
   <v>       0.00000000       0.00000000       0.00000000 </v>
   <v>       0.00000000       0.00000000       0.00000000 </v>
   <v>       0.00000000       0.00000000       0.00000000 </v>
   <v>       0.00000000       0.00000000       0.00000000 </v>
   <v>       0.00000000       0.00000000       0.00000000 </v>
   <v>       0.00000000       0.00000000       0.00000000 </v>
   <v>       0.00000000       0.00000000       0.00000000 </v>
   <v>       0.00000000       0.00000000       0.00000000 </v>
   <v>       0.00000000       0.00000000       0.00000000 </v>
   <v>       0.00000000       0.00000000       0.00000000 </v>
   <v>       0.00000000       0.00000000       0.00000000 </v>
   <v>       0.00000000       0.00000000       0.00000000 </v>
   <v>       0.00000000       0.00000000       0.00000000 </v>
   <v>       0.00000000       0.00000000       0.00000000 </v>
   <v>       0.00000000       0.00000000       0.00000000 </v>
   <v>       0.00000000       0.00000000       0.00000000 </v>
   <v>       0.00000000       0.00000000       0.00000000 </v>
   <v>       0.00000000       0.00000000       0.00000000 </v>
   <v>       0.00000000       0.00000000       0.00000000 </v>
   <v>       0.00000000       0.00000000       0.00000000 </v>
   <v>       0.00000000       0.00000000       0.00000000 </v>
   <v>       0.00000000       0.00000000       0.00000000 </v>
   <v>       0.00000000       0.00000000       0.00000000 </v>
   <v>       0.00000000       0.00000000       0.00000000 </v>
   <v>       0.00000000       0.00000000       0.00000000 </v>
   <v>       0.00000000       0.00000000       0.00000000 </v>
   <v>       0.00000000       0.00000000       0.00000000 </v>
   <v>       0.00000000       0.00000000       0.00000000 </v>
   <v>       0.00000000       0.00000000       0.00000000 </v>
   <v>       0.00000000       0.00000000       0.00000000 </v>
   <v>       0.00000000       0.00000000       0.00000000 </v>
   <v>       0.00000000       0.00000000       0.00000000 </v>
   <v>       0.00000000       0.00000000       0.00000000 </v>
   <v>       0.00000000       0.00000000       0.00000000 </v>
   <v>       0.00000000       0.00000000       0.00000000 </v>
   <v>       0.00000000       0.00000000       0.00000000 </v>
   <v>       0.00000000       0.00000000       0.00000000 </v>
   <v>       0.00000000       0.00000000       0.00000000 </v>
   <v>       0.00000000       0.00000000       0.00000000 </v>
   <v>       0.00000000       0.00000000       0.00000000 </v>
   <v>       0.00000000       0.00000000       0.00000000 </v>
   <v>       0.00000000       0.00000000       0.00000000 </v>
  </varray>
 </structure>
 <calculation>
  <scstep>
   <time name="dav">   35.78   35.78</time>
   <time name="total">   36.29   36.30</time>
   <energy>
    <i name="alphaZ">   2701.53174423 </i>
    <i name="ewald"> -45293.51455269 </i>
    <i name="hartreedc"> -18171.24988591 </i>
    <i name="XCdc">   3166.56497657 </i>
    <i name="pawpsdc">  50594.51003143 </i>
    <i name="pawaedc"> -49994.65612350 </i>
    <i name="eentropy">     -0.04269400 </i>
    <i name="bandstr">   1561.10555665 </i>
    <i name="atom">  64968.54023382 </i>
    <i name="e_fr_energy">   9532.78928662 </i>
    <i name="e_wo_entrp">   9532.83198062 </i>
    <i name="e_0_energy">   9532.81063362 </i>
   </energy>
  </scstep>
  <scstep>
   <time name="dav">   40.83   40.86</time>
   <time name="total">   40.83   40.86</time>
   <energy>
    <i name="e_fr_energy">     31.34128381 </i>
    <i name="e_wo_entrp">     31.34128381 </i>
    <i name="e_0_energy">     31.34128381 </i>
   </energy>
  </scstep>
  <scstep>
   <time name="dav">   42.37   42.37</time>
   <time name="total">   42.37   42.37</time>
   <energy>
    <i name="e_fr_energy">  -1003.27066493 </i>
    <i name="e_wo_entrp">  -1003.27066493 </i>
    <i name="e_0_energy">  -1003.27066493 </i>
   </energy>
  </scstep>
  <scstep>
   <time name="dav">   45.87   45.89</time>
   <time name="total">   45.87   45.89</time>
   <energy>
    <i name="e_fr_energy">  -1054.88251860 </i>
    <i name="e_wo_entrp">  -1054.88251860 </i>
    <i name="e_0_energy">  -1054.88251860 </i>
   </energy>
  </scstep>
  <scstep>
   <time name="dav">   55.41   55.41</time>
   <time name="total">   56.82   56.83</time>
   <energy>
    <i name="e_fr_energy">  -1060.37593072 </i>
    <i name="e_wo_entrp">  -1060.37593072 </i>
    <i name="e_0_energy">  -1060.37593072 </i>
   </energy>
  </scstep>
  <scstep>
   <time name="dav">   40.66   40.66</time>
   <time name="total">   42.55   42.57</time>
   <energy>
    <i name="e_fr_energy">   -908.71805606 </i>
    <i name="e_wo_entrp">   -908.71805606 </i>
    <i name="e_0_energy">   -908.71805606 </i>
   </energy>
  </scstep>
  <scstep>
   <time name="dav">   43.24   43.25</time>
   <time name="total">   45.09   45.10</time>
   <energy>
    <i name="e_fr_energy">   -910.26271005 </i>
    <i name="e_wo_entrp">   -910.26270994 </i>
    <i name="e_0_energy">   -910.26271000 </i>
   </energy>
  </scstep>
  <scstep>
   <time name="dav">   44.56   44.56</time>
   <time name="total">   46.47   46.49</time>
   <energy>
    <i name="e_fr_energy">   -908.76353014 </i>
    <i name="e_wo_entrp">   -908.76340946 </i>
    <i name="e_0_energy">   -908.76346980 </i>
   </energy>
  </scstep>
  <scstep>
   <time name="dav">   44.14   44.14</time>
   <time name="total">   46.02   46.02</time>
   <energy>
    <i name="e_fr_energy">   -908.72679581 </i>
    <i name="e_wo_entrp">   -908.72355521 </i>
    <i name="e_0_energy">   -908.72517551 </i>
   </energy>
  </scstep>
  <scstep>
   <time name="dav">   43.67   43.67</time>
   <time name="total">   45.55   45.57</time>
   <energy>
    <i name="e_fr_energy">   -908.52867865 </i>
    <i name="e_wo_entrp">   -908.52198821 </i>
    <i name="e_0_energy">   -908.52533343 </i>
   </energy>
  </scstep>
  <scstep>
   <time name="dav">   42.07   42.07</time>
   <time name="total">   44.04   44.04</time>
   <energy>
    <i name="e_fr_energy">   -908.53728436 </i>
    <i name="e_wo_entrp">   -908.53644940 </i>
    <i name="e_0_energy">   -908.53686688 </i>
   </energy>
  </scstep>
  <scstep>
   <time name="dav">   44.59   44.59</time>
   <time name="total">   46.47   46.50</time>
   <energy>
    <i name="e_fr_energy">   -908.54272238 </i>
    <i name="e_wo_entrp">   -908.53423413 </i>
    <i name="e_0_energy">   -908.53847825 </i>
   </energy>
  </scstep>
  <scstep>
   <time name="dav">   45.28   45.28</time>
   <time name="total">   47.16   47.17</time>
   <energy>
    <i name="e_fr_energy">   -908.53780270 </i>
    <i name="e_wo_entrp">   -908.53356255 </i>
    <i name="e_0_energy">   -908.53568262 </i>
   </energy>
  </scstep>
  <scstep>
   <time name="dav">   42.09   42.09</time>
   <time name="total">   43.98   44.01</time>
   <energy>
    <i name="e_fr_energy">   -908.52904386 </i>
    <i name="e_wo_entrp">   -908.52214471 </i>
    <i name="e_0_energy">   -908.52559428 </i>
   </energy>
  </scstep>
  <scstep>
   <time name="dav">   44.52   44.52</time>
   <time name="total">   46.44   46.44</time>
   <energy>
    <i name="e_fr_energy">   -908.52043344 </i>
    <i name="e_wo_entrp">   -908.50942646 </i>
    <i name="e_0_energy">   -908.51492995 </i>
   </energy>
  </scstep>
  <scstep>
   <time name="dav">   45.41   45.41</time>
   <time name="total">   47.30   47.33</time>
   <energy>
    <i name="e_fr_energy">   -908.51910768 </i>
    <i name="e_wo_entrp">   -908.50353170 </i>
    <i name="e_0_energy">   -908.51131969 </i>
   </energy>
  </scstep>
  <scstep>
   <time name="dav">   45.81   45.81</time>
   <time name="total">   47.72   47.73</time>
   <energy>
    <i name="e_fr_energy">   -908.51915639 </i>
    <i name="e_wo_entrp">   -908.50258025 </i>
    <i name="e_0_energy">   -908.51086832 </i>
   </energy>
  </scstep>
  <scstep>
   <time name="dav">   43.72   43.72</time>
   <time name="total">   45.66   45.68</time>
   <energy>
    <i name="e_fr_energy">   -908.51909281 </i>
    <i name="e_wo_entrp">   -908.50370566 </i>
    <i name="e_0_energy">   -908.51139924 </i>
   </energy>
  </scstep>
  <scstep>
   <time name="dav">   40.35   40.35</time>
   <time name="total">   42.28   42.28</time>
   <energy>
    <i name="e_fr_energy">   -908.51908496 </i>
    <i name="e_wo_entrp">   -908.50377925 </i>
    <i name="e_0_energy">   -908.51143211 </i>
   </energy>
  </scstep>
  <scstep>
   <time name="dav">   45.29   45.29</time>
   <time name="total">   47.20   47.22</time>
   <energy>
    <i name="e_fr_energy">   -908.51909620 </i>
    <i name="e_wo_entrp">   -908.50397773 </i>
    <i name="e_0_energy">   -908.51153697 </i>
   </energy>
  </scstep>
  <scstep>
   <time name="dav">   42.21   42.21</time>
   <time name="total">   44.06   44.06</time>
   <energy>
    <i name="e_fr_energy">   -908.51909686 </i>
    <i name="e_wo_entrp">   -908.50386018 </i>
    <i name="e_0_energy">   -908.51147852 </i>
   </energy>
  </scstep>
  <scstep>
   <time name="dav">   38.55   38.55</time>
   <time name="total">   39.04   39.06</time>
   <energy>
    <i name="alphaZ">   2701.53174423 </i>
    <i name="ewald"> -45293.51455269 </i>
    <i name="hartreedc"> -19747.07721711 </i>
    <i name="XCdc">   3265.60830435 </i>
    <i name="pawpsdc">  89315.04583173 </i>
    <i name="pawaedc"> -88970.53863947 </i>
    <i name="eentropy">     -0.01526594 </i>
    <i name="bandstr">  -7148.09953650 </i>
    <i name="atom">  64968.54023382 </i>
    <i name="e_fr_energy">   -908.51909756 </i>
    <i name="e_wo_entrp">   -908.50383162 </i>
    <i name="e_0_energy">   -908.51146459 </i>
   </energy>
  </scstep>
  <structure>
   <crystal>
    <varray name="basis" >
     <v>      12.09378762       0.00000000       0.00000000 </v>
     <v>       0.00000000      12.09378762       0.00000000 </v>
     <v>       0.00000000       0.00000000      12.09378762 </v>
    </varray>
    <i name="volume">   1768.83373704 </i>
    <varray name="rec_basis" >
     <v>       0.08268708       0.00000000       0.00000000 </v>
     <v>       0.00000000       0.08268708       0.00000000 </v>
     <v>       0.00000000       0.00000000       0.08268708 </v>
    </varray>
   </crystal>
   <varray name="positions" >
    <v>       0.56407815       0.52169771       0.76548477 </v>
    <v>       0.14662529       0.81536737       0.61494356 </v>
    <v>       0.10567122       0.43697319       0.90850401 </v>
    <v>       0.61156890       0.16480945       0.23501465 </v>
    <v>       0.59482828       0.94092759       0.06326231 </v>
    <v>       0.67895893       0.42987030       0.32915697 </v>
    <v>       0.66648034       0.72858498       0.28005463 </v>
    <v>       0.84511811       0.47489724       0.80435170 </v>
    <v>       0.91863159       0.99166049       0.58349915 </v>
    <v>       0.76211166       0.26186551       0.63702594 </v>
    <v>       0.28250885       0.16036303       0.33882991 </v>
    <v>       0.49291462       0.29483732       0.57738784 </v>
    <v>       0.71508487       0.79611149       0.62500774 </v>
    <v>       0.86641332       0.03442734       0.27948960 </v>
    <v>       0.93640753       0.41742480       0.53823194 </v>
    <v>       0.45792285       0.78422842       0.68932652 </v>
    <v>       0.92461208       0.78226995       0.39728011 </v>
    <v>       0.27964510       0.87249812       0.26765024 </v>
    <v>       0.48120521       0.64478371       0.36271368 </v>
    <v>       0.48581800       0.42811933       0.13186590 </v>
    <v>       0.75331942       0.59706933       0.08780792 </v>
    <v>       0.74806346       0.02832029       0.80734218 </v>
    <v>       0.16820215       0.53174343       0.35546046 </v>
    <v>       0.16991108       0.26317310       0.53777785 </v>
    <v>       0.27492485       0.80954160       0.95399486 </v>
    <v>       0.94314803       0.26291202       0.18402849 </v>
    <v>       0.00839775       0.14527447       0.96132369 </v>
    <v>       0.79527735       0.15402639       0.03025887 </v>
    <v>       0.63248459       0.91769287       0.37656591 </v>
    <v>       0.10976770       0.71683649       0.16501428 </v>
    <v>       0.27748998       0.49466696       0.64182907 </v>
    <v>       0.07567781       0.98670980       0.15109500 </v>
    <v>       0.92846856       0.57227932       0.24589724 </v>
    <v>       0.70701851       0.56166748       0.53895222 </v>
    <v>       0.92775458       0.71276547       0.69630589 </v>
    <v>       0.99030010       0.19745093       0.72312361 </v>
    <v>       0.40649302       0.19134925       0.06050329 </v>
    <v>       0.44883665       0.04344039       0.64825022 </v>
    <v>       0.18799493       0.28933701       0.12141782 </v>
    <v>       0.29280464       0.60453535       0.82621306 </v>
    <v>       0.82172209       0.86784272       0.01492778 </v>
    <v>       0.35490299       0.06698386       0.87970189 </v>
    <v>       0.66082954       0.06871878       0.54602891 </v>
    <v>       0.42431824       0.87704882       0.48801275 </v>
    <v>       0.83599211       0.22675062       0.41476301 </v>
    <v>       0.67254613       0.72132385       0.85071197 </v>
    <v>       0.40274911       0.32399279       0.85380919 </v>
    <v>       0.68596610       0.30954247       0.89088186 </v>
    <v>       0.15370965       0.01878179       0.75686854 </v>
    <v>       0.06443660       0.57126326       0.63399583 </v>
    <v>       0.03441631       0.68378978       0.92816275 </v>
    <v>       0.39123526       0.44093054       0.39002214 </v>
    <v>       0.48799840       0.67321972       0.06946516 </v>
    <v>       0.11465202       0.98976233       0.40149038 </v>
    <v>       0.50796148       0.92358856       0.59503980 </v>
    <v>       0.67128610       0.58625894       0.85157097 </v>
    <v>       0.37992587       0.76716594       0.53841762 </v>
    <v>       0.70726040       0.17504414       0.90348633 </v>
    <v>       0.23989787       0.94112414       0.68816482 </v>
    <v>       0.32708574       0.45943797       0.27570225 </v>
    <v>       0.16984436       0.60840637       0.90732266 </v>
    <v>       0.95347900       0.17255827       0.44259157 </v>
    <v>       0.58949492       0.05195351       0.43292887 </v>
    <v>       0.38903514       0.98014987       0.38803679 </v>
    <v>       0.14230161       0.42928807       0.08230204 </v>
    <v>       0.88768713       0.10880099       0.72089505 </v>
    <v>       0.70746021       0.09280767       0.10988072 </v>
    <v>       0.16581722       0.05194202       0.27625814 </v>
    <v>       0.69528814       0.85723479       0.92558715 </v>
    <v>       0.96058962       0.94731867       0.40209358 </v>
    <v>       0.49128554       0.25389168       0.97315331 </v>
    <v>       0.74590635       0.96651751       0.56942771 </v>
    <v>       0.97341537       0.06405044       0.12462917 </v>
    <v>       0.44303471       0.20501804       0.19393871 </v>
    <v>       0.53734671       0.34189218       0.77508029 </v>
    <v>       0.60901034       0.78969670       0.76367006 </v>
    <v>       0.03661611       0.98558057       0.80244322 </v>
    <v>       0.59872180       0.68531419       0.99392351 </v>
    <v>       0.83846387       0.35752432       0.38839133 </v>
    <v>       0.10384392       0.46972944       0.53790832 </v>
    <v>       0.93863506       0.77680063       0.99908345 </v>
    <v>       0.45680887       0.06266444       0.96910443 </v>
    <v>       0.22182510       0.70367927       0.22143060 </v>
    <v>       0.53887756       0.83479707       0.42130569 </v>
    <v>       0.75172640       0.81995787       0.10806198 </v>
    <v>       0.34700395       0.44113665       0.87166251 </v>
    <v>       0.61353701       0.32697580       0.24171328 </v>
    <v>       0.36330192       0.71203274       0.84006144 </v>
    <v>       0.75264363       0.17646107       0.49892434 </v>
    <v>       0.98471198       0.57674787       0.35656309 </v>
    <v>       0.18801155       0.89372531       0.44734136 </v>
    <v>       0.85972022       0.67296704       0.24150215 </v>
    <v>       0.83059694       0.47352408       0.19630603 </v>
    <v>       0.31230031       0.29197073       0.06856366 </v>
    <v>       0.95530650       0.56819131       0.71286233 </v>
    <v>       0.22654255       0.98755069       0.88474041 </v>
    <v>       0.39111434       0.58577044       0.05753714 </v>
    <v>       0.80473259       0.73669765       0.77081160 </v>
    <v>       0.75303537       0.89697878       0.39140846 </v>
    <v>       0.34865222       0.32253512       0.45741572 </v>
    <v>       0.59837902       0.66004678       0.56673766 </v>
    <v>       0.70769524       0.62098128       0.41348011 </v>
    <v>       0.78265814       0.30985054       0.80607816 </v>
    <v>       0.79510866       0.62036603       0.60845059 </v>
    <v>       0.91503464       0.83020887       0.60649134 </v>
    <v>       0.96755843       0.26082035       0.60033584 </v>
    <v>       0.42221307       0.98305404       0.78146839 </v>
    <v>       0.12352718       0.94731553       0.04032951 </v>
    <v>       0.93499943       0.56456486       0.93156731 </v>
    <v>       0.03815287       0.67014567       0.54473276 </v>
    <v>       0.14015789       0.18270819       0.06872587 </v>
    <v>       0.69244440       0.42597615       0.55721041 </v>
    <v>       0.51182851       0.49492400       0.42560079 </v>
    <v>       0.15410935       0.27554552       0.24473289 </v>
    <v>       0.01734686       0.27823894       0.82127697 </v>
    <v>       0.79924614       0.21293231       0.28906099 </v>
    <v>       0.02022991       0.85172932       0.20013377 </v>
    <v>       0.12105182       0.07764724       0.49987530 </v>
    <v>       0.41102369       0.79075426       0.09053388 </v>
    <v>       0.19716501       0.65478228       0.65531040 </v>
    <v>       0.60772846       0.90557504       0.23558180 </v>
    <v>       0.33586115       0.19638487       0.85469284 </v>
    <v>       0.38522036       0.58425056       0.71272454 </v>
    <v>       0.12965307       0.72583595       0.02925072 </v>
    <v>       0.33020261       0.54132496       0.48523968 </v>
    <v>       0.84179439       0.00184349       0.95468110 </v>
    <v>       0.39791009       0.15286386       0.60393109 </v>
    <v>       0.01820579       0.74717614       0.80001790 </v>
    <v>       0.88790411       0.25460016       0.01912611 </v>
    <v>       0.63050853       0.15430264       0.66270830 </v>
    <v>       0.04841545       0.59688771       0.17029522 </v>
    <v>       0.64103190       0.39798510       0.98450549 </v>
    <v>       0.13976644       0.13615920       0.69893553 </v>
    <v>       0.18271130       0.43236295       0.69829962 </v>
    <v>       0.54048081       0.63737937       0.20297402 </v>
   </varray>
  </structure>
  <varray name="forces" >
   <v>      -4.13249739      -1.36551911      -3.39806658 </v>
   <v>      -0.46702327       0.34306815      -1.15230846 </v>
   <v>      -0.25129263      -0.89684556       0.78179328 </v>
   <v>       0.09541181      -0.95881409       2.04126982 </v>
   <v>      -0.73622621      -1.35583493      -0.20990845 </v>
   <v>       3.65571227       3.98145637       3.21068873 </v>
   <v>       3.91400145       1.39395441      -1.21814264 </v>
   <v>      -0.87044310       1.67607020       1.93614533 </v>
   <v>       2.29186410       3.02165491      -1.09539206 </v>
   <v>       1.54530439       2.75433878       2.49156315 </v>
   <v>       1.90304853       1.19755138      -0.28182732 </v>
   <v>       1.06315963       1.48548283      -0.06390349 </v>
   <v>       0.36080746      -0.93787761      -1.95146608 </v>
   <v>      -0.76737861      -1.10267580       0.17754128 </v>
   <v>      -1.83691168       1.37866165      -2.82743821 </v>
   <v>      -2.00877062      -2.70958869       2.73380099 </v>
   <v>      -0.21569330      -2.86428530      -0.05634524 </v>
   <v>       0.72097010      -0.16421086      -0.30068277 </v>
   <v>      -1.91640639       1.98203023       2.87773702 </v>
   <v>      -0.93521292      -0.47966131      -0.53359817 </v>
   <v>       0.99352312       0.17120399      -1.46586511 </v>
   <v>      -0.37583223      -1.34787874      -0.86707907 </v>
   <v>      -0.70521002       0.68438950      -0.73168778 </v>
   <v>      -1.47122350      -1.00978161       1.22029383 </v>
   <v>      -0.62841793       1.48673449       1.94889262 </v>
   <v>       1.81415220       2.41032603       2.63321395 </v>
   <v>       3.10255901      -3.07030268      -2.48999704 </v>
   <v>      -2.50338269      -2.41530666      -3.44125603 </v>
   <v>      -5.32288764       3.83517138      -4.53411041 </v>
   <v>      -4.23077060       0.76987925      -3.06934952 </v>
   <v>       3.71519752       7.00070362      -4.52987185 </v>
   <v>       0.32999089      -2.49800633       0.59099333 </v>
   <v>       0.53848267      -5.63409003      -4.14654843 </v>
   <v>      -5.04706702       2.81372938      -2.43274146 </v>
   <v>      -3.08039690       2.97413024       0.69279574 </v>
   <v>       1.78230517      -0.81686263      -2.79124668 </v>
   <v>       2.11929260       1.86028949       1.10048346 </v>
   <v>      -0.87000038      -3.00694719       3.93039298 </v>
   <v>      -1.21485148       5.97625214      -1.70948432 </v>
   <v>      -1.00201748      -0.91501833       0.23808096 </v>
   <v>       3.05416524      -1.59482384      -5.17236994 </v>
   <v>      -1.48982512      -4.12093571      -1.51839818 </v>
   <v>       3.50014586       1.73954564       0.54523318 </v>
   <v>       0.03976527       3.08270334      -4.60235312 </v>
   <v>       4.24302861       1.96752871      -3.18298520 </v>
   <v>       3.42289621       1.74676730       3.52938737 </v>
   <v>       4.47366367      -2.66540746       2.31421056 </v>
   <v>      -3.88676818       0.57006346       2.77514054 </v>
   <v>       1.24829215      -2.43532132       1.54284694 </v>
   <v>       6.03302090       2.08727602      -4.24039341 </v>
   <v>      -3.59704745       0.81032215       1.25021460 </v>
   <v>      -1.71541863      -0.10107209       3.44482839 </v>
   <v>      -2.28649161       2.18908647       2.03780346 </v>
   <v>      -3.75370395       1.45361446       1.29336739 </v>
   <v>      -1.08561091       4.84466886       0.18574098 </v>
   <v>       4.79980347       1.39172524       1.34886880 </v>
   <v>      -2.10555643      -0.07142094      -1.86367167 </v>
   <v>      -0.20145221      -1.12085118       4.01064365 </v>
   <v>       0.22714001       0.57045348      -0.79457713 </v>
   <v>       1.62381544       0.00809812       0.27307603 </v>
   <v>       2.70122263      -1.17701270      -4.14065113 </v>
   <v>      -0.93652498      -0.83680126      -2.74208947 </v>
   <v>       0.73506895      -0.85031544      -0.49350883 </v>
   <v>      -0.28145582      -2.35868266       2.47526397 </v>
   <v>       0.47080921      -4.49504989       0.12968748 </v>
   <v>      -0.49956519       1.52787197       0.55767301 </v>
   <v>       1.84300804       0.48108073      -0.88068982 </v>
   <v>      -2.93837363      -4.27670427      -0.98891227 </v>
   <v>       2.37097279      -0.49893751      -1.07141945 </v>
   <v>       4.49278869       2.05005415      -0.29782281 </v>
   <v>      -1.42194680       2.67509038      -1.02845738 </v>
   <v>      -3.11847221       2.47613708       2.12588918 </v>
   <v>      -2.75735918       1.38367629       2.57890222 </v>
   <v>      -1.54488846      -2.44209502      -1.75094163 </v>
   <v>      -2.44891674      -1.42909253       0.91425478 </v>
   <v>      -2.18334870       0.63415084      -0.79676897 </v>
   <v>      -0.75839434      -0.23626576      -0.38704601 </v>
   <v>      -0.34815029       0.57924272       0.05311845 </v>
   <v>       1.15470151       1.97579719       3.69967152 </v>
   <v>      -0.62028436       0.64292005      -0.25920568 </v>
   <v>      -2.67365126       1.33609090      -0.73418560 </v>
   <v>      -2.31516440      -0.09919025       2.80756932 </v>
   <v>       2.56806763       0.86219142       3.06646616 </v>
   <v>       0.27924468      -1.78476856      -0.05353971 </v>
   <v>      -0.79630769      -0.20858304       3.71788483 </v>
   <v>      -0.74695285       0.35392920      -0.30943781 </v>
   <v>      -3.59052109      -0.82018406      -3.34129705 </v>
   <v>       0.51718660       1.73272025       1.20686606 </v>
   <v>      -4.26537232      -3.73940825      -0.02756073 </v>
   <v>       2.54356893      -1.82372073       5.82868372 </v>
   <v>       0.56619333      -2.93778944      -1.70573547 </v>
   <v>      -5.61871358       6.72811836      -1.10590123 </v>
   <v>       2.35497819       0.77277144       0.24007113 </v>
   <v>       1.13693370      -0.42984083      -0.80534508 </v>
   <v>       2.54213137      -0.76011717      -1.30681818 </v>
   <v>       4.33297232       4.19839446      -0.59293579 </v>
   <v>       0.76767668      -1.99070603      -1.28206974 </v>
   <v>       0.94239151      -0.27081576       1.10668977 </v>
   <v>       4.36802243      -1.94693067      -0.41266232 </v>
   <v>       0.54314218       0.06504731      -0.60291285 </v>
   <v>      -0.51572635      -2.14458892       1.64045408 </v>
   <v>       0.47571931      -1.86588264      -0.72289094 </v>
   <v>       0.88000082       2.86533863      -1.65972202 </v>
   <v>       4.04626974       0.01956658       1.60736912 </v>
   <v>       0.36800735      -4.73495715       2.06993538 </v>
   <v>       0.76679832       0.61441530       3.85085039 </v>
   <v>       1.25745579       3.27427183      -2.30613665 </v>
   <v>       2.37052481      -0.33258327       0.13116379 </v>
   <v>       2.93864062       1.41526310       0.20925500 </v>
   <v>      -2.16842538       0.19013457       1.47083978 </v>
   <v>      -0.98839914      -1.57005789      -1.95239587 </v>
   <v>       0.02523868       0.54794304       0.86427075 </v>
   <v>       0.16605845      -4.29723941      -1.12986416 </v>
   <v>       0.12273317       0.20899938       4.23626231 </v>
   <v>      -0.04189170       0.91126617       1.31637594 </v>
   <v>      -1.22936272      -4.37875722      -3.21138187 </v>
   <v>       2.65322558      -0.03924281       0.96397415 </v>
   <v>       1.43174808       1.65964758      -0.88962093 </v>
   <v>       1.53046802       0.77693414      -0.46377155 </v>
   <v>      -0.05691423      -6.04888702       2.50901207 </v>
   <v>      -0.39335644       1.69640833       3.53606427 </v>
   <v>      -0.49220660       2.36468789      -1.75593420 </v>
   <v>      -2.28008833      -4.30419535      -1.17679527 </v>
   <v>      -1.30945988       0.79175523       0.29781261 </v>
   <v>      -1.99642094      -2.04578239       1.35215029 </v>
   <v>       0.30179643       1.11296939       2.81932509 </v>
   <v>      -0.43852436      -0.95683825      -0.07705416 </v>
   <v>       0.90754255      -0.98326083      -0.54827919 </v>
   <v>      -3.70351042      -1.34001380       0.49260186 </v>
   <v>      -2.63031371      -4.07462932      -2.18835605 </v>
   <v>      -1.59892234       0.08430456       0.19238362 </v>
   <v>       2.08346247      -1.05308577      -1.89830775 </v>
   <v>      -1.80340858       3.59629662      -0.15478318 </v>
   <v>      -0.60462349      -1.94065567       3.51341894 </v>
   <v>       0.65941569      -1.08140925      -2.81298479 </v>
  </varray>
  <varray name="stress" >
   <v>      47.88809641      22.26203943      19.06960099 </v>
   <v>      22.26203942      39.45012464      28.82481904 </v>
   <v>      19.06960096      28.82481906      82.70893528 </v>
  </varray>
  <energy>
   <i name="e_fr_energy">   -908.51909756 </i>
   <i name="e_wo_entrp">   -908.51146459 </i>
   <i name="e_0_energy">     -0.01526594 </i>
  </energy>
  <time name="totalsc"> 1033.35 1033.68</time>
  <eigenvalues>
   <array>
    <dimension dim="1">band</dimension>
    <dimension dim="2">kpoint</dimension>
    <dimension dim="3">spin</dimension>
    <field>eigene</field>
    <field>occ</field>
    <set>
     <set comment="spin 1">
      <set comment="kpoint 1">
       <r>  -37.4030    1.0000 </r>
       <r>  -37.0722    1.0000 </r>
       <r>  -36.6339    1.0000 </r>
       <r>  -36.4720    1.0000 </r>
       <r>  -36.2144    1.0000 </r>
       <r>  -36.0455    1.0000 </r>
       <r>  -36.0316    1.0000 </r>
       <r>  -35.9911    1.0000 </r>
       <r>  -35.9368    1.0000 </r>
       <r>  -35.8755    1.0000 </r>
       <r>  -35.8240    1.0000 </r>
[...]
       <r>     4.2889     0.0000   866.0000 </r>
       <r>     4.4610     3.8211   866.6573 </r>
       <r>     4.6330     7.8051   868.0000 </r>
       <r>     4.8050     0.0433   868.0074 </r>
       <r>     4.9770    10.9542   869.8918 </r>
       <r>     5.1491     0.6291   870.0000 </r>
       <r>     5.3211     0.0537   870.0092 </r>
       <r>     5.4931    11.4114   871.9723 </r>
       <r>     5.6651     7.5153   873.2651 </r>
       <r>     5.8371    15.8852   875.9977 </r>
       <r>     6.0092    11.6258   877.9975 </r>
       <r>     6.1812     0.0186   878.0008 </r>
       <r>     6.3532    13.0060   880.2381 </r>
       <r>     6.5252    14.3078   882.6993 </r>
       <r>     6.6973     8.8816   884.2271 </r>
       <r>     6.8693    30.4316   889.4621 </r>
       <r>     7.0413    29.9579   894.6155 </r>
       <r>     7.2133    33.6283   900.4003 </r>
       <r>     7.3853    24.6366   904.6384 </r>
       <r>     7.5574    39.0569   911.3570 </r>
       <r>     7.7294    51.2242   920.1687 </r>
       <r>     7.9014    50.5763   928.8690 </r>
       <r>     8.0734    52.4467   937.8910 </r>
       <r>     8.2455    62.2183   948.5939 </r>
       <r>     8.4175    58.2011   958.6058 </r>
       <r>     8.5895    72.4743   971.0730 </r>
       <r>     8.7615    73.2878   983.6801 </r>
       <r>     8.9335    71.3395   995.9521 </r>
       <r>     9.1056    73.7136  1008.6325 </r>
       <r>     9.2776    86.4461  1023.5031 </r>
       <r>     9.4496    74.1812  1036.2639 </r>
       <r>     9.6216    21.7141  1039.9993 </r>
       <r>     9.7937     0.0044  1040.0000 </r>
       <r>     9.9657     0.0000  1040.0000 </r>
       <r>    10.1377     0.0000  1040.0000 </r>
       <r>    10.3097     0.0000  1040.0000 </r>
       <r>    10.4817     0.0000  1040.0000 </r>
       <r>    10.6538     0.0000  1040.0000 </r>
       <r>    10.8258     0.0000  1040.0000 </r>
       <r>    10.9978     0.0000  1040.0000 </r>
       <r>    11.1698     0.0000  1040.0000 </r>
       <r>    11.3419     0.0000  1040.0000 </r>
       <r>    11.5139     0.0000  1040.0000 </r>
       <r>    11.6859     0.0000  1040.0000 </r>
       <r>    11.8579     0.0000  1040.0000 </r>
      </set>
     </set>
    </array>
   </total>
  </dos>
 </calculation>
 <structure name="finalpos" >
  <crystal>
   <varray name="basis" >
    <v>      12.09378762       0.00000000       0.00000000 </v>
    <v>       0.00000000      12.09378762       0.00000000 </v>
    <v>       0.00000000       0.00000000      12.09378762 </v>
   </varray>
   <i name="volume">   1768.83373704 </i>
   <varray name="rec_basis" >
    <v>       0.08268708       0.00000000       0.00000000 </v>
    <v>       0.00000000       0.08268708       0.00000000 </v>
    <v>       0.00000000       0.00000000       0.08268708 </v>
   </varray>
  </crystal>
  <varray name="positions" >
   <v>       0.56407815       0.52169771       0.76548477 </v>
   <v>       0.14662529       0.81536737       0.61494356 </v>
   <v>       0.10567122       0.43697319       0.90850401 </v>
   <v>       0.61156890       0.16480945       0.23501465 </v>
   <v>       0.59482828       0.94092759       0.06326231 </v>
   <v>       0.67895893       0.42987030       0.32915697 </v>
   <v>       0.66648034       0.72858498       0.28005463 </v>
   <v>       0.84511811       0.47489724       0.80435170 </v>
   <v>       0.91863159       0.99166049       0.58349915 </v>
   <v>       0.76211166       0.26186551       0.63702594 </v>
   <v>       0.28250885       0.16036303       0.33882991 </v>
   <v>       0.49291462       0.29483732       0.57738784 </v>
   <v>       0.71508487       0.79611149       0.62500774 </v>
   <v>       0.86641332       0.03442734       0.27948960 </v>
   <v>       0.93640753       0.41742480       0.53823194 </v>
   <v>       0.45792285       0.78422842       0.68932652 </v>
   <v>       0.92461208       0.78226995       0.39728011 </v>
   <v>       0.27964510       0.87249812       0.26765024 </v>
   <v>       0.48120521       0.64478371       0.36271368 </v>
   <v>       0.48581800       0.42811933       0.13186590 </v>
   <v>       0.75331942       0.59706933       0.08780792 </v>
   <v>       0.74806346       0.02832029       0.80734218 </v>
   <v>       0.16820215       0.53174343       0.35546046 </v>
   <v>       0.16991108       0.26317310       0.53777785 </v>
   <v>       0.27492485       0.80954160       0.95399486 </v>
   <v>       0.94314803       0.26291202       0.18402849 </v>
   <v>       0.00839775       0.14527447       0.96132369 </v>
   <v>       0.79527735       0.15402639       0.03025887 </v>
   <v>       0.63248459       0.91769287       0.37656591 </v>
   <v>       0.10976770       0.71683649       0.16501428 </v>
   <v>       0.27748998       0.49466696       0.64182907 </v>
   <v>       0.07567781       0.98670980       0.15109500 </v>
   <v>       0.92846856       0.57227932       0.24589724 </v>
   <v>       0.70701851       0.56166748       0.53895222 </v>
   <v>       0.92775458       0.71276547       0.69630589 </v>
   <v>       0.99030010       0.19745093       0.72312361 </v>
   <v>       0.40649302       0.19134925       0.06050329 </v>
   <v>       0.44883665       0.04344039       0.64825022 </v>
   <v>       0.18799493       0.28933701       0.12141782 </v>
   <v>       0.29280464       0.60453535       0.82621306 </v>
   <v>       0.82172209       0.86784272       0.01492778 </v>
   <v>       0.35490299       0.06698386       0.87970189 </v>
   <v>       0.66082954       0.06871878       0.54602891 </v>
   <v>       0.42431824       0.87704882       0.48801275 </v>
   <v>       0.83599211       0.22675062       0.41476301 </v>
   <v>       0.67254613       0.72132385       0.85071197 </v>
   <v>       0.40274911       0.32399279       0.85380919 </v>
   <v>       0.68596610       0.30954247       0.89088186 </v>
   <v>       0.15370965       0.01878179       0.75686854 </v>
   <v>       0.06443660       0.57126326       0.63399583 </v>
   <v>       0.03441631       0.68378978       0.92816275 </v>
   <v>       0.39123526       0.44093054       0.39002214 </v>
   <v>       0.48799840       0.67321972       0.06946516 </v>
   <v>       0.11465202       0.98976233       0.40149038 </v>
   <v>       0.50796148       0.92358856       0.59503980 </v>
   <v>       0.67128610       0.58625894       0.85157097 </v>
   <v>       0.37992587       0.76716594       0.53841762 </v>
   <v>       0.70726040       0.17504414       0.90348633 </v>
   <v>       0.23989787       0.94112414       0.68816482 </v>
   <v>       0.32708574       0.45943797       0.27570225 </v>
   <v>       0.16984436       0.60840637       0.90732266 </v>
   <v>       0.95347900       0.17255827       0.44259157 </v>
   <v>       0.58949492       0.05195351       0.43292887 </v>
   <v>       0.38903514       0.98014987       0.38803679 </v>
   <v>       0.14230161       0.42928807       0.08230204 </v>
   <v>       0.88768713       0.10880099       0.72089505 </v>
   <v>       0.70746021       0.09280767       0.10988072 </v>
   <v>       0.16581722       0.05194202       0.27625814 </v>
   <v>       0.69528814       0.85723479       0.92558715 </v>
   <v>       0.96058962       0.94731867       0.40209358 </v>
   <v>       0.49128554       0.25389168       0.97315331 </v>
   <v>       0.74590635       0.96651751       0.56942771 </v>
   <v>       0.97341537       0.06405044       0.12462917 </v>
   <v>       0.44303471       0.20501804       0.19393871 </v>
   <v>       0.53734671       0.34189218       0.77508029 </v>
   <v>       0.60901034       0.78969670       0.76367006 </v>
   <v>       0.03661611       0.98558057       0.80244322 </v>
   <v>       0.59872180       0.68531419       0.99392351 </v>
   <v>       0.83846387       0.35752432       0.38839133 </v>
   <v>       0.10384392       0.46972944       0.53790832 </v>
   <v>       0.93863506       0.77680063       0.99908345 </v>
   <v>       0.45680887       0.06266444       0.96910443 </v>
   <v>       0.22182510       0.70367927       0.22143060 </v>
   <v>       0.53887756       0.83479707       0.42130569 </v>
   <v>       0.75172640       0.81995787       0.10806198 </v>
   <v>       0.34700395       0.44113665       0.87166251 </v>
   <v>       0.61353701       0.32697580       0.24171328 </v>
   <v>       0.36330192       0.71203274       0.84006144 </v>
   <v>       0.75264363       0.17646107       0.49892434 </v>
   <v>       0.98471198       0.57674787       0.35656309 </v>
   <v>       0.18801155       0.89372531       0.44734136 </v>
   <v>       0.85972022       0.67296704       0.24150215 </v>
   <v>       0.83059694       0.47352408       0.19630603 </v>
   <v>       0.31230031       0.29197073       0.06856366 </v>
   <v>       0.95530650       0.56819131       0.71286233 </v>
   <v>       0.22654255       0.98755069       0.88474041 </v>
   <v>       0.39111434       0.58577044       0.05753714 </v>
   <v>       0.80473259       0.73669765       0.77081160 </v>
   <v>       0.75303537       0.89697878       0.39140846 </v>
   <v>       0.34865222       0.32253512       0.45741572 </v>
   <v>       0.59837902       0.66004678       0.56673766 </v>
   <v>       0.70769524       0.62098128       0.41348011 </v>
   <v>       0.78265814       0.30985054       0.80607816 </v>
   <v>       0.79510866       0.62036603       0.60845059 </v>
   <v>       0.91503464       0.83020887       0.60649134 </v>
   <v>       0.96755843       0.26082035       0.60033584 </v>
   <v>       0.42221307       0.98305404       0.78146839 </v>
   <v>       0.12352718       0.94731553       0.04032951 </v>
   <v>       0.93499943       0.56456486       0.93156731 </v>
   <v>       0.03815287       0.67014567       0.54473276 </v>
   <v>       0.14015789       0.18270819       0.06872587 </v>
   <v>       0.69244440       0.42597615       0.55721041 </v>
   <v>       0.51182851       0.49492400       0.42560079 </v>
   <v>       0.15410935       0.27554552       0.24473289 </v>
   <v>       0.01734686       0.27823894       0.82127697 </v>
   <v>       0.79924614       0.21293231       0.28906099 </v>
   <v>       0.02022991       0.85172932       0.20013377 </v>
   <v>       0.12105182       0.07764724       0.49987530 </v>
   <v>       0.41102369       0.79075426       0.09053388 </v>
   <v>       0.19716501       0.65478228       0.65531040 </v>
   <v>       0.60772846       0.90557504       0.23558180 </v>
   <v>       0.33586115       0.19638487       0.85469284 </v>
   <v>       0.38522036       0.58425056       0.71272454 </v>
   <v>       0.12965307       0.72583595       0.02925072 </v>
   <v>       0.33020261       0.54132496       0.48523968 </v>
   <v>       0.84179439       0.00184349       0.95468110 </v>
   <v>       0.39791009       0.15286386       0.60393109 </v>
   <v>       0.01820579       0.74717614       0.80001790 </v>
   <v>       0.88790411       0.25460016       0.01912611 </v>
   <v>       0.63050853       0.15430264       0.66270830 </v>
   <v>       0.04841545       0.59688771       0.17029522 </v>
   <v>       0.64103190       0.39798510       0.98450549 </v>
   <v>       0.13976644       0.13615920       0.69893553 </v>
   <v>       0.18271130       0.43236295       0.69829962 </v>
   <v>       0.54048081       0.63737937       0.20297402 </v>
  </varray>
  <varray name="velocities" >
   <v>       0.00000000       0.00000000       0.00000000 </v>
   <v>       0.00000000       0.00000000       0.00000000 </v>
   <v>       0.00000000       0.00000000       0.00000000 </v>
   <v>       0.00000000       0.00000000       0.00000000 </v>
   <v>       0.00000000       0.00000000       0.00000000 </v>
   <v>       0.00000000       0.00000000       0.00000000 </v>
   <v>       0.00000000       0.00000000       0.00000000 </v>
   <v>       0.00000000       0.00000000       0.00000000 </v>
   <v>       0.00000000       0.00000000       0.00000000 </v>
   <v>       0.00000000       0.00000000       0.00000000 </v>
   <v>       0.00000000       0.00000000       0.00000000 </v>
   <v>       0.00000000       0.00000000       0.00000000 </v>
   <v>       0.00000000       0.00000000       0.00000000 </v>
   <v>       0.00000000       0.00000000       0.00000000 </v>
   <v>       0.00000000       0.00000000       0.00000000 </v>
   <v>       0.00000000       0.00000000       0.00000000 </v>
   <v>       0.00000000       0.00000000       0.00000000 </v>
   <v>       0.00000000       0.00000000       0.00000000 </v>
   <v>       0.00000000       0.00000000       0.00000000 </v>
   <v>       0.00000000       0.00000000       0.00000000 </v>
   <v>       0.00000000       0.00000000       0.00000000 </v>
   <v>       0.00000000       0.00000000       0.00000000 </v>
   <v>       0.00000000       0.00000000       0.00000000 </v>
   <v>       0.00000000       0.00000000       0.00000000 </v>
   <v>       0.00000000       0.00000000       0.00000000 </v>
   <v>       0.00000000       0.00000000       0.00000000 </v>
   <v>       0.00000000       0.00000000       0.00000000 </v>
   <v>       0.00000000       0.00000000       0.00000000 </v>
   <v>       0.00000000       0.00000000       0.00000000 </v>
   <v>       0.00000000       0.00000000       0.00000000 </v>
   <v>       0.00000000       0.00000000       0.00000000 </v>
   <v>       0.00000000       0.00000000       0.00000000 </v>
   <v>       0.00000000       0.00000000       0.00000000 </v>
   <v>       0.00000000       0.00000000       0.00000000 </v>
   <v>       0.00000000       0.00000000       0.00000000 </v>
   <v>       0.00000000       0.00000000       0.00000000 </v>
   <v>       0.00000000       0.00000000       0.00000000 </v>
   <v>       0.00000000       0.00000000       0.00000000 </v>
   <v>       0.00000000       0.00000000       0.00000000 </v>
   <v>       0.00000000       0.00000000       0.00000000 </v>
   <v>       0.00000000       0.00000000       0.00000000 </v>
   <v>       0.00000000       0.00000000       0.00000000 </v>
   <v>       0.00000000       0.00000000       0.00000000 </v>
   <v>       0.00000000       0.00000000       0.00000000 </v>
   <v>       0.00000000       0.00000000       0.00000000 </v>
   <v>       0.00000000       0.00000000       0.00000000 </v>
   <v>       0.00000000       0.00000000       0.00000000 </v>
   <v>       0.00000000       0.00000000       0.00000000 </v>
   <v>       0.00000000       0.00000000       0.00000000 </v>
   <v>       0.00000000       0.00000000       0.00000000 </v>
   <v>       0.00000000       0.00000000       0.00000000 </v>
   <v>       0.00000000       0.00000000       0.00000000 </v>
   <v>       0.00000000       0.00000000       0.00000000 </v>
   <v>       0.00000000       0.00000000       0.00000000 </v>
   <v>       0.00000000       0.00000000       0.00000000 </v>
   <v>       0.00000000       0.00000000       0.00000000 </v>
   <v>       0.00000000       0.00000000       0.00000000 </v>
   <v>       0.00000000       0.00000000       0.00000000 </v>
   <v>       0.00000000       0.00000000       0.00000000 </v>
   <v>       0.00000000       0.00000000       0.00000000 </v>
   <v>       0.00000000       0.00000000       0.00000000 </v>
   <v>       0.00000000       0.00000000       0.00000000 </v>
   <v>       0.00000000       0.00000000       0.00000000 </v>
   <v>       0.00000000       0.00000000       0.00000000 </v>
   <v>       0.00000000       0.00000000       0.00000000 </v>
   <v>       0.00000000       0.00000000       0.00000000 </v>
   <v>       0.00000000       0.00000000       0.00000000 </v>
   <v>       0.00000000       0.00000000       0.00000000 </v>
   <v>       0.00000000       0.00000000       0.00000000 </v>
   <v>       0.00000000       0.00000000       0.00000000 </v>
   <v>       0.00000000       0.00000000       0.00000000 </v>
   <v>       0.00000000       0.00000000       0.00000000 </v>
   <v>       0.00000000       0.00000000       0.00000000 </v>
   <v>       0.00000000       0.00000000       0.00000000 </v>
   <v>       0.00000000       0.00000000       0.00000000 </v>
   <v>       0.00000000       0.00000000       0.00000000 </v>
   <v>       0.00000000       0.00000000       0.00000000 </v>
   <v>       0.00000000       0.00000000       0.00000000 </v>
   <v>       0.00000000       0.00000000       0.00000000 </v>
   <v>       0.00000000       0.00000000       0.00000000 </v>
   <v>       0.00000000       0.00000000       0.00000000 </v>
   <v>       0.00000000       0.00000000       0.00000000 </v>
   <v>       0.00000000       0.00000000       0.00000000 </v>
   <v>       0.00000000       0.00000000       0.00000000 </v>
   <v>       0.00000000       0.00000000       0.00000000 </v>
   <v>       0.00000000       0.00000000       0.00000000 </v>
   <v>       0.00000000       0.00000000       0.00000000 </v>
   <v>       0.00000000       0.00000000       0.00000000 </v>
   <v>       0.00000000       0.00000000       0.00000000 </v>
   <v>       0.00000000       0.00000000       0.00000000 </v>
   <v>       0.00000000       0.00000000       0.00000000 </v>
   <v>       0.00000000       0.00000000       0.00000000 </v>
   <v>       0.00000000       0.00000000       0.00000000 </v>
   <v>       0.00000000       0.00000000       0.00000000 </v>
   <v>       0.00000000       0.00000000       0.00000000 </v>
   <v>       0.00000000       0.00000000       0.00000000 </v>
   <v>       0.00000000       0.00000000       0.00000000 </v>
   <v>       0.00000000       0.00000000       0.00000000 </v>
   <v>       0.00000000       0.00000000       0.00000000 </v>
   <v>       0.00000000       0.00000000       0.00000000 </v>
   <v>       0.00000000       0.00000000       0.00000000 </v>
   <v>       0.00000000       0.00000000       0.00000000 </v>
   <v>       0.00000000       0.00000000       0.00000000 </v>
   <v>       0.00000000       0.00000000       0.00000000 </v>
   <v>       0.00000000       0.00000000       0.00000000 </v>
   <v>       0.00000000       0.00000000       0.00000000 </v>
   <v>       0.00000000       0.00000000       0.00000000 </v>
   <v>       0.00000000       0.00000000       0.00000000 </v>
   <v>       0.00000000       0.00000000       0.00000000 </v>
   <v>       0.00000000       0.00000000       0.00000000 </v>
   <v>       0.00000000       0.00000000       0.00000000 </v>
   <v>       0.00000000       0.00000000       0.00000000 </v>
   <v>       0.00000000       0.00000000       0.00000000 </v>
   <v>       0.00000000       0.00000000       0.00000000 </v>
   <v>       0.00000000       0.00000000       0.00000000 </v>
   <v>       0.00000000       0.00000000       0.00000000 </v>
   <v>       0.00000000       0.00000000       0.00000000 </v>
   <v>       0.00000000       0.00000000       0.00000000 </v>
   <v>       0.00000000       0.00000000       0.00000000 </v>
   <v>       0.00000000       0.00000000       0.00000000 </v>
   <v>       0.00000000       0.00000000       0.00000000 </v>
   <v>       0.00000000       0.00000000       0.00000000 </v>
   <v>       0.00000000       0.00000000       0.00000000 </v>
   <v>       0.00000000       0.00000000       0.00000000 </v>
   <v>       0.00000000       0.00000000       0.00000000 </v>
   <v>       0.00000000       0.00000000       0.00000000 </v>
   <v>       0.00000000       0.00000000       0.00000000 </v>
   <v>       0.00000000       0.00000000       0.00000000 </v>
   <v>       0.00000000       0.00000000       0.00000000 </v>
   <v>       0.00000000       0.00000000       0.00000000 </v>
   <v>       0.00000000       0.00000000       0.00000000 </v>
   <v>       0.00000000       0.00000000       0.00000000 </v>
   <v>       0.00000000       0.00000000       0.00000000 </v>
   <v>       0.00000000       0.00000000       0.00000000 </v>
   <v>       0.00000000       0.00000000       0.00000000 </v>
  </varray>
 </structure>
</modeling>
