80
Time=50000.00000004 pbc="T T F" Lattice="13.79398668 0.00000000 0.00000000 -6.89699334 11.94594288 0.00000000 0.00000000 0.00000000 27.81022107" energy=-523.25608826 virial="14.24183556 0.09864229 2.54744300 0.09864229 12.76583000 0.24059497 2.54744300 0.24059497 -5.26647710" stress="0.00416083 0.00002153 0.00055589 0.00002153 0.00383874 0.00005250 0.00055589 0.00005250 -0.00009618" Properties=species:S:1:pos:R:3
Sc -0.01435354 2.06906107 15.12200826
Sc -1.69580143 4.92991381 15.07526545
Sc -3.32324082 8.02062014 15.17551338
Sc -5.01943587 10.93475405 15.20301789
Sc 3.31871163 2.05987823 15.28759255
Sc 1.54849125 4.91755357 15.02512095
Sc 0.14212032 7.84102522 15.16087310
Sc -1.68305726 11.21307150 15.15238643
Sc 6.95630024 2.08682478 15.13163047
Sc 5.06817196 4.83263949 15.21634708
Sc 3.37019587 7.85008068 15.21024353
Sc 1.72222835 10.89844422 15.06761435
Sc 10.21790729 1.87072858 15.14702246
Sc 8.64504756 5.01500727 15.27057460
Sc 6.89086737 7.93114271 15.23169439
Sc 5.15161617 10.92276192 15.10524358
Sc 1.78365294 1.10794582 12.52770854
Sc -0.02607066 3.81282007 12.62884062
Sc -1.83470337 6.94873418 12.60444787
Sc -3.43588718 9.93057567 12.57538443
Sc 5.05084919 1.05652146 12.47611028
Sc 3.51681283 4.11289884 12.66840223
Sc 1.62716810 6.95244725 12.71043730
Sc 0.01414866 10.02238740 12.68610901
Sc 8.62580432 1.10068994 12.56846143
Sc 7.04187386 4.13894329 12.76573076
Sc 5.25319215 7.02176248 12.75287178
Sc 3.47202944 9.92571085 12.74669630
Sc 12.11486903 0.84141744 12.69307213
Sc 10.50522501 3.90032870 12.47715215
Sc 8.63195047 7.00050864 12.83625173
Sc 7.04082457 10.06947651 12.67757584
Cl -0.01639256 2.00848302 10.90199027
Cl -1.51672640 5.11153684 11.04873352
Cl -3.52504003 7.92166311 10.85442294
Cl -5.18870286 10.79898231 11.03810315
Cl 3.28784430 2.09916635 10.80723516
Cl 1.99688888 4.93090198 10.95646245
Cl 0.00389535 8.02147187 10.94239344
Cl -1.79248060 10.87356330 10.88260650
Cl 6.75336505 2.01336961 10.84401810
Cl 5.22476730 4.98773554 11.03910295
Cl 3.42157979 7.90436464 11.05428076
Cl 1.94505258 11.01121653 10.94622845
Cl 10.48889250 1.98338098 11.09392960
Cl 8.69237913 4.87421318 10.92922175
Cl 6.81388494 7.89949420 10.98977877
Cl 5.06875072 10.68678246 11.12475221
Cl 1.57482681 0.99626651 16.82481946
Cl -0.08541384 4.04186398 16.85858745
Cl -1.53162408 6.94211622 16.79770090
Cl -3.74231853 10.06003603 16.92153023
Cl 5.23825238 1.03679969 16.79766470
Cl 3.42589109 3.84454603 16.81561142
Cl 1.87126737 6.75892581 16.78506148
Cl -0.04776160 9.87559739 16.77832240
Cl 8.40166039 1.06205299 16.71235999
Cl 6.93743918 4.00984792 16.91562702
Cl 5.23645144 6.81693507 16.93673534
Cl 3.15994546 9.94731225 16.91679236
Cl 11.85265092 1.14003515 16.92908611
Cl 10.63841860 4.04547325 16.86413885
Cl 8.61663427 6.99465208 16.75917585
Cl 6.78306189 10.10140603 17.03167061
C 0.04997811 0.09999798 13.79535033
C -1.58788657 2.98313387 13.71430560
C -3.29430997 6.14475076 13.98429134
C 8.55285286 9.02741987 13.96775586
C 3.40272274 0.03568924 13.74198357
C 1.63165362 3.01451052 13.97310354
C 0.05203850 5.96398657 13.88314859
C -1.92678367 8.98393500 13.75224566
C -0.01937159 11.92128670 13.80759020
C 5.12243756 3.07324585 13.87330136
C 3.46631679 5.82903633 13.91442554
C 1.66192546 9.02567841 13.93951651
C 3.33997144 11.85113488 14.00931168
C 8.71922080 3.11862724 13.79709984
C 6.95387497 6.00362596 13.91308872
C 5.11453092 8.72538110 13.96607219
80
Time=99999.99999996 pbc="T T F" Lattice="13.79398668 0.00000000 0.00000000 -6.89699334 11.94594288 0.00000000 0.00000000 0.00000000 27.81022107" energy=-523.73381233 virial="8.79180099 -2.79600846 -17.37152044 -2.79600846 12.54478164 -0.61948272 -17.37152044 -0.61948272 -7.75224940" stress="0.00297155 -0.00061013 -0.00379073 -0.00061013 0.00379051 -0.00013518 -0.00379073 -0.00013518 -0.00063862" Properties=species:S:1:pos:R:3
Sc 0.05075086 2.04127041 15.00448630
Sc -1.57907695 5.02318969 15.00517535
Sc -3.25817279 7.90733932 15.19454170
Sc -5.02646586 10.96772950 15.23266700
Sc 3.43334183 1.95428240 15.03980450
Sc 1.87656343 4.94671449 14.98201081
Sc 0.14621026 7.99159988 15.11834424
Sc -1.75035706 10.92893121 15.07064854
Sc 6.82584762 1.84733751 15.23118481
Sc 5.17252812 4.96675023 15.25553933
Sc 3.37651010 7.71506412 15.18504227
Sc 1.74258234 10.90510406 15.27732682
Sc 10.48796468 2.07907963 15.24612946
Sc 8.66658925 5.08432100 15.22152976
Sc 6.93768498 7.99190156 15.32794367
Sc 5.18405804 11.22920663 15.06031262
Sc 1.62369662 1.03797516 12.52658018
Sc -0.05877727 4.04770071 12.53433249
Sc -1.83727510 7.01745723 12.62285979
Sc -3.53949512 9.83595544 12.66440473
Sc 5.09776436 0.88334098 12.73304205
Sc 3.42197887 4.01221312 12.52864448
Sc 1.74790984 6.97120690 12.54350876
Sc -0.04543388 9.89466601 12.59030704
Sc 8.58753390 0.97900643 12.92059920
Sc 6.93362302 3.95377830 12.78105260
Sc 5.19249057 7.06257791 12.62354901
Sc 3.37266392 9.90730421 12.73474098
Sc 11.87752497 0.97945083 12.68385159
Sc 10.21165789 3.83673452 12.67048922
Sc 8.51435260 6.93113885 12.71932281
Sc 6.76134479 10.00690076 12.64120537
Cl 0.07233103 2.12541446 10.90187616
Cl -1.79512479 5.03168423 10.92585699
Cl -3.58891646 7.97783802 11.07269517
Cl -5.24204391 10.98144797 10.90328800
Cl 3.37956808 1.83517611 10.82523860
Cl 1.85552994 4.79977431 10.77078762
Cl -0.06097884 8.11472759 11.07019235
Cl -1.91102772 11.05338471 10.99780407
Cl 6.92914224 1.99495156 11.17980581
Cl 5.02898363 4.90232872 10.91501165
Cl 3.48572046 7.85124316 10.86607035
Cl 1.56952965 10.93043912 11.02252781
Cl 10.13315874 1.81297692 10.97303248
Cl 8.46015869 4.91318331 11.01033923
Cl 6.86541712 8.02071477 10.89668521
Cl 4.97934526 10.95105649 11.03932749
Cl 1.72057691 0.92256129 16.90755742
Cl 0.18453337 3.98536829 16.56184433
Cl -1.53445275 7.03243839 16.72671671
Cl -3.28754591 10.01098728 16.72361473
Cl 5.22954981 0.96536964 16.96206144
Cl 3.45164791 4.24394420 16.91180560
Cl 1.64582375 6.87488501 16.83951719
Cl 0.09575492 9.74566912 17.00700097
Cl 8.74322597 0.89688285 16.94425360
Cl 6.95271395 4.07275394 16.88141358
Cl 5.23003480 6.90231176 16.84310936
Cl 3.42788246 9.85396762 16.84275751
Cl 12.24251936 1.17289977 16.80565265
Cl 10.74211810 4.40725909 16.90361249
Cl 8.75689284 6.85624274 16.88087288
Cl 6.87186348 10.03175780 16.87739766
C 0.04885632 0.08736139 13.77010180
C -1.72802508 3.08361273 13.79554329
C 10.29593133 5.99878132 13.82697146
C 8.55936142 8.87033832 14.04059539
C -3.36845452 11.93381832 13.86480449
C 1.88192630 3.05444478 13.86509787
C -0.06251030 6.09736767 13.58304830
C -1.68927220 8.83658128 13.95679499
C 0.00778153 11.85443822 14.12697364
C 5.13068479 3.04112264 13.95841719
C 3.45415332 6.10566893 13.81123396
C 1.72313567 9.19381630 13.92758851
C 10.35649614 0.06588086 14.00750078
C 8.52951590 2.82466077 13.92561765
C 6.90705615 5.95225959 14.01621511
C 5.05957941 8.90491419 13.89936843
80
Time=149999.99999957 pbc="T T F" Lattice="13.79398668 0.00000000 0.00000000 -6.89699334 11.94594288 0.00000000 0.00000000 0.00000000 27.81022107" energy=-523.96621037 virial="10.12863668 0.49244909 -1.11951412 0.49244909 12.26099887 4.36347705 -1.11951412 4.36347705 -2.76178350" stress="0.00326327 0.00010746 -0.00024430 0.00010746 0.00372858 0.00095218 -0.00024430 0.00095218 0.00045038" Properties=species:S:1:pos:R:3
Sc -0.00711127 1.91434520 15.25889944
Sc -1.74087813 4.85613699 15.12148573
Sc -3.59151069 7.97036508 14.97448476
Sc -5.02164320 10.89759679 15.11541263
Sc 3.43123305 2.03440132 15.07656265
Sc 1.69288763 4.99212921 15.15598909
Sc -0.01345146 7.92153173 15.26459693
Sc -1.59067483 11.00790214 15.12111423
Sc 6.76680038 1.92060924 15.11265062
Sc 5.16134231 4.85385700 15.16136473
Sc 3.47922188 7.77900829 15.19166438
Sc 1.70484532 10.90319253 15.14783960
Sc 10.21374733 2.09748423 15.17288015
Sc 8.69081250 4.93476643 15.11841665
Sc 6.87173036 8.01270504 15.11424877
Sc 5.23021767 10.96482735 15.20431467
Sc 1.70866597 0.85455837 12.75039588
Sc -0.12668783 3.89692138 12.63286540
Sc -1.80482006 6.89130750 12.71497892
Sc -3.44038092 9.82031783 12.65028619
Sc 5.27462596 0.98944867 12.55814727
Sc 3.56965974 4.12848329 12.64662154
Sc 1.79116502 7.12974672 12.67341744
Sc -0.02366165 9.81335076 12.71948439
Sc 8.82205535 1.06374969 12.68733052
Sc 6.85292333 3.88635858 12.67375758
Sc 5.23482992 7.07462133 12.51543039
Sc 3.52917234 9.99297242 12.49962653
Sc 11.98167425 1.06431400 12.66561340
Sc 10.22904732 4.10914279 12.67635541
Sc 8.51683831 6.84592970 12.72682108
Sc 6.81062263 9.97182303 12.71580354
Cl 0.18777026 2.04756826 11.02052952
Cl -1.91615373 4.90301516 11.07064108
Cl -3.42065112 8.00245161 11.09319264
Cl -5.09728010 11.00042762 10.94348445
Cl 3.46981040 2.02674288 11.16227173
Cl 1.93287223 5.02743918 11.07383265
Cl -0.14036191 7.82544923 11.04456685
Cl -1.70692937 10.97556332 11.05030579
Cl 7.18217075 2.02022458 10.91614136
Cl 5.20841430 4.99476390 10.93302413
Cl 3.39069932 8.13211399 10.94956951
Cl 1.60666447 10.93203353 11.00259802
Cl 10.44508783 1.94375160 10.94185957
Cl 8.64336597 4.98953633 10.82615256
Cl 6.43313448 7.96180653 10.66105998
Cl 5.29998853 11.19305554 10.91296061
Cl 1.81359630 1.16279788 16.79020647
Cl 0.18947924 3.77214645 16.92559256
Cl -1.86239534 6.82872722 16.76525899
Cl -3.38573566 9.85366730 16.81036941
Cl 5.09798273 1.07122126 16.85874500
Cl 3.57722017 4.23545762 16.82665623
Cl 1.74066031 6.85813526 16.89075169
Cl 0.06656581 10.00163866 16.89332523
Cl 8.54742773 1.15153806 16.82705276
Cl 6.87203379 3.87721821 16.74917674
Cl 5.22310332 7.12801040 16.99982919
Cl 3.49217116 9.94781715 16.64661823
Cl 11.82602979 1.07914417 16.91629141
Cl 10.27693420 4.15165118 17.07703962
Cl 8.55047021 6.87422403 16.67945374
Cl 6.92333626 9.76824813 16.82168109
C 6.89658585 11.93668372 13.97059179
C 12.00536450 3.02643666 13.98155237
C 10.36683051 5.88160276 13.97766949
C 8.60863593 8.96954188 13.82693682
C -3.36725734 11.94491636 13.97929457
C 1.73898205 3.01651236 13.90536335
C -0.08951495 5.94562119 14.00352602
C -1.73154783 8.76683595 13.88511977
C -0.06579402 11.92684664 13.87014616
C 5.30451142 3.06217873 13.86428775
C 3.64516366 6.12286970 13.78020597
C 1.84812790 8.94080884 13.91730076
C 10.30636192 0.12247087 14.04538618
C 8.57374772 3.01403727 13.80085974
C 6.81690673 6.07676202 13.99143347
C 5.22483044 9.00669067 13.87916314
80
Time=199999.99999918 pbc="T T F" Lattice="13.79398668 0.00000000 0.00000000 -6.89699334 11.94594288 0.00000000 0.00000000 0.00000000 27.81022107" energy=-522.62761164 virial="11.49554434 2.05510996 -2.76607673 2.05510996 12.19610793 -3.66960755 -2.76607673 -3.66960755 -11.85400642" stress="0.00356155 0.00044846 -0.00060360 0.00044846 0.00371442 -0.00080076 -0.00060360 -0.00080076 -0.00153368" Properties=species:S:1:pos:R:3
Sc 0.01332466 2.10264164 15.21758779
Sc -1.77034098 5.06469219 15.00729400
Sc -3.53136687 7.80403140 15.07235630
Sc -5.30771227 11.07198390 15.46848619
Sc 3.42064540 2.10702782 15.37141061
Sc 1.68210867 5.04187545 15.03090908
Sc 0.09178667 7.99483622 15.10060565
Sc -1.77915752 11.01281761 15.19315759
Sc 6.94285642 2.08959864 15.00961589
Sc 5.15754016 5.06183180 15.26514083
Sc 3.36639575 7.87602671 15.13676848
Sc 1.63667208 11.06309267 15.15747071
Sc 10.39445927 2.01918864 15.13540174
Sc 8.69625771 4.91264980 15.07323843
Sc 7.06415413 7.97929400 15.09412478
Sc 5.08216595 10.91443589 15.18811545
Sc 1.59458249 1.10130972 12.69832861
Sc -0.07087243 3.89626013 12.59021880
Sc -1.67239836 7.06857905 12.44215764
Sc -3.35421629 9.93413083 12.78640492
Sc 4.86865677 1.01084995 12.89005233
Sc 3.44809504 4.01621001 12.75683221
Sc 1.81510682 6.87165534 12.52212799
Sc 0.10587675 10.21334746 12.65950439
Sc 8.61811531 0.95139519 12.48377314
Sc 6.80910324 4.06686801 12.71418214
Sc 5.19872771 7.04417721 12.65525352
Sc 3.44511042 9.95771716 12.84168588
Sc 12.01866081 0.84287255 12.61882989
Sc 10.20872192 3.92512998 12.47407622
Sc 8.65244447 6.94972960 12.57768208
Sc 7.03311547 10.03817580 12.79074938
Cl -0.04832569 2.20025759 10.84971743
Cl -1.79439556 4.98243921 10.93716635
Cl -3.52385985 7.83665288 10.92329789
Cl -5.11677062 10.83781873 10.96886571
Cl 3.46154329 1.99059926 11.08375278
Cl 1.57064356 5.04217407 10.79480597
Cl 0.03837171 7.96664738 11.05497786
Cl -1.69044859 10.96966511 11.08760216
Cl 7.07733304 1.99156461 10.92125723
Cl 5.40542865 5.06162781 11.00866635
Cl 3.48256375 8.01040215 10.99755787
Cl 1.72462593 10.80922212 10.72571049
Cl 10.05827506 1.61659478 10.70249055
Cl 8.50095440 4.59250893 10.84975695
Cl 6.83438770 7.91419878 11.13610567
Cl 5.37458282 10.91787267 10.96066855
Cl 1.54066797 1.03390748 17.10579777
Cl 0.27294515 4.05033013 16.88732538
Cl -1.75328523 7.21891772 16.67420395
Cl -3.38300018 9.87111687 16.74947185
Cl 5.33457142 0.76297988 16.96048301
Cl 3.55200962 4.00960817 17.02638547
Cl 1.63659962 7.23711182 16.88294188
Cl -0.11627947 9.88485836 16.91594466
Cl 8.59274650 0.88954148 16.85664806
Cl 7.00244744 3.91078116 16.70803133
Cl 5.26531347 6.86396106 16.85258455
Cl 3.36878899 10.00123121 16.80278033
Cl 12.03425687 1.07018530 16.72939443
Cl 10.72410446 3.87097972 16.65581901
Cl 8.72040266 6.80396179 16.97022314
Cl 6.73735356 9.88950743 16.94423228
C 0.11848804 0.02771450 13.89160388
C 12.00728650 2.91107375 13.87240995
C 10.29531196 5.91809805 13.87168701
C 8.66227790 8.81351846 13.96407761
C 3.26604494 0.12901210 14.20451177
C 1.70435487 3.09327641 13.98212648
C -0.03049369 5.90596045 13.84427945
C -1.60704578 8.95292698 13.82225354
C 0.06276355 11.84516653 13.99755058
C 5.05947341 2.92249002 14.19184961
C 3.51565102 5.89613555 13.85051231
C 1.75304648 9.02063199 14.02273885
C 10.38794110 0.06807583 13.86844494
C 8.60236057 2.92696422 13.80833514
C 7.01495975 5.97720139 13.85978137
C 5.25378742 8.98726969 13.91002793
80
Time=249999.99999879 pbc="T T F" Lattice="13.79398668 0.00000000 0.00000000 -6.89699334 11.94594288 0.00000000 0.00000000 0.00000000 27.81022107" energy=-521.78440094 virial="14.00843069 1.73876723 0.46290243 1.73876723 16.78331071 2.34533951 0.46290243 2.34533951 -1.56758716" stress="0.00410990 0.00037943 0.00010101 0.00037943 0.00471542 0.00051179 0.00010101 0.00051179 0.00071097" Properties=species:S:1:pos:R:3
Sc -0.05511010 2.03653162 15.23331873
Sc -1.73642618 5.03045067 15.20485438
Sc -3.59748040 7.99931979 15.30331905
Sc -5.31153414 11.07879542 15.06503288
Sc 3.61308606 1.96251432 15.18957485
Sc 1.71823898 4.94199356 15.27387324
Sc 0.13197578 8.01266061 15.14845499
Sc -1.74141521 10.89522304 15.12687426
Sc 6.88433025 2.21992701 15.05594279
Sc 5.20572615 4.99326258 15.05604998
Sc 3.45201916 7.81651007 15.01637414
Sc 1.72924640 10.87811115 15.06029617
Sc 10.35057003 1.78046554 15.19403103
Sc 8.85495141 4.83976181 15.17959261
Sc 6.68493234 7.99873245 15.19098307
Sc 5.05398317 10.90354950 15.00051508
Sc 1.64216777 1.07022654 12.75869686
Sc 0.17828612 3.85068217 12.66349743
Sc -1.71857148 6.95465147 12.74173549
Sc -3.61784503 9.95050686 12.74918306
Sc 5.11213404 0.89615664 12.64251094
Sc 3.40034157 3.89414988 12.77187633
Sc 1.71384024 6.75371037 12.59726121
Sc 0.12413351 10.07462641 12.57921271
Sc 8.67246131 1.01240056 12.77249499
Sc 6.90597094 3.95336828 12.68716510
Sc 5.44802581 6.83012698 12.59587000
Sc 3.47254536 10.09584902 12.36110749
Sc 12.08234801 1.14971874 12.70873830
Sc 10.53372501 4.07066095 12.65640795
Sc 8.62045895 6.99981022 12.81083226
Sc 6.92545098 10.00195114 12.68056962
Cl -0.02683217 1.91070631 10.74521352
Cl -1.68374100 4.93247777 10.82576803
Cl -3.61995683 8.04332893 11.09119635
Cl -5.23061650 10.94760721 10.85346484
Cl 3.50906557 2.16637895 11.14863762
Cl 1.77190162 4.73183938 10.93434383
Cl 0.05539032 7.97318537 10.94989180
Cl -1.66304140 10.90351232 10.97345422
Cl 6.92613486 1.95206451 11.14963649
Cl 5.20448822 4.87163852 10.93009215
Cl 3.38493347 8.02702121 11.11308512
Cl 1.45307334 11.04067521 10.60303299
Cl 10.42077820 1.97514980 11.15107160
Cl 8.65635167 4.97607309 10.95171912
Cl 6.83208854 8.36004212 11.00709342
Cl 5.16439394 10.89559160 10.82984676
Cl 1.47293598 1.16905563 17.04797530
Cl 0.23150181 3.98170644 17.10163611
Cl -1.72325799 7.00784044 16.71309332
Cl -3.46404261 10.06838731 16.74077923
Cl 5.09625073 0.77996901 16.81710716
Cl 3.58208271 3.95020750 16.74184746
Cl 1.70950924 7.07599231 16.89099817
Cl 0.11710475 9.82509754 16.75097757
Cl 8.62778452 0.84394947 16.79949905
Cl 6.86742402 4.16862783 16.68313922
Cl 5.12046036 7.17973310 16.77493672
Cl 3.33125020 9.95826491 16.70837183
Cl 12.17782451 0.91564270 16.95481605
Cl 10.52252340 3.99058474 16.99349607
Cl 8.60412821 6.72301726 16.75050081
Cl 6.62750017 9.94226830 16.92290253
C -0.09010985 0.20840158 13.85937642
C -1.74734040 3.06437492 14.03949745
C -3.31953706 6.00664644 14.05308278
C -5.20192098 9.09129280 13.94741506
C 3.32435172 0.03808643 13.80665706
C 1.83829143 2.91481074 14.14746198
C -0.15816315 5.85546041 13.96876107
C -1.84429332 8.99647541 13.89913290
C -0.00010408 11.89694660 13.80781395
C 5.12519879 2.86667264 13.95006593
C 3.32177784 5.93296506 13.89451767
C 1.66596420 8.86977008 13.90802656
C 3.42649131 11.94477961 14.03630679
C 8.60640991 3.01669933 13.76540324
C 6.91419430 6.03328727 13.97608057
C 5.17704401 9.08683852 13.92680891
80
Time=299999.99999840 pbc="T T F" Lattice="13.79398668 0.00000000 0.00000000 -6.89699334 11.94594288 0.00000000 0.00000000 0.00000000 27.81022107" energy=-522.52318048 virial="5.62054313 0.19592722 -2.22851449 0.19592722 10.96067902 -3.10169620 -2.22851449 -3.10169620 -20.39507311" stress="0.00227953 0.00004275 -0.00048630 0.00004275 0.00344483 -0.00067684 -0.00048630 -0.00067684 -0.00339747" Properties=species:S:1:pos:R:3
Sc -0.02162477 2.04244966 15.32298213
Sc -1.82417442 5.19897915 14.92526701
Sc -3.38497159 8.08439614 15.02564125
Sc -5.17083785 10.95637008 15.31988685
Sc 3.39980583 1.95445488 15.29775146
Sc 1.71645070 4.96810526 15.16493550
Sc -0.06021882 7.98685059 15.12620123
Sc -1.48862842 10.88809824 15.05422839
Sc 6.99519535 1.95347199 15.16061220
Sc 5.12920437 4.91464036 15.31519072
Sc 3.45110143 7.90169951 15.03590489
Sc 1.84023747 10.86829607 14.99088879
Sc 10.32815133 2.10559479 15.05837016
Sc 8.51086825 5.20887247 15.39225002
Sc 6.60962796 8.11398016 15.15523373
Sc 5.14701854 10.93122323 15.20087301
Sc 1.66370322 0.92942734 12.68889097
Sc 0.02773125 3.96307472 12.79534319
Sc -1.88156619 6.98219327 12.41350959
Sc -3.41905879 10.04295831 12.69607661
Sc 5.02473661 0.91529021 12.70708309
Sc 3.33967370 4.01274590 12.67121874
Sc 1.59675480 7.02429350 12.64929792
Sc -0.00648908 9.93116497 12.45341643
Sc 8.69270634 0.95944557 12.57379205
Sc 6.86051033 3.76836513 12.73866371
Sc 5.07074440 6.88207942 12.67235944
Sc 3.51967859 9.83073960 12.66772957
Sc 11.99723456 0.91673668 12.64212137
Sc 10.37229790 4.00584155 12.56973496
Sc 8.58963099 6.87677597 12.56934610
Sc 6.85651657 9.93407258 12.82288685
Cl 0.05834581 2.00779287 11.00510748
Cl -1.75158338 4.93685106 10.94259486
Cl -3.58191225 7.89864006 10.86042586
Cl -5.25127584 11.11858662 11.16825818
Cl 3.50812787 2.07805300 10.74111424
Cl 1.71208449 4.92055917 10.89397880
Cl -0.13340489 8.05601221 10.68348270
Cl -1.67477253 11.19877124 10.81293040
Cl 7.10292488 1.66978904 10.94563058
Cl 5.06944571 4.96469783 10.97201091
Cl 3.48322726 7.82849905 10.92918951
Cl 1.79176871 10.72135182 10.84714041
Cl 10.46309800 1.88024804 10.95112550
Cl 8.56822180 5.02575902 11.11584138
Cl 7.01750237 7.96600726 11.05692450
Cl 5.29246302 10.81430280 11.03547348
Cl 1.63586428 1.04533828 17.07238593
Cl 0.03783879 4.06106965 16.87127339
Cl -1.68961191 6.92435410 16.66858451
Cl -3.28576314 10.02125388 16.70444153
Cl 5.21546156 1.21282896 17.00652356
Cl 3.43879779 3.98957589 16.94763465
Cl 1.67101972 7.00556172 16.94466939
Cl 0.16425389 10.02408435 16.86211522
Cl 8.72656441 0.96386359 16.87853275
Cl 7.00686135 3.87243333 16.97641442
Cl 5.16476413 6.91608347 16.91671461
Cl 3.58373326 9.84652059 16.81408059
Cl 12.07507246 0.88729772 16.78729367
Cl 10.26228300 4.05525037 16.88436759
Cl 8.69887613 7.14214410 16.75104259
Cl 6.98553676 9.84963812 17.14281035
C 0.08625132 0.17809087 14.04451657
C 12.07588450 2.95075779 13.82153743
C -3.52517496 6.33459210 13.93171517
C -5.21052388 9.10293052 13.99455616
C -3.44188932 11.90174691 13.76407479
C 1.85481916 2.95045707 13.94197967
C 0.01495959 6.11183016 13.74730579
C -1.49552574 9.00223177 13.74652015
C 6.88483260 0.03113857 13.85171815
C 5.08761816 3.11007655 13.82027628
C 3.40328730 6.09056516 13.90369140
C 1.73529275 8.92368727 13.67571140
C 10.43825105 0.03017050 13.88398255
C 8.60096186 2.96236011 13.87960129
C 6.84879802 6.02965294 14.08928282
C 5.18443410 8.90406809 14.03789202
80
Time=349999.99999862 pbc="T T F" Lattice="13.79398668 0.00000000 0.00000000 -6.89699334 11.94594288 0.00000000 0.00000000 0.00000000 27.81022107" energy=-523.56457043 virial="13.09066975 0.52474797 -3.16275549 0.52474797 12.07158804 10.27672380 -3.16275549 10.27672380 -1.72660504" stress="0.00390963 0.00011451 -0.00069016 0.00011451 0.00368725 0.00224254 -0.00069016 0.00224254 0.00067627" Properties=species:S:1:pos:R:3
Sc 0.02099569 1.97715088 15.13130298
Sc -1.69242346 4.96091036 15.05812487
Sc -3.34782326 7.82302328 15.05903542
Sc -5.03984242 10.88348702 15.07820500
Sc 3.18351452 1.86741297 15.13158643
Sc 1.75379500 4.98122797 15.12011765
Sc -0.04677280 8.09238544 15.20160143
Sc -1.88008890 10.98990873 15.29035291
Sc 6.86306831 1.87053640 15.16569622
Sc 5.25035772 5.03381034 15.10165767
Sc 3.42515075 7.81062591 15.10635044
Sc 1.63536646 10.96646005 15.17788663
Sc 10.52417862 1.87573703 15.16039700
Sc 8.67266361 5.05861648 15.12136021
Sc 6.95385546 7.93928665 15.12375561
Sc 5.13280616 10.90014396 15.24885601
Sc 1.66159715 1.13785832 12.56860071
Sc -0.01305695 3.94781104 12.53405195
Sc -1.52348119 7.03481329 12.64615448
Sc -3.52315370 10.03676516 12.63689174
Sc 5.08305647 1.15068721 12.65408057
Sc 3.41911986 4.10014308 12.58918416
Sc 1.63295447 7.19588999 12.71890224
Sc -0.07021392 9.98259947 12.70352161
Sc 8.62905045 0.96524937 12.71286068
Sc 6.93058373 3.84279888 12.67562464
Sc 5.15370169 7.05544079 12.60818379
Sc 3.39416518 10.00711022 12.67921692
Sc 12.09333980 0.80440886 12.73345147
Sc 10.38677717 4.08853596 12.81099899
Sc 8.52297734 7.00819131 12.53072016
Sc 6.84227821 10.15440423 12.68889597
Cl -0.05312683 1.75458863 10.88468443
Cl -1.64858153 4.88214102 10.84571966
Cl -3.41653730 8.05430763 11.08253532
Cl -5.27212658 10.89368381 10.97905481
Cl 3.45902459 2.02185958 10.92584836
Cl 1.53376886 5.10148962 10.93399634
Cl 0.05778236 7.98362519 10.91554545
Cl -1.53978868 11.04447052 11.10163513
Cl 6.95910321 2.05454477 10.99328368
Cl 5.18327622 5.06454319 10.95569975
Cl 3.50293573 8.29448974 10.78752441
Cl 1.66673756 10.78673099 11.02707113
Cl 10.38459820 2.01371780 11.18496642
Cl 8.74752434 4.99251234 11.19425449
Cl 6.91043991 7.75097060 10.91100383
Cl 5.00502330 10.96930414 10.95704682
Cl 1.82446061 1.05892534 16.91041279
Cl -0.10316788 4.08288468 16.78216552
Cl -1.60455625 7.03119554 16.94761724
Cl -3.56354960 9.74118007 16.92330778
Cl 5.23956893 0.94378867 16.80432953
Cl 3.44245797 4.05436568 16.73041411
Cl 1.75748437 6.78343708 16.89850266
Cl -0.00166294 9.95394284 16.89256053
Cl 8.50837520 1.02423602 16.85641304
Cl 6.84561610 3.94365728 16.86565074
Cl 5.16659338 6.92280204 16.90628792
Cl 3.50056377 9.93256216 16.62817780
Cl 12.15179192 1.09640524 17.06578429
Cl 10.39984785 3.80304912 16.70928155
Cl 8.83535223 6.85228774 16.77643700
Cl 6.98578053 9.83598882 16.83972126
C 6.71353623 11.90660371 13.99302381
C -1.59046876 2.90547776 14.00173207
C 10.30074834 6.04935029 13.77025423
C -5.08126791 9.06226693 13.70953878
C -3.54306033 11.93929841 13.86232974
C 1.60535096 2.95221242 13.76795718
C 0.01865243 5.91220817 13.95227559
C -1.80496301 8.84550408 13.89385860
C -0.02508967 11.70190215 13.89003175
C 5.11459626 3.01158595 13.89335536
C 3.44874965 5.92274257 13.93538679
C 1.77878325 8.84425919 14.00710094
C 10.24194685 0.02711768 14.09672221
C 8.72313476 2.96039339 13.87728107
C 6.94862084 6.06421839 13.86767268
C 5.12566800 9.09418025 13.94863003
80
Time=400000.00000008 pbc="T T F" Lattice="13.79398668 0.00000000 0.00000000 -6.89699334 11.94594288 0.00000000 0.00000000 0.00000000 27.81022107" energy=-523.58062172 virial="13.62473519 2.95620640 -6.63136314 2.95620640 11.96901061 2.70279414 -6.63136314 2.70279414 -5.29196149" stress="0.00402617 0.00064509 -0.00144707 0.00064509 0.00366487 0.00058979 -0.00144707 0.00058979 -0.00010174" Properties=species:S:1:pos:R:3
Sc 0.06710291 2.04900967 15.14050349
Sc -1.69595874 4.95047252 15.13755853
Sc -3.41300243 7.92940253 15.19995642
Sc -5.25432891 10.86575927 14.93280807
Sc 3.41214277 1.87491665 15.07914243
Sc 1.65530879 4.91645713 15.16213977
Sc 0.16796864 7.94358914 15.36189305
Sc -1.84151389 10.96510090 15.16098222
Sc 6.94055893 2.15943624 15.08204247
Sc 5.14595094 5.03017887 15.24324767
Sc 3.34659222 7.86373864 15.22240155
Sc 1.79298362 11.16851774 15.22725716
Sc 10.43090908 1.99082011 15.22731522
Sc 8.70801960 4.88762232 14.99194946
Sc 6.94218966 7.97671308 15.09646923
Sc 5.13983250 10.86777397 15.32857609
Sc 1.75596587 1.03268009 12.62290633
Sc 0.06986798 3.91425920 12.57045115
Sc -1.78039670 7.03024037 12.57541523
Sc -3.42075972 9.91907999 12.58575777
Sc 5.22384139 0.96141477 12.65114970
Sc 3.40830132 4.18351873 12.64870483
Sc 1.59288237 6.93399094 12.67291248
Sc 0.07622153 9.95140408 12.81976998
Sc 8.70363287 1.00038722 12.65332814
Sc 6.80626349 4.12103284 12.63642741
Sc 5.26233406 7.14375527 12.78296047
Sc 3.50333066 9.74722361 12.67357628
Sc 12.01244367 0.91246397 12.86075825
Sc 10.44010969 4.03797339 12.71772278
Sc 8.70484240 7.03323052 12.68753293
Sc 6.88733381 9.88312131 12.47713708
Cl 0.11434137 2.00677396 10.86266161
Cl -1.86767425 5.21399002 10.89593884
Cl -3.40495419 7.92940984 10.82301694
Cl -5.22339353 10.91088978 11.14263539
Cl 3.59029287 2.09651105 10.75209760
Cl 1.66892180 4.97958184 10.87721812
Cl -0.17188466 7.96096684 10.99637052
Cl -1.65497432 10.88085574 11.18179015
Cl 6.95431454 2.17887837 10.90485876
Cl 4.88527484 5.28551159 10.92299198
Cl 3.06844987 8.00725539 10.97350285
Cl 1.69438758 10.76030530 11.16186595
Cl 10.38207812 1.80687998 10.85019098
Cl 8.54562257 4.85732332 11.05514333
Cl 6.92146273 7.90286663 10.92760258
Cl 5.09871046 10.89503851 10.91055812
Cl 1.73024597 0.87661481 16.71382386
Cl -0.17535391 3.93078777 16.87008078
Cl -1.49441658 6.92701584 16.86164895
Cl -3.64722240 9.86918795 16.71660365
Cl 5.24160580 1.23280826 16.79972299
Cl 3.33528317 3.80245364 16.59462449
Cl 1.84354208 6.92085470 16.96206484
Cl -0.14661430 10.07639942 16.87991989
Cl 8.73749605 1.00450965 17.04007580
Cl 6.99007725 4.13614577 16.70901790
Cl 5.04167054 6.93032718 17.03334051
Cl 3.44184143 9.79067082 16.75529132
Cl 12.25240150 0.95749011 16.93034567
Cl 10.32601615 4.01074141 16.74858018
Cl 8.64395569 7.00571787 16.88341330
Cl 6.99648212 9.90155148 16.77670122
C 13.62943064 0.00880965 13.87882003
C 12.01642137 2.87543198 13.99479318
C -3.34266200 6.00395992 13.90582687
C -5.13819353 8.95945198 13.78863646
C 3.36024737 0.04795447 13.87089605
C 1.74567554 3.04611833 13.86433021
C 0.09179406 5.97114434 13.82017662
C -1.78324430 9.06662224 14.01254552
C 0.13167387 11.92840980 13.92906127
C 5.17683982 2.83657770 13.89164345
C 3.64360319 5.89954448 13.95113678
C 1.60714823 8.65601596 14.05459044
C 10.41913989 0.00820994 14.10271154
C 8.59535050 2.98030992 13.97073084
C 6.95416601 6.07353424 13.88688643
C 5.19307147 9.10904708 13.88649910
80
Time=450000.00000155 pbc="T T F" Lattice="13.79398668 0.00000000 0.00000000 -6.89699334 11.94594288 0.00000000 0.00000000 0.00000000 27.81022107" energy=-523.28847599 virial="16.95461121 1.22128495 1.66495942 1.22128495 13.66464866 -1.41809252 1.66495942 -1.41809252 2.68483777" stress="0.00475280 0.00026650 0.00036332 0.00026650 0.00403488 -0.00030945 0.00036332 -0.00030945 0.00163892" Properties=species:S:1:pos:R:3
Sc -0.11030859 1.98819259 14.98089780
Sc -1.71868062 4.89725705 15.13661691
Sc -3.44750221 8.04810348 15.11819302
Sc -5.09692358 11.02158973 15.29505321
Sc 3.34750364 1.93236926 15.22778207
Sc 1.65795403 4.97682527 15.07358815
Sc -0.15223206 7.99594160 15.01366468
Sc -1.69148909 10.76366325 15.22118062
Sc 6.75842357 1.91694417 15.31950603
Sc 5.11327650 5.04346226 15.24190413
Sc 3.63098981 8.06998689 15.32970396
Sc 1.57119681 11.07900264 15.10126689
Sc 10.32804264 1.93925534 15.07199290
Sc 8.66187435 4.93778575 15.23926891
Sc 6.84111321 8.03184537 14.93798216
Sc 5.24011880 11.06831420 15.15457431
Sc 1.68920256 1.07777944 12.67649851
Sc 0.10324325 4.05372886 12.64322012
Sc -1.73477456 7.05957599 12.57397492
Sc -3.46850032 10.00127027 12.59550796
Sc 5.17963225 1.03156234 12.71484418
Sc 3.60055060 3.93947275 12.59293472
Sc 1.67885892 7.07975147 12.80737957
Sc 0.00817742 9.92751763 12.63242710
Sc 8.52259153 1.05563852 12.76266604
Sc 7.03216444 4.03847564 12.78279775
Sc 5.14460986 6.98969307 12.72317140
Sc 3.42999223 9.93171108 12.81426734
Sc 12.05765708 0.93658663 12.74838353
Sc 10.41116361 3.95734721 12.66609016
Sc 8.73128955 6.83918681 12.63615939
Sc 6.99482452 10.09141388 12.64521864
Cl -0.24743482 1.91939573 10.99661892
Cl -1.89222819 4.82443463 10.59196872
Cl -3.52045499 7.99374101 10.68136015
Cl -5.21093474 11.00789114 10.78041584
Cl 3.44175245 1.91102218 10.78287662
Cl 1.78439992 4.97376664 11.11353954
Cl -0.06658216 7.47453747 10.87127364
Cl -1.73774390 10.74467572 10.99722009
Cl 7.02522075 1.99162873 11.05970441
Cl 5.28715190 5.22304244 10.88587875
Cl 3.49430100 8.05999544 11.15903631
Cl 1.78160031 10.92904186 11.00911984
Cl 10.33168739 1.92593074 11.19009563
Cl 8.64773853 5.06766157 10.96331904
Cl 6.82237339 8.00736896 11.15753176
Cl 5.33430924 10.80553345 10.96617233
Cl 1.71397918 1.11348014 16.76516371
Cl 0.14026562 3.92929491 16.76247027
Cl -1.72696725 6.96327837 16.71685292
Cl -3.38458921 10.05899485 16.88368736
Cl 5.01386032 1.07117894 16.82072139
Cl 3.40113585 3.96415226 16.70271715
Cl 1.63568445 6.85545073 16.68667638
Cl 0.07566587 9.92559149 16.83957576
Cl 8.59651498 0.84324263 16.82042925
Cl 7.08705909 3.79946874 16.99467360
Cl 5.27675645 6.82772900 16.93051517
Cl 3.21352342 9.98513949 16.89999226
Cl 12.07277977 0.99742846 16.83532452