135
Time=99999.99999996 pbc="T T T" Lattice="10.56489661 0.00000000 0.00000000 0.00000000 10.56489661 0.00000000 0.00000000 0.00000000 10.56489661" energy=-874.26085419 virial="429.94140917 12.74833615 -3.66298560 12.74833615 388.40007130 21.20226962 -3.66298560 21.20226962 372.55548086" stress="0.39419334 0.01081080 -0.00310627 0.01081080 0.35896560 0.01797987 -0.00310627 0.01797987 0.34552913" Properties=species:S:1:pos:R:3
Ca 5.54002511 2.49086398 5.63235831
Ca 10.42630777 2.11086566 2.26196056
Ca 3.06643010 1.90487449 2.06508721
Ca 5.96355655 6.81767222 5.19741843
Ca 5.75002699 5.90449955 0.30418888
Ca 8.72652524 4.77671038 1.22304838
Ca 0.26158468 9.58994162 5.27417760
Ca 3.72340697 9.20567283 4.41653258
Ca 1.83938668 2.32154182 9.74623884
Ca 10.21108661 4.24061776 4.61268358
Ca 1.75820048 8.92262524 8.23809894
Ca 2.78275623 4.43609654 2.85655298
Ca 6.54900001 8.57004557 9.06226118
Ca 6.97217898 0.29052036 0.55843138
Ca 10.12789436 3.94470734 8.35744357
Ca 2.62016227 7.35562104 0.04518003
Ca 7.57060555 1.28976966 7.61928763
Ca 9.48583481 1.33462413 9.85771141
Ca 7.28572053 5.11035346 3.84938135
Ca 1.88512366 3.82814549 7.05200264
Ca 4.00921374 5.19265180 5.47158543
Ca 0.55344547 7.02756669 2.40397103
Ca 5.82449555 0.67260526 3.70017681
Ca 1.41436593 10.05169937 2.98444579
Ca 4.28141116 2.21717930 8.07222117
Ca 8.98407187 1.52172945 5.06449091
Ca 9.31682326 9.36170058 8.28557034
Si 8.97161391 6.76665801 7.16849802
Si 4.08057948 10.19609758 9.06833662
Si 4.87143346 2.26426026 0.17197236
Si 2.96468131 0.39509398 6.64110744
Si 5.39339640 3.68142423 2.68095378
Si 5.78693084 10.27662303 6.58166699
Si 0.06082505 1.34033954 6.97606290
Si 7.64831420 2.71210835 2.49723562
Si 3.25647557 4.62203070 10.16908764
Si 4.04232523 9.47799510 1.14013696
Si 6.57304511 8.20266492 1.76010776
Si 9.02009011 8.69376133 1.42378346
Si 0.83900933 4.23234652 0.50400282
Si 7.48742740 2.94915166 9.88802189
Si 2.02251629 7.09340988 5.04716460
Si 10.04511504 6.94184620 9.95788713
Si 1.39604343 6.61417278 7.52919202
Si 7.48476363 4.32601114 6.51203419
Si 4.21120343 6.94251480 2.52028781
Si 4.11807583 7.78343128 7.38830831
Si 7.98842101 5.59765031 9.22731588
Si 9.32681010 7.04810522 4.36065493
Si 5.41813201 5.33205044 8.11724337
Si 1.93622696 1.93359218 4.90624649
Si 0.89969407 9.98699090 0.22157964
Si 7.61769567 8.78404889 5.96805477
Si 8.56670052 10.27953986 3.25039978
O 5.70910681 9.66030395 2.10493158
O 9.83587066 8.60460862 10.28119794
O 9.41315405 5.25905662 9.70049527
O 4.39724472 0.63500362 5.95012617
O 4.80803105 7.82097976 0.74313443
O 3.91276514 3.23765754 9.70407296
O 6.49146905 3.82991779 7.95981307
O 8.82545815 5.76459577 5.74467403
O 10.10414182 0.36950439 3.56408405
O 0.61878232 4.52094083 2.07964604
O 1.35262356 7.92879752 6.28792475
O 4.38839321 5.33889496 9.37773089
O 7.35144112 4.41650501 10.38791968
O 3.58745189 10.45844486 2.53238699
O 0.35433103 6.44311961 4.78876497
O 2.58323403 2.09166513 6.59323765
O 2.82630134 9.63179010 10.39299622
O 1.95823483 4.68275406 9.09811855
O 0.99457589 0.84108403 0.76546281
O 5.08066981 6.59650744 7.15924739
O 7.42516220 7.36918364 7.07525260
O 3.64224397 5.83320353 1.10528666
O 6.77709126 1.13220508 5.83607263
O 5.35997061 7.55760507 3.51184463
O 7.61588425 8.43043822 0.46314353
O 8.92875140 3.31168364 3.51088158
O 8.30733119 2.50319912 0.96613332
O 4.39548770 2.70745897 3.57503536
O 7.86266456 9.08162039 2.73003335
O 8.56521381 7.37249995 8.90074340
O 2.33709573 0.29717098 5.04512752
O 9.96006116 8.56783378 3.35931542
O 2.32399380 3.62389521 0.65389681
O 6.25037874 2.09618527 9.66950053
O 2.90759554 6.34260622 3.67121802
O 10.45320061 5.79515587 7.45748078
O 6.51181448 3.11043402 3.84880577
O 6.84774749 4.03349064 1.96769462
O 8.48152548 3.37103970 5.96114899
O 0.60694951 5.89314722 0.15102322
O 9.26214777 0.56269438 6.95409272
O 4.96697491 5.11788829 3.37543736
O 4.25947963 8.56866472 9.02165938
O 8.29276417 5.20127606 7.72687315
O 4.32065398 3.93804076 1.20415747
O 9.57134597 8.13370236 6.16804861
O 7.76265084 7.76118514 4.50455186
O 6.40827415 4.82479001 5.67633101
O 5.40302770 8.80259450 7.10376374
O 0.00535802 3.19644176 10.42018599
O 2.21481281 3.49885304 4.95157996
O 1.61835423 8.51417496 4.21824332
O 1.31262562 1.84616865 3.42566603
O 3.61782250 1.15679784 0.26869404
O 3.06509676 0.74358841 8.30220026
O 9.63525791 6.96393019 1.06826813
O 5.17440146 10.13662853 10.42142704
O 7.98568159 0.09308716 9.22547416
O 3.64999848 7.28140746 5.55882181
O 9.15332133 10.52184234 1.45488327
O 7.02643675 6.54296467 1.86881251
O 1.37331629 0.27278598 7.20369156
O 6.58558508 6.27383098 8.90375765
O 1.69282874 5.59269127 6.09784284
O 5.87096566 1.83327045 1.90236944
O 0.85474468 7.44276754 9.05717861
O 0.28474752 2.08505066 5.65934842
O 3.12662097 8.30526961 2.39995166
O 3.17471183 9.21836203 6.89832458
O 0.51958971 2.08402012 8.32096542
O 1.12103538 8.61297989 1.10760413
O 7.35848412 9.71228537 7.18318417
O 8.52576782 2.79367563 8.76063157
O 3.02339816 6.74993166 7.91252284
O 0.28432693 10.50137082 9.36107914
O 8.54440447 9.92800726 4.87670620
O 5.31239309 0.22565708 7.95778058
O 4.21306443 4.28094080 7.45269991
O 6.14674946 9.30170814 5.13432743
O 9.20010350 5.97285780 3.02507937
O 7.97476145 1.25135607 3.15991879
135
Time=199999.99999918 pbc="T T T" Lattice="10.56489661 0.00000000 0.00000000 0.00000000 10.56489661 0.00000000 0.00000000 0.00000000 10.56489661" energy=-875.51045261 virial="427.83597069 -26.70868451 -6.24403508 -26.70868451 397.32986439 11.86056794 -6.24403508 11.86056794 353.45103677" stress="0.39240789 -0.02264940 -0.00529504 -0.02264940 0.36653821 0.01005796 -0.00529504 0.01005796 0.32932825" Properties=species:S:1:pos:R:3
Ca 2.67592453 3.13243068 6.48199412
Ca 0.06129445 2.22683468 1.13754737
Ca 2.93869709 1.65769735 1.69167594
Ca 7.04492611 4.80039049 9.44418160
Ca 5.80254050 6.84124697 0.11846813
Ca 9.43603463 5.80734590 0.81981977
Ca 9.20110454 10.18201109 5.22428604
Ca 4.60521356 8.48081784 5.13709848
Ca 2.03899188 2.71795011 9.19496792
Ca 0.03273662 4.59191834 2.84265362
Ca 2.70161224 10.20819719 9.45683564
Ca 2.75620086 4.21841360 3.35680978
Ca 5.38687788 8.56177861 7.63635793
Ca 8.29695323 8.95570538 0.01125725
Ca 8.24359283 5.37847769 6.73829314
Ca 2.82190577 7.05914884 0.07027652
Ca 7.62388988 10.30245880 7.79627777
Ca 5.71251059 1.14435859 1.89111520
Ca 7.71369122 5.88385394 3.21903990
Ca 0.30319163 3.88184641 6.48277841
Ca 5.07393465 5.39563716 6.04427039
Ca 1.47191376 7.46301054 2.93642383
Ca 4.03315300 0.73804023 4.37612965
Ca 1.50763907 10.07793598 2.29826671
Ca 4.88658047 2.53106779 8.95986121
Ca 8.70006170 2.90865930 4.20810859
Ca 10.46584316 8.64035590 7.48795377
Si 7.66390249 7.98021652 5.52279842
Si 5.38815368 10.00957120 10.05622622
Si 7.70059866 1.62669663 10.21325154
Si 2.20831250 9.65499671 5.95253003
Si 5.72687506 3.37879136 4.25894732
Si 4.52092759 0.63431227 7.18972303
Si 0.17191795 0.76573703 6.78141343
Si 7.45634989 3.55852523 1.43082499
Si 4.78391966 3.67937214 0.83511472
Si 4.27163804 9.17202337 1.35603580
Si 6.79010175 8.87661687 2.61353956
Si 9.15372990 8.18684039 2.67932408
Si 1.37384409 4.63776596 0.39504815
Si 9.65070558 3.47920657 9.06342810
Si 2.11132044 6.18136946 5.38965715
Si 0.49140312 8.39297125 10.29374959
Si 0.21345440 5.93815667 8.37640360
Si 7.09230363 2.66210334 6.89184957
Si 4.69926183 6.28081752 2.83553246
Si 2.71788715 7.45131574 7.60950204
Si 8.08619761 7.22078642 8.80029735
Si 9.82102968 6.57607262 5.00235555
Si 3.66123677 5.30733927 8.81105921
Si 0.86536511 1.71304187 4.37128027
Si 10.21018588 0.60208815 9.67870015
Si 6.66292318 0.41979744 5.05188471
Si 9.01398099 0.32261005 2.42201975
O 3.86141198 10.15286353 2.59241840
O 0.23570551 9.86548218 9.48843614
O 0.45346665 6.42218860 9.90604320
O 5.20716832 10.34208888 5.94900364
O 5.70461650 7.41897058 3.23456361
O 5.02212502 4.90846978 9.93878630
O 6.03683898 9.78671069 3.91045411
O 9.41194549 4.87365419 4.83236934
O 10.51493156 1.41668010 2.97204013
O 4.35746957 5.56412787 1.35734452
O 3.63003530 6.82417087 6.36816530
O 2.58917282 4.94079873 10.08842899
O 6.85587556 1.81235749 8.38681501
O 2.34431090 9.41575793 4.23491619
O 10.03921789 6.41270883 6.92289981
O 2.90690501 0.46112747 6.19966654
O 5.12902661 10.36970615 8.54633673
O 0.51715554 4.10065320 8.45959617
O 1.53456393 1.17925710 0.08970635
O 3.95502681 4.19597897 7.69828182
O 6.07147150 7.34359454 6.04980317
O 1.50361049 5.74298308 1.48141345
O 6.48111840 3.98387936 7.56554923
O 7.94892328 7.58993936 1.92790768
O 7.64665166 6.62930018 10.32207553
O 8.76151988 3.76149333 2.42022773
O 8.53702193 3.74012260 10.25981682
O 4.14905693 3.47086195 4.74768741
O 7.60938137 10.02142258 1.79789740
O 6.70679000 6.51444684 8.05673501
O 0.75318752 10.45013557 5.13776132
O 9.89009266 9.59635584 3.01503461
O 1.83280218 3.32083400 1.08174960
O 8.83094042 3.06928249 7.81717425
O 2.81311270 4.87039729 5.46655302
O 9.51155869 7.78197543 9.39582288
O 6.64486375 3.85650122 5.40081439
O 6.23773997 2.76078520 0.39210772
O 10.17703849 1.72593527 5.41893612
O 1.76881576 7.91296417 8.87346935
O 7.11159476 9.50758299 5.89170704
O 7.13672698 5.06226678 1.09525165
O 3.32358732 9.01835782 7.31563236
O 9.40667655 8.01852996 5.45307065
O 4.37797231 2.97511208 2.13370281
O 8.27864570 8.02421479 7.42332203
O 7.97760470 8.58186124 3.88791418
O 7.82627922 1.60957800 5.82981036
O 7.94182461 6.50648456 5.29741547
O 5.81435096 1.72715854 4.49256312
O 0.83076152 3.27533623 4.61257825
O 0.87916489 6.10675055 4.43595633
O 2.24928980 1.61510804 3.89654457
O 6.41788695 8.80401288 9.34128500
O 5.94093673 8.81621730 1.11218682
O 10.22777946 7.94767501 1.35950557
O 3.63924000 7.65018831 1.99565652
O 8.70219162 0.61048806 9.59273054
O 3.11708298 6.63408854 3.82328956
O 9.86380438 0.26249512 0.89845805
O 2.00192936 8.68730338 0.65646292
O 9.60008638 0.06073957 7.86002136
O 5.54855694 5.02657309 3.70776282
O 1.78984137 5.88137173 7.79408081
O 3.59027102 2.95857636 10.51095449
O 1.65392293 7.74880161 5.87706504
O 0.81011037 2.04472932 7.54166934
O 6.69724798 3.26699343 2.89827684
O 1.28188170 10.08186049 7.44862551
O 9.19520807 5.58745433 9.12438886
O 4.25865093 8.86730978 10.29292226
O 5.18859176 2.15262085 6.56519597
O 10.49057710 3.99566415 0.32028568
O 4.01644539 6.89480147 8.75486200
O 10.52998663 2.12545403 9.53705859
O 7.90780779 0.70681849 3.86108976
O 4.37573040 0.44962429 0.28545992
O 6.77298482 0.39885187 0.00256548
O 3.43105994 1.27797691 8.31421346
O 9.71608689 6.73733391 3.33728440
O 8.32531779 1.84534476 1.16179512
135
Time=299999.99999840 pbc="T T T" Lattice="10.56489661 0.00000000 0.00000000 0.00000000 10.56489661 0.00000000 0.00000000 0.00000000 10.56489661" energy=-872.94493161 virial="428.52892423 32.99639936 1.29048474 32.99639936 383.61093933 -12.52568889 1.29048474 -12.52568889 485.52445163" stress="0.39299553 0.02798149 0.00109435 0.02798149 0.35490434 -0.01062199 0.00109435 -0.01062199 0.44132867" Properties=species:S:1:pos:R:3
Ca 2.71403089 3.36155800 6.47763974
Ca 10.41977137 2.42776520 1.25219792
Ca 3.86238294 1.19568162 0.59419574
Ca 7.00295584 4.00400506 9.27326126
Ca 6.24375031 6.63820008 0.55322237
Ca 9.69496266 5.83727741 0.43711616
Ca 9.62927517 9.85178975 4.43392376
Ca 4.87969712 8.60164403 5.44730209
Ca 2.03779159 1.07464425 8.98090111
Ca 0.44279849 5.15818400 3.09075283
Ca 2.72933348 8.53405827 8.89514734
Ca 2.90428442 3.96296628 2.26721125
Ca 5.85770238 7.41391710 8.20301328
Ca 8.00294642 8.43247357 10.21569674
Ca 8.14100021 3.92048713 6.46140642
Ca 2.59813699 6.50049766 1.01390249
Ca 7.22824669 10.10942615 7.90550807
Ca 6.15104739 1.09601329 2.56243399
Ca 7.85250718 5.53207542 3.27560816
Ca 0.31855982 3.40665294 5.97725335
Ca 5.35818862 5.46562641 6.24501924
Ca 1.18453592 8.09422025 3.71644296
Ca 3.43232607 1.42308339 4.14440404
Ca 1.16660547 0.24074954 1.89857703
Ca 4.82876419 2.96019727 8.77738624
Ca 8.82525216 2.57166148 4.09905297
Ca 10.52679505 8.61239871 7.66115766
Si 8.01760190 7.87393291 6.03495943
Si 4.97664161 10.05634039 9.82015694
Si 6.94623221 1.29308978 10.48070273
Si 1.70514000 10.52970027 5.82938543
Si 5.77114271 3.64818146 4.03940699
Si 4.11103819 0.23760152 7.12180343
Si 9.31029540 1.08317784 6.73828460
Si 7.78288892 3.42672210 1.28738091
Si 5.10999572 4.38079329 1.19988817
Si 3.73917526 9.16592545 1.78127336
Si 6.56743138 8.67602397 2.82413542
Si 9.06665052 8.16401782 2.23604591
Si 1.68761231 3.81130393 9.86420475
Si 10.17913321 3.32225747 8.59964757
Si 2.51193619 5.35305260 4.78085378
Si 0.72330602 8.65606830 0.15383928
Si 0.87655166 5.78759259 8.28464997
Si 5.59720591 2.17943650 6.20345703
Si 4.31107836 6.63334169 3.52178737
Si 2.62540954 7.01565597 6.52720001
Si 8.69426007 6.05965464 8.23131462
Si 9.72400277 6.10663729 5.20058516
Si 4.12706166 5.65380866 9.66385919
Si 0.88585388 1.75071901 4.08797223
Si 9.55259384 0.30178427 9.67455163
Si 6.98204348 0.09543282 5.10581989
Si 8.85734823 0.34253376 1.99299800
O 3.47093563 10.13495308 5.49123592
O 9.96171979 9.20918324 9.66280288
O 1.09223904 5.13746288 1.10343064
O 6.48192873 8.14702743 6.33649332
O 5.86940250 7.36990667 3.59207694
O 5.49210287 4.72650261 10.05409253
O 5.92765000 9.81926248 4.13872618
O 10.13456303 6.51341636 8.91714736
O 10.16703552 1.06675304 2.93606176
O 1.84878974 2.63526802 0.46238288
O 3.99046571 7.41150415 7.28257069
O 9.70996543 5.44462851 6.71050512
O 9.77135899 2.44854913 7.23960800
O 3.49028850 8.10875587 3.10833723
O 1.50589543 6.90942709 7.44335659
O 1.84943260 1.73713924 5.60523067
O 6.49893297 1.68156311 8.94681839
O 2.56145571 3.00508920 8.92985635
O 1.46333917 10.02407822 10.28253816
O 5.82262376 2.72032083 0.64529146
O 7.96321528 6.61874604 5.05006551
O 2.89283977 6.09682609 3.06389124
O 6.31708954 3.27703398 7.29283610
O 7.73617736 7.28498064 1.71720117
O 7.83109146 5.93326771 9.60480844
O 9.11365702 4.27752522 1.70528447
O 8.82577410 4.27431668 8.26862715
O 4.67414884 3.19771266 5.13309528
O 7.89823394 9.56895756 1.50967463
O 7.29310994 5.85415210 7.50502088
O 1.47145559 0.04180635 4.25297125
O 10.19536439 9.53423549 2.41641810
O 9.67761965 6.71503201 2.84841371
O 0.77759121 3.87721482 7.69410852
O 2.72092442 5.27860014 6.33991262
O 8.64354392 8.10888034 7.61864514
O 6.92649607 3.97802468 5.17902845
O 8.24324542 2.61460083 10.46629543
O 10.06484575 1.56673088 5.33645070
O 4.19516732 7.11338438 10.24013922
O 7.67782828 1.19401023 6.15690936
O 7.01939005 4.83608636 0.96225341
O 0.33423155 10.25389784 6.40647805
O 9.80318061 7.83942879 5.18511238
O 4.97770338 3.14465500 2.71001777
O 5.74363097 0.32953733 6.45449009
O 5.37158076 8.58114104 1.39067793
O 8.17986959 9.66055984 5.90754924
O 7.96414950 8.61738595 3.63942907
O 6.10016673 1.58504037 4.63545860
O 0.08817646 3.26450736 3.27219062
O 0.76807729 5.87364763 5.08992389
O 1.94078602 1.84885722 2.78645050
O 4.63070128 9.36756736 7.85696187
O 6.13961060 9.05622143 9.65053976
O 9.90876616 7.99818237 0.80212984
O 4.91824615 5.72343073 1.99822123
O 10.20836967 1.80693115 9.38239790
O 1.76265062 8.26425206 5.71606083
O 9.72864512 0.34393064 0.64004384
O 1.70563013 8.72086631 1.70106622
O 7.83422586 1.50203661 1.54157040
O 3.80321990 6.71617267 5.04466398
O 3.43906906 4.71580390 0.16774423
O 4.55753925 5.43270276 8.18137410
O 9.21224003 0.13897503 7.98244404
O 2.47601836 3.89785517 4.15752314
O 5.24242404 5.31741525 4.12785192
O 7.88138637 10.55461859 9.87715914
O 2.02153013 5.29438378 9.05094360
O 3.79495986 9.53213480 0.07321748
O 4.11292025 2.12116822 6.92618548
O 0.07065477 4.09776580 9.78763610
O 2.34356565 10.30457372 7.28356284
O 1.63744829 7.64255331 10.02840887
O 8.06325082 0.46675138 3.57654228
O 3.85400523 0.13496873 2.26139433
O 5.60914981 0.40023381 0.51820481
O 4.19055137 0.70705287 9.07629661
O 9.41525883 4.69043700 4.78424232
O 7.10844109 3.49366704 3.04408843
135
Time=400000.00000008 pbc="T T T" Lattice="10.56489661 0.00000000 0.00000000 0.00000000 10.56489661 0.00000000 0.00000000 0.00000000 10.56489661" energy=-874.51969964 virial="373.64361765 -17.78896554 3.02571175 -17.78896554 401.04262516 6.21653854 3.02571175 6.21653854 360.88736205" stress="0.34645189 -0.01508533 0.00256585 -0.01508533 0.36968669 0.00527173 0.00256585 0.00527173 0.33563437" Properties=species:S:1:pos:R:3
Ca 3.40829733 3.66021457 6.41554177
Ca 0.21876307 2.33735516 0.06451637
Ca 2.21358141 0.40363743 9.23729882
Ca 7.65030769 4.66965216 9.28585939
Ca 5.72352743 6.84929805 0.27712754
Ca 8.58274706 7.47566096 1.19802540
Ca 9.51811262 0.87913968 5.25939215
Ca 3.69812655 7.36950117 5.34151078
Ca 1.19713136 3.53673588 8.14259291
Ca 0.88738769 4.98385781 2.73519063
Ca 1.55347546 8.80148132 7.08252593
Ca 3.70048221 3.02690001 3.65481656
Ca 4.81239625 8.32726342 7.49587592
Ca 7.79566141 9.87530576 10.47203425
Ca 9.14344890 5.43365439 7.13056812
Ca 2.94489632 4.46457574 0.53120962
Ca 7.13451192 0.63961334 7.73056273
Ca 5.43602845 1.02227679 2.09869767
Ca 6.58313987 6.11335110 3.64325949
Ca 1.02518701 1.65399080 3.10452857
Ca 6.39313710 5.89426080 6.39820927
Ca 2.08125072 7.62772682 2.39090835
Ca 3.57841996 10.05906116 4.46981772
Ca 10.50466965 9.58066204 1.49736079
Ca 4.56164070 2.68591677 9.21900452
Ca 8.33336332 4.15810774 4.80168311
Ca 10.22872912 8.22053125 8.82602859
Si 8.86247937 8.11800177 5.97417264
Si 5.17733148 10.18495999 9.55144298
Si 7.53400441 1.91600412 10.41417320
Si 0.36794417 9.32000334 4.23349759
Si 6.57684164 2.31763918 4.33575224
Si 4.48525598 0.92257969 6.62090721
Si 1.75717611 0.85996566 6.53022065
Si 8.88518533 4.66412968 1.34140035
Si 6.08185502 3.96547296 1.53888719
Si 2.91769550 8.12739922 10.27878952
Si 4.93467157 8.42798365 1.95400279
Si 7.71637530 9.77474793 3.56822429
Si 2.84793279 2.12532615 0.79027373
Si 9.18575102 2.61911313 7.97544322
Si 0.54150228 3.48735120 5.21584986
Si 0.29349216 5.84910416 10.47408939
Si 1.95905991 6.49153338 8.90623061
Si 6.50275777 3.19867759 6.95106104
Si 3.81062448 5.75309646 3.32846524
Si 1.29241080 5.91222130 5.55710984
Si 7.48951563 8.04712595 8.45253178
Si 9.58572081 6.79333289 4.01641834
Si 4.84205529 5.79026773 8.63501777
Si 2.54367897 10.38879465 1.76386664
Si 9.90076491 0.31227057 8.76731095
Si 6.41153563 9.09033213 5.38375842
Si 8.77129419 2.02223165 2.26157233
O 5.17407516 2.36411029 6.80776574
O 3.79916044 6.87344487 9.26795873
O 1.83862894 6.74525194 6.94732346
O 2.81801957 1.93684006 7.73477197
O 4.14605060 5.08961914 4.60157453
O 4.81291238 5.04914861 10.43940928
O 8.34460410 8.05844672 3.95003698
O 7.70141770 7.61454035 10.07970071
O 8.50068576 5.60568839 3.10817322
O 2.34058812 2.76632454 9.69854420
O 3.84431249 9.02918154 9.06360548
O 10.40233722 7.43918771 2.78279290
O 0.15276229 4.60397887 1.16523512
O 4.19132065 7.43944125 3.13716194
O 4.11033624 6.25993566 7.07654709
O 1.54192809 9.68663699 2.83315728
O 7.27033027 2.62068785 8.40993643
O 2.09923376 9.16078259 0.73709477
O 9.66752434 3.75241051 8.89398064
O 6.51228398 3.07337313 0.19434488
O 7.58283866 1.34271691 3.52303054
O 2.69801417 5.76075329 2.23841635
O 7.68302708 4.18777426 6.73913136
O 6.35571446 7.86789762 2.14758023
O 8.84711128 7.38779973 7.43244698
O 8.73190464 3.19007429 0.24040210
O 8.97635581 5.86483830 0.05258074
O 3.33672968 1.40428061 5.39246708
O 6.82012786 3.18516213 2.70983542
O 5.41234920 10.17869036 6.18434240
O 4.02127159 9.76544323 2.47145266
O 0.07983635 7.25192150 5.46817338
O 10.00854937 2.57897858 4.21979885
O 0.29665648 5.57817624 8.65606569
O 6.37608421 6.87592483 8.12721162
O 8.62066534 9.40013354 8.59198489
O 7.38239368 2.30059520 5.72227419
O 9.76117580 0.99971619 1.85366910
O 1.47222716 4.60383806 6.34649384
O 10.51813093 9.84026485 9.82029832
O 9.23242734 1.17879263 7.27027344
O 7.10972541 5.28785394 1.15367920
O 0.21356516 1.67227607 8.81291796
O 2.15490739 6.15352463 4.31851871
O 6.29807054 3.80871175 5.00929614
O 5.66791766 9.27977359 0.66886360
O 1.58214654 8.22943588 9.34785004
O 7.70897168 10.24734152 5.19150183
O 7.20178775 8.64948354 6.73972745
O 5.61836221 7.52226941 5.22847069
O 0.99820922 2.26455915 6.09304353
O 1.76371945 3.36069118 4.33108597
O 3.11746238 1.34719469 2.39458161
O 5.07404291 0.71429639 8.23012737
O 6.16871615 9.04058142 8.95471010
O 0.69274104 0.00062697 7.40324987
O 5.13831724 5.07464059 2.47720196
O 1.45245592 0.86966753 0.82558363
O 2.85090960 4.91880039 8.66305840
O 6.44891063 0.70997503 10.05860726
O 3.89146072 7.88049099 0.87893360
O 7.48316793 1.27366670 1.36930716
O 8.34137634 6.47711991 5.46329675
O 4.18039432 2.94255711 1.59067603
O 5.44034724 4.45857802 7.79052303
O 9.81741658 3.32153285 6.51574874
O 1.84251132 6.18052417 0.05870082
O 5.37243048 1.61859198 4.14076833
O 8.74583832 1.00115639 9.64886557
O 1.91326789 3.10160250 1.86265795
O 1.79380717 8.49754765 4.86774071
O 1.05426046 0.27510816 4.86711305
O 0.08644560 7.61576880 0.35836138
O 3.10163594 10.33816715 6.70142977
O 8.07456941 9.49131188 2.04196352
O 6.04360819 9.52982706 3.58387269
O 9.93137138 9.33225431 6.07447995
O 4.00762496 0.75774955 10.35956235
O 9.52765551 9.85396906 3.59596241
O 10.31850982 5.06914532 4.68367937
O 9.18648939 3.51015262 2.38717193
135
Time=500000.00000301 pbc="T T T" Lattice="10.56489661 0.00000000 0.00000000 0.00000000 10.56489661 0.00000000 0.00000000 0.00000000 10.56489661" energy=-884.47530868 virial="385.52886823 -24.39834774 -29.68265056 -24.39834774 379.37482873 -26.31580693 -29.68265056 -26.31580693 351.76077773" stress="0.35653077 -0.02069020 -0.02517137 -0.02069020 0.35131205 -0.02231624 -0.02517137 -0.02231624 0.32789488" Properties=species:S:1:pos:R:3
Ca 4.06336454 3.99703800 5.85176744
Ca 8.34967723 2.32471957 10.08599827
Ca 2.34855831 0.87062650 8.94778442
Ca 7.06040767 5.41523101 9.22660958
Ca 5.39650834 7.52476114 10.52455242
Ca 8.61166996 6.96325893 1.27302310
Ca 9.61574593 1.62729996 5.39690062
Ca 1.19096848 6.76143898 4.37588998
Ca 1.14352247 3.57485836 8.06914022
Ca 0.25530620 4.71612463 2.19368826
Ca 0.90247783 9.21452654 6.19508323
Ca 5.65507078 1.69264187 4.37837685
Ca 4.37381939 8.45582809 7.77102125
Ca 7.76590549 9.89721040 0.25002129
Ca 9.50050306 6.09525475 6.51631492
Ca 2.53807928 5.33456600 0.11179797
Ca 6.85494042 0.63411301 7.61907070
Ca 6.54243090 1.89338081 1.90507139
Ca 6.00549409 5.94489870 3.26111574
Ca 2.27932844 2.06615325 3.67877387
Ca 6.65045158 6.26174163 6.36265257
Ca 1.98928720 8.31228157 9.33370682
Ca 3.27682862 9.94796912 4.37961114
Ca 10.32864238 10.53396129 0.51720775
Ca 5.01088944 2.67207492 9.01053355
Ca 7.91251045 4.06968552 4.20518650
Ca 9.88350210 8.10084738 8.98232233
Si 8.63224910 8.80040851 5.98713978
Si 2.82168015 10.15308815 0.82394691
Si 5.38082197 0.20015365 10.11469682
Si 10.44845062 9.91619016 3.67921374
Si 7.80135163 10.35270498 4.03699897
Si 4.33334284 0.77526635 7.01047436
Si 2.17439219 1.38891972 6.32319346
Si 7.70531803 4.52848851 1.56790577
Si 5.46146251 4.37835750 0.91321503
Si 3.44296401 7.74076851 2.37922616
Si 5.89585800 9.14157529 2.49139191
Si 0.87891853 7.75758678 1.56040105
Si 0.87954545 2.59282190 0.18880494
Si 8.73686633 3.34486105 7.41509342
Si 0.38556825 4.05082156 5.03466133
Si 10.11431043 5.30000700 9.80037595
Si 2.00697284 6.33943556 7.43915017
Si 6.62627914 3.35607332 7.02825165
Si 3.94177239 6.86436882 5.24868881
Si 3.51758947 4.40942234 3.03735402
Si 7.03214639 8.27917380 8.54560794
Si 8.96143748 6.56931426 3.86601546
Si 4.36340167 5.40305011 8.32580851
Si 3.24759122 2.24723057 1.00152314
Si 10.03466656 0.36257296 8.23309196
Si 6.10224760 9.10289054 5.34738586
Si 9.35280627 1.85272010 2.64503738
O 5.63219391 2.06284251 6.79045894
O 3.38365335 6.78971710 8.76526818
O 10.03718848 8.58615193 0.69029886
O 2.61181521 9.92159777 7.38224312
O 4.86042327 10.18244860 6.22017032
O 4.74368753 5.25963725 10.05594676
O 9.56893016 9.65534205 7.07474204
O 6.11831079 9.29188497 9.42978691
O 7.87527190 7.45845002 9.63268676
O 2.38984178 2.66847920 10.34317544
O 1.45784027 9.20139234 1.09607892
O 5.09244466 9.44058132 3.97015956
O 9.07165714 1.67905979 7.53911163
O 3.44955739 9.43972429 2.36492564
O 3.27270772 4.09837571 8.28767913
O 3.63989893 7.49765181 0.81730082
O 7.17357144 2.78138811 8.35794701
O 3.91465871 1.47559748 2.27176862
O 0.35028279 1.81778654 9.32893177
O 7.15765709 3.48926918 0.55684992
O 8.84211324 9.33350726 2.69394999
O 9.74125580 8.05760983 5.02567586
O 8.05577354 4.89453507 7.18264292
O 8.53885285 1.15847540 1.29189451
O 9.57970323 3.64009398 8.86083637
O 9.11719529 5.04070404 0.55772207
O 6.55553799 5.52456221 0.82716321
O 3.68039234 1.25104263 5.39534555
O 8.07610990 1.46542374 3.77388616
O 7.04282080 0.05624427 5.51632257
O 5.42945191 9.99731833 1.10520620
O 4.96660535 7.66121542 2.58140805
O 9.99793058 3.63968862 6.23056124
O 0.42984756 6.55291709 0.10787647
O 5.99080906 7.03023566 8.24823280
O 8.06491270 6.05484225 4.95866689
O 7.80184287 2.60717374 5.93529290
O 10.31319917 2.90269435 3.88443562
O 1.48771367 5.17846879 6.11967330
O 0.95428421 8.65004593 3.03352186
O 8.55004877 10.41415650 9.04452849
O 6.18267362 4.06086041 2.46573808
O 3.83797822 5.43777175 4.26487843
O 2.55632797 7.18577359 6.03510021
O 6.02648582 4.03623917 5.60282502
O 10.46490537 2.53958604 1.39040646
O 3.24272408 7.70475054 4.05614655
O 5.14043537 7.84837897 5.79420412
O 6.61628692 8.97832103 7.07339359
O 7.97034870 5.65792941 2.87218485
O 3.28408446 2.06034029 7.58988984
O 1.70530776 4.42316662 3.94637684
O 10.54131284 0.77036217 2.91821751
O 4.83279575 0.62075124 8.56850994
O 3.91739481 0.87840868 0.00931659
O 0.71820161 1.32629650 7.34769591
O 4.33708365 5.07709057 1.81708113
O 1.50467112 0.97281038 0.92156502
O 0.96975092 5.54663913 8.65286770
O 6.61691760 1.18178416 10.10794043
O 4.06998163 3.31889450 3.97583563
O 0.59481080 9.84898150 8.66611380
O 10.15446064 6.92185378 2.72603464
O 2.32307841 3.42304808 2.08654197
O 5.46649685 4.26011962 7.76913601
O 1.22052398 2.58605181 5.62064189
O 9.16049886 6.17868083 8.91965382
O 7.51915957 8.61316164 4.53191993
O 3.76453612 9.58776720 9.77271309
O 0.73129894 4.19069403 10.51025816
O 0.70390539 7.51736238 7.58855609
O 1.45093245 0.32410988 4.78567605
O 4.45327131 5.97960680 6.64058844
O 6.32786605 0.11194501 3.08064727
O 7.02130508 8.22836584 1.70318514
O 9.12369507 10.08727460 4.77220167
O 8.30106992 7.69283850 7.10021304
O 4.87842964 3.02847288 0.75177951
O 2.06587601 6.70442016 2.38613185
O 10.04958443 5.18024453 4.05978052
O 8.70940283 3.48074595 2.42637256
135
Time=600000.00000594 pbc="T T T" Lattice="10.56489661 0.00000000 0.00000000 0.00000000 10.56489661 0.00000000 0.00000000 0.00000000 10.56489661" energy=-880.94759062 virial="402.35903769 -5.44614561 -7.21937169 -5.44614561 362.85591129 -16.68949931 -7.21937169 -16.68949931 362.84651384" stress="0.37080303 -0.00461842 -0.00612215 -0.00461842 0.33730373 -0.01415297 -0.00612215 -0.01415297 0.33729577" Properties=species:S:1:pos:R:3
Ca 3.30216582 3.94981921 5.97418924
Ca 9.06334605 2.17666414 10.46146014
Ca 2.73057050 0.39511042 9.14314412
Ca 7.05253264 5.26662989 9.41923063
Ca 5.38299490 7.14415229 0.02310942
Ca 8.18947788 7.06909989 0.91004413
Ca 9.61773259 1.05261132 5.87175199
Ca 1.21856229 6.62308417 4.68152017
Ca 1.31241751 3.18691053 8.04447444
Ca 10.41137330 4.50134907 2.43739798
Ca 1.12571994 8.96751522 6.63264647
Ca 5.66377787 2.19382184 4.29435083
Ca 3.89525158 8.72078010 7.73504171
Ca 7.95853029 9.50424511 0.46573871
Ca 9.76702079 5.69200114 7.35152965
Ca 2.77980650 4.86253346 10.39562501
Ca 7.32060282 0.34002308 7.48793440
Ca 6.64342992 1.65499823 1.56694716
Ca 5.96410149 5.93493198 3.32993389
Ca 1.87863255 2.11783647 3.71296583
Ca 6.83095712 6.39144502 6.11087785
Ca 1.54055296 8.33772444 9.73069981
Ca 3.58884321 10.17550819 3.88607398
Ca 0.19356482 10.31851294 0.76956431
Ca 5.09573933 2.57918955 9.22250701
Ca 8.00205114 3.64940479 4.73322259
Ca 9.52803595 8.32806827 8.97660364
Si 8.99235767 8.45993385 6.06770722
Si 3.69727398 9.14293426 0.72531300
Si 5.52747303 10.54679991 9.79697973
Si 0.89456582 9.67089656 3.55268355
Si 8.46739638 10.13098156 3.45561743
Si 4.51350245 0.93527285 6.57366305
Si 2.08020301 1.02349452 6.28469841
Si 7.72498268 4.31713836 1.90286556
Si 5.51870077 4.37278211 1.07570066
Si 3.09186238 7.38160643 2.54007320
Si 5.83938014 8.83669926 2.28461382
Si 0.32533167 7.64821339 1.58995459
Si 1.58706999 2.60375394 0.54308321
Si 8.48506690 3.18047785 7.72898979
Si 0.38307261 3.83237199 5.42061073
Si 10.43649422 5.06030412 10.12978533
Si 1.89239525 6.12199590 7.84357198
Si 6.31241524 3.78229392 6.77109643
Si 3.95763975 7.42143488 5.32963859
Si 2.87851917 4.56374830 2.84698006
Si 6.85332013 7.85271640 8.19147408
Si 9.27918423 6.21964801 4.04283057
Si 4.41189049 5.82046316 8.15353535
Si 3.81078956 1.51372424 1.10074002
Si 10.34764395 0.49139167 8.62117008
Si 6.42847765 9.08268045 5.08280543
Si 9.52833784 1.71259174 2.62409994
O 5.26446541 2.68606979 6.96576494
O 3.22481543 6.85858938 8.73392589
O 10.00052133 8.22722634 0.33796017
O 2.80340915 10.23190488 6.83433449
O 7.86340126 8.73158807 2.63920309
O 4.75372969 5.09491629 9.94696620
O 10.20716512 7.24230937 6.06371264
O 6.43678540 7.43384272 1.89271667
O 7.25236152 7.46491201 9.81487424
O 2.35516365 2.85188242 9.69952255
O 3.29371458 7.37346069 0.78131078
O 6.55558285 9.46030797 9.08112194
O 9.13875518 1.53518461 8.10685316
O 8.44410767 0.93755530 1.56258565
O 3.23202188 4.89435599 7.89734901
O 10.39326451 8.96371362 4.60283101
O 6.99974420 3.25993518 8.36120132
O 6.16724886 3.73846127 2.50727645
O 0.51240572 1.33201934 9.72968560
O 7.29414006 3.26782486 0.38959945
O 2.88333033 8.18452926 4.00574971
O 5.97047242 9.85577870 1.27500126
O 7.87088560 4.56765975 6.67225528
O 8.45091119 3.13607835 2.84546070
O 9.40787888 4.00676827 8.91977626
O 8.81912983 4.84158782 0.80180190
O 10.05238385 0.59258284 3.67166450
O 3.65039994 1.62009829 5.03589276
O 7.64642534 1.05460210 3.90139015
O 5.82049640 0.29425021 5.81604435
O 1.04458529 9.93898932 8.53290905
O 4.30021794 8.75109633 2.30343015
O 9.68882657 3.59830875 6.53939766
O 0.54418123 6.08444890 0.73916854
O 5.62797312 7.05263418 8.33075210
O 8.25817359 7.13987211 4.91195969
O 7.66217611 2.01331311 6.39859867
O 10.27099292 2.71338881 4.26691063
O 1.21373491 4.91499130 6.45158262
O 4.64139291 1.06235133 2.36957914