135
Time=99999.99999996 pbc="T T T" Lattice="12.09378762 0.00000000 0.00000000 0.00000000 12.09378762 0.00000000 0.00000000 0.00000000 12.09378762" energy=-871.50801710 virial="139.85543374 24.74055360 -2.87368406 24.74055360 99.52060759 -23.48230537 -2.87368406 -23.48230537 61.17875257" stress="0.11195088 0.01398693 -0.00162462 0.01398693 0.08914782 -0.01327559 -0.00162462 -0.01327559 0.06747147" Properties=species:S:1:pos:R:3
Ca 6.87606811 7.59095297 10.71393070
Ca 9.32057849 9.42259016 8.28692335
Ca 11.59071841 4.51774423 0.94478842
Ca 5.31011942 5.38053770 1.48320874
Ca 6.95418596 11.27818448 1.52158363
Ca 11.98670092 10.22056140 10.07007289
Ca 2.10133686 3.33776483 4.95594401
Ca 3.32116203 8.42384881 9.02188800
Ca 0.86155110 11.37593534 6.76890512
Ca 6.18026977 7.39801673 7.56058213
Ca 8.30559727 1.51395531 1.55747582
Ca 4.75511427 3.68970070 5.15855363
Ca 8.59787233 4.20954930 10.97644293
Ca 11.70453327 4.29370113 7.78643398
Ca 9.16706766 0.39076723 6.09560636
Ca 2.79569479 7.92406274 1.08336378
Ca 2.80915867 2.05167337 1.08539812
Ca 4.30072440 1.49163923 6.83706830
Ca 3.91463296 11.71430333 3.07159044
Ca 1.77164647 10.01240320 3.38121652
Ca 4.94879599 11.64984815 10.68984919
Ca 0.09987063 0.81355982 2.09637372
Ca 7.60455079 2.49237398 7.58079409
Ca 10.49834979 6.80820890 6.93294058
Ca 8.93181096 8.26408228 4.54367961
Ca 0.36673944 6.51977054 3.99255296
Ca 10.64106762 8.69595748 1.65537215
Si 9.53090569 10.60545554 0.23766530
Si 7.58861994 10.14280965 10.95837429
Si 3.03491315 4.94117959 8.14175952
Si 6.88172399 6.05850817 5.02361662
Si 10.68829234 6.44839010 11.15644072
Si 3.60501535 10.05595083 6.52226769
Si 3.45782692 6.26115170 4.69736351
Si 11.01488886 9.54895566 5.06196207
Si 10.93305564 4.55913307 4.08848952
Si 8.40498921 6.22447111 1.41874485
Si 0.46620081 7.30851150 10.02271073
Si 10.41071023 1.00595094 11.81123572
Si 6.76750164 0.97936584 4.50323567
Si 1.66892683 4.53625698 10.81642288
Si 4.90252104 5.95769559 10.53408830
Si 2.10647550 5.48268991 2.21291103
Si 8.08293295 5.21865107 7.49689252
Si 1.77970908 6.94096418 6.68645689
Si 1.76072265 0.44727936 4.46587759
Si 10.94393364 1.11669661 8.24680160
Si 3.06136452 10.65535837 0.39823331
Si 5.35124952 8.64253807 4.30817716
Si 5.56607138 2.48015214 1.24914002
Si 8.03431925 3.95216757 3.32895528
Si 6.62483056 11.09374268 7.61962457
Si 4.67443490 3.05520547 9.80189965
Si 0.64434606 1.76221372 10.29346152
O 1.78756872 8.40058919 10.61018243
O 2.86802871 1.70834453 3.98656888
O 11.88505277 6.48097741 0.10499750
O 1.42378951 0.52947515 9.79460709
O 11.29791062 4.26767106 5.68039844
O 0.76873699 3.28967880 9.98243703
O 4.86355468 10.97894894 7.35144055
O 9.33311289 6.14655816 0.21125619
O 9.77479922 3.41096790 3.29603077
O 3.31537940 5.44110667 3.35544995
O 5.05262573 6.41519181 5.11297459
O 6.95792938 0.64141532 8.60055104
O 4.19305556 1.59747996 10.75646938
O 6.23117970 1.23214904 0.37535927
O 9.53005765 1.57818752 7.69526548
O 2.78445832 10.29137885 7.90773254
O 8.80929393 8.15096093 6.79140691
O 4.70793336 8.84385267 5.74879709
O 7.46300351 3.00973692 4.80006535
O 5.66642678 0.46723429 3.63725464
O 6.95554499 7.58755388 5.19696435
O 7.97128276 11.27575299 11.98789421
O 11.03024365 8.33751141 4.06119715
O 7.06259741 9.52438815 9.16578271
O 7.76234785 10.81111401 6.77074587
O 1.82640719 11.81872378 3.01081758
O 0.26405395 1.20096393 4.71427093
O 6.30389907 9.73346247 0.01367691
O 2.45176219 7.73894662 5.20984656
O 3.59213003 3.37127776 7.43370784
O 6.03694037 4.97769877 10.42783191
O 10.80738655 11.67604139 7.91966384
O 11.03468227 5.78483947 2.88824269
O 8.04583787 0.45300859 3.57473413
O 10.55711588 11.36983147 11.34829378
O 7.00293172 6.42709331 0.70531309
O 3.34246392 9.76588955 1.72668671
O 9.62924718 9.97971754 5.62995883
O 8.52426289 5.60499440 6.03101564
O 2.11452560 4.61440887 0.59036495
O 9.32877309 4.27082112 8.28403469
O 3.17574406 4.14884353 10.84842961
O 1.40459124 4.73796774 8.15407347
O 12.07526052 1.99091148 0.09554899
O 3.30370756 6.73143715 7.56680988
O 1.14960654 7.74246046 7.99177387
O 6.17430437 4.78175540 6.87467906
O 1.42671014 3.65582300 2.76456136
O 1.27380524 7.09098228 1.99850071
O 8.66995741 8.73756312 10.64988928
O 6.94663887 0.71327400 6.19311955
O 11.93103077 9.07781311 6.33684678
O 11.20066945 7.93431263 9.93893882
O 8.85962954 1.92203095 11.58656811
O 5.42951779 1.86448985 8.72881088
O 3.78139877 0.01367672 0.85948843
O 0.46303587 6.41866834 5.77036407
O 7.84820893 6.47012548 8.36117971
O 2.13709875 0.58553802 6.02092114
O 2.47925450 10.41492456 5.60763327
O 9.99960093 0.34238198 1.20062872
O 11.26711173 4.96711998 10.47313078
O 4.26484517 6.15996418 12.01249364
O 4.93846739 7.20429185 9.38004231
O 8.52474511 4.37474028 1.50555176
O 6.61154659 3.03477867 2.20047214
O 0.39628797 2.00695372 8.07949860
O 12.06130483 10.41405752 4.23931219
O 2.62415306 5.26929661 5.46276952
O 7.15248997 5.00927895 3.62918654
O 9.17638742 10.10300504 1.48683718
O 4.19613174 4.68399100 9.17509205
O 1.56268442 6.19979343 10.62677895
O 4.61404091 7.39703985 3.46232477
O 10.88232004 9.28650203 11.74342936
O 10.53123731 1.49500453 9.89564367
O 4.24258284 3.69057113 1.56308838
O 5.63840083 9.54934298 3.02159442
O 1.66187120 11.28235454 12.09026820
O 8.60355794 7.42191677 2.41414647
O 3.57547559 10.16908364 10.67656283
135
Time=199999.99999918 pbc="T T T" Lattice="12.09378762 0.00000000 0.00000000 0.00000000 12.09378762 0.00000000 0.00000000 0.00000000 12.09378762" energy=-867.54987128 virial="81.12662983 -4.83291674 -12.31338597 -4.83291674 137.06613984 -0.54085072 -12.31338597 -0.54085072 147.83181197" stress="0.07874889 -0.00273226 -0.00696130 -0.00273226 0.11037397 -0.00030577 -0.00696130 -0.00030577 0.11646028" Properties=species:S:1:pos:R:3
Ca 1.57284309 1.94911698 3.58797681
Ca 8.84003433 3.56658773 3.67065551
Ca 0.37469802 3.36508831 6.55015706
Ca 8.55916117 10.28631291 9.33826053
Ca 1.66803349 5.35645650 3.57097480
Ca 7.65345025 6.25182515 4.08994286
Ca 3.94556453 7.96119814 1.36617850
Ca 4.34471100 9.97140982 9.57291012
Ca 3.20142847 1.46834329 9.74925267
Ca 1.92757743 11.06311309 12.06479479
Ca 11.24201582 8.25459152 7.22658068
Ca 8.30902407 5.51682906 8.54249669
Ca 5.35645130 2.14607402 1.20089124
Ca 9.67941684 2.79018341 6.93556496
Ca 9.21332574 8.36910385 0.49384052
Ca 1.78041574 12.03542592 5.50158511
Ca 7.06758650 9.54715477 3.34390419
Ca 8.08802847 11.44028486 5.72844077
Ca 8.16899058 11.85910914 2.05958457
Ca 11.73255414 1.54254897 0.86371979
Ca 4.81105214 4.08499767 3.61690638
Ca 9.60310148 5.73256544 11.31371950
Ca 3.47922516 7.28362076 9.64200521
Ca 0.08047536 4.23810371 9.89561620
Ca 4.60739346 0.60394174 6.92542061
Ca 0.68532130 10.08590977 9.37701257
Ca 1.77904380 6.94994881 6.68345254
Si 3.34582674 3.70654888 6.27748603
Si 2.51761552 11.69651736 2.61594346
Si 6.61519272 8.42159430 11.45092290
Si 4.25455865 8.95558758 3.81391692
Si 5.08585491 8.54027394 6.63012210
Si 9.93898954 9.66954078 4.86856401
Si 11.21767585 7.19346635 2.11687653
Si 2.37545341 3.06812155 0.93712003
Si 7.37445970 8.45500368 7.95692184
Si 10.60900960 0.73175835 3.77175260
Si 0.77377389 0.87675542 8.12010531
Si 0.76718615 9.37421554 4.09305495
Si 9.97990729 0.27071518 10.29607083
Si 9.31356844 3.03891001 10.76528307
Si 6.30563330 3.53788218 6.58442190
Si 4.48784657 6.38245472 5.34963904
Si 5.18850804 11.28173409 0.50623673
Si 5.91260729 3.93204917 10.04875101
Si 11.17193467 4.20803818 1.58025699
Si 6.85438750 1.23473898 10.29517578
Si 0.29804793 8.21990413 11.89073222
Si 0.65538683 6.88964231 9.47073761
Si 10.64205085 5.54091180 5.45821565
Si 5.79897609 5.96359866 0.14737117
Si 7.96425492 4.23003101 0.85279979
Si 6.45961176 1.10089264 4.36374382
Si 2.31561445 9.87976398 6.79095366
O 9.89745440 1.73308164 5.10507497
O 5.07519297 9.49042301 5.19034698
O 2.99370979 5.08954659 6.78048302
O 9.30141687 6.41777674 5.21272213
O 8.22887563 8.55123770 4.90304378
O 9.45883058 4.18229872 1.43124678
O 4.50415849 0.79017916 0.04291125
O 0.48612514 8.07935980 2.82579177
O 3.93758155 7.02496736 6.64102196
O 5.18874192 7.76637902 11.51299881
O 5.15254785 1.69893172 4.96403130
O 1.34504867 11.57254195 7.59884873
O 0.11468484 8.12066922 8.61394468
O 11.28102618 4.05143292 12.03970811
O 8.72868812 0.63041706 9.26866438
O 2.40295228 3.52406641 4.97787202
O 6.75977216 11.80055247 3.94384839
O 10.41598293 11.45670854 9.10824911
O 0.06222029 1.05228643 4.72554815
O 2.55434700 11.26086421 9.33845924
O 7.28379213 9.25365843 0.63633802
O 6.84269833 4.83187662 2.64260969
O 6.62244296 2.11104958 7.34884560
O 5.40238913 8.52393220 2.93554063
O 1.75128532 7.30306275 11.17673685
O 1.48550442 4.31850678 0.60586278
O 9.32048702 1.81518116 2.50116609
O 3.33024451 3.41438234 2.16708856
O 4.39416596 9.87234014 7.11779537
O 5.05835150 10.00395007 11.59383617
O 11.28355966 9.90698024 3.51875513
O 5.07287637 6.44118226 1.77659168
O 5.84563171 7.16957647 5.13057313
O 7.39902234 0.71248180 11.66202633
O 4.88316245 4.59439709 5.58042383
O 11.04730525 0.21795970 2.21644097
O 9.55215219 1.60433709 11.35685307
O 6.59653579 8.90975124 9.84613072
O 1.79482190 2.43674729 7.92329059
O 7.20990380 3.87460676 5.34010923
O 4.06062664 3.53129801 10.12562121
O 10.62148238 11.49838626 11.37971325
O 1.56229243 5.98494829 8.57382911
O 0.91434131 1.24675376 9.60992460
O 6.26662736 11.34606170 1.72728555
O 4.28597348 2.75028610 7.28950775
O 1.62710625 0.69371589 1.68968174
O 10.79327190 4.32852714 4.65799907
O 11.54596376 7.68258541 0.76408806
O 12.04323274 6.18774211 5.19630804
O 5.96729838 7.86510283 7.83063649
O 2.86068985 9.15749433 3.08812200
O 3.70365052 10.98834991 1.58317884
O 10.08257107 4.05964003 9.69560997
O 7.45038752 5.68064998 0.49237936
O 8.04586438 7.12986104 10.76309472
O 7.29834337 2.91356157 10.01528774
O 7.22520981 2.32535104 3.04570597
O 6.23557384 3.57824711 11.76954109
O 5.13882538 5.55993306 10.77128945
O 10.02841313 10.48162428 6.27709986
O 11.53997690 6.42345031 10.84369445
O 0.72807606 9.39403242 5.80462638
O 9.67478136 7.51270251 2.33070764
O 6.01875972 4.56278803 8.55764325
O 11.39562884 1.61765034 7.98797650
O 3.88448815 6.46172999 3.95188618
O 8.60090533 3.86657224 11.72342643
O 10.42416710 4.74062141 7.25112747
O 8.59275596 7.74591152 8.75631088
O 9.25506117 11.50095409 3.90802624
O 1.69861499 10.82549285 3.34178704
O 2.92040900 10.07893697 5.48874261
O 0.27280344 3.50091159 2.94131726
O 11.15335128 8.93336433 11.19749854
O 11.58757320 5.51483219 2.44430045
O 3.29557217 0.61290157 3.93176099
O 1.41520406 9.12123635 0.34434896
O 6.91297961 9.77197085 7.48307071
O 5.69941389 0.73594804 9.32275127
O 2.25063498 9.01217646 7.96475476
135
Time=299999.99999840 pbc="T T T" Lattice="12.09378762 0.00000000 0.00000000 0.00000000 12.09378762 0.00000000 0.00000000 0.00000000 12.09378762" energy=-867.49134971 virial="99.26438092 10.80630640 -25.34739805 10.80630640 111.17704481 6.52293424 -25.34739805 6.52293424 84.49396534" stress="0.08900296 0.00610928 -0.01433001 0.00610928 0.09573772 0.00368770 -0.01433001 0.00368770 0.08065259" Properties=species:S:1:pos:R:3
Ca 0.04527389 0.14797484 11.20908619
Ca 9.46609666 2.97876223 2.45995662
Ca 11.97645349 8.99989664 8.49056075
Ca 3.64420997 7.21739311 5.16278848
Ca 4.79473487 3.99088880 3.18332855
Ca 11.61890317 2.83451479 1.35026185
Ca 9.00790884 11.04087968 6.69280138
Ca 5.81689067 11.58042615 4.83970570
Ca 9.05876984 0.89693770 8.83852801
Ca 6.66468258 11.13354971 10.47297746
Ca 7.30261322 5.17807593 0.35897667
Ca 11.21033401 9.73623628 4.55268702
Ca 7.15864492 5.26218521 5.30420311
Ca 2.69535843 4.38238836 1.05269537
Ca 5.58990550 0.60131575 1.38691639
Ca 7.86577594 9.15413422 1.47308352
Ca 11.23811662 3.29556523 8.82026940
Ca 10.47477679 9.43917442 11.91980261
Ca 6.29122069 8.09591559 10.12151871
Ca 4.94321328 8.87423309 1.56033247
Ca 3.34625343 1.72378269 10.86337577
Ca 11.16881799 11.38869477 2.66645662
Ca 5.52795080 0.27655069 7.46059644
Ca 2.26651389 10.37633659 6.02648110
Ca 2.32256310 8.40971126 10.62311386
Ca 10.97317869 4.69006826 5.85189289
Ca 3.45206625 3.44918621 6.42899648
Si 2.27187397 1.48729755 1.71750148
Si 11.00352916 1.39549786 5.51539033
Si 9.36557140 11.87314620 0.56246172
Si 7.05433095 2.42196675 4.50314393
Si 2.61024954 9.71548069 2.95512104
Si 4.44854835 5.74003786 9.61542784
Si 4.93336050 9.64693224 7.77042556
Si 1.47713108 6.06214033 7.83075371
Si 6.94834532 6.46842744 2.51356682
Si 9.36133189 3.92391697 11.23013004
Si 0.31853113 7.18422417 5.22205795
Si 9.18192632 7.15375403 7.72662835
Si 4.90348276 6.39151243 0.01121265
Si 4.64253933 7.30065353 7.74073081
Si 1.33814491 0.56351768 4.69724654
Si 2.08688927 3.12097089 8.93656596
Si 9.93770028 7.03982765 10.56791069
Si 7.45369085 2.12695468 11.50207205
Si 0.10249577 6.75561877 0.78324371
Si 8.37217578 11.29181036 3.01655693
Si 3.10866314 11.35365503 0.17326636
Si 10.41953736 5.92901115 2.99878482
Si 6.89802972 3.49805680 9.49615741
Si 8.22885821 8.54417186 5.78396336
Si 1.92446755 5.25084396 4.06825519
Si 8.28972482 3.34545601 6.68742454
Si 0.75426370 11.74295374 8.82413698
O 9.45645984 4.97126610 3.61013541
O 5.39529079 2.91650211 5.22894709
O 2.18568844 10.21830882 0.18394281
O 8.51408077 4.22062595 9.44426597
O 6.84731816 5.03820490 3.26330158
O 9.41406926 2.13546576 10.59667644
O 10.41528096 7.17541047 8.83058317
O 6.94639237 9.49588202 5.69204324
O 3.16624525 5.69205113 3.76809399
O 7.67424829 7.36131871 6.85019520
O 9.41340545 5.73163119 11.67772575
O 1.74535210 6.81840555 4.66337317
O 10.74360318 7.18475866 4.51087948
O 6.17457622 9.59481297 0.42600480
O 10.03667417 6.06878110 6.93193504
O 2.04292959 3.61732118 4.72350533
O 3.48339988 8.62698131 7.29256521
O 6.98657751 1.89952631 9.54430118
O 9.47007906 10.70933694 1.80427102
O 1.07293910 9.75312166 3.17239537
O 7.53681467 1.51583215 6.06672618
O 0.83329524 1.20423920 6.16675702
O 2.53687428 0.75574405 3.60305656
O 0.40313356 8.93968296 6.05193351
O 0.10552948 6.16245720 6.82028629
O 3.29798329 4.37750628 10.39046597
O 9.42250749 10.98662544 11.09500839
O 8.31626002 6.73476965 1.63134100
O 1.49561204 2.95075373 2.38874103
O 9.59473397 8.77795959 6.81715248
O 6.18259914 7.06601950 0.81216182
O 4.62867949 11.22975233 0.65192887
O 3.68571892 10.67307583 3.70060740
O 5.97451635 6.95756719 3.77087532
O 5.03942935 9.95759820 9.30972342
O 8.57723264 3.52894396 0.47704577
O 10.93514508 0.20341027 1.10913888
O 8.93031163 8.34896164 11.16539316
O 7.54993085 11.43352033 8.36628536
O 11.25747718 7.94063560 1.86407880
O 6.00661427 1.45216691 11.93380476
O 8.04215733 0.56190929 0.13452109
O 0.08899389 5.25606939 3.86090210
O 11.54844364 7.39774447 11.12165388
O 0.89768477 1.95012321 9.54277386
O 5.36079270 4.28591276 8.60106081
O 2.95534594 8.19339286 3.26328648
O 11.05220563 3.50169219 11.26964117
O 9.33072116 10.06306891 3.80398761
O 1.58284860 7.63785114 8.56156990
O 5.20758304 6.43236751 6.43543671
O 5.64737200 6.04809629 10.49826547
O 10.49111166 0.04135836 6.27125706
O 8.29427279 7.30678417 4.67730485
O 2.86889017 2.03165865 8.11672670
O 6.73690889 11.03985861 2.74416141
O 8.46450571 6.73938868 9.32602787
O 1.50635723 2.45211269 0.04781616
O 8.71870737 3.34267239 4.65961854
O 8.97410658 0.47997974 3.05440171
O 4.09900469 7.65231943 11.60991023
O 4.46884495 10.60647621 6.64953901
O 1.24048970 4.51575670 8.41502982
O 11.86159278 12.02911701 4.71785903
O 3.02229296 5.68628760 7.09427671
O 9.70275561 3.01227059 7.10210519
O 11.43234354 9.83338219 10.35694684
O 11.44686325 2.90478040 4.64069760
O 6.84379297 3.55250144 11.14050710
O 1.35435688 10.81418266 7.75210205
O 11.19677907 5.52892936 1.60298141
O 11.67596723 0.67916579 8.42717580
O 2.15990877 0.05526336 1.06673281
O 1.89670055 0.05573960 10.06172656
O 3.88534676 7.14248953 9.26879484
O 6.48784759 2.23157260 3.04501949
O 1.51162086 6.75432857 0.97910908
O 6.08547292 8.58982811 8.01976962
O 4.98446023 5.15870324 0.85696210
O 3.98563345 1.88125133 1.48272596
O 7.11790381 2.93902706 7.64797533
135
Time=400000.00000008 pbc="T T T" Lattice="12.09378762 0.00000000 0.00000000 0.00000000 12.09378762 0.00000000 0.00000000 0.00000000 12.09378762" energy=-885.57492842 virial="87.64554565 -12.96975393 11.69815491 -12.96975393 67.71490556 -5.93429708 11.69815491 -5.93429708 97.59617537" stress="0.08243432 -0.00733238 0.00661348 -0.00733238 0.07116665 -0.00335492 0.00661348 -0.00335492 0.08805985" Properties=species:S:1:pos:R:3
Ca 10.19192849 7.59447804 0.99076755
Ca 9.81228791 10.48150143 10.91023998
Ca 6.72937953 8.14323250 4.62164096
Ca 4.00515919 10.36138262 10.83444781
Ca 7.03971819 8.82885598 11.14123285
Ca 0.39457523 5.29633364 7.07810438
Ca 10.17509518 1.63758349 7.28287397
Ca 4.89476985 3.29391766 2.39635584
Ca 2.97096981 1.54649988 9.97109688
Ca 1.44901245 1.39855166 1.21193421
Ca 7.32325265 11.61018555 6.16623991
Ca 4.39992607 7.10373089 10.47490747
Ca 4.75792445 3.72226927 11.71605118
Ca 9.60667349 2.92346267 10.10203984
Ca 11.11266800 9.73049070 5.04695157
Ca 7.28671904 3.06580614 4.56791137
Ca 3.41958623 5.55805167 4.46526593
Ca 5.82755120 10.25426615 8.26666819
Ca 6.31370663 1.87509429 8.41064045
Ca 11.95925061 3.54480817 0.17006434
Ca 10.38409051 6.48470935 9.26347177
Ca 5.08116208 10.67969264 3.51075876
Ca 7.71334475 1.40212473 1.35763649
Ca 0.95759976 7.62116763 1.83497538
Ca 4.64317101 6.71619671 1.95835653
Ca 3.50357037 8.40775441 6.59997257
Ca 0.19212790 10.77433150 7.76935159
Si 3.25020019 8.55708315 3.39807086
Si 0.46812893 1.66178296 4.39873935
Si 0.78686927 9.93529132 11.16220023
Si 8.53948715 8.83326657 7.84153743
Si 5.68299996 5.98355519 7.23153944
Si 1.87223692 11.00374452 4.46248340
Si 7.41736590 9.87027550 2.04000998
Si 3.31033955 12.00965550 7.75063649
Si 2.41349618 10.27339697 0.91804278
Si 10.29199210 1.03326335 1.41160949
Si 7.80720319 5.01643849 7.68972877
Si 10.08601145 5.50699123 4.40711567
Si 2.53362761 4.52044239 0.85784611
Si 3.47277774 4.41940702 8.26574725
Si 10.14202412 10.35009763 2.12193040
Si 5.25694766 0.27702637 0.09523387
Si 1.63740058 7.96929772 9.31798014
Si 0.23737659 0.75821260 9.79992715
Si 8.14394011 0.16529083 9.19786713
Si 0.31969543 7.09506747 5.28872293
Si 4.33150610 1.28414751 4.87169845
Si 1.05022306 5.12197507 10.05735186
Si 7.25913621 5.23398486 11.90429691
Si 0.25281094 4.67996167 3.43058515
Si 2.51122455 2.77463173 6.57774995
Si 10.22855534 0.35716104 4.25714977
Si 7.54704922 5.52344172 2.87953403
O 2.32310121 1.90000616 7.84776560
O 6.50950587 6.72902150 11.64489188
O 10.64616873 6.37806485 5.89999091
O 1.97005769 4.13044247 9.03352951
O 4.12271160 2.42257111 6.28879508
O 8.61892318 9.56566781 3.36807710
O 4.39304610 5.83651374 8.40720960
O 6.20142593 1.16484983 4.74017771
O 7.26801536 6.60625283 6.96109565
O 1.01604679 2.98015822 3.64914789
O 4.45009290 0.63082195 10.58447498
O 0.81533879 11.03683210 5.43884251
O 7.41064342 1.34333978 10.16393155
O 10.42655521 3.22110759 7.80115000
O 6.99935460 11.53401814 2.57564030
O 9.24142819 0.64210317 2.83072251
O 3.53293013 4.42258815 2.51060400
O 0.94932005 7.10277181 6.64119637
O 1.33739964 6.39698013 9.24701569
O 8.31429223 4.72332689 9.44682388
O 10.67649756 3.97211955 4.59274764
O 4.99882322 6.80430517 5.98287187
O 3.79022512 5.26538692 0.34402650
O 8.06632224 3.98621074 2.40100538
O 2.21080966 10.71969018 11.32934779
O 10.44273985 8.34329784 10.88719627
O 0.44573186 11.10834556 10.50486273
O 1.38841278 0.52688664 3.54501963
O 5.29507292 1.73338002 0.52468416
O 0.59083261 1.55347641 11.10529875
O 7.74428851 8.38034840 8.93080892
O 0.87332544 5.26560551 1.64830166
O 7.34622021 9.19159338 6.62474677
O 2.93155332 8.46949004 1.37976749
O 4.24808077 2.49916124 4.18378883
O 0.70094767 5.54506255 4.64917710
O 8.05450458 0.63318850 7.64469628
O 6.06269617 4.50967534 6.89976316
O 5.06222081 9.95821645 5.83892159
O 8.67152109 9.59900492 0.77536114
O 0.60829749 9.19150780 8.86320961
O 9.79561482 1.92471762 0.01991943
O 3.17193889 0.03023891 4.88237707
O 3.16680090 9.34068715 4.74038408
O 2.90461789 8.41694354 8.63197176
O 1.29154003 8.19078480 11.13575915
O 2.54675073 7.05960996 3.30680126
O 2.24746935 9.96158734 2.91753310
O 6.86878525 11.73541696 0.10656713
O 0.49936671 8.48657793 4.40911998
O 8.88463145 4.86425338 11.90207882
O 8.61058757 5.15805117 4.64564639
O 11.01535850 1.51004627 5.47211126
O 11.52758931 4.80746005 9.86799348
O 4.13182651 3.29709350 9.37627784
O 5.89997588 5.58111710 3.23519046
O 5.23131959 8.94371592 9.68936045
O 3.92497449 10.90672092 1.46044172
O 2.64179142 2.91758984 0.29379250
O 1.25612154 2.15474560 5.77073125
O 11.73074055 1.84935115 1.79677838
O 8.98994503 11.73174637 5.16675330
O 8.48958810 3.63570210 6.94317187
O 10.00191599 0.15374539 9.30896203
O 0.73822481 9.46987948 0.59216127
O 10.05215892 11.57245754 1.07987203
O 11.04305522 6.22741244 3.40459350
O 7.52147217 10.83483175 9.63151511
O 11.08931360 8.93605974 2.12610657
O 2.34930806 4.50957626 7.06783779
O 2.80508571 10.42286575 7.08867951
O 4.79984163 8.36001138 3.44650169
O 2.42397494 11.69359462 9.29595713
O 6.48342675 3.99679722 0.40930152
O 11.19626778 11.10883307 3.19813330
O 7.65031198 7.10608013 2.47096956
O 1.36983826 4.76302627 11.59370832
O 10.14399191 9.49786864 7.37049838
O 5.98258900 9.43599950 1.38418360
O 11.94334691 0.80829582 8.41996427
O 4.99945073 0.17716614 8.16899497
135
Time=500000.00000301 pbc="T T T" Lattice="12.09378762 0.00000000 0.00000000 0.00000000 12.09378762 0.00000000 0.00000000 0.00000000 12.09378762" energy=-874.69768567 virial="69.13929706 23.29439685 46.34699868 23.29439685 44.67769573 -37.14531562 46.34699868 -37.14531562 131.69422014" stress="0.07197192 0.01316935 0.02620201 0.01316935 0.05814270 -0.02099989 0.02620201 -0.02099989 0.10733699" Properties=species:S:1:pos:R:3
Ca 5.96401471 7.24142257 8.15363594
Ca 4.69516501 11.58856973 9.27661580
Ca 5.47142632 9.38572436 2.89435912
Ca 11.44193965 5.70262800 11.34778748
Ca 10.59920550 6.61843532 8.18862124
Ca 3.13628869 3.44522885 3.57954554
Ca 8.77566736 0.25861920 7.14543716
Ca 11.65467149 11.39330233 8.24184461
Ca 8.48809566 5.01744645 4.71728411
Ca 5.76661016 5.18599796 2.65969123
Ca 2.01293443 8.41357982 10.35690500
Ca 8.57089754 9.25306102 4.46008973
Ca 4.34012097 3.77637642 8.21715570
Ca 4.89504765 5.11930997 11.17476954
Ca 0.99255589 11.69136260 10.84232313
Ca 6.72597399 2.18916745 9.78457682
Ca 1.96778061 6.94918272 3.77970664
Ca 8.37681407 7.64332428 0.63412608
Ca 8.88396733 1.89410113 0.03812532
Ca 2.84032438 2.52984017 10.69149040
Ca 2.07695097 0.46096533 4.07195732
Ca 12.07492862 4.44374447 1.85081593
Ca 10.09453140 10.56038323 12.02770640
Ca 10.41337722 11.76914242 3.26738573
Ca 11.66436733 8.63255611 1.85261125
Ca 7.01896098 0.72018999 5.08453015
Ca 1.52969674 7.83696530 6.59818687
Si 5.46237317 3.55788924 5.42206051
Si 3.18058037 10.62465220 6.95404397
Si 1.68268130 1.35113027 0.74468808
Si 2.86694584 11.00302193 0.75598620
Si 0.52120226 2.23424816 8.21172158
Si 0.01315184 4.42387129 5.31521221
Si 8.71097051 5.29197070 1.73029522
Si 11.09039475 6.97943964 4.00694175
Si 8.45578193 4.72535007 7.78401610
Si 7.53718570 8.74637651 10.04011129
Si 6.46370128 0.25166193 11.90895956
Si 3.91220511 6.23689481 5.88706578
Si 5.63937463 8.86780184 11.48374305
Si 9.83531893 2.14775109 8.82264863
Si 6.28213248 8.90849400 6.06725496
Si 10.01811828 2.73776388 3.73112421
Si 1.48346615 5.21660169 8.54972325
Si 7.80975881 4.88012860 10.81001186
Si 4.57151424 0.85905524 6.36476580
Si 5.01310183 2.49215962 1.09493899
Si 11.76647385 9.67682513 5.65774628
Si 3.98623054 8.10579838 1.04704559
Si 11.24171083 1.53033301 5.91722218
Si 2.18613089 5.87061230 0.78935709
Si 11.43756743 2.36041650 10.84535578
Si 5.02197165 0.16522103 2.62386777
Si 10.88108289 8.84115486 10.63594887
O 6.62132732 4.78284363 9.46445242
O 7.50026022 9.76584357 8.85459713
O 0.73459704 6.08615356 9.61337413
O 5.64704224 7.16353931 5.66264673
O 3.09545073 5.32759854 9.10386896
O 11.15983358 0.80520994 11.44990558
O 3.92560157 0.94512542 3.35624590
O 0.70419643 10.31304873 4.66084478
O 9.98053013 6.28921377 1.07434592
O 10.17441163 10.79315568 6.61415565
O 4.65941209 1.66532933 4.94459322
O 0.09218363 7.91623482 5.20534890
O 5.91416952 0.80604327 6.97410730
O 10.10263705 4.66771702 7.27943637
O 2.10033406 9.33252784 0.10959085
O 3.16920245 2.31896386 0.79819455
O 7.52436716 6.04748564 7.24449056
O 9.74008253 4.44920508 2.56052027
O 2.90955132 11.56045367 8.37377073
O 7.97833781 8.51063902 6.52736632
O 0.85727258 0.68707621 8.99933745
O 9.10005715 11.46149860 4.87655057
O 0.73337842 5.47006247 7.24684010
O 11.87478905 9.96475676 10.66832481
O 2.13486044 4.51922210 12.05572778
O 10.31529494 1.90805749 2.19053602
O 8.46513252 3.41653174 10.36916192
O 11.25306624 2.92682694 9.34640131
O 1.36100222 3.82201534 4.54087548
O 10.85273872 1.45510955 7.82528062
O 6.49229751 11.93028925 10.40921261
O 5.64406740 7.57684444 0.34543364
O 2.05498945 5.45731448 2.36222391
O 2.94584287 7.66908637 5.33446273
O 10.66498738 8.43195505 0.07416947
O 6.54229325 10.12310629 5.13765382
O 1.97792766 11.57742847 2.12265858
O 0.71640423 2.04534757 1.92897856
O 8.15680337 3.00584974 4.09228826
O 4.84794422 4.19379442 1.08638536
O 8.21070399 2.99053856 7.76152458
O 4.40701253 5.53077913 4.11380533
O 5.42384184 2.94883510 2.77582678
O 1.64259506 9.83163899 6.99063179
O 12.01242649 2.99236350 6.78910848
O 5.27331682 9.06199335 10.13152841
O 4.01203631 7.77881820 2.51055777
O 3.70805821 6.71315533 7.44701507
O 7.22502584 9.44310996 11.68589205
O 11.17731797 5.49683487 4.44513991
O 4.76914295 9.70593354 0.78481502
O 11.97614249 6.73410992 2.67115759
O 11.57642054 8.24843289 9.19645225
O 7.63070439 4.66607614 0.40866222
O 10.85279873 3.54856730 4.73956108
O 3.24769638 7.06655952 0.22695333
O 9.60519126 9.73920919 1.72542128
O 0.94681444 7.12078288 0.60352917
O 4.26694749 9.19480955 6.62698749
O 3.29969923 0.01734801 11.67903621
O 10.71430914 3.54460519 11.91612671
O 4.07753548 10.64636050 2.29679080
O 6.45411654 12.06321561 2.99635275
O 6.80076524 7.27257382 9.88572959
O 1.70918826 3.25027003 8.56300459
O 5.11296590 0.44673206 0.73814777
O 6.83964460 3.64398372 6.09209011
O 3.26631643 2.03717674 7.12289427
O 6.32008386 2.48779484 0.12436172
O 0.14006826 0.36524001 5.63617961
O 4.49964821 4.65118820 6.04993740
O 4.62308562 1.60807969 9.60156520
O 3.68568740 11.37420801 5.63708075
O 7.33502158 6.53967043 2.36837196
O 7.67312918 0.08128002 0.56337153
O 9.29804389 9.06001952 10.18012869
O 9.29571024 1.12146895 9.86829225
O 9.48511785 1.70324246 5.84097139
O 10.09510422 8.15286097 4.26247809
O 1.19643110 2.04413465 11.29282372
O 8.79083438 5.96041111 10.18484916
135
Time=600000.00000594 pbc="T T T" Lattice="12.09378762 0.00000000 0.00000000 0.00000000 12.09378762 0.00000000 0.00000000 0.00000000 12.09378762" energy=-871.50636511 virial="130.63616529 22.50294136 21.62472280 22.50294136 112.28331894 3.20921881 21.62472280 3.20921881 109.65641912" stress="0.10673882 0.01272191 0.01222541 0.01272191 0.09636315 0.00181431 0.01222541 0.00181431 0.09487804" Properties=species:S:1:pos:R:3
Ca 1.79396101 4.18045104 5.22232794
Ca 9.40462938 2.09849778 0.39490276
Ca 6.49316303 9.93321565 6.13128624
Ca 10.57313535 11.00463117 3.14771601
Ca 3.95983108 11.40122082 7.69776080
Ca 2.16043237 11.55724492 4.53972989
Ca 9.17623159 7.28642363 3.11735743
Ca 10.25455131 2.35520809 6.09139496
Ca 4.64714387 4.13204757 3.61677953
Ca 3.54659950 9.40117043 3.25836090
Ca 3.05257145 2.13574907 1.57251923
Ca 3.19230373 8.89515940 0.66999604
Ca 3.01657314 5.75129094 1.01816967
Ca 1.07692390 10.85740838 8.24430440
Ca 8.08662001 5.24190865 7.12424862
Ca 7.30712681 10.44250310 2.97017442
Ca 9.21850173 4.65125292 2.64847565
Ca 10.55089981 9.35865929 9.40079237
Ca 4.20442903 3.54165447 9.13173866
Ca 10.02847837 3.09193109 9.70722475
Ca 2.24766728 6.65880799 3.52797935
Ca 3.03092929 11.92459463 11.02151279
Ca 7.16332511 1.15721897 7.60476957
Ca 9.44173240 6.69769081 10.19240149
Ca 1.14716413 1.60336227 8.72164185
Ca 2.98157920 8.68831025 9.32726325
Ca 2.00082971 3.74079163 11.31257079
Si 11.62785050 0.06748490 11.39137425
Si 8.40349235 0.98139236 3.99971831
Si 11.59970296 2.13248509 3.50081211
Si 8.97562304 8.59615659 7.33613701
Si 6.64915537 2.36496322 2.48934785
Si 0.90834378 5.23642532 8.58538291
Si 5.68440903 4.16673184 0.72626566
Si 6.73713126 6.98632233 4.55241229
Si 10.58163623 11.28095375 6.74891488
Si 9.99705369 9.77660160 0.47859448
Si 0.37375025 7.92819359 10.47385414
Si 7.18220541 7.70493843 0.94534864
Si 8.40072608 4.32258824 11.31949345
Si 9.68934750 0.40550895 8.55313552
Si 2.87714918 8.34034285 6.32402233
Si 11.09687363 5.25783224 6.26191814
Si 0.66117352 2.17749527 1.06521573
Si 1.74264810 11.15173723 1.38157271
Si 11.56383788 8.48283244 6.24465151
Si 12.00987415 7.33795067 1.65591252
Si 5.33988300 7.30894962 2.11291788
Si 3.93665252 1.69565080 6.16327462
Si 5.46956360 0.02480235 4.38762729
Si 5.62052613 11.86687598 0.70538821
Si 5.83714589 9.36622534 10.24127012
Si 5.23063384 6.91655205 7.33789831
Si 8.53172322 11.56729903 10.66698928
O 10.28980704 11.06788958 8.32091249
O 10.89754672 7.80777184 8.06967029
O 6.62586432 4.60641648 11.58398821
O 5.62330652 10.42783870 4.44796161
O 11.93053190 11.85936346 6.89805625
O 7.75539781 8.14935454 5.02416871
O 1.48468359 3.56441003 1.03996904
O 7.03401792 3.92313932 1.32914980
O 7.95988732 2.95923619 7.52818301
O 1.38437542 10.48886225 12.06745781
O 11.20168022 1.64259582 11.91403085
O 3.73180815 0.68721845 4.08660457
O 10.03219622 7.66097297 6.06218677
O 5.32447807 0.64843765 6.05641627
O 4.62935598 8.68348429 6.22325698
O 9.27630303 0.23246111 6.66588548
O 2.56740722 0.18521761 6.61494415
O 0.61652045 4.82595423 6.80233650
O 11.99522064 3.06695251 4.81853492
O 1.62054455 7.31486604 1.20166008
O 2.94487392 8.05116734 4.85822745
O 7.42344003 5.68114895 3.74408884
O 10.03786267 0.30995365 10.34019314
O 8.29596550 12.04774794 8.85871356
O 8.16237979 6.36961634 1.16660673
O 11.61332601 7.93020562 3.11131885
O 6.08008934 10.24007175 8.60226027
O 9.61043966 4.28709124 0.22525270
O 2.87273146 10.68737153 9.01874845
O 9.51597307 10.26889991 11.05735501
O 9.04114752 2.67488760 3.82224025
O 10.60381981 5.25132702 4.77112076
O 1.27399158 0.82805639 0.47721191
O 1.64170748 9.61055135 5.99637511