135
Time=99999.99999996 pbc="T T T" Lattice="12.52607000 0.00000000 0.00000000 0.00000000 12.52607000 0.00000000 0.00000000 0.00000000 12.52607000" energy=-930.07895013 virial="-11.11070829 -1.68826797 0.31108123 -1.68826797 -13.51259534 26.53646359 0.31108123 26.53646359 -30.55768031" stress="0.01210435 -0.00085901 0.00015828 -0.00085901 0.01088224 0.01350201 0.00015828 0.01350201 0.00220954" Properties=species:S:1:pos:R:3
Ca 6.95375451 8.25017840 3.31101411
Ca 11.43170859 1.83109389 1.22987967
Ca 4.53662016 11.71218368 11.85766918
Ca 11.32083653 12.40968062 4.37665968
Ca 8.41868799 7.27640888 9.71399528
Ca 6.97012289 5.89243867 6.53888777
Ca 4.59167910 2.74647652 0.28726416
Ca 6.43382108 6.04995338 0.87889897
Ca 3.75339841 3.28338296 3.67635270
Ca 5.70840897 11.24495362 5.36503862
Ca 1.33165018 6.12564007 4.40379081
Ca 12.44619982 10.91811380 8.01257047
Ca 8.43457310 11.39505219 1.17651264
Ca 8.20604845 0.87317226 6.82984410
Ca 9.69612406 10.04926394 10.71791509
Ca 0.43636060 3.44894371 10.01006492
Ca 9.55638200 7.99706362 0.68941323
Ca 3.16338948 0.83002297 6.60639594
Ca 2.05495509 8.89657907 10.30576195
Ca 3.17227841 7.14546199 0.94183191
Ca 6.86016154 3.44396504 10.28688245
Ca 12.09775143 6.34875442 10.81704657
Ca 6.21381158 9.56665196 8.70164156
Ca 2.44347167 0.07483346 3.17707462
Ca 9.38270797 3.52695726 7.99521223
Ca 0.44912292 9.57311428 3.60945618
Ca 1.44706659 0.45405182 10.86543647
Si 0.54398003 2.58492002 3.78104957
Si 7.56922241 4.92659848 3.23618599
Si 3.49259129 3.06251553 9.56516552
Si 10.30368534 1.03014629 10.35662116
Si 12.48553955 7.35557322 1.49507512
Si 4.55099564 6.52445643 3.63920382
Si 11.56554465 3.64089522 5.68832573
Si 1.22882172 4.41198356 1.07460121
Si 6.51884278 9.26896839 11.74799428
Si 3.05766327 10.36346851 5.93716742
Si 7.54643354 2.40246307 0.13306233
Si 5.73997925 1.77892141 7.96174336
Si 3.74110341 11.29024455 9.11554462
Si 5.02361049 6.32083123 9.98228917
Si 7.57279425 0.14151473 10.03728820
Si 5.18219927 8.34653220 5.57876253
Si 9.92928297 8.97142859 4.68360740
Si 5.97781991 0.74723680 2.57943006
Si 8.65500179 1.99187523 3.41683767
Si 10.34007850 6.35482134 6.85471638
Si 12.03758884 10.20792000 12.13467136
Si 0.67738980 7.61307970 6.86956842
Si 8.74390302 10.83451724 7.62691444
Si 12.03026169 1.55022414 7.91869602
Si 9.73700038 4.65359844 11.39633815
Si 2.17689364 5.69147203 8.67485226
Si 2.17389239 11.00654567 0.83572214
O 9.35544070 3.18367471 12.26598836
O 5.77748021 5.13894329 3.46825800
O 11.48705439 2.87146276 7.11922433
O 4.29948659 2.86723830 8.20510773
O 4.50825262 6.96095759 11.36433981
O 3.00519671 2.24838431 11.00130038
O 0.37412186 5.90993438 0.83456846
O 10.63169215 4.97970160 6.10164945
O 3.58078926 11.44284897 4.95558668
O 9.03935450 0.20806997 11.23375076
O 4.98458917 9.49426045 12.43944174
O 4.76292454 1.85696614 2.40327874
O 4.97855124 6.92963964 1.79527507
O 4.17705234 9.76205024 9.74259072
O 8.87766978 1.75050464 5.06763070
O 11.08512060 10.18201381 4.24226582
O 5.55778410 9.53322044 4.51478286
O 10.04349981 6.12923812 12.07508471
O 2.48185767 9.73766053 0.08446173
O 9.05144627 8.87492887 3.33153815
O 4.77167245 12.44208210 9.51523036
O 5.40923305 0.55244710 6.76301107
O 11.04723862 7.53369383 1.93894032
O 2.18919576 2.00109092 4.47050700
O 1.16383373 7.77017680 2.50505322
O 3.13552984 4.34992717 0.88947702
O 1.22600209 8.68360462 8.00500579
O 7.74861346 6.28168601 2.63816213
O 1.14096014 10.21946058 5.74998998
O 1.67080493 6.24408562 7.17213487
O 11.16755860 4.20269567 10.21678265
O 11.87012703 10.38902357 10.46860195
O 10.86935408 0.74910830 8.73754185
O 10.56064129 10.31981898 0.13072047
O 3.30485527 0.18474242 0.88621642
O 9.63208319 7.66453513 5.65477194
O 7.45640802 11.26006775 6.70928695
O 6.74395760 0.68939613 8.85052422
O 0.30727838 1.17614949 2.99805562
O 7.02117479 10.92786550 11.18687278
O 8.43145734 9.25132045 8.01747980
O 2.07090455 4.00705587 8.78847556
O 0.43761165 8.04322732 5.27641406
O 11.35765261 3.23552187 4.19013982
O 9.93320816 8.07861269 10.86685612
O 8.26478594 4.96542492 4.80197598
O 8.15706825 3.53792117 2.94363203
O 0.80182201 4.28959516 5.43196837
O 11.39566624 1.25688614 11.51680436
O 8.90306642 5.06955629 10.18178483
O 0.03569251 8.35159508 12.38285869
O 5.62768255 11.76839308 2.72209536
O 6.96962535 2.89739918 7.67835118
O 6.95234401 1.57663422 11.35016816
O 6.64159953 3.86949452 0.03042944
O 11.77105445 6.96415252 7.50228135
O 3.53301226 11.17796768 7.43903810
O 10.36975909 10.84038700 6.94232011
O 0.54660139 11.51533605 0.08994544
O 6.48672876 5.59823459 9.20435132
O 3.78175060 6.38837102 8.76238845
O 1.80203033 10.82041856 2.42326889
O 9.61806050 1.09966380 2.56253416
O 0.14687088 3.48651088 0.41878441
O 7.40242058 1.29340208 1.23468889
O 9.13191182 1.82140423 9.35878345
O 0.59607837 1.41976090 9.13223248
O 6.61575966 8.21439658 10.39821750
O 9.04235094 6.06031204 7.69923899
O 4.38275225 4.29280788 10.51879851
O 3.44960817 8.64829424 5.76876893
O 7.24831288 1.14716552 3.68248895
O 3.17943279 5.84705775 3.88780901
O 1.09978996 3.83979250 2.67390363
O 8.77403486 12.13282953 8.73811951
O 5.89250343 8.34011988 6.99998609
O 1.56175798 6.14930599 10.08040168
O 2.25412580 11.03804824 9.83050309
O 5.66822597 6.88334125 4.93363377
O 0.41395119 0.69946025 6.68342600
O 7.61371349 9.08904665 0.76265758
135
Time=199999.99999918 pbc="T T T" Lattice="12.52607000 0.00000000 0.00000000 0.00000000 12.52607000 0.00000000 0.00000000 0.00000000 12.52607000" energy=-929.24542597 virial="38.24864054 15.79743751 8.90856340 15.79743751 79.52620515 -0.24460181 8.90856340 -0.24460181 6.98551316" stress="0.03721887 0.00803789 0.00453276 0.00803789 0.05822130 -0.00012446 0.00453276 -0.00012446 0.02131188" Properties=species:S:1:pos:R:3
Ca 2.08845558 1.63299072 8.88847135
Ca 8.68774450 2.99475857 8.41739914
Ca 5.86656872 11.94482838 9.60197766
Ca 9.59074858 12.04478851 10.25242217
Ca 9.07370134 8.36953294 11.23689013
Ca 11.92990445 4.37786077 7.39929391
Ca 5.84572422 8.38028222 7.29668574
Ca 9.41326236 8.55533557 4.79564071
Ca 4.18532266 3.79509958 5.82001139
Ca 4.39531523 12.40593838 0.16160691
Ca 3.31094459 9.94603126 4.81243445
Ca 9.26786703 3.34846106 4.89134716
Ca 0.86427414 7.87261471 3.39185933
Ca 5.70081527 0.43980047 3.43307450
Ca 5.71519031 9.67964299 2.83809960
Ca 8.75085298 6.38744707 1.45990028
Ca 11.87276031 7.24658483 9.79390469
Ca 1.35386786 11.41786827 11.21690523
Ca 4.44102619 6.47787494 2.48724546
Ca 6.05639199 5.95005152 8.91758300
Ca 1.89837100 7.74573065 0.29736595
Ca 8.30911188 9.17514591 8.56529969
Ca 2.23521400 1.80161780 2.73936097
Ca 8.10813870 3.36488128 0.12697083
Ca 11.69795445 4.14396242 1.19400641
Ca 11.18050348 10.87204255 8.10532312
Ca 4.27070085 3.76512622 10.64869639
Si 9.20312298 6.16200896 7.61898707
Si 10.31821438 10.81364336 4.30318215
Si 1.14051483 0.21275128 5.99241378
Si 6.77208062 10.60543390 6.29465749
Si 8.89258243 11.05919327 1.66779634
Si 6.58762153 3.78626829 3.16726910
Si 11.27511651 6.11811458 3.62503008
Si 11.47385400 1.41588018 7.68419779
Si 8.40059308 0.28207239 6.07584752
Si 11.37551911 8.77554235 0.76920515
Si 4.43746006 0.32003382 6.66164959
Si 1.91693630 6.56814465 6.66466884
Si 10.20838656 5.00670906 11.39611139
Si 1.57045222 4.93153434 4.24144209
Si 4.79472890 3.07718191 0.99722742
Si 10.80907535 1.04852873 0.32552247
Si 5.65659427 6.98449767 11.67610242
Si 6.42599848 6.62840835 5.09982170
Si 7.04141076 10.86340018 11.99128114
Si 0.74572662 11.79439156 3.13236473
Si 2.34037748 8.31613199 8.71751574
Si 2.61596720 11.36318674 8.07028494
Si 0.95833285 1.19174848 0.24351890
Si 5.11720560 2.81370321 8.44115178
Si 3.04068031 10.29569183 1.92753310
Si 4.23759163 9.47344101 11.11709226
Si 1.72802055 3.79652645 12.10157703
O 2.06375973 2.82779163 10.96764549
O 0.60571607 6.34429271 7.32746794
O 4.10299757 11.85327002 8.02525003
O 4.06373616 1.74556846 1.53731598
O 10.73247840 2.24404794 1.51969868
O 11.27200030 6.13603407 2.01192531
O 2.19822179 1.24488403 6.47665836
O 1.00438202 2.86691560 0.80658098
O 12.08006780 8.62597994 11.87767711
O 2.28382844 3.36013219 4.13687212
O 1.41587779 0.30120075 4.21515815
O 0.01019728 5.16008446 4.12322212
O 7.07779013 7.39834720 12.18960301
O 6.19082911 5.00075447 4.18881019
O 7.90090838 6.96045560 8.75124551
O 6.81306655 12.26377029 11.67129848
O 10.00388218 1.85340558 11.46048037
O 2.28687103 7.94369191 6.08669191
O 7.26235189 11.70799928 2.18720340
O 4.65173314 1.94724633 9.71494557
O 2.20097712 5.01713112 5.87513565
O 3.11971682 7.08357103 8.00048625
O 9.22005472 4.12248882 10.43294010
O 8.30727494 10.29713930 0.29280537
O 9.78714984 9.96652363 9.59850413
O 3.92648217 3.83098272 8.55674188
O 11.80081456 11.29199774 3.51787289
O 3.39215937 8.88935479 2.88057191
O 3.59333672 4.08918187 0.35141661
O 12.33141046 0.62370840 11.83286238
O 6.37436435 2.32393347 3.19080329
O 1.60089746 11.80289607 9.03164480
O 4.32441721 7.20786497 12.44553033
O 11.08473255 0.20523212 8.67759303
O 10.47307820 7.09966739 7.65331765
O 2.77334173 10.68926830 0.42405130
O 6.13995879 2.79764914 0.06614594
O 9.41116116 12.08901203 4.88086655
O 0.32531404 8.56867965 1.55352663
O 4.23433629 12.46522128 5.04664777
O 9.77236218 4.78760080 6.94689836
O 7.93469482 6.61627488 6.01980330
O 4.24503449 11.13768777 10.55631550
O 11.81446975 4.62347165 11.33802332
O 5.53893818 9.99061370 5.64648483
O 1.92551771 11.43139375 6.52615437
O 8.63411173 12.38320593 7.53677792
O 7.86613710 1.98423477 6.15560176
O 7.98741057 9.54595671 6.22744403
O 6.84958772 12.06867916 5.87046958
O 9.43126054 5.06527648 0.37980375
O 0.81546975 8.32061006 9.26284538
O 2.35884884 6.03345463 3.23694371
O 10.48342219 11.83953235 0.48541008
O 5.16849135 6.46184957 6.13496181
O 6.59485215 7.55061499 3.74092196
O 9.28929698 10.31505653 3.14544334
O 9.89228215 8.40769393 1.09377433
O 7.02619829 10.12989200 10.45219213
O 5.59896740 5.56826311 11.14772882
O 5.94371291 10.09961481 0.42104537
O 10.28524324 2.00668492 6.73336607
O 9.77148264 5.51543965 3.95031564
O 11.60718021 7.54456611 4.38150424
O 2.84088746 8.53503700 10.75713457
O 6.12738209 10.17523446 7.93363143
O 12.42118033 2.54469064 8.45542800
O 1.06875854 5.08060499 0.22932737
O 5.51008879 8.16566318 10.43714561
O 4.24263460 11.17325200 2.62288369
O 10.12293685 6.43622334 10.70872248
O 6.49518570 3.75688196 8.19795947
O 2.88801908 9.69533022 8.38961007
O 8.14025628 4.06240605 2.42733383
O 12.22528246 0.09906539 6.60970388
O 10.78084162 10.19381970 5.63063315
O 5.43774290 4.11470312 2.12513745
O 0.71759248 0.14608253 1.60688245
O 4.86991126 1.92844081 6.76744126
O 2.32564476 0.75632627 12.00287403
O 1.73047122 10.65908213 3.00058061
135
Time=299999.99999840 pbc="T T T" Lattice="12.52607000 0.00000000 0.00000000 0.00000000 12.52607000 0.00000000 0.00000000 0.00000000 12.52607000" energy=-923.15850944 virial="2.29629947 -7.31089589 -3.78705041 -7.31089589 6.89239096 -5.98403052 -3.78705041 -5.98403052 -2.80886993" stress="0.01892596 -0.00371986 -0.00192689 -0.00371986 0.02126450 -0.00304473 -0.00192689 -0.00304473 0.01632840" Properties=species:S:1:pos:R:3
Ca 6.32971723 4.95876483 9.65617975
Ca 10.94841412 7.86668967 4.71134239
Ca 0.69059000 2.86604939 1.17001902
Ca 0.00346775 10.87700007 12.25558602
Ca 3.51758205 0.29737516 0.98005949
Ca 3.05916490 10.85143086 4.63583501
Ca 3.15714515 1.81328140 5.60872398
Ca 10.03667828 0.25773801 2.03103465
Ca 1.66087454 3.94010601 8.97381445
Ca 11.74523624 7.66046005 0.73004222
Ca 9.48564210 10.61154275 8.23969206
Ca 1.13886604 4.54673030 5.36297162
Ca 8.45183547 9.63817831 1.83256507
Ca 6.26855637 5.62071979 3.38686632
Ca 11.26967780 2.53567997 4.77609165
Ca 2.84598206 11.59979586 10.25352559
Ca 2.87199198 6.51490613 3.24460721
Ca 3.48886581 5.65290614 12.14948318
Ca 3.58998201 5.92653331 7.24470761
Ca 0.90925033 7.63465896 10.00926445
Ca 12.42858669 10.22795366 5.79254611
Ca 6.00997045 1.56229457 1.20228894
Ca 6.40566886 12.23217208 6.92799197
Ca 8.44557287 5.01081584 5.78319712
Ca 9.63669233 6.62295322 11.12070984
Ca 7.24028094 9.62193137 10.87294178
Ca 6.12016934 9.10402737 4.14069067
Si 10.36438653 5.34808547 3.17837335
Si 0.63881359 1.06492262 7.02987580
Si 9.41350349 2.32391392 11.18114258
Si 9.32525327 10.50296416 5.03746890
Si 9.18327286 0.78108360 6.50762832
Si 0.44990186 5.03117760 11.63911143
Si 0.78687103 0.26099185 2.73246883
Si 3.64401795 8.68796503 12.11328388
Si 10.04037847 6.82256816 8.14668511
Si 6.51547167 12.04331399 3.07491635
Si 0.77417477 9.53173545 2.67880365
Si 8.15971274 2.62777740 3.75733279
Si 4.46250294 2.59421524 11.00478739
Si 11.66568766 5.54303132 7.46954685
Si 8.21419202 5.84130226 0.55306677
Si 4.98542855 3.70297131 6.13068106
Si 10.09835519 9.70822758 11.72384224
Si 1.51674857 7.97124776 5.62931805
Si 3.69200282 3.53692004 3.11519028
Si 7.22019890 8.32586980 7.89301943
Si 4.92055963 7.79984872 9.49337362
Si 5.65645642 8.14030305 1.32934404
Si 9.28065266 3.13537225 0.86886177
Si 3.40679743 12.10259443 7.41754133
Si 7.41878121 1.29841812 9.24214011
Si 3.03187769 9.37453440 7.68529990
Si 12.26890274 1.99333420 10.13879027
O 0.23839973 2.10996737 8.53661226
O 9.80194614 3.93539648 3.50895620
O 8.66758729 2.19773128 5.24630258
O 1.03756610 12.50846434 1.18113994
O 4.95263262 4.20564095 4.40302430
O 6.82809693 1.11760602 3.51242104
O 8.71695936 8.79697691 12.34779155
O 4.80657149 7.52401149 12.40845288
O 6.44532470 11.31813611 4.75617540
O 5.38424133 11.91427736 1.89716563
O 10.46606908 11.03511508 0.11652789
O 2.37464079 7.69234413 11.77880275
O 6.49062754 7.52254480 9.43385831
O 11.68317373 9.00824770 2.90064396
O 11.89616441 5.63375918 3.34362849
O 1.52252760 8.27316458 1.85421405
O 0.09528165 12.09670002 6.56154469
O 1.48849627 5.01576767 0.61837802
O 3.57593542 2.83707491 9.61973473
O 2.29937633 10.79011629 7.04035466
O 5.95534789 9.56779899 1.17694282
O 8.59681361 1.58982948 12.40213432
O 0.34343969 0.34213420 10.52834333
O 3.37839639 3.71528718 6.87912090
O 11.84644626 4.07406075 6.38347435
O 1.90510840 6.52225016 5.11570174
O 5.72550690 4.93657895 6.80115104
O 7.28196677 3.93796131 3.54311930
O 4.67212192 8.01813986 2.84026251
O 7.89002892 11.67301432 2.01077348
O 12.28571194 1.38392183 3.11296072
O 9.21380029 6.31223504 3.76049100
O 5.56872302 2.15389858 5.75894316
O 2.25205408 0.15969401 3.61695902
O 8.59467413 2.43246762 9.94731888
O 2.40200583 0.82960033 7.83500068
O 6.03298762 2.32382895 9.20687597
O 0.38274766 11.06742573 3.18208355
O 4.27394336 6.17273012 9.40449386
O 1.26279507 9.14277106 4.45625679
O 0.80954587 2.12677366 6.07677742
O 9.58816623 10.75530253 10.28801610
O 2.12197818 2.95134728 3.80851011
O 0.90975750 5.68539639 8.18111318
O 4.20472641 8.51794411 8.35843733
O 7.55895054 5.81987132 11.56351323
O 0.28050457 3.50168149 10.77999497
O 2.18085026 9.66378671 8.96135063
O 11.84375477 6.11399855 11.69350005
O 7.30862549 12.21871479 9.39030380
O 9.85581628 3.74024507 11.69542429
O 8.15976359 9.35386413 4.47638799
O 3.85104206 5.10237321 2.33058826
O 8.11346414 4.32471807 1.08323415
O 10.65312697 1.57123497 10.63233998
O 8.33007518 1.02034603 7.90491461
O 3.22032802 10.06496437 0.25677739
O 5.08557531 3.76693205 11.80731903
O 10.77206275 1.00498858 5.86616980
O 8.58900116 7.40197437 7.25363769
O 3.14319070 8.65012424 6.17663366
O 10.44963683 11.61520900 4.23187403
O 6.30145146 8.17118860 6.66129836
O 9.58434287 6.22171988 1.10694699
O 4.23390282 11.17722189 8.49236923
O 3.88265227 12.31976223 5.93837435
O 7.49347154 9.66206845 8.37716152
O 10.18395809 9.53719880 5.81015505
O 10.35838795 7.89889789 9.29216526
O 8.64288989 11.74227861 6.25882515
O 4.56197607 8.85135407 10.58295184
O 0.45800111 8.07381717 6.84864463
O 8.74542239 1.78290262 2.37243209
O 7.00398388 7.15735723 1.29717468
O 10.56988200 5.00853071 8.57950439
O 1.91635554 5.37031078 10.61540312
O 10.79709041 3.05499264 1.64566650
O 4.23935923 1.03548809 11.63566460
O 4.30689149 2.52228374 2.04274237
O 11.46520832 9.02417137 11.53724931
O 11.00347108 6.90307339 6.85903994
135
Time=400000.00000008 pbc="T T T" Lattice="12.52607000 0.00000000 0.00000000 0.00000000 12.52607000 0.00000000 0.00000000 0.00000000 12.52607000" energy=-927.81393268 virial="5.59764578 -5.52630225 -16.76620363 -5.52630225 82.71311415 2.46847843 -16.76620363 2.46847843 62.28646032" stress="0.02060572 -0.00281184 -0.00853081 -0.00281184 0.05984283 0.00125599 -0.00853081 0.00125599 0.04944955" Properties=species:S:1:pos:R:3
Ca 5.26937434 11.76673683 9.06034515
Ca 3.57664059 12.38123686 5.22271345
Ca 7.50872833 6.01652427 3.60888143
Ca 8.87548198 0.83456267 7.02834860
Ca 1.01623038 6.56615735 1.63203461
Ca 1.66613684 9.93238048 4.93954010
Ca 3.51869402 3.36883835 7.24300185
Ca 3.67854068 4.15989706 10.66086723
Ca 5.03007724 0.92771715 12.37416099
Ca 9.61452586 9.91413433 6.87599036
Ca 9.54718370 0.60244758 0.96818778
Ca 4.99182768 9.84555628 11.88710462
Ca 11.33926424 11.99730013 10.32408749
Ca 0.15960004 2.41299108 7.74214434
Ca 12.35896570 3.00531411 11.61194850
Ca 8.87280905 6.11614345 6.77077099
Ca 5.89975638 2.73860879 3.50358994
Ca 1.10413910 5.54095081 5.56321904
Ca 6.16022974 7.49203970 9.29469175
Ca 12.25588317 0.03449094 3.79580061
Ca 1.24369043 11.50467309 0.05556436
Ca 4.98974216 8.75676626 2.23256137
Ca 11.85989510 7.96000809 11.34422690
Ca 12.35434171 8.41852388 7.76623082
Ca 7.86291129 7.86800251 0.53874994
Ca 7.03217405 4.31453693 11.20973621
Ca 2.99249885 3.43507879 1.62384608
Si 6.59479318 4.04808363 8.64885318
Si 10.63091525 10.26902198 0.88290510
Si 5.67585788 1.77840137 6.73555871
Si 4.97103195 5.45206828 0.37304054
Si 11.60603541 8.22410800 4.93553296
Si 0.92173851 5.54078312 9.25453671
Si 7.76536702 4.45002362 1.16562162
Si 6.55641312 9.22516244 6.76440949
Si 10.38859708 1.91382435 4.36584869
Si 4.18024864 7.54221158 5.32518071
Si 7.74452546 0.11598609 10.59919738
Si 6.17527526 11.69957795 2.28293072
Si 2.11934494 8.72584689 0.22738502
Si 7.88425993 9.18047617 3.55065122
Si 0.51183615 1.85606732 1.54739216
Si 0.18484026 11.63759263 7.23368958
Si 3.97294045 5.60807927 3.47698617
Si 9.15593239 2.63673477 9.65587951
Si 9.87326625 4.10641747 5.25641046
Si 10.27295470 5.65109886 0.06815664
Si 10.62512126 8.04310854 2.20613744
Si 0.99844240 2.36956736 4.61474155
Si 1.84725433 0.90820868 9.70355120
Si 2.97353829 7.12935904 10.74527443
Si 9.25235714 6.92744093 10.14485442
Si 2.83362444 0.28704661 2.55064250
Si 8.59262992 9.73389777 11.16594600
O 3.88004055 6.27573207 11.73345075
O 10.64879062 11.47759173 1.81717914
O 9.29926329 8.31266813 3.11458164
O 4.05690407 1.48173111 6.18051821
O 7.37954341 4.27800577 2.80546431
O 7.83814553 9.26655112 5.26959657
O 9.81501908 0.69144914 3.60638031
O 3.24011670 1.36262038 3.78454855
O 3.74624939 8.41883562 10.28699153
O 9.01240500 0.05532478 11.63480659
O 7.11146593 9.30306211 11.55363692
O 8.94838605 3.44143586 10.91276272
O 10.98189460 10.31559892 11.68997986
O 6.92968522 8.15897858 2.65908973
O 9.36412575 4.50404046 0.83511333
O 10.29594475 8.04761429 6.18860777
O 8.20193803 4.58524980 5.23515343
O 1.66055332 9.88001388 11.83433412
O 11.58281657 8.93749781 1.41438841
O 10.10286021 3.44976784 3.77760877
O 7.93770641 6.71876271 10.97592306
O 0.11621861 7.12781922 9.27464963
O 4.24539903 4.11124492 3.70787170
O 11.89114856 1.90882841 4.87036250
O 11.82517573 7.58103326 3.35210874
O 2.42689539 6.07783775 3.01071286
O 7.61614308 10.70492550 2.94515815
O 3.11174199 12.50715155 9.86060352
O 5.42006132 10.65317089 7.11482450
O 4.49106136 5.91154041 1.79290353
O 1.43911564 0.84406762 4.92146220
O 2.94310553 6.31631032 9.32843998
O 8.90574468 7.05214961 8.58585770
O 0.76936402 0.52793519 10.85565071
O 6.91309129 3.15679824 0.48199189
O 5.75319588 3.40931091 7.37940278
O 2.54243762 11.42362531 3.22625794
O 2.28826976 2.47352347 9.11242751
O 0.96169992 2.72193009 2.97499806
O 8.26012639 1.26978073 9.31779049
O 6.36704387 0.86213901 7.95030848
O 8.33719378 3.98507908 8.65263019
O 6.98825749 5.78142667 0.54102966
O 0.50323029 7.63853985 5.93960204
O 11.79760820 5.15933480 0.04685267
O 1.18645518 4.86295139 10.62083488
O 0.93085380 4.53844706 7.97214503
O 11.90237986 9.58247724 4.22860191
O 1.37574189 2.46021153 0.43759248
O 11.23876453 4.96553434 5.65162347
O 10.25832931 6.05246318 11.03100140
O 6.68398628 0.56230706 2.60414939
O 1.78701972 3.44982396 5.82337612
O 1.22995784 8.79382529 1.75845960
O 1.21307707 0.53135718 2.17866019
O 9.68766051 8.76072416 10.15702137
O 9.99023024 7.07450335 1.12734459
O 1.67031794 7.46226535 11.65283449
O 9.78042438 2.68362171 6.02499570
O 3.37041511 9.06636980 4.68775435
O 9.07926835 9.83356879 0.46118678
O 7.71385761 9.15384304 8.06844133
O 5.81544465 11.60394457 0.74945490
O 4.37603727 3.99725015 0.07604355
O 3.25412534 6.44386736 5.69977333
O 6.31045583 0.22549537 10.80126192
O 11.78386368 10.73613677 8.31121428
O 6.13433915 3.27246340 9.92396679
O 5.47462299 7.81958835 6.36585155
O 5.36402478 10.93512652 3.48034173
O 0.48315307 0.49691280 8.23853409
O 5.85059718 5.48133945 8.78366173
O 3.68508415 8.54159810 0.47788507
O 6.77580665 1.90679129 5.45281695
O 11.27176801 12.37095116 6.58991382
O 1.40595321 11.17091174 6.52294152
O 5.15291902 6.72889561 3.94205099
O 11.56616108 1.72586809 0.74819631
O 3.81606912 0.15484539 1.29673837
O 8.08027066 10.94500050 10.11365338
O 10.87379587 2.42497807 9.93456142
135
Time=500000.00000301 pbc="T T T" Lattice="12.52607000 0.00000000 0.00000000 0.00000000 12.52607000 0.00000000 0.00000000 0.00000000 12.52607000" energy=-930.83891345 virial="1.49494611 2.53956347 -0.95463632 2.53956347 55.63609002 0.32477586 -0.95463632 0.32477586 32.28035734" stress="0.01851823 0.00129215 -0.00048573 0.00129215 0.04606577 0.00016525 -0.00048573 0.00016525 0.03418215" Properties=species:S:1:pos:R:3
Ca 8.70032628 0.25010759 9.66015777
Ca 0.65030953 2.90181388 3.90704465
Ca 0.47262168 4.50799821 0.44902022
Ca 5.62808451 0.68160502 5.77358976
Ca 5.11394886 0.48275782 9.40806994
Ca 5.88613365 11.42809216 0.83555207
Ca 8.88813202 5.17101752 8.04659916
Ca 8.92074023 1.97299533 5.03193646
Ca 6.16237939 9.01537487 8.69261332
Ca 1.35104098 12.27473188 8.28572125
Ca 10.60740422 6.53295881 11.40296549
Ca 11.94573678 10.50689532 10.19273895
Ca 2.37396078 10.33501893 1.75580636
Ca 10.87334795 10.69540682 0.35848138
Ca 3.08869927 6.70833980 10.48303620
Ca 2.64010622 9.11818821 7.68578248
Ca 6.58317346 6.12083602 0.96590042
Ca 8.68207837 3.80336947 10.62682113
Ca 11.64426533 8.48051439 3.24283170
Ca 5.04156081 5.05472838 4.52603113
Ca 8.13443098 7.32651474 4.84473879
Ca 8.23700113 11.33568569 6.94499224
Ca 3.31299370 6.66509171 2.44451803
Ca 3.36671873 0.13305742 12.23457812
Ca 4.88186499 5.31931792 7.47381247
Ca 8.67756912 10.08564697 4.10396238
Ca 0.74083279 5.83571795 6.76867001
Si 0.07517613 0.90222507 1.00462106
Si 8.84650532 8.43294322 1.44421263
Si 2.50099382 8.41730137 4.99517002
Si 10.74051196 7.84956421 6.38985730
Si 4.36529407 0.92260781 2.76070108
Si 8.78081916 2.98952770 1.39242178
Si 11.23547488 10.73343691 7.40254734
Si 11.82910104 1.36760321 10.78285187
Si 10.66119375 5.33264421 4.33366511
Si 0.65596788 8.01869843 0.15157629
Si 5.53886969 9.31433184 5.97543862
Si 8.24008443 9.66031735 10.95246793
Si 7.44427786 6.92343250 10.27635714
Si 7.49101233 0.01200865 3.12849324
Si 0.49830782 10.61280478 5.05497867
Si 10.54760997 0.85297142 2.86160885
Si 11.85246062 3.94675224 9.84971706
Si 6.47377428 1.80286510 12.01731094
Si 8.28018432 4.71456478 3.76145380
Si 3.31628005 0.22739896 6.17046675
Si 2.54231115 2.86421571 9.63783131
Si 6.99971577 2.51654477 7.76057951
Si 2.66041945 3.37577420 6.45343095
Si 3.24541464 9.62065571 10.92208224
Si 6.09785379 8.84721496 2.65634762
Si 4.62579555 3.97792258 11.73939552
Si 3.44850650 3.70932700 1.91848740
O 9.99305697 9.12883299 2.11002671
O 10.94264209 2.42926317 9.93178483
O 9.50835694 5.95312032 3.48744919
O 9.25377933 12.31078479 2.81870242
O 3.68108182 3.01013564 0.39596969
O 7.50959092 0.89362620 7.30516318
O 7.13351944 11.07738000 2.79942923
O 11.68315587 11.36658636 5.71828529
O 5.05136924 4.70485478 2.29699595
O 7.29900181 1.67594826 10.56993698
O 6.57042745 6.27018570 11.37537363
O 12.50390353 10.66295271 8.18936935
O 11.77424960 4.59777964 3.59468940
O 8.03048272 3.57371644 8.43037716
O 10.63387460 9.42611882 6.77055779
O 5.49482514 0.59154192 12.12321507
O 2.51086465 8.76728556 3.42794548
O 0.44789031 10.16778970 3.48680871
O 4.41660664 8.88757627 10.24035823
O 12.12354049 8.86704103 11.15127882
O 11.67457631 7.40865025 7.79704011
O 9.12240758 3.77286420 0.07234437
O 7.53370410 0.08318878 4.84517003
O 11.24793985 6.15957267 5.46607325
O 3.53097569 10.15493263 12.39704900
O 11.37872548 4.72746331 11.36671284
O 11.95621083 1.94312235 12.32976358
O 4.42468328 5.48556290 12.13807569
O 2.94227204 1.82609885 6.07446998
O 3.65627254 3.63909843 10.52932536
O 8.94244469 7.27064078 6.73372524
O 5.45232476 7.01731261 2.70802206
O 3.69211092 9.67845702 5.84389013
O 7.80032683 10.92025095 10.12247346
O 6.22381131 0.92428050 2.85221262
O 3.97907900 4.06189700 5.73009145
O 7.08024754 8.53285294 10.69539699
O 7.61335422 1.84025411 0.90239072
O 6.24118268 10.37874901 7.06935605
O 5.14543831 8.04252033 6.62911677
O 11.47897255 12.39422195 1.92870590
O 0.99422243 2.16865762 1.79927985
O 2.20494712 4.63515338 2.28238297
O 5.57351713 2.56320577 8.39020603
O 9.89415056 9.49570471 10.96097574
O 3.01341255 1.35189887 9.64762105
O 7.71671760 8.34329859 2.81650685
O 3.77093104 2.40596371 3.14876894
O 10.27995625 8.30816994 4.80450569
O 8.88961985 6.31834645 10.26285277
O 10.88051554 12.41666637 11.25626376
O 2.03706282 3.45681797 8.16083761
O 7.30273864 6.90910819 8.65437033
O 10.10486479 11.74284552 8.15228532
O 0.22990678 0.55212399 9.66348943
O 6.24165329 3.35363207 11.62077498
O 1.77324046 11.70188816 6.29433711
O 0.27366768 6.43645631 12.37979433
O 9.54333007 3.97167895 4.62603394
O 7.83566971 9.76397495 0.35427607
O 10.12443820 2.26166344 2.20633804
O 9.03387717 7.08013023 0.99546191
O 2.98143825 6.83999032 8.33918476
O 2.62186852 6.85247855 5.31646076
O 4.96325161 9.38594905 1.62504632
O 7.87585273 3.74386879 2.66772336
O 2.77648571 10.95643522 10.04300888
O 1.02242067 3.17270570 10.33095215
O 2.41657341 7.98731238 11.90194599
O 7.24188535 3.00393982 6.06957786
O 3.92995870 12.34245018 1.63725672
O 11.28937416 1.17057554 4.43917784
O 4.01177125 0.38985258 4.44826993
O 7.46341422 5.29131088 4.94144933
O 1.06713767 9.10623148 5.86267158
O 6.04786043 9.11716833 4.41087400
O 0.96347177 12.10844919 0.47898603
O 4.21433967 12.45602753 7.33643130
O 0.37685060 8.87168066 1.46503225
O 11.45455714 5.07656592 8.90524434
O 1.59380289 4.04119877 5.35569749
135
Time=600000.00000594 pbc="T T T" Lattice="12.52607000 0.00000000 0.00000000 0.00000000 12.52607000 0.00000000 0.00000000 0.00000000 12.52607000" energy=-920.58490294 virial="31.47188963 -7.75069227 13.46018215 -7.75069227 -8.43732186 11.97779118 13.46018215 11.97779118 -24.14037329" stress="0.03377079 -0.00394363 0.00684867 -0.00394363 0.01346459 0.00609442 0.00684867 0.00609442 0.00547473" Properties=species:S:1:pos:R:3
Ca 6.48085528 9.40907732 8.98688705
Ca 12.33532768 5.99796440 0.81022858
Ca 5.85102592 0.79376002 11.76839114
Ca 6.87233286 10.25028868 3.81655105
Ca 8.61001972 4.06539763 6.28224110
Ca 1.31204913 8.09849774 10.38492531
Ca 4.56283282 12.02409892 6.48603868
Ca 1.05262412 0.98356977 6.36549887
Ca 11.85198147 1.95043938 4.01513474
Ca 3.07178658 9.36661789 3.96712283
Ca 4.43214420 4.30945358 12.04145314
Ca 6.71901352 5.18722399 9.28592497
Ca 10.24658771 8.84474227 2.42018848
Ca 3.05170145 6.94769751 1.67807653
Ca 10.91965344 11.14772879 5.67137886
Ca 3.33140932 5.24675237 4.75351921
Ca 8.82122320 7.82243513 11.60523033
Ca 8.13656022 12.02055197 9.94460859
Ca 1.69575991 1.72669082 10.22653116
Ca 4.44696438 3.31558576 8.50230399
Ca 1.19243736 10.66126700 8.25027767
Ca 9.33241767 4.34475783 1.75333663
Ca 11.46279856 10.37592016 12.32859532
Ca 2.65368729 0.68869528 0.82388725
Ca 3.99155172 6.53979249 8.87740159
Ca 8.63600072 8.61961753 6.02368049
Ca 6.33189217 7.11807282 2.43031639
Si 9.51447550 6.28823163 3.94195676
Si 11.35984997 1.09291846 1.14967960
Si 10.39998547 9.22019268 8.98361578
Si 0.42165310 7.89805640 4.62061603
Si 6.58084105 2.91240750 1.11323442
Si 6.32439563 2.36364859 5.21908821
Si 2.39494307 0.33064500 3.80764717
Si 10.40886847 1.05733614 7.69296328
Si 4.46586944 0.43797531 9.48059071
Si 3.41592669 10.38377529 11.17919123
Si 4.94175455 7.66477241 11.76753781
Si 6.16260749 5.35751554 5.73733627
Si 1.33752658 3.84681513 12.33139382
Si 5.87591833 0.18759623 3.04153726
Si 2.34646558 8.08776283 7.07056228
Si 1.83458157 3.19202997 2.94619585
Si 4.93732294 8.78632675 6.03505347
Si 11.23557927 6.31611063 9.37106799
Si 9.74651226 4.45160048 11.31304928
Si 7.65202892 12.04343153 6.79338769
Si 0.82638218 8.78000566 1.61166931
Si 0.11555175 11.46838215 3.02054642
Si 9.05397036 1.53512745 11.75125372
Si 11.43396479 12.45428756 10.07020495
Si 7.39809466 10.67960340 0.69659342
Si 1.01740586 4.82600526 8.46363076
Si 11.64375891 5.51619584 6.47982769
O 9.12254320 10.00719244 0.66394673
O 2.08695486 5.22124288 0.28722462
O 6.05791136 1.78074293 3.64046652
O 12.08349203 0.46764396 11.75601721
O 9.96119078 8.07707370 4.39617344
O 7.35354492 12.07626559 2.24836166
O 7.99896215 5.73417969 3.43741470
O 1.03791319 3.33513254 4.50579279
O 10.46203033 5.86923913 2.61655356
O 6.72291283 0.86841012 6.03816734
O 9.86557612 5.32770022 5.10020029
O 6.51195224 9.43325824 1.42071160
O 4.84924800 4.75068714 9.91824611
O 5.17163708 11.49096775 3.81388435
O 0.41202458 8.29617452 0.02357491
O 9.10633697 12.37942654 7.51339353
O 10.88296593 10.98026824 3.24876649
O 7.31438048 6.40514257 6.43472163
O 10.35015320 9.08527873 7.32992305
O 1.04471205 8.65098665 6.53412144
O 6.60903725 4.14901550 2.06400397
O 6.07295993 8.32069791 7.16697813
O 0.64753498 0.02921783 4.58472092
O 2.58276676 4.69077647 2.76192786
O 3.51496528 1.03081080 10.73167523
O 11.59851796 0.52402611 6.80431709
O 10.70383062 4.81395494 9.95773615
O 9.86933952 5.67945472 12.33900773
O 0.77478145 3.36381124 1.57231649
O 8.01958777 2.48200177 0.92569894
O 1.67117700 3.48160622 8.75810234
O 9.49386213 2.30798662 6.99537561
O 4.10977924 9.02716481 11.59798822