 vasp.5.4.4.18Apr17-6-g9f103f2a35 (build Oct 31 2019 15:01:46) complex          
  
 executed on             LinuxIFC date 2024.05.01  21:13:50
 running on   52 total cores
 distrk:  each k-point on   52 cores,    1 groups
 distr:  one band on NCORES_PER_BAND=  13 cores,    4 groups


--------------------------------------------------------------------------------------------------------


 INCAR:
 POTCAR:    PAW_PBE Sc_sv 07Sep2000               
 POTCAR:    PAW_PBE Cl 06Sep2000                  
 POTCAR:    PAW_PBE C 08Apr2002                   
 POTCAR:    PAW_PBE Sc_sv 07Sep2000               
   VRHFIN =Sc: 3p4s3d                                                           
   LEXCH  = PE                                                                  
   EATOM  =  1273.2868 eV,   93.5839 Ry                                         
                                                                                
   TITEL  = PAW_PBE Sc_sv 07Sep2000                                             
   LULTRA =        F    use ultrasoft PP ?                                      
   IUNSCR =        1    unscreen: 0-lin 1-nonlin 2-no                           
   RPACOR =    2.200    partial core radius                                     
   POMASS =   44.956; ZVAL   =   11.000    mass and valenz                      
   RCORE  =    2.500    outmost cutoff radius                                   
   RWIGS  =    2.700; RWIGS  =    1.429    wigner-seitz radius (au A)           
   ENMAX  =  222.660; ENMIN  =  166.995 eV                                      
   RCLOC  =    1.805    cutoff for local pot                                    
   LCOR   =        T    correct aug charges                                     
   LPAW   =        T    paw PP                                                  
   EAUG   =  443.063                                                            
   RMAX   =    2.551    core radius for proj-oper                               
   RAUG   =    1.300    factor for augmentation sphere                          
   RDEP   =    2.650    radius for radial grids                                 
   RDEPT  =    2.038    core radius for aug-charge                              
                                                                                
   Atomic configuration                                                         
    8 entries                                                                   
     n  l   j            E        occ.                                          
     1  0  0.50     -4394.2533   2.0000                                         
     2  0  0.50      -471.0040   2.0000                                         
     2  1  1.50      -384.9788   6.0000                                         
     3  0  0.50       -52.1410   2.0000                                         
     4  0  0.50        -3.5584   1.0000                                         
     3  1  1.50       -30.8841   6.0000                                         
     3  2  2.50        -1.3655   2.0000                                         
     4  3  2.50        -1.3606   0.0000                                         
   Description                                                                  
     l       E           TYP  RCUT    TYP  RCUT                                 
     0    -52.1409870     23  1.800                                             
     0     -3.5583698     23  2.500                                             
     1    -30.8840697     23  2.300                                             
     1      4.0817478     23  2.300                                             
     2     -1.3655397     23  2.500                                             
     2      0.3564476     23  2.500                                             
  local pseudopotential read in
  partial core-charges read in
  partial kinetic energy density read in
  atomic valenz-charges read in
  non local Contribution for L=           0  read in
    real space projection operators read in
  non local Contribution for L=           0  read in
    real space projection operators read in
  non local Contribution for L=           1  read in
    real space projection operators read in
  non local Contribution for L=           1  read in
    real space projection operators read in
  non local Contribution for L=           2  read in
    real space projection operators read in
  non local Contribution for L=           2  read in
    real space projection operators read in
    PAW grid and wavefunctions read in
 
   number of l-projection  operators is LMAX  =           6
   number of lm-projection operators is LMMAX =          18
 
 POTCAR:    PAW_PBE Cl 06Sep2000                  
   VRHFIN =Cl: s2p5                                                             
   LEXCH  = PE                                                                  
   EATOM  =   409.7259 eV,   30.1140 Ry                                         
                                                                                
   TITEL  = PAW_PBE Cl 06Sep2000                                                
   LULTRA =        F    use ultrasoft PP ?                                      
   IUNSCR =        1    unscreen: 0-lin 1-nonlin 2-no                           
   RPACOR =    1.500    partial core radius                                     
   POMASS =   35.453; ZVAL   =    7.000    mass and valenz                      
   RCORE  =    1.900    outmost cutoff radius                                   
   RWIGS  =    2.100; RWIGS  =    1.111    wigner-seitz radius (au A)           
   ENMAX  =  262.472; ENMIN  =  196.854 eV                                      
   ICORE  =        2    local potential                                         
   LCOR   =        T    correct aug charges                                     
   LPAW   =        T    paw PP                                                  
   EAUG   =  356.192                                                            
   DEXC   =    0.000                                                            
   RMAX   =    1.945    core radius for proj-oper                               
   RAUG   =    1.300    factor for augmentation sphere                          
   RDEP   =    2.020    radius for radial grids                                 
   RDEPT  =    1.678    core radius for aug-charge                              
                                                                                
   Atomic configuration                                                         
    6 entries                                                                   
     n  l   j            E        occ.                                          
     1  0  0.50     -2751.1850   2.0000                                         
     2  0  0.50      -252.6861   2.0000                                         
     2  1  1.50      -191.6157   6.0000                                         
     3  0  0.50       -20.6916   2.0000                                         
     3  1  0.50        -8.5949   5.0000                                         
     3  2  1.50        -8.1635   0.0000                                         
   Description                                                                  
     l       E           TYP  RCUT    TYP  RCUT                                 
     0    -20.6915656     23  1.900                                             
     0    -22.0521482     23  1.900                                             
     1     -8.5948577     23  1.900                                             
     1     -5.3847331     23  1.900                                             
     2     -8.1634956     23  1.900                                             
  local pseudopotential read in
  partial core-charges read in
  partial kinetic energy density read in
  atomic valenz-charges read in
  non local Contribution for L=           0  read in
    real space projection operators read in
  non local Contribution for L=           0  read in
    real space projection operators read in
  non local Contribution for L=           1  read in
    real space projection operators read in
  non local Contribution for L=           1  read in
    real space projection operators read in
    PAW grid and wavefunctions read in
 
   number of l-projection  operators is LMAX  =           4
   number of lm-projection operators is LMMAX =           8
 
 POTCAR:    PAW_PBE C 08Apr2002                   
   VRHFIN =C: s2p2                                                              
   LEXCH  = PE                                                                  
   EATOM  =   147.1560 eV,   10.8157 Ry                                         
                                                                                
   TITEL  = PAW_PBE C 08Apr2002                                                 
   LULTRA =        F    use ultrasoft PP ?                                      
   IUNSCR =        1    unscreen: 0-lin 1-nonlin 2-no                           
   RPACOR =    1.200    partial core radius                                     
   POMASS =   12.011; ZVAL   =    4.000    mass and valenz                      
   RCORE  =    1.500    outmost cutoff radius                                   
   RWIGS  =    1.630; RWIGS  =    0.863    wigner-seitz radius (au A)           
   ENMAX  =  400.000; ENMIN  =  300.000 eV                                      
   ICORE  =        2    local potential                                         
   LCOR   =        T    correct aug charges                                     
   LPAW   =        T    paw PP                                                  
   EAUG   =  644.873                                                            
   DEXC   =    0.000                                                            
   RMAX   =    1.529    core radius for proj-oper                               
   RAUG   =    1.300    factor for augmentation sphere                          
   RDEP   =    1.501    radius for radial grids                                 
   RDEPT  =    1.300    core radius for aug-charge                              
                                                                                
   Atomic configuration                                                         
    4 entries                                                                   
     n  l   j            E        occ.                                          
     1  0  0.50      -273.3789   2.0000                                         
     2  0  0.50       -13.7508   2.0000                                         
     2  1  0.50        -5.2854   2.0000                                         
     3  2  1.50        -5.4423   0.0000                                         
   Description                                                                  
     l       E           TYP  RCUT    TYP  RCUT                                 
     0    -13.7508458     23  1.200                                             
     0     -8.2022199     23  1.200                                             
     1     -5.2854383     23  1.500                                             
     1     34.0145650     23  1.500                                             
     2     -5.4423304      7  1.500                                             
  local pseudopotential read in
  partial core-charges read in
  partial kinetic energy density read in
  atomic valenz-charges read in
  non local Contribution for L=           0  read in
    real space projection operators read in
  non local Contribution for L=           0  read in
    real space projection operators read in
  non local Contribution for L=           1  read in
    real space projection operators read in
  non local Contribution for L=           1  read in
    real space projection operators read in
    PAW grid and wavefunctions read in
 
   number of l-projection  operators is LMAX  =           4
   number of lm-projection operators is LMMAX =           8
 
 Optimization of the real space projectors (new method)

 maximal supplied QI-value         = 15.12
 optimisation between [QCUT,QGAM] = [ 12.55, 25.10] = [ 44.09,176.36] Ry 
 Optimized for a Real-space Cutoff    1.56 Angstroem

   l    n(q)    QCUT    max X(q) W(low)/X(q) W(high)/X(q)  e(spline) 
   0     12    12.548     2.962    0.12E-05    0.11E-06    0.46E-07
   0     12    12.548    26.414    0.30E-04    0.15E-05    0.76E-07
   1     11    12.548     3.969    0.45E-05    0.12E-05    0.60E-07
   1     11    12.548     5.137    0.15E-04    0.18E-04    0.36E-06
   2     11    12.548   143.970    0.20E-03    0.19E-03    0.76E-06
   2     11    12.548   121.201    0.20E-03    0.19E-03    0.76E-06
 Optimization of the real space projectors (new method)

 maximal supplied QI-value         = 19.84
 optimisation between [QCUT,QGAM] = [ 12.50, 25.00] = [ 43.76,175.03] Ry 
 Optimized for a Real-space Cutoff    1.20 Angstroem

   l    n(q)    QCUT    max X(q) W(low)/X(q) W(high)/X(q)  e(spline) 
   0      9    12.501   168.010    0.44E-04    0.61E-04    0.77E-07
   0      9    12.501   164.674    0.43E-04    0.60E-04    0.75E-07
   1      8    12.501    69.222    0.11E-03    0.13E-03    0.91E-07
   1      8    12.501    56.786    0.11E-03    0.13E-03    0.90E-07
 Optimization of the real space projectors (new method)

 maximal supplied QI-value         = 25.13
 optimisation between [QCUT,QGAM] = [ 12.32, 24.88] = [ 42.47,173.37] Ry 
 Optimized for a Real-space Cutoff    1.16 Angstroem

   l    n(q)    QCUT    max X(q) W(low)/X(q) W(high)/X(q)  e(spline) 
   0      9    12.315   115.676    0.19E-03    0.80E-05    0.34E-06
   0      9    12.315    87.132    0.19E-03    0.82E-05    0.34E-06
   1      8    12.315     4.429    0.18E-03    0.13E-03    0.22E-06
   1      8    12.315     2.733    0.14E-03    0.10E-03    0.18E-06
  PAW_PBE Sc_sv 07Sep2000               :
 energy of atom  1       EATOM=-1273.2868
 kinetic energy error for atom=    0.0014 (will be added to EATOM!!)
  PAW_PBE Cl 06Sep2000                  :
 energy of atom  2       EATOM= -409.7259
 kinetic energy error for atom=    0.0013 (will be added to EATOM!!)
  PAW_PBE C 08Apr2002                   :
 energy of atom  3       EATOM= -147.1560
 kinetic energy error for atom=    0.0057 (will be added to EATOM!!)
 
 
 POSCAR: Sc Cl  C                                
  positions in cartesian coordinates
  No initial velocities read in
 exchange correlation table for  LEXCH =        8
   RHO(1)=    0.500       N(1)  =     2000
   RHO(2)=  100.500       N(2)  =     4000
 


--------------------------------------------------------------------------------------------------------


 ion  position               nearest neighbor table
   1  0.080  0.160  0.543-  65 2.31  70 2.39  66 2.40  49 2.47  61 2.48  50 2.74  17 3.05  29 3.05
                            18 3.24   5 3.37
   2  0.086  0.426  0.540-  71 2.30  67 2.37  66 2.38  50 2.49  51 2.63  62 2.67  19 3.00  18 3.13
                            30 3.17   7 3.27   3 3.39
   3  0.073  0.664  0.545-  68 2.17  67 2.32  63 2.54  72 2.55  51 2.70  52 2.80  31 3.07  19 3.16
                            20 3.16  15 3.33   4 3.35  14 3.35   2 3.39
   4  0.094  0.917  0.547-  69 2.22  65 2.42  68 2.42  64 2.47  52 2.65  49 2.66  20 3.07  17 3.09
                            32 3.28   3 3.35   8 3.38   5 3.42
   5  0.331  0.173  0.543-  74 2.32  70 2.33  69 2.39  53 2.60  49 2.60  54 2.62  17 3.19  22 3.21
                            21 3.24   6 3.34   1 3.37  10 3.42   4 3.42
   6  0.334  0.417  0.541-  75 2.29  70 2.33  71 2.42  54 2.51  50 2.80  55 2.82  23 3.17  18 3.23
                            22 3.24  11 3.34   5 3.34   7 3.37
   7  0.327  0.659  0.542-  71 2.16  72 2.31  76 2.37  51 2.48  55 2.64  56 2.84  19 3.08  23 3.20
                            24 3.21   2 3.27   8 3.36   6 3.37
   8  0.332  0.904  0.549-  72 2.14  73 2.41  52 2.47  69 2.53  53 2.58  56 2.59  20 3.13  24 3.27
                            21 3.31   7 3.36   4 3.38
   9  0.583  0.165  0.544-  73 2.32  78 2.41  74 2.47  57 2.61  53 2.67  58 2.72  26 3.14  25 3.26
                            21 3.27  10 3.39
  10  0.586  0.413  0.544-  79 2.31  74 2.36  75 2.51  58 2.59  54 2.68  59 2.76  26 3.14  27 3.23
                            14 3.26  22 3.31   9 3.39   5 3.42
  11  0.578  0.657  0.546-  75 2.21  76 2.35  80 2.44  59 2.56  55 2.57  60 2.73  27 3.10  23 3.22
                             6 3.34  28 3.37  16 3.41
  12  0.586  0.910  0.551-  77 2.29  60 2.40  76 2.43  56 2.46  73 2.51  57 2.63  28 3.19  25 3.30
                            16 3.32  24 3.35
  13  0.836  0.173  0.542-  78 2.26  66 2.36  77 2.42  62 2.70  57 2.72  61 2.79  29 3.11  30 3.11
                            25 3.14
  14  0.828  0.424  0.541-  79 2.19  78 2.34  67 2.39  58 2.58  63 2.76  62 2.83  31 3.06  26 3.13
                            30 3.18  10 3.26  15 3.31   3 3.35
  15  0.832  0.666  0.544-  80 2.26  68 2.27  79 2.36  59 2.53  63 2.64  64 2.72  27 3.11  32 3.12
                            31 3.13  14 3.31   3 3.33  16 3.34
  16  0.824  0.905  0.545-  80 2.26  65 2.37  77 2.45  61 2.60  60 2.71  64 2.73  28 3.12  32 3.17
                            29 3.19  12 3.32  15 3.34  11 3.41
  17  0.151  0.070  0.458-  65 2.23  69 2.33  70 2.43  36 2.56  37 2.65  33 2.80   1 3.05   4 3.09
                             5 3.19  32 3.28  29 3.31  20 3.35
  18  0.157  0.331  0.453-  66 2.21  70 2.35  71 2.48  34 2.61  38 2.65  33 2.66   2 3.13   6 3.23
                             1 3.24  29 3.40  30 3.42
  19  0.164  0.587  0.457-  67 2.25  71 2.26  72 2.43  35 2.46  34 2.51  39 2.73   2 3.00   7 3.08
                             3 3.16  31 3.41  20 3.42
  20  0.173  0.839  0.459-  69 2.23  72 2.32  68 2.44  36 2.45  35 2.61  40 2.64   4 3.07   8 3.13
                             3 3.16  21 3.22  17 3.35  19 3.42
  21  0.406  0.073  0.454-  69 2.32  73 2.40  74 2.41  40 2.44  37 2.51  41 2.81  20 3.22   5 3.24
                             9 3.27   8 3.31
  22  0.418  0.332  0.449-  74 2.30  70 2.41  75 2.52  37 2.60  42 2.61  38 2.72   5 3.21   6 3.24
                            10 3.31  26 3.40
  23  0.420  0.585  0.452-  75 2.26  76 2.31  71 2.38  39 2.57  43 2.62  38 2.66   6 3.17   7 3.20
                            11 3.22  27 3.38  24 3.39
  24  0.421  0.831  0.454-  72 2.32  76 2.37  73 2.39  40 2.52  39 2.58  44 2.66   7 3.21   8 3.27
                            28 3.34  12 3.35  25 3.38  23 3.39
  25  0.669  0.073  0.455-  77 2.16  73 2.39  78 2.49  44 2.52  45 2.57  41 2.68  13 3.14  28 3.17
                             9 3.26  12 3.30  29 3.37  24 3.38
  26  0.661  0.326  0.455-  74 2.32  78 2.35  79 2.40  42 2.48  41 2.56  46 2.61  14 3.13  10 3.14
                             9 3.14  30 3.40  22 3.40
  27  0.669  0.593  0.457-  80 2.19  75 2.34  79 2.36  43 2.45  47 2.75  42 2.91  11 3.10  15 3.11
                            10 3.23  32 3.33  23 3.38
  28  0.668  0.843  0.455-  77 2.22  76 2.38  80 2.51  44 2.56  48 2.58  43 2.85  16 3.12  25 3.17
                            12 3.19  24 3.34  29 3.35  11 3.37
  29  0.917  0.080  0.459-  66 2.32  65 2.34  77 2.43  33 2.51  45 2.71  48 2.78   1 3.05  13 3.11
                            16 3.19  17 3.31  28 3.35  25 3.37  18 3.40
  30  0.911  0.334  0.454-  78 2.25  67 2.37  66 2.41  45 2.56  46 2.57  34 2.60  13 3.11   2 3.17
                            14 3.18  26 3.40  18 3.42
  31  0.918  0.589  0.456-  67 2.21  68 2.24  79 2.34  47 2.49  35 2.50  46 2.63  14 3.06   3 3.07
                            15 3.13  32 3.33  19 3.41
  32  0.916  0.829  0.457-  80 2.31  65 2.32  68 2.39  48 2.51  47 2.54  36 2.70  15 3.12  16 3.17
                             4 3.28  17 3.28  31 3.33  27 3.33
  33  0.060  0.158  0.393-  29 2.51  18 2.66  17 2.80
  34  0.083  0.431  0.397-  19 2.51  30 2.60  18 2.61
  35  0.083  0.668  0.402-  19 2.46  31 2.50  20 2.61
  36  0.096  0.910  0.398-  20 2.45  17 2.56  32 2.70
  37  0.321  0.152  0.397-  21 2.51  22 2.60  17 2.65
  38  0.324  0.419  0.390-  18 2.65  23 2.66  22 2.72
  39  0.337  0.668  0.393-  23 2.57  24 2.58  19 2.73
  40  0.340  0.917  0.398-  21 2.44  24 2.52  20 2.64
  41  0.593  0.168  0.393-  26 2.56  25 2.68  21 2.81
  42  0.590  0.404  0.392-  26 2.48  22 2.61  27 2.91
  43  0.591  0.654  0.393-  27 2.45  23 2.62  28 2.85
  44  0.591  0.921  0.392-  25 2.52  28 2.56  24 2.66
  45  0.832  0.169  0.395-  30 2.56  25 2.57  29 2.71
  46  0.831  0.421  0.396-  30 2.57  26 2.61  31 2.63
  47  0.848  0.672  0.396-  31 2.49  32 2.54  27 2.75
  48  0.832  0.900  0.396-  32 2.51  28 2.58  29 2.78
  49  0.166  0.095  0.604-   1 2.47   5 2.60   4 2.66
  50  0.150  0.342  0.602-   2 2.49   1 2.74   6 2.80
  51  0.176  0.588  0.603-   7 2.48   2 2.63   3 2.70
  52  0.183  0.841  0.610-   8 2.47   4 2.65   3 2.80
  53  0.405  0.080  0.602-   8 2.58   5 2.60   9 2.67
  54  0.410  0.342  0.603-   6 2.51   5 2.62  10 2.68
  55  0.420  0.593  0.609-  11 2.57   7 2.64   6 2.82
  56  0.431  0.838  0.609-  12 2.46   8 2.59   7 2.84
  57  0.666  0.087  0.607-   9 2.61  12 2.63  13 2.72
  58  0.675  0.341  0.606-  14 2.58  10 2.59   9 2.72
  59  0.676  0.593  0.606-  15 2.53  11 2.56  10 2.76
  60  0.655  0.831  0.609-  12 2.40  16 2.71  11 2.73
  61  0.925  0.076  0.602-   1 2.48  16 2.60  13 2.79
  62  0.927  0.342  0.607-   2 2.67  13 2.70  14 2.83
  63  0.921  0.593  0.608-   3 2.54  15 2.64  14 2.76
  64  0.939  0.843  0.606-   4 2.47  15 2.72  16 2.73
  65  0.995  0.992  0.502-  17 2.23   1 2.31  32 2.32  29 2.34  16 2.37   4 2.42
  66  0.004  0.253  0.497-  18 2.21  29 2.32  13 2.36   2 2.38   1 2.40  30 2.41
  67  0.998  0.508  0.495-  31 2.21  19 2.25   3 2.32   2 2.37  30 2.37  14 2.39
  68  0.996  0.741  0.503-   3 2.17  31 2.24  15 2.27  32 2.39   4 2.42  20 2.44
  69  0.246  0.998  0.501-   4 2.22  20 2.23  21 2.32  17 2.33   5 2.39   8 2.53
  70  0.248  0.253  0.496-   6 2.33   5 2.33  18 2.35   1 2.39  22 2.41  17 2.43
  71  0.252  0.511  0.498-   7 2.16  19 2.26   2 2.30  23 2.38   6 2.42  18 2.48
  72  0.262  0.761  0.502-   8 2.14   7 2.31  24 2.32  20 2.32  19 2.43   3 2.55
  73  0.500  0.999  0.501-   9 2.32  24 2.39  25 2.39  21 2.40   8 2.41  12 2.51
  74  0.492  0.249  0.496-  22 2.30   5 2.32  26 2.32  10 2.36  21 2.41   9 2.47
  75  0.499  0.509  0.499-  11 2.21  23 2.26   6 2.29  27 2.34  10 2.51  22 2.52
  76  0.500  0.744  0.500-  23 2.31  11 2.35   7 2.37  24 2.37  28 2.38  12 2.43
  77  0.738  0.996  0.501-  25 2.16  28 2.22  12 2.29  13 2.42  29 2.43  16 2.45
  78  0.755  0.254  0.499-  30 2.25  13 2.26  14 2.34  26 2.35   9 2.41  25 2.49
  79  0.749  0.500  0.499-  14 2.19  10 2.31  31 2.34  27 2.36  15 2.36  26 2.40
  80  0.752  0.746  0.501-  27 2.19  15 2.26  16 2.26  32 2.31  11 2.44  28 2.51
 
  LATTYP: Found a hexagonal cell.
 ALAT       =    13.7939866762
 C/A-ratio  =     2.0161119278
  
  Lattice vectors:
  
 A1 = (  13.7939866800,   0.0000000000,   0.0000000000)
 A2 = (  -6.8969933400,  11.9459428800,   0.0000000000)
 A3 = (   0.0000000000,   0.0000000000,  27.8102210700)


Analysis of symmetry for initial positions (statically):
=====================================================================
 Subroutine PRICEL returns:
 Original cell was already a primitive cell.
 

 Routine SETGRP: Setting up the symmetry group for a 
 hexagonal supercell.


 Subroutine GETGRP returns: Found  1 space group operations
 (whereof  1 operations were pure point group operations)
 out of a pool of 24 trial point group operations.


The static configuration has the point symmetry C_1 .


Analysis of symmetry for dynamics (positions and initial velocities):
=====================================================================
 Subroutine PRICEL returns:
 Original cell was already a primitive cell.
 

 Routine SETGRP: Setting up the symmetry group for a 
 hexagonal supercell.


 Subroutine GETGRP returns: Found  1 space group operations
 (whereof  1 operations were pure point group operations)
 out of a pool of 24 trial point group operations.


The dynamic configuration has the point symmetry C_1 .


 Subroutine INISYM returns: Found  1 space group operations
 (whereof  1 operations are pure point group operations),
 and found     1 'primitive' translations

 
 

Automatic generation of k-mesh.
 generate k-points for:    3    3    1
Space group operators:
 irot       det(A)        alpha          n_x          n_y          n_z        tau_x        tau_y        tau_z
    1     1.000000     0.000000     1.000000     0.000000     0.000000     0.000000     0.000000     0.000000
 
 Subroutine IBZKPT returns following result:
 ===========================================
 
 Found      5 irreducible k-points:
 
 Following reciprocal coordinates:
            Coordinates               Weight
  0.000000  0.000000  0.000000      1.000000
  0.333333 -0.000000  0.000000      2.000000
  0.000000  0.333333  0.000000      2.000000
  0.333333  0.333333  0.000000      2.000000
 -0.333333  0.333333  0.000000      2.000000
 
 Following cartesian coordinates:
            Coordinates               Weight
  0.000000  0.000000  0.000000      1.000000
  0.024165  0.013952  0.000000      2.000000
  0.000000  0.027903  0.000000      2.000000
  0.024165  0.041855  0.000000      2.000000
 -0.024165  0.013952  0.000000      2.000000
 


--------------------------------------------------------------------------------------------------------




 Dimension of arrays:
   k-points           NKPTS =      5   k-points in BZ     NKDIM =      5   number of bands    NBANDS=    384
   number of dos      NEDOS =    301   number of ions     NIONS =     80
   non local maximal  LDIM  =      6   non local SUM 2l+1 LMDIM =     18
   total plane-waves  NPLWV = ******
   max r-space proj   IRMAX =   9806   max aug-charges    IRDMAX= 216835
   dimension x,y,z NGX =   112 NGY =  112 NGZ =  224
   dimension x,y,z NGXF=   224 NGYF=  224 NGZF=  448
   support grid    NGXF=   448 NGYF=  448 NGZF=  896
   ions per type =              32  32  16
   NGX,Y,Z   is equivalent  to a cutoff of  13.50, 13.50, 13.39 a.u.
   NGXF,Y,Z  is equivalent  to a cutoff of  27.00, 27.00, 26.78 a.u.

 SYSTEM =  unknown system                          
 POSCAR =  Sc Cl  C                                

 Startparameter for this run:
   NWRITE =      2    write-flag & timer
   PREC   = anorma    normal or accurate (medium, high low for compatibility)
   ISTART =      0    job   : 0-new  1-cont  2-samecut
   ICHARG =      2    charge: 1-file 2-atom 10-const
   ISPIN  =      1    spin polarized calculation?
   LNONCOLLINEAR =      F non collinear calculations
   LSORBIT =      F    spin-orbit coupling
   INIWAV =      1    electr: 0-lowe 1-rand  2-diag
   LASPH  =      F    aspherical Exc in radial PAW
   METAGGA=      F    non-selfconsistent MetaGGA calc.

 Electronic Relaxation 1
   ENCUT  =  600.0 eV  44.10 Ry    6.64 a.u.  27.55 27.55 55.54*2*pi/ulx,y,z
   ENINI  =  600.0     initial cutoff
   ENAUG  =  644.9 eV  augmentation charge cutoff
   NELM   =     60;   NELMIN=  2; NELMDL= -5     # of ELM steps 
   EDIFF  = 0.1E-05   stopping-criterion for ELM
   LREAL  =      T    real-space projection
   NLSPLINE    = F    spline interpolate recip. space projectors
   LCOMPAT=      F    compatible to vasp.4.4
   GGA_COMPAT  = T    GGA compatible to vasp.4.4-vasp.4.6
   LMAXPAW     = -100 max onsite density
   LMAXMIX     =    2 max onsite mixed and CHGCAR
   VOSKOWN=      0    Vosko Wilk Nusair interpolation
   ROPT   =   -0.00025  -0.00025  -0.00025
 Ionic relaxation
   EDIFFG = -.1E-01   stopping-criterion for IOM
   NSW    =      1    number of steps for IOM
   NBLOCK =      1;   KBLOCK =      1    inner block; outer block 
   IBRION =     -1    ionic relax: 0-MD 1-quasi-New 2-CG
   NFREE  =      0    steps in history (QN), initial steepest desc. (CG)
   ISIF   =      2    stress and relaxation
   IWAVPR =     10    prediction:  0-non 1-charg 2-wave 3-comb
   ISYM   =      2    0-nonsym 1-usesym 2-fastsym
   LCORR  =      T    Harris-Foulkes like correction to forces

   POTIM  = 1.0000    time-step for ionic-motion
   TEIN   =    0.0    initial temperature
   TEBEG  =    0.0;   TEEND  =   0.0 temperature during run
   SMASS  =  -3.00    Nose mass-parameter (am)
   estimated Nose-frequenzy (Omega)   =  0.10E-29 period in steps =****** mass=  -0.435E-26a.u.
   SCALEE = 1.0000    scale energy and forces
   NPACO  =    256;   APACO  = 16.0  distance and # of slots for P.C.
   PSTRESS=    0.0 pullay stress

  Mass of Ions in am
   POMASS =  44.96 35.45 12.01
  Ionic Valenz
   ZVAL   =  11.00  7.00  4.00
  Atomic Wigner-Seitz radii
   RWIGS  =  -1.00 -1.00 -1.00
  virtual crystal weights 
   VCA    =   1.00  1.00  1.00
   NELECT =     640.0000    total number of electrons
   NUPDOWN=      -1.0000    fix difference up-down

 DOS related values:
   EMIN   =  10.00;   EMAX   =-10.00  energy-range for DOS
   EFERMI =   0.00
   ISMEAR =     0;   SIGMA  =   0.05  broadening in eV -4-tet -1-fermi 0-gaus

 Electronic relaxation 2 (details)
   IALGO  =     38    algorithm
   LDIAG  =      T    sub-space diagonalisation (order eigenvalues)
   LSUBROT=      F    optimize rotation matrix (better conditioning)
   TURBO    =      0    0=normal 1=particle mesh
   IRESTART =      0    0=no restart 2=restart with 2 vectors
   NREBOOT  =      0    no. of reboots
   NMIN     =      0    reboot dimension
   EREF     =   0.00    reference energy to select bands
   IMIX   =      4    mixing-type and parameters
     AMIX     =   0.40;   BMIX     =  1.00
     AMIX_MAG =   1.60;   BMIX_MAG =  1.00
     AMIN     =   0.10
     WC   =   100.;   INIMIX=   1;  MIXPRE=   1;  MAXMIX= -45

 Intra band minimization:
   WEIMIN = 0.0000     energy-eigenvalue tresh-hold
   EBREAK =  0.65E-09  absolut break condition
   DEPER  =   0.30     relativ break condition  

   TIME   =   0.40     timestep for ELM

  volume/ion in A,a.u.               =      57.28       386.56
  Fermi-wavevector in a.u.,A,eV,Ry     =   0.849369  1.605075  9.815628  0.721428
  Thomas-Fermi vector in A             =   1.965179
 
 Write flags
   LWAVE        =      F    write WAVECAR
   LDOWNSAMPLE  =      F    k-point downsampling of WAVECAR
   LCHARG       =      F    write CHGCAR
   LVTOT        =      F    write LOCPOT, total local potential
   LVHAR        =      F    write LOCPOT, Hartree potential only
   LELF         =      F    write electronic localiz. function (ELF)
   LORBIT       =      0    0 simple, 1 ext, 2 COOP (PROOUT), +10 PAW based schemes


 Dipole corrections
   LMONO  =      F    monopole corrections only (constant potential shift)
   LDIPOL =      F    correct potential (dipole corrections)
   IDIPOL =      0    1-x, 2-y, 3-z, 4-all directions 
   EPSILON=  1.0000000 bulk dielectric constant

 Exchange correlation treatment:
   GGA     =    --    GGA type
   LEXCH   =     8    internal setting for exchange type
   VOSKOWN=      0    Vosko Wilk Nusair interpolation
   LHFCALC =     F    Hartree Fock is set to
   LHFONE  =     F    Hartree Fock one center treatment
   AEXX    =    0.0000 exact exchange contribution

 Linear response parameters
   LEPSILON=     F    determine dielectric tensor
   LRPA    =     F    only Hartree local field effects (RPA)
   LNABLA  =     F    use nabla operator in PAW spheres
   LVEL    =     F    velocity operator in full k-point grid
   LINTERFAST=   F  fast interpolation
   KINTER  =     0    interpolate to denser k-point grid
   CSHIFT  =0.1000    complex shift for real part using Kramers Kronig
   OMEGAMAX=  -1.0    maximum frequency
   DEG_THRESHOLD= 0.2000000E-02 threshold for treating states as degnerate
   RTIME   =   -0.100 relaxation time in fs
  (WPLASMAI=    0.000 imaginary part of plasma frequency in eV, 0.658/RTIME)
   DFIELD  = 0.0000000 0.0000000 0.0000000 field for delta impulse in time
 
 Orbital magnetization related:
   ORBITALMAG=     F  switch on orbital magnetization
   LCHIMAG   =     F  perturbation theory with respect to B field
   DQ        =  0.001000  dq finite difference perturbation B field
   LLRAUG    =     F  two centre corrections for induced B field



--------------------------------------------------------------------------------------------------------


 Static calculation
 charge density and potential will be updated during run
 non-spin polarized calculation
 Variant of blocked Davidson
 Davidson routine will perform the subspace rotation
 perform sub-space diagonalisation
    after iterative eigenvector-optimisation
 modified Broyden-mixing scheme, WC =      100.0
 initial mixing is a Kerker type mixing with AMIX =  0.4000 and BMIX =      1.0000
 Hartree-type preconditioning will be used
 using additional bands           64
 real space projection scheme for non local part
 use partial core corrections
 calculate Harris-corrections to forces 
   (improved forces if not selfconsistent)
 use gradient corrections 
 use of overlap-Matrix (Vanderbilt PP)
 Gauss-broadening in eV      SIGMA  =   0.05


--------------------------------------------------------------------------------------------------------


  energy-cutoff  :      600.00
  volume of cell :     4582.63
      direct lattice vectors                 reciprocal lattice vectors
    13.793986680  0.000000000  0.000000000     0.072495358  0.041855214  0.000000000
    -6.896993340 11.945942880  0.000000000     0.000000000  0.083710429  0.000000000
     0.000000000  0.000000000 27.810221070     0.000000000  0.000000000  0.035958003

  length of vectors
    13.793986680 13.793986676 27.810221070     0.083710429  0.083710429  0.035958003


 
 k-points in units of 2pi/SCALE and weight: read from INCAR                         
   0.00000000  0.00000000  0.00000000       0.111
   0.02416512  0.01395174  0.00000000       0.222
   0.00000000  0.02790348  0.00000000       0.222
   0.02416512  0.04185521  0.00000000       0.222
  -0.02416512  0.01395174  0.00000000       0.222
 
 k-points in reciprocal lattice and weights: read from INCAR                         
   0.00000000  0.00000000  0.00000000       0.111
   0.33333333 -0.00000000  0.00000000       0.222
   0.00000000  0.33333333  0.00000000       0.222
   0.33333333  0.33333333  0.00000000       0.222
  -0.33333333  0.33333333  0.00000000       0.222
 
 position of ions in fractional coordinates (direct lattice) 
   0.08021345  0.16015010  0.54320710
   0.08604385  0.42596745  0.53951987
   0.07284324  0.66444348  0.54456689
   0.09353603  0.91662521  0.54675948
   0.33060915  0.17349269  0.54266577
   0.33388161  0.41742324  0.54072777
   0.32736873  0.65871545  0.54232906
   0.33212513  0.90421697  0.54864364
   0.58273727  0.16529813  0.54398473
   0.58589498  0.41259216  0.54372402
   0.57763110  0.65706308  0.54625502
   0.58636688  0.90992214  0.55070263
   0.83571667  0.17348719  0.54202643
   0.82802101  0.42418426  0.54077883
   0.83229987  0.66644923  0.54443642
   0.82404536  0.90462713  0.54506861
   0.15095533  0.07012450  0.45798763
   0.15729381  0.33097783  0.45290148
   0.16380438  0.58724048  0.45707141
   0.17284831  0.83932835  0.45941882
   0.40563429  0.07274401  0.45418388
   0.41753988  0.33232062  0.44942365
   0.42043550  0.58548518  0.45238884
   0.42057777  0.83138387  0.45378375
   0.66891601  0.07335792  0.45521607
   0.66075642  0.32646300  0.45466137
   0.66903617  0.59299323  0.45746784
   0.66805693  0.84302421  0.45529235
   0.91650906  0.08018242  0.45885965
   0.91069461  0.33414852  0.45384989
   0.91775722  0.58900325  0.45649193
   0.91580725  0.82936731  0.45672896
   0.05969164  0.15828317  0.39301687
   0.08279671  0.43080743  0.39684669
   0.08327938  0.66754779  0.40155425
   0.09591530  0.91014162  0.39825597
   0.32144891  0.15174471  0.39717899
   0.32351265  0.41856387  0.38960287
   0.33740305  0.66754084  0.39332239
   0.34031285  0.91671447  0.39770672
   0.59261915  0.16811951  0.39304303
   0.58967463  0.40373626  0.39226066
   0.59051914  0.65428507  0.39330867
   0.59086020  0.92141855  0.39218665
   0.83244661  0.16860647  0.39543327
   0.83055324  0.42094649  0.39553434
   0.84802931  0.67200382  0.39572358
   0.83156086  0.89971572  0.39572116
   0.16609717  0.09486968  0.60375931
   0.14995472  0.34193378  0.60232135
   0.17572380  0.58817872  0.60329473
   0.18324110  0.84061870  0.61026120
   0.40479042  0.08022899  0.60193153
   0.41029361  0.34176344  0.60305120
   0.41967109  0.59344590  0.60854707
   0.43086891  0.83835106  0.60864260
   0.66570707  0.08654348  0.60696097
   0.67506542  0.34118563  0.60629053
   0.67578468  0.59307912  0.60582117
   0.65467937  0.83143142  0.60943528
   0.92450362  0.07582860  0.60234748
   0.92671202  0.34230821  0.60662798
   0.92091037  0.59264078  0.60849087
   0.93860750  0.84273041  0.60581714
   0.99545782  0.99204094  0.50249809
   0.00362799  0.25294644  0.49721886
   0.99818961  0.50774729  0.49525277
   0.99610913  0.74148537  0.50324374
   0.24581462  0.99842249  0.50125816
   0.24758724  0.25274236  0.49607584
   0.25163180  0.51066152  0.49754215
   0.26223509  0.76141806  0.50195606
   0.49986230  0.99850227  0.50094265
   0.49245918  0.24925888  0.49646555
   0.49902645  0.50874067  0.49908649
   0.49959937  0.74362905  0.50020629
   0.73837355  0.99573447  0.50064193
   0.75527935  0.25434072  0.49923489
   0.74867005  0.49968244  0.49864093
   0.75220325  0.74604555  0.50076251
 
 position of ions in cartesian coordinates  (Angst):
   0.00190901  1.91314399 15.10670952
  -1.75100692  5.08858281 15.00416679
  -3.57786362  7.93740385 15.14452568
  -5.03172330 10.94995245 15.20550207
   3.36384026  2.07253371 15.09165496
   1.72659318  4.98651413 15.03775888
  -0.02743615  7.86897710 15.08229116
  -1.65504874 10.80172423 15.25790078
   6.89821009  1.97464203 15.12833573
   5.23618221  4.92880242 15.12108512
   3.43607605  7.84923805 15.19147299
   1.81260997 10.86987792 15.31516200
  10.33132460  2.07246802 15.07387473
   8.49611473  5.06728094 15.03917877
   6.88423744  7.96136443 15.14089716
   5.12766344 10.80662402 15.15847844
   1.59862765  0.83770325 12.73673733
  -0.11304314  3.95384229 12.59529042
  -1.79067829  7.01514123 12.71125701
  -3.40457474 10.02656852 12.77653901
   5.09359904  0.86899576 12.63095407
   3.46752635  3.96988320 12.49857115
   1.76139434  6.99417248 12.58103377
   0.06739520  9.93166419 12.61982649
   8.72106938  0.87632957 12.65965956
   6.86285210  3.89990839 12.64423332
   5.13880558  7.08386331 12.72228167
   3.40083603 10.07071904 12.66178088
  12.08929622  0.95785455 12.76098831
  10.25748915  3.99171916 12.62166587
   8.59717930  7.03619924 12.69514153
   6.91249212  9.90757457 12.70173342
  -0.26829227  1.89084172 10.92988590
  -1.82917923  5.14640093 11.03639416
  -3.45531807  7.97448782 11.16731253
  -4.95418626 10.87249978 11.07558662
   3.38747966  1.81273368 11.04563550
   1.57569698  5.00014009 10.83494207
   0.05010848  7.97440470 10.93838267
  -1.62830272 10.95101873 11.06031189
   7.01506155  2.00834607 10.93061351
   5.34939765  4.82301029 10.90885571
   3.63301342  7.81605203 10.93800104
   1.79530013 11.00721339 10.90679756
  10.31987970  2.01416328 10.99708664
   8.55337513  5.02860278 10.99989745
   7.06289915  8.02771923 11.00516020
   5.26520614 10.74795255 11.00509306
   1.63682667  1.13330774 16.79067975
  -0.28984162  4.08472146 16.75069003
  -1.63273302  7.02634942 16.77775986
  -3.27011634 10.04198303 16.97149889
   5.03033481  0.95841090 16.73984885
   3.30244439  4.08268656 16.77098730
   1.69594504  7.08927088 16.92382854
   0.16129836 10.01489393 16.92648512
   8.58586471  1.03384344 16.87971886
   6.95868831  4.07578409 16.86107372
   5.23130213  7.08488929 16.84802067
   3.29626156  9.93223225 16.94852995
  12.22960124  0.90584413 16.75141670
  10.42215576  4.08919431 16.87045826
   8.61558578  7.07965296 16.92226568
   7.13483330 10.06720934 16.84790852
   6.88923210 11.85086440 13.97458294
  -1.69452545  3.02168369 13.82776636
  10.26708445  6.06552013 13.77308892
   8.62629647  8.85774187 13.99531968
  -3.49534974 11.92709809 13.94010022
   1.67205272  3.01924579 13.79597881
  -0.05102343  6.10033330 13.83675725
  -1.63422795  9.09585670 13.95950903
   0.00843036 11.92805105 13.93132584
   5.07383847  2.97763236 13.80681673
   3.37478316  6.07738696 13.87970575
   1.76266250  8.88335010 13.91084748
   3.31754092 11.89498707 13.92296279
   8.66412702  3.03833970 13.88383272
   6.88083827  5.96917789 13.86731455
   5.23041039  8.91221751 13.92631597
 


--------------------------------------------------------------------------------------------------------


 k-point  1 :   0.0000 0.0000 0.0000  plane waves:  153003
 k-point  2 :   0.3333-0.0000 0.0000  plane waves:  152954
 k-point  3 :   0.0000 0.3333 0.0000  plane waves:  152954
 k-point  4 :   0.3333 0.3333 0.0000  plane waves:  152898
 k-point  5 :  -0.3333 0.3333 0.0000  plane waves:  152954

 maximum and minimum number of plane-waves per node :     11814    11730

 maximum number of plane-waves:    153003
 maximum index in each direction: 
   IXMAX=   27   IYMAX=   27   IZMAX=   55
   IXMIN=  -27   IYMIN=  -27   IZMIN=  -55


 real space projection operators:
  total allocation   :      55010.20 KBytes
  max/ min on nodes  :       4440.70       3898.11


 parallel 3D FFT for wavefunctions:
    minimum data exchange during FFTs selected (reduces bandwidth)
 parallel 3D FFT for charge:
    minimum data exchange during FFTs selected (reduces bandwidth)


 total amount of memory used by VASP MPI-rank0   253936. kBytes
=======================================================================

   base      :      30000. kBytes
   nonlr-proj:      18752. kBytes
   fftplans  :      72602. kBytes
   grid      :      41267. kBytes
   one-center:        108. kBytes
   wavefun   :      91207. kBytes
 
     INWAV:  cpu time    0.0001: real time    0.0000
 Broyden mixing: mesh for mixing (old mesh)
   NGX = 55   NGY = 55   NGZ =111
  (NGX  =224   NGY  =224   NGZ  =448)
  gives a total of 335775 points

 initial charge density was supplied:
 charge density of overlapping atoms calculated
 number of electron     640.0000000 magnetization 
 keeping initial charge density in first step


--------------------------------------------------------------------------------------------------------


 Maximum index for non-local projection operator          946
 Maximum index for augmentation-charges         4589 (set IRDMAX)


--------------------------------------------------------------------------------------------------------


 First call to EWALD:  gamma=   0.107
 Maximum number of real-space cells 4x 4x 2
 Maximum number of reciprocal cells 2x 2x 4

    FEWALD:  cpu time    0.0029: real time    0.0028


--------------------------------------- Iteration      1(   1)  ---------------------------------------


    POTLOK:  cpu time    0.4132: real time    0.4189
    SETDIJ:  cpu time    0.4401: real time    0.4406
     EDDAV:  cpu time   50.6673: real time   50.6861
       DOS:  cpu time    0.0013: real time    0.0013
    --------------------------------------------
      LOOP:  cpu time   51.5219: real time   51.5469

 eigenvalue-minimisations  :  4424
 total energy-change (2. order) : 0.1222029E+05  (-0.2678331E+05)
 number of electron     640.0000000 magnetization 
 augmentation part      640.0000000 magnetization 

 Free energy of the ion-electron system (eV)
  ---------------------------------------------------
  alpha Z        PSCENC =       784.57699423
  Ewald energy   TEWEN  =    252534.61652632
  -Hartree energ DENC   =   -300189.07055568
  -exchange      EXHF   =         0.00000000
  -V(xc)+E(xc)   XCENC  =      2502.92640989
  PAW double counting   =     43679.68029659   -43417.33247688
  entropy T*S    EENTRO =        -0.05721880
  eigenvalues    EBANDS =       114.22927143
  atomic energy  EATOM  =     56210.72393729
  Solvation  Ediel_sol  =         0.00000000
  ---------------------------------------------------
  free energy    TOTEN  =     12220.29318439 eV

  energy without entropy =    12220.35040319  energy(sigma->0) =    12220.32179379


--------------------------------------------------------------------------------------------------------




--------------------------------------- Iteration      1(   2)  ---------------------------------------


     EDDAV:  cpu time   57.2974: real time   57.3116
       DOS:  cpu time    0.0011: real time    0.0011
    --------------------------------------------
      LOOP:  cpu time   57.2986: real time   57.3127

 eigenvalue-minimisations  :  5192
 total energy-change (2. order) :-0.1048447E+05  (-0.1021959E+05)
 number of electron     640.0000000 magnetization 
 augmentation part      640.0000000 magnetization 

 Free energy of the ion-electron system (eV)
  ---------------------------------------------------
  alpha Z        PSCENC =       784.57699423
  Ewald energy   TEWEN  =    252534.61652632
  -Hartree energ DENC   =   -300189.07055568
  -exchange      EXHF   =         0.00000000
  -V(xc)+E(xc)   XCENC  =      2502.92640989
  PAW double counting   =     43679.68029659   -43417.33247688
  entropy T*S    EENTRO =        -0.03824737
  eigenvalues    EBANDS =    -10370.25917854
  atomic energy  EATOM  =     56210.72393729
  Solvation  Ediel_sol  =         0.00000000
  ---------------------------------------------------
  free energy    TOTEN  =      1735.82370584 eV

  energy without entropy =     1735.86195321  energy(sigma->0) =     1735.84282953


--------------------------------------------------------------------------------------------------------




--------------------------------------- Iteration      1(   3)  ---------------------------------------


     EDDAV:  cpu time   71.6998: real time   71.7100
       DOS:  cpu time    0.0009: real time    0.0009
    --------------------------------------------
      LOOP:  cpu time   71.7007: real time   71.7109

 eigenvalue-minimisations  :  6800
 total energy-change (2. order) :-0.2142237E+04  (-0.2057214E+04)
 number of electron     640.0000000 magnetization 
 augmentation part      640.0000000 magnetization 

 Free energy of the ion-electron system (eV)
  ---------------------------------------------------
  alpha Z        PSCENC =       784.57699423
  Ewald energy   TEWEN  =    252534.61652632
  -Hartree energ DENC   =   -300189.07055568
  -exchange      EXHF   =         0.00000000
  -V(xc)+E(xc)   XCENC  =      2502.92640989
  PAW double counting   =     43679.68029659   -43417.33247688
  entropy T*S    EENTRO =        -0.00005470
  eigenvalues    EBANDS =    -12512.53469724
  atomic energy  EATOM  =     56210.72393729
  Solvation  Ediel_sol  =         0.00000000
  ---------------------------------------------------
  free energy    TOTEN  =      -406.41362018 eV

  energy without entropy =     -406.41356549  energy(sigma->0) =     -406.41359284


--------------------------------------------------------------------------------------------------------




--------------------------------------- Iteration      1(   4)  ---------------------------------------


     EDDAV:  cpu time   65.3537: real time   65.3673
       DOS:  cpu time    0.0004: real time    0.0004
    --------------------------------------------
      LOOP:  cpu time   65.3541: real time   65.3678

 eigenvalue-minimisations  :  6088
 total energy-change (2. order) :-0.2372864E+03  (-0.2325610E+03)
 number of electron     640.0000000 magnetization 
 augmentation part      640.0000000 magnetization 

 Free energy of the ion-electron system (eV)
  ---------------------------------------------------
  alpha Z        PSCENC =       784.57699423
  Ewald energy   TEWEN  =    252534.61652632
  -Hartree energ DENC   =   -300189.07055568
  -exchange      EXHF   =         0.00000000
  -V(xc)+E(xc)   XCENC  =      2502.92640989
  PAW double counting   =     43679.68029659   -43417.33247688
  entropy T*S    EENTRO =        -0.00000000
  eigenvalues    EBANDS =    -12749.82114451
  atomic energy  EATOM  =     56210.72393729
  Solvation  Ediel_sol  =         0.00000000
  ---------------------------------------------------
  free energy    TOTEN  =      -643.70001276 eV

  energy without entropy =     -643.70001276  energy(sigma->0) =     -643.70001276


--------------------------------------------------------------------------------------------------------




--------------------------------------- Iteration      1(   5)  ---------------------------------------


     EDDAV:  cpu time   65.2911: real time   65.3028
       DOS:  cpu time    0.0005: real time    0.0005
    CHARGE:  cpu time    3.9840: real time    3.9842
    MIXING:  cpu time    0.0123: real time    0.0123
    --------------------------------------------
      LOOP:  cpu time   69.2880: real time   69.2998

 eigenvalue-minimisations  :  6080
 total energy-change (2. order) :-0.1046779E+02  (-0.1041405E+02)
 number of electron     640.0000003 magnetization 
 augmentation part       59.2083753 magnetization 

 Broyden mixing:
  rms(total) = 0.69489E+01    rms(broyden)= 0.69488E+01
  rms(prec ) = 0.73106E+01
  weight for this iteration     100.00

 Free energy of the ion-electron system (eV)
  ---------------------------------------------------
  alpha Z        PSCENC =       784.57699423
  Ewald energy   TEWEN  =    252534.61652632
  -Hartree energ DENC   =   -300189.07055568
  -exchange      EXHF   =         0.00000000
  -V(xc)+E(xc)   XCENC  =      2502.92640989
  PAW double counting   =     43679.68029659   -43417.33247688
  entropy T*S    EENTRO =        -0.00000000
  eigenvalues    EBANDS =    -12760.28893589
  atomic energy  EATOM  =     56210.72393729
  Solvation  Ediel_sol  =         0.00000000
  ---------------------------------------------------
  free energy    TOTEN  =      -654.16780414 eV

  energy without entropy =     -654.16780414  energy(sigma->0) =     -654.16780414


--------------------------------------------------------------------------------------------------------




--------------------------------------- Iteration      1(   6)  ---------------------------------------


    POTLOK:  cpu time    0.3891: real time    0.3984
    SETDIJ:  cpu time    0.4366: real time    0.4366
     EDDAV:  cpu time   63.2068: real time   63.2083
       DOS:  cpu time    0.0009: real time    0.0009
    CHARGE:  cpu time    3.9808: real time    3.9809
    MIXING:  cpu time    0.0115: real time    0.0116
    --------------------------------------------
      LOOP:  cpu time   68.0257: real time   68.0368

 eigenvalue-minimisations  :  5832
 total energy-change (2. order) : 0.1301840E+03  (-0.7003468E+02)
 number of electron     640.0000004 magnetization 
 augmentation part       70.0289564 magnetization 

 Broyden mixing:
  rms(total) = 0.30061E+01    rms(broyden)= 0.30060E+01
  rms(prec ) = 0.30394E+01
  weight for this iteration     100.00

 eigenvalues of (default mixing * dielectric matrix)
  average eigenvalue GAMMA=   0.9547
  0.9547

 Free energy of the ion-electron system (eV)
  ---------------------------------------------------
  alpha Z        PSCENC =       784.57699423
  Ewald energy   TEWEN  =    252534.61652632
  -Hartree energ DENC   =   -299993.74144855
  -exchange      EXHF   =         0.00000000
  -V(xc)+E(xc)   XCENC  =      2492.50344020
  PAW double counting   =     49216.68878511   -49008.92583887
  entropy T*S    EENTRO =        -0.00000028
  eigenvalues    EBANDS =    -12760.42618131
  atomic energy  EATOM  =     56210.72393729
  Solvation  Ediel_sol  =         0.00000000
  ---------------------------------------------------
  free energy    TOTEN  =      -523.98378587 eV

  energy without entropy =     -523.98378559  energy(sigma->0) =     -523.98378573


--------------------------------------------------------------------------------------------------------




--------------------------------------- Iteration      1(   7)  ---------------------------------------


    POTLOK:  cpu time    0.3894: real time    0.4017
    SETDIJ:  cpu time    0.4365: real time    0.4366
     EDDAV:  cpu time   63.5878: real time   63.5895
       DOS:  cpu time    0.0006: real time    0.0005
    CHARGE:  cpu time    3.9760: real time    3.9762
    MIXING:  cpu time    0.0116: real time    0.0116
    --------------------------------------------
      LOOP:  cpu time   68.4019: real time   68.4161

 eigenvalue-minimisations  :  5880
 total energy-change (2. order) :-0.4551652E+01  (-0.8453011E+01)
 number of electron     640.0000004 magnetization 
 augmentation part       69.4911163 magnetization 

 Broyden mixing:
  rms(total) = 0.15202E+01    rms(broyden)= 0.15202E+01
  rms(prec ) = 0.15549E+01
  weight for this iteration     100.00

 eigenvalues of (default mixing * dielectric matrix)
  average eigenvalue GAMMA=   1.0086
  1.0086  1.0086

 Free energy of the ion-electron system (eV)
  ---------------------------------------------------
  alpha Z        PSCENC =       784.57699423
  Ewald energy   TEWEN  =    252534.61652632
  -Hartree energ DENC   =   -300091.22777140
  -exchange      EXHF   =         0.00000000
  -V(xc)+E(xc)   XCENC  =      2488.45168332
  PAW double counting   =     54207.88125651   -54014.69615430
  entropy T*S    EENTRO =        -0.00000000
  eigenvalues    EBANDS =    -12648.86190958
  atomic energy  EATOM  =     56210.72393729
  Solvation  Ediel_sol  =         0.00000000
  ---------------------------------------------------
  free energy    TOTEN  =      -528.53543761 eV

  energy without entropy =     -528.53543761  energy(sigma->0) =     -528.53543761


--------------------------------------------------------------------------------------------------------




--------------------------------------- Iteration      1(   8)  ---------------------------------------


    POTLOK:  cpu time    0.3886: real time    0.3992
    SETDIJ:  cpu time    0.4365: real time    0.4365
     EDDAV:  cpu time   63.0036: real time   63.0052
       DOS:  cpu time    0.0005: real time    0.0005
    CHARGE:  cpu time    3.9774: real time    3.9775
    MIXING:  cpu time    0.0122: real time    0.0122
    --------------------------------------------
      LOOP:  cpu time   67.8187: real time   67.8310

 eigenvalue-minimisations  :  5816
 total energy-change (2. order) : 0.2156620E+01  (-0.9388573E+00)
 number of electron     640.0000004 magnetization 
 augmentation part       69.2756001 magnetization 

 Broyden mixing:
  rms(total) = 0.91245E+00    rms(broyden)= 0.91245E+00
  rms(prec ) = 0.92800E+00
  weight for this iteration     100.00

 eigenvalues of (default mixing * dielectric matrix)
  average eigenvalue GAMMA=   1.4196
  2.5159  0.8715  0.8715

 Free energy of the ion-electron system (eV)
  ---------------------------------------------------
  alpha Z        PSCENC =       784.57699423
  Ewald energy   TEWEN  =    252534.61652632
  -Hartree energ DENC   =   -300160.23477542
  -exchange      EXHF   =         0.00000000
  -V(xc)+E(xc)   XCENC  =      2488.45515621
  PAW double counting   =     56215.23506260   -56032.97899777
  entropy T*S    EENTRO =        -0.00000000
  eigenvalues    EBANDS =    -12566.77272156
  atomic energy  EATOM  =     56210.72393729
  Solvation  Ediel_sol  =         0.00000000
  ---------------------------------------------------
  free energy    TOTEN  =      -526.37881811 eV

  energy without entropy =     -526.37881811  energy(sigma->0) =     -526.37881811


--------------------------------------------------------------------------------------------------------




--------------------------------------- Iteration      1(   9)  ---------------------------------------


    POTLOK:  cpu time    0.3889: real time    0.3996
    SETDIJ:  cpu time    0.4365: real time    0.4365
     EDDAV:  cpu time   58.8746: real time   58.8782
       DOS:  cpu time    0.0005: real time    0.0005
    CHARGE:  cpu time    3.9750: real time    3.9752
    MIXING:  cpu time    0.0119: real time    0.0119
    --------------------------------------------
      LOOP:  cpu time   63.6874: real time   63.7019

 eigenvalue-minimisations  :  5352
 total energy-change (2. order) : 0.4969836E+00  (-0.3508888E+00)
 number of electron     640.0000004 magnetization 
 augmentation part       69.9594414 magnetization 

 Broyden mixing:
  rms(total) = 0.28734E+00    rms(broyden)= 0.28733E+00
  rms(prec ) = 0.30049E+00
  weight for this iteration     100.00

 eigenvalues of (default mixing * dielectric matrix)
  average eigenvalue GAMMA=   1.2253
  2.1670  0.8666  0.8666  1.0011

 Free energy of the ion-electron system (eV)
  ---------------------------------------------------
  alpha Z        PSCENC =       784.57699423
  Ewald energy   TEWEN  =    252534.61652632
  -Hartree energ DENC   =   -300284.62103024
  -exchange      EXHF   =         0.00000000
  -V(xc)+E(xc)   XCENC  =      2488.00284888
  PAW double counting   =     59890.07175524   -59724.41179237
  entropy T*S    EENTRO =        -0.00000000
  eigenvalues    EBANDS =    -12424.84107389
  atomic energy  EATOM  =     56210.72393729
  Solvation  Ediel_sol  =         0.00000000
  ---------------------------------------------------
  free energy    TOTEN  =      -525.88183454 eV

  energy without entropy =     -525.88183454  energy(sigma->0) =     -525.88183454


--------------------------------------------------------------------------------------------------------




--------------------------------------- Iteration      1(  10)  ---------------------------------------


    POTLOK:  cpu time    0.3881: real time    0.3977
    SETDIJ:  cpu time    0.4364: real time    0.4365
     EDDAV:  cpu time   62.2530: real time   62.2546
       DOS:  cpu time    0.0006: real time    0.0006
    CHARGE:  cpu time    3.9753: real time    3.9754
    MIXING:  cpu time    0.0124: real time    0.0124
    --------------------------------------------
      LOOP:  cpu time   67.0658: real time   67.0772

 eigenvalue-minimisations  :  5728
 total energy-change (2. order) : 0.1240685E+00  (-0.5601390E-01)
 number of electron     640.0000004 magnetization 
 augmentation part       69.7847466 magnetization 

 Broyden mixing:
  rms(total) = 0.16808E+00    rms(broyden)= 0.16808E+00
  rms(prec ) = 0.17476E+00
  weight for this iteration     100.00

 eigenvalues of (default mixing * dielectric matrix)
  average eigenvalue GAMMA=   1.2352
  2.1454  1.5436  0.9105  0.9105  0.6658

 Free energy of the ion-electron system (eV)
  ---------------------------------------------------
  alpha Z        PSCENC =       784.57699423
  Ewald energy   TEWEN  =    252534.61652632
  -Hartree energ DENC   =   -300313.01827381
  -exchange      EXHF   =         0.00000000
  -V(xc)+E(xc)   XCENC  =      2488.59311694
  PAW double counting   =     59410.13014754   -59242.34018609
  entropy T*S    EENTRO =        -0.00000000
  eigenvalues    EBANDS =    -12399.04002844
  atomic energy  EATOM  =     56210.72393729
  Solvation  Ediel_sol  =         0.00000000
  ---------------------------------------------------
  free energy    TOTEN  =      -525.75776602 eV

  energy without entropy =     -525.75776602  energy(sigma->0) =     -525.75776602


--------------------------------------------------------------------------------------------------------




--------------------------------------- Iteration      1(  11)  ---------------------------------------


    POTLOK:  cpu time    0.3881: real time    0.3971
    SETDIJ:  cpu time    0.4369: real time    0.4369
     EDDAV:  cpu time   61.9627: real time   61.9643
       DOS:  cpu time    0.0005: real time    0.0005
    CHARGE:  cpu time    3.9601: real time    3.9602
    MIXING:  cpu time    0.0126: real time    0.0126
    --------------------------------------------
      LOOP:  cpu time   66.7609: real time   66.7716

 eigenvalue-minimisations  :  5696
 total energy-change (2. order) : 0.1939478E-01  (-0.2139040E-01)
 number of electron     640.0000004 magnetization 
 augmentation part       69.7193728 magnetization 

 Broyden mixing:
  rms(total) = 0.74248E-01    rms(broyden)= 0.74246E-01
  rms(prec ) = 0.80363E-01
  weight for this iteration     100.00

 eigenvalues of (default mixing * dielectric matrix)
  average eigenvalue GAMMA=   1.2644
  2.4445  1.7243  0.8958  0.8958  0.8131  0.8131

 Free energy of the ion-electron system (eV)
  ---------------------------------------------------
  alpha Z        PSCENC =       784.57699423
  Ewald energy   TEWEN  =    252534.61652632
  -Hartree energ DENC   =   -300363.35172686
  -exchange      EXHF   =         0.00000000
  -V(xc)+E(xc)   XCENC  =      2489.19762149
  PAW double counting   =     59529.33305540   -59361.72589502
  entropy T*S    EENTRO =        -0.00000000
  eigenvalues    EBANDS =    -12349.10888408
  atomic energy  EATOM  =     56210.72393729
  Solvation  Ediel_sol  =         0.00000000
  ---------------------------------------------------
  free energy    TOTEN  =      -525.73837124 eV

  energy without entropy =     -525.73837124  energy(sigma->0) =     -525.73837124


--------------------------------------------------------------------------------------------------------




--------------------------------------- Iteration      1(  12)  ---------------------------------------


    POTLOK:  cpu time    0.3908: real time    0.4008
    SETDIJ:  cpu time    0.4364: real time    0.4379
     EDDAV:  cpu time   64.8858: real time   64.8875
       DOS:  cpu time    0.0006: real time    0.0006
    CHARGE:  cpu time    3.9745: real time    3.9747
    MIXING:  cpu time    0.0124: real time    0.0124
    --------------------------------------------
      LOOP:  cpu time   69.7005: real time   69.7139

 eigenvalue-minimisations  :  6024
 total energy-change (2. order) : 0.1285247E-01  (-0.3633284E-02)
 number of electron     640.0000004 magnetization 
 augmentation part       69.7223359 magnetization 

 Broyden mixing:
  rms(total) = 0.31064E-01    rms(broyden)= 0.31064E-01
  rms(prec ) = 0.37792E-01
  weight for this iteration     100.00

 eigenvalues of (default mixing * dielectric matrix)
  average eigenvalue GAMMA=   1.2643
  2.2227  2.2227  0.9393  0.9393  0.9107  0.9107  0.7046

 Free energy of the ion-electron system (eV)
  ---------------------------------------------------
  alpha Z        PSCENC =       784.57699423
  Ewald energy   TEWEN  =    252534.61652632
  -Hartree energ DENC   =   -300394.16363420
  -exchange      EXHF   =         0.00000000
  -V(xc)+E(xc)   XCENC  =      2489.54940927
  PAW double counting   =     59615.46136009   -59448.08295348
  entropy T*S    EENTRO =        -0.00000000
  eigenvalues    EBANDS =    -12318.40715829
  atomic energy  EATOM  =     56210.72393729
  Solvation  Ediel_sol  =         0.00000000
  ---------------------------------------------------
  free energy    TOTEN  =      -525.72551877 eV

  energy without entropy =     -525.72551877  energy(sigma->0) =     -525.72551877


--------------------------------------------------------------------------------------------------------




--------------------------------------- Iteration      1(  13)  ---------------------------------------


    POTLOK:  cpu time    0.3874: real time    0.3974
    SETDIJ:  cpu time    0.4366: real time    0.4367
     EDDAV:  cpu time   58.8266: real time   58.8281
       DOS:  cpu time    0.0006: real time    0.0006
    CHARGE:  cpu time    3.9742: real time    3.9744
    MIXING:  cpu time    0.0133: real time    0.0133
    --------------------------------------------
      LOOP:  cpu time   63.6387: real time   63.6505

 eigenvalue-minimisations  :  5344
 total energy-change (2. order) : 0.3097022E-02  (-0.9491570E-03)
 number of electron     640.0000004 magnetization 
 augmentation part       69.7262769 magnetization 

 Broyden mixing:
  rms(total) = 0.18335E-01    rms(broyden)= 0.18335E-01
  rms(prec ) = 0.24916E-01
  weight for this iteration     100.00

 eigenvalues of (default mixing * dielectric matrix)
  average eigenvalue GAMMA=   1.3210
  2.7550  1.9095  1.6535  0.9055  0.9055  0.8836  0.8836  0.6717

 Free energy of the ion-electron system (eV)
  ---------------------------------------------------
  alpha Z        PSCENC =       784.57699423
  Ewald energy   TEWEN  =    252534.61652632
  -Hartree energ DENC   =   -300415.45323402
  -exchange      EXHF   =         0.00000000
  -V(xc)+E(xc)   XCENC  =      2489.74047713
  PAW double counting   =     59579.63238513   -59412.11685912
  entropy T*S    EENTRO =        -0.00000000
  eigenvalues    EBANDS =    -12297.44264871
  atomic energy  EATOM  =     56210.72393729
  Solvation  Ediel_sol  =         0.00000000
  ---------------------------------------------------
  free energy    TOTEN  =      -525.72242175 eV

  energy without entropy =     -525.72242175  energy(sigma->0) =     -525.72242175


--------------------------------------------------------------------------------------------------------




--------------------------------------- Iteration      1(  14)  ---------------------------------------


    POTLOK:  cpu time    0.3873: real time    0.3971
    SETDIJ:  cpu time    0.4363: real time    0.4363
     EDDAV:  cpu time   58.4657: real time   58.4677
       DOS:  cpu time    0.0005: real time    0.0005
    CHARGE:  cpu time    3.9754: real time    3.9755
    MIXING:  cpu time    0.0130: real time    0.0130
    --------------------------------------------
      LOOP:  cpu time   63.2782: real time   63.2902

 eigenvalue-minimisations  :  5304
 total energy-change (2. order) : 0.1789343E-02  (-0.6500575E-03)
 number of electron     640.0000004 magnetization 
 augmentation part       69.7371717 magnetization 

 Broyden mixing:
  rms(total) = 0.16937E-01    rms(broyden)= 0.16937E-01
  rms(prec ) = 0.20485E-01
  weight for this iteration     100.00

 eigenvalues of (default mixing * dielectric matrix)
  average eigenvalue GAMMA=   1.3210
  2.5663  2.5663  1.6679  0.9469  0.9469  0.8929  0.7795  0.7795  0.7430

 Free energy of the ion-electron system (eV)
  ---------------------------------------------------
  alpha Z        PSCENC =       784.57699423
  Ewald energy   TEWEN  =    252534.61652632
  -Hartree energ DENC   =   -300441.94691770
  -exchange      EXHF   =         0.00000000
  -V(xc)+E(xc)   XCENC  =      2489.90613520
  PAW double counting   =     59584.89623098   -59417.42762993
  entropy T*S    EENTRO =        -0.00000000
  eigenvalues    EBANDS =    -12271.06590880
  atomic energy  EATOM  =     56210.72393729
  Solvation  Ediel_sol  =         0.00000000
  ---------------------------------------------------
  free energy    TOTEN  =      -525.72063241 eV

  energy without entropy =     -525.72063241  energy(sigma->0) =     -525.72063241


--------------------------------------------------------------------------------------------------------




--------------------------------------- Iteration      1(  15)  ---------------------------------------


    POTLOK:  cpu time    0.3882: real time    0.3987
    SETDIJ:  cpu time    0.4365: real time    0.4365
     EDDAV:  cpu time   60.6388: real time   60.6405
       DOS:  cpu time    0.0005: real time    0.0005
    CHARGE:  cpu time    3.9741: real time    3.9742
    MIXING:  cpu time    0.0129: real time    0.0129
    --------------------------------------------
      LOOP:  cpu time   65.4510: real time   65.4634

 eigenvalue-minimisations  :  5544
 total energy-change (2. order) :-0.1437295E-02  (-0.1812889E-03)
 number of electron     640.0000004 magnetization 
 augmentation part       69.7386204 magnetization 

 Broyden mixing:
  rms(total) = 0.96806E-02    rms(broyden)= 0.96805E-02
  rms(prec ) = 0.12938E-01
  weight for this iteration     100.00

 eigenvalues of (default mixing * dielectric matrix)
  average eigenvalue GAMMA=   1.3502
  2.7943  2.7943  1.3830  1.3830  0.9505  0.9505  0.8727  0.8727  0.8519  0.6495

 Free energy of the ion-electron system (eV)
  ---------------------------------------------------
  alpha Z        PSCENC =       784.57699423
  Ewald energy   TEWEN  =    252534.61652632
  -Hartree energ DENC   =   -300456.33760684
  -exchange      EXHF   =         0.00000000
  -V(xc)+E(xc)   XCENC  =      2489.96913722
  PAW double counting   =     59549.97737288   -59382.39881410
  entropy T*S    EENTRO =        -0.00000000
  eigenvalues    EBANDS =    -12256.84961669
  atomic energy  EATOM  =     56210.72393729
  Solvation  Ediel_sol  =         0.00000000
  ---------------------------------------------------
  free energy    TOTEN  =      -525.72206970 eV

  energy without entropy =     -525.72206970  energy(sigma->0) =     -525.72206970


--------------------------------------------------------------------------------------------------------




--------------------------------------- Iteration      1(  16)  ---------------------------------------


    POTLOK:  cpu time    0.3884: real time    0.3993
    SETDIJ:  cpu time    0.4368: real time    0.4368
     EDDAV:  cpu time   62.6054: real time   62.6076
       DOS:  cpu time    0.0005: real time    0.0005
    CHARGE:  cpu time    3.9756: real time    3.9758
    MIXING:  cpu time    0.0146: real time    0.0146
    --------------------------------------------
      LOOP:  cpu time   67.4213: real time   67.4346

 eigenvalue-minimisations  :  5752
 total energy-change (2. order) :-0.2019037E-02  (-0.1065690E-03)
 number of electron     640.0000004 magnetization 
 augmentation part       69.7370244 magnetization 

 Broyden mixing:
  rms(total) = 0.56154E-02    rms(broyden)= 0.56153E-02
  rms(prec ) = 0.80258E-02
  weight for this iteration     100.00

 eigenvalues of (default mixing * dielectric matrix)
  average eigenvalue GAMMA=   1.4046
  3.4163  2.4884  2.1399  1.3233  1.0133  0.9480  0.9480  0.8899  0.8899  0.6605
  0.7332

 Free energy of the ion-electron system (eV)
  ---------------------------------------------------
  alpha Z        PSCENC =       784.57699423
  Ewald energy   TEWEN  =    252534.61652632
  -Hartree energ DENC   =   -300470.60209088
  -exchange      EXHF   =         0.00000000
  -V(xc)+E(xc)   XCENC  =      2490.03830836
  PAW double counting   =     59538.80700722   -59371.22259434
  entropy T*S    EENTRO =        -0.00000000
  eigenvalues    EBANDS =    -12242.66217695
  atomic energy  EATOM  =     56210.72393729
  Solvation  Ediel_sol  =         0.00000000
  ---------------------------------------------------
  free energy    TOTEN  =      -525.72408874 eV

  energy without entropy =     -525.72408874  energy(sigma->0) =     -525.72408874


--------------------------------------------------------------------------------------------------------




--------------------------------------- Iteration      1(  17)  ---------------------------------------


    POTLOK:  cpu time    0.3907: real time    0.4012
    SETDIJ:  cpu time    0.4371: real time    0.4371
     EDDAV:  cpu time   57.3748: real time   57.3762
       DOS:  cpu time    0.0006: real time    0.0006
    CHARGE:  cpu time    3.9830: real time    3.9831
    MIXING:  cpu time    0.0144: real time    0.0144
    --------------------------------------------
      LOOP:  cpu time   62.2005: real time   62.2125

 eigenvalue-minimisations  :  5168
 total energy-change (2. order) :-0.3311747E-02  (-0.7202763E-04)
 number of electron     640.0000004 magnetization 
 augmentation part       69.7368186 magnetization 

 Broyden mixing:
  rms(total) = 0.34792E-02    rms(broyden)= 0.34791E-02
  rms(prec ) = 0.49372E-02
  weight for this iteration     100.00

 eigenvalues of (default mixing * dielectric matrix)
  average eigenvalue GAMMA=   1.4489
  4.1229  2.6926  2.3312  1.3398  1.0338  0.9366  0.9366  0.9031  0.9031  0.7705
  0.7705  0.6459

 Free energy of the ion-electron system (eV)
  ---------------------------------------------------
  alpha Z        PSCENC =       784.57699423
  Ewald energy   TEWEN  =    252534.61652632
  -Hartree energ DENC   =   -300483.55055377
  -exchange      EXHF   =         0.00000000
  -V(xc)+E(xc)   XCENC  =      2490.07993487
  PAW double counting   =     59538.32277197   -59370.78204825
  entropy T*S    EENTRO =        -0.00000000
  eigenvalues    EBANDS =    -12229.71496315
  atomic energy  EATOM  =     56210.72393729
  Solvation  Ediel_sol  =         0.00000000
  ---------------------------------------------------
  free energy    TOTEN  =      -525.72740049 eV

  energy without entropy =     -525.72740049  energy(sigma->0) =     -525.72740049


--------------------------------------------------------------------------------------------------------




--------------------------------------- Iteration      1(  18)  ---------------------------------------


    POTLOK:  cpu time    0.3929: real time    0.4021
    SETDIJ:  cpu time    0.4370: real time    0.4370
     EDDAV:  cpu time   56.3315: real time   56.3334
       DOS:  cpu time    0.0005: real time    0.0005
    CHARGE:  cpu time    3.9865: real time    3.9866
    MIXING:  cpu time    0.0142: real time    0.0142
    --------------------------------------------
      LOOP:  cpu time   61.1626: real time   61.1738

 eigenvalue-minimisations  :  5048
 total energy-change (2. order) :-0.2188455E-02  (-0.2277327E-04)
 number of electron     640.0000004 magnetization 
 augmentation part       69.7373359 magnetization 

 Broyden mixing:
  rms(total) = 0.23550E-02    rms(broyden)= 0.23550E-02
  rms(prec ) = 0.31960E-02
  weight for this iteration     100.00

 eigenvalues of (default mixing * dielectric matrix)
  average eigenvalue GAMMA=   1.4537
  4.4442  2.6185  2.3331  1.4935  1.0757  1.0757  0.9317  0.9317  0.9490  0.8626
  0.8626  0.6668  0.6532

 Free energy of the ion-electron system (eV)
  ---------------------------------------------------
  alpha Z        PSCENC =       784.57699423
  Ewald energy   TEWEN  =    252534.61652632
  -Hartree energ DENC   =   -300491.39757087
  -exchange      EXHF   =         0.00000000
  -V(xc)+E(xc)   XCENC  =      2490.10173989
  PAW double counting   =     59533.92593190   -59366.39167562
  entropy T*S    EENTRO =        -0.00000000
  eigenvalues    EBANDS =    -12221.88547209
  atomic energy  EATOM  =     56210.72393729
  Solvation  Ediel_sol  =         0.00000000
  ---------------------------------------------------
  free energy    TOTEN  =      -525.72958894 eV

  energy without entropy =     -525.72958894  energy(sigma->0) =     -525.72958894


--------------------------------------------------------------------------------------------------------




--------------------------------------- Iteration      1(  19)  ---------------------------------------


    POTLOK:  cpu time    0.3937: real time    0.4028
    SETDIJ:  cpu time    0.4363: real time    0.4364
     EDDAV:  cpu time   55.7145: real time   55.7170
       DOS:  cpu time    0.0005: real time    0.0005
    CHARGE:  cpu time    3.9769: real time    3.9771
    MIXING:  cpu time    0.0142: real time    0.0142
    --------------------------------------------
      LOOP:  cpu time   60.5362: real time   60.5480

 eigenvalue-minimisations  :  4976
 total energy-change (2. order) :-0.1090189E-02  (-0.1130025E-04)
 number of electron     640.0000004 magnetization 
 augmentation part       69.7373997 magnetization 

 Broyden mixing:
  rms(total) = 0.16270E-02    rms(broyden)= 0.16269E-02
  rms(prec ) = 0.22760E-02
  weight for this iteration     100.00

 eigenvalues of (default mixing * dielectric matrix)
  average eigenvalue GAMMA=   1.5259
  5.0235  2.9280  2.1626  2.1626  1.1819  1.1819  0.9603  0.9603  0.9056  0.9056
  0.8323  0.8323  0.6923  0.6333

 Free energy of the ion-electron system (eV)
  ---------------------------------------------------
  alpha Z        PSCENC =       784.57699423
  Ewald energy   TEWEN  =    252534.61652632
  -Hartree energ DENC   =   -300494.86271886
  -exchange      EXHF   =         0.00000000
  -V(xc)+E(xc)   XCENC  =      2490.11233011
  PAW double counting   =     59533.85035450   -59366.31762613
  entropy T*S    EENTRO =        -0.00000000
  eigenvalues    EBANDS =    -12218.43047660
  atomic energy  EATOM  =     56210.72393729
  Solvation  Ediel_sol  =         0.00000000
  ---------------------------------------------------
  free energy    TOTEN  =      -525.73067913 eV

  energy without entropy =     -525.73067913  energy(sigma->0) =     -525.73067913


--------------------------------------------------------------------------------------------------------




--------------------------------------- Iteration      1(  20)  ---------------------------------------


    POTLOK:  cpu time    0.3940: real time    0.4066
    SETDIJ:  cpu time    0.4371: real time    0.4371
     EDDAV:  cpu time   50.1517: real time   50.1530
       DOS:  cpu time    0.0005: real time    0.0005
    CHARGE:  cpu time    3.9734: real time    3.9735
    MIXING:  cpu time    0.0152: real time    0.0152
    --------------------------------------------
      LOOP:  cpu time   54.9719: real time   54.9859

 eigenvalue-minimisations  :  4352
 total energy-change (2. order) :-0.1219214E-02  (-0.4632309E-05)
 number of electron     640.0000004 magnetization 
 augmentation part       69.7369809 magnetization 

 Broyden mixing:
  rms(total) = 0.11303E-02    rms(broyden)= 0.11302E-02
  rms(prec ) = 0.14742E-02
  weight for this iteration     100.00

 eigenvalues of (default mixing * dielectric matrix)
  average eigenvalue GAMMA=   1.5671
  5.9219  3.0120  2.3641  2.1915  1.0179  1.0179  1.1760  1.0726  0.9325  0.9325
  0.8914  0.8914  0.7646  0.6917  0.6278

 Free energy of the ion-electron system (eV)
  ---------------------------------------------------
  alpha Z        PSCENC =       784.57699423
  Ewald energy   TEWEN  =    252534.61652632
  -Hartree energ DENC   =   -300498.44508836
  -exchange      EXHF   =         0.00000000
  -V(xc)+E(xc)   XCENC  =      2490.11834903
  PAW double counting   =     59532.92335001   -59365.38825908
  entropy T*S    EENTRO =        -0.00000000
  eigenvalues    EBANDS =    -12214.85770778
  atomic energy  EATOM  =     56210.72393729
  Solvation  Ediel_sol  =         0.00000000
  ---------------------------------------------------
  free energy    TOTEN  =      -525.73189835 eV

  energy without entropy =     -525.73189835  energy(sigma->0) =     -525.73189835


--------------------------------------------------------------------------------------------------------




--------------------------------------- Iteration      1(  21)  ---------------------------------------


    POTLOK:  cpu time    0.3982: real time    0.4070
    SETDIJ:  cpu time    0.4373: real time    0.4373
     EDDAV:  cpu time   48.4637: real time   48.4660
       DOS:  cpu time    0.0005: real time    0.0005
    CHARGE:  cpu time    3.9725: real time    3.9727
    MIXING:  cpu time    0.0148: real time    0.0148
    --------------------------------------------
      LOOP:  cpu time   53.2871: real time   53.2983

 eigenvalue-minimisations  :  4144
 total energy-change (2. order) :-0.4955538E-03  (-0.2120687E-05)
 number of electron     640.0000004 magnetization 
 augmentation part       69.7370101 magnetization 

 Broyden mixing:
  rms(total) = 0.79387E-03    rms(broyden)= 0.79372E-03
  rms(prec ) = 0.10412E-02
  weight for this iteration     100.00

 eigenvalues of (default mixing * dielectric matrix)
  average eigenvalue GAMMA=   1.5629
  6.3113  2.9805  2.5061  1.8154  1.4935  1.1651  1.1651  0.9883  0.9883  0.9013
  0.9013  0.8584  0.8152  0.8152  0.6747  0.6268

 Free energy of the ion-electron system (eV)
  ---------------------------------------------------
  alpha Z        PSCENC =       784.57699423
  Ewald energy   TEWEN  =    252534.61652632
  -Hartree energ DENC   =   -300500.04587939
  -exchange      EXHF   =         0.00000000
  -V(xc)+E(xc)   XCENC  =      2490.12001248
[...]
    -6.896993340 11.945942880  0.000000000     0.000000000  0.083710429  0.000000000
     0.000000000  0.000000000 27.810221070     0.000000000  0.000000000  0.035958003

  length of vectors
    13.793986680 13.793986676 27.810221070     0.083710429  0.083710429  0.035958003


 FORCES acting on ions
    electron-ion (+dipol)            ewald-force                    non-local-force                 convergence-correction
 -----------------------------------------------------------------------------------------------
   0.758E+01 -.631E+02 -.105E+04   -.783E+01 0.640E+02 0.104E+04   -.167E-01 0.389E+00 0.340E+01   -.184E-04 0.159E-05 -.251E-04
   0.142E+02 0.489E+02 -.979E+03   -.138E+02 -.496E+02 0.976E+03   -.582E+00 0.118E+00 0.324E+01   -.300E-05 0.760E-05 -.312E-04
   -.492E+02 0.386E+01 -.112E+04   0.489E+02 -.420E+01 0.112E+04   0.135E+01 0.374E+00 0.437E+01   -.378E-05 -.179E-04 -.520E-04
   0.737E+01 -.190E+02 -.114E+04   -.795E+01 0.187E+02 0.113E+04   -.182E-01 0.815E-01 0.397E+01   0.105E-04 0.319E-06 -.531E-04
   -.314E+02 -.300E+02 -.103E+04   0.318E+02 0.296E+02 0.103E+04   -.917E-01 0.951E-01 0.435E+01   0.165E-04 -.105E-04 -.685E-05
   0.106E+02 0.257E+02 -.996E+03   -.108E+02 -.258E+02 0.992E+03   -.452E+00 0.984E-01 0.440E+01   -.365E-06 0.215E-04 -.355E-05
   -.310E+02 -.216E+02 -.103E+04   0.314E+02 0.221E+02 0.103E+04   0.356E+00 0.545E+00 0.442E+01   -.390E-04 -.429E-04 -.509E-05
   -.309E+02 -.608E+02 -.115E+04   0.319E+02 0.610E+02 0.114E+04   -.336E+00 0.910E+00 0.375E+01   -.239E-04 0.521E-05 -.262E-04
   0.167E+02 -.826E+01 -.106E+04   -.164E+02 0.644E+01 0.106E+04   -.484E+00 0.105E+01 0.431E+01   0.150E-04 0.371E-04 -.247E-04
   0.450E+02 0.292E+02 -.107E+04   -.450E+02 -.291E+02 0.106E+04   -.686E+00 0.114E+00 0.453E+01   0.549E-05 0.961E-05 -.172E-04
   -.281E+01 0.140E+00 -.111E+04   0.148E+01 -.381E+00 0.111E+04   0.770E+00 0.841E+00 0.432E+01   0.440E-04 -.337E-04 -.275E-04
   0.199E+02 -.431E+02 -.115E+04   -.212E+02 0.433E+02 0.115E+04   0.121E+00 0.309E+00 0.320E+01   0.207E-04 0.442E-04 -.321E-04
   -.302E+01 0.435E+01 -.107E+04   0.236E+01 -.320E+01 0.107E+04   0.595E+00 -.969E+00 0.457E+01   -.998E-05 0.780E-05 -.356E-04
   -.313E+02 0.552E+02 -.105E+04   0.319E+02 -.559E+02 0.104E+04   0.531E+00 0.376E-01 0.465E+01   0.318E-06 -.152E-04 -.389E-04
   0.264E+02 0.479E+01 -.111E+04   -.259E+02 -.466E+01 0.110E+04   -.155E+00 -.164E-01 0.414E+01   -.880E-05 -.566E-05 -.350E-04
   0.182E+02 -.194E+02 -.111E+04   -.168E+02 0.199E+02 0.111E+04   -.738E+00 0.508E-01 0.461E+01   -.470E-05 -.403E-05 -.494E-04
   0.511E+01 -.754E+02 0.105E+04   -.406E+01 0.760E+02 -.105E+04   -.194E+00 0.344E+00 -.460E+01   -.581E-05 -.325E-04 0.548E-05
   -.554E+02 0.513E+01 0.113E+04   0.559E+02 -.544E+01 -.113E+04   0.180E+00 0.446E+00 -.444E+01   -.398E-04 0.118E-04 0.248E-05
   -.443E+02 -.185E+02 0.105E+04   0.445E+02 0.183E+02 -.105E+04   0.247E+00 0.535E+00 -.400E+01   -.371E-04 -.162E-04 -.268E-04
   -.206E+02 0.777E+01 0.992E+03   0.211E+02 -.824E+01 -.988E+03   -.118E+00 -.474E+00 -.424E+01   -.131E-04 -.428E-05 -.160E-04
   -.425E+02 -.568E+02 0.106E+04   0.431E+02 0.575E+02 -.106E+04   0.388E+00 0.241E+00 -.410E+01   -.720E-05 -.324E-05 0.271E-05
   0.257E+02 -.177E+02 0.120E+04   -.258E+02 0.168E+02 -.119E+04   -.314E+00 0.716E+00 -.426E+01   0.183E-04 0.235E-04 0.416E-05
   -.977E+01 0.263E+02 0.115E+04   0.937E+01 -.259E+02 -.115E+04   0.144E+00 -.349E+00 -.452E+01   0.667E-05 -.305E-04 -.776E-05
   -.236E+02 -.138E+02 0.109E+04   0.231E+02 0.138E+02 -.109E+04   0.348E+00 0.657E-01 -.458E+01   -.274E-04 0.104E-04 -.171E-04
   0.510E+02 -.336E+02 0.105E+04   -.526E+02 0.342E+02 -.104E+04   0.172E-01 0.424E+00 -.393E+01   0.289E-04 0.175E-04 0.563E-05
   0.201E+02 0.268E+02 0.106E+04   -.201E+02 -.268E+02 -.105E+04   0.230E+00 0.143E+00 -.313E+01   0.246E-04 0.284E-05 0.234E-04
   0.981E+01 0.640E+02 0.105E+04   -.998E+01 -.644E+02 -.105E+04   0.584E+00 -.752E+00 -.478E+01   0.586E-05 -.278E-05 0.144E-04
   -.359E+01 0.423E+02 0.108E+04   0.312E+01 -.431E+02 -.108E+04   0.604E+00 -.643E+00 -.448E+01   0.341E-04 0.290E-04 0.865E-05
   0.167E+02 0.948E+01 0.997E+03   -.164E+02 -.837E+01 -.994E+03   -.618E+00 -.101E+01 -.369E+01   -.788E-05 -.561E-06 0.902E-05
   -.133E+02 0.251E+02 0.110E+04   0.128E+02 -.248E+02 -.109E+04   0.618E+00 0.479E-01 -.378E+01   -.157E-04 0.122E-04 -.410E-05
   0.292E+02 0.314E+02 0.108E+04   -.286E+02 -.320E+02 -.107E+04   -.614E+00 0.116E+00 -.412E+01   0.339E-04 -.157E-05 -.134E-04
   0.427E+01 -.340E+02 0.105E+04   -.466E+01 0.337E+02 -.105E+04   0.523E+00 0.311E+00 -.412E+01   -.400E-05 -.406E-05 -.161E-05
   -.318E+02 -.434E+01 0.147E+04   0.315E+02 0.427E+01 -.147E+04   0.110E+01 0.129E+00 0.239E+01   -.123E-04 -.157E-06 0.924E-05
   -.112E+02 0.145E+02 0.145E+04   0.111E+02 -.143E+02 -.146E+04   0.199E+00 -.756E+00 0.172E+01   -.110E-04 0.129E-04 -.246E-05
   -.974E+01 -.160E+02 0.144E+04   0.971E+01 0.159E+02 -.144E+04   0.145E+00 0.613E+00 0.111E+01   -.138E-05 -.831E-05 -.124E-04
   0.190E+02 -.136E+02 0.146E+04   -.187E+02 0.135E+02 -.146E+04   -.124E+01 0.273E+00 0.162E+01   0.766E-05 -.146E-04 -.475E-05
   0.203E+02 -.216E+02 0.143E+04   -.203E+02 0.214E+02 -.144E+04   -.169E+00 0.746E+00 0.177E+01   0.102E-05 -.134E-04 0.102E-04
   -.110E+02 0.210E+02 0.147E+04   0.107E+02 -.208E+02 -.147E+04   0.678E+00 -.449E+00 0.267E+01   -.143E-04 0.690E-05 0.103E-04
   0.511E+01 0.350E+01 0.147E+04   -.516E+01 -.366E+01 -.147E+04   -.109E+00 0.372E+00 0.215E+01   -.211E-04 -.456E-05 -.132E-04
   -.343E+01 0.626E+01 0.146E+04   0.339E+01 -.614E+01 -.146E+04   -.222E+00 -.455E+00 0.132E+01   -.850E-05 -.125E-04 -.106E-04
   0.149E+02 0.171E+02 0.144E+04   -.147E+02 -.169E+02 -.145E+04   -.521E+00 -.632E+00 0.256E+01   0.125E-04 0.270E-05 0.118E-04
   0.254E+02 -.221E+02 0.146E+04   -.251E+02 0.221E+02 -.146E+04   -.121E+01 0.553E+00 0.211E+01   0.142E-04 0.448E-05 0.247E-04
   0.112E+02 -.645E+01 0.147E+04   -.108E+02 0.626E+01 -.147E+04   -.926E+00 0.662E+00 0.184E+01   0.408E-05 0.782E-05 0.919E-05
   0.559E+01 0.109E+02 0.149E+04   -.556E+01 -.107E+02 -.149E+04   0.823E-02 -.577E+00 0.206E+01   0.306E-05 0.446E-05 -.142E-05
   -.144E+02 0.415E+01 0.145E+04   0.144E+02 -.407E+01 -.145E+04   0.232E+00 -.292E+00 0.226E+01   -.179E-05 0.521E-05 0.203E-05
   0.428E+01 0.513E+00 0.146E+04   -.440E+01 -.476E+00 -.146E+04   0.356E+00 -.141E+00 0.213E+01   0.114E-04 0.859E-05 0.428E-05
   0.234E+02 0.121E+02 0.147E+04   -.232E+02 -.121E+02 -.147E+04   -.802E+00 -.139E+00 0.181E+01   0.160E-04 -.188E-05 -.204E-05
   0.399E+01 -.204E+02 0.145E+04   -.387E+01 0.202E+02 -.146E+04   -.428E+00 0.862E+00 0.221E+01   -.231E-05 -.772E-06 0.712E-05
   -.136E+02 -.207E+02 -.146E+04   0.134E+02 0.208E+02 0.146E+04   0.750E+00 -.309E+00 -.189E+01   -.309E-05 0.637E-05 0.274E-05
   -.294E+02 0.176E+02 -.142E+04   0.289E+02 -.175E+02 0.142E+04   0.175E+01 -.502E+00 -.242E+01   -.267E-05 0.411E-05 0.190E-06
   0.144E+02 0.106E+02 -.145E+04   -.142E+02 -.107E+02 0.145E+04   -.874E+00 0.338E-01 -.210E+01   -.567E-05 -.119E-04 0.421E-05
   0.937E+01 0.894E+01 -.150E+04   -.918E+01 -.884E+01 0.150E+04   -.871E+00 -.545E+00 -.231E+01   -.306E-06 -.531E-05 -.439E-05
   -.991E+01 -.402E+02 -.141E+04   0.975E+01 0.400E+02 0.142E+04   0.612E+00 0.882E+00 -.211E+01   -.586E-06 0.833E-05 0.203E-05
   -.122E+02 0.304E+01 -.144E+04   0.120E+02 -.298E+01 0.144E+04   0.711E+00 -.216E+00 -.213E+01   0.537E-05 0.770E-05 0.678E-05
   0.143E+01 0.388E+02 -.147E+04   -.153E+01 -.387E+02 0.147E+04   0.186E+00 -.765E+00 -.271E+01   0.304E-05 -.145E-04 0.103E-04
   0.191E+02 0.622E+01 -.147E+04   -.189E+02 -.630E+01 0.148E+04   -.101E+01 -.214E+00 -.204E+01   -.366E-05 -.163E-05 0.791E-05
   -.952E+01 -.333E+02 -.145E+04   0.945E+01 0.334E+02 0.145E+04   0.312E+00 0.160E+00 -.266E+01   -.248E-05 0.901E-05 -.491E-05
   0.643E+01 0.268E+02 -.146E+04   -.618E+01 -.267E+02 0.146E+04   -.641E+00 -.325E+00 -.254E+01   -.305E-05 0.391E-05 0.561E-06
   0.787E+01 0.256E+02 -.146E+04   -.777E+01 -.255E+02 0.147E+04   -.272E+00 -.559E+00 -.215E+01   -.270E-05 -.123E-04 0.598E-05
   -.454E+02 0.366E+00 -.149E+04   0.450E+02 -.378E+00 0.149E+04   0.174E+01 -.110E+00 -.192E+01   0.584E-05 -.432E-05 0.239E-05
   0.369E+02 -.149E+02 -.143E+04   -.366E+02 0.149E+02 0.143E+04   -.121E+01 0.345E-01 -.207E+01   0.496E-05 0.642E-05 -.722E-05
   0.166E+02 0.157E+02 -.144E+04   -.163E+02 -.156E+02 0.144E+04   -.828E+00 -.315E+00 -.313E+01   0.107E-05 0.866E-05 -.180E-05
   -.176E+01 0.285E+02 -.149E+04   0.181E+01 -.285E+02 0.149E+04   0.213E-01 -.400E+00 -.259E+01   0.270E-05 -.918E-05 0.346E-05
   0.293E+02 -.229E-01 -.146E+04   -.290E+02 0.161E+00 0.147E+04   -.123E+01 -.640E+00 -.214E+01   -.208E-05 -.213E-05 -.198E-05
   0.117E+02 0.536E+01 -.345E+02   -.117E+02 -.551E+01 0.346E+02   -.253E+00 0.462E+00 -.740E+00   -.182E-05 0.241E-05 -.749E-05
   0.520E+01 0.154E+01 0.608E+01   -.497E+01 -.141E+01 -.620E+01   -.928E+00 -.767E+00 0.357E+00   0.288E-05 0.113E-05 -.692E-05
   -.448E+01 0.295E+02 0.246E+02   0.439E+01 -.294E+02 -.250E+02   0.467E+00 -.525E+00 0.179E+01   0.105E-05 0.175E-05 -.102E-04
   0.690E+01 -.306E+02 -.253E+02   -.693E+01 0.302E+02 0.255E+02   0.389E-01 0.155E+01 -.403E+00   0.663E-05 -.770E-06 -.106E-04
   -.249E+02 -.325E+02 -.263E+02   0.249E+02 0.325E+02 0.263E+02   -.762E-01 0.757E-01 -.175E+00   -.323E-06 -.337E-05 -.829E-05
   -.384E+01 -.788E+01 0.483E+02   0.381E+01 0.810E+01 -.485E+02   0.102E+00 -.388E+00 0.515E+00   -.526E-05 -.834E-07 -.209E-05
   -.291E+02 0.326E+02 0.359E+02   0.290E+02 -.322E+02 -.359E+02   0.127E+00 -.150E+01 0.915E-01   -.558E-05 -.751E-05 -.812E-05
   -.110E+01 0.141E+02 -.112E+02   0.149E+01 -.137E+02 0.112E+02   -.922E+00 -.152E+01 -.575E+00   -.977E-05 -.288E-05 -.120E-04
   -.267E+01 -.975E+01 -.142E+02   0.258E+01 0.991E+01 0.143E+02   0.231E+00 0.175E+00 -.236E+00   0.181E-05 0.645E-05 -.742E-05
   -.274E+01 0.109E+02 0.213E+02   0.244E+01 -.109E+02 -.215E+02   0.809E+00 0.353E+00 0.847E+00   0.833E-05 0.539E-05 -.133E-05
   -.131E+02 0.396E+02 0.151E+02   0.128E+02 -.391E+02 -.150E+02   0.978E+00 -.139E+01 -.127E+00   0.610E-05 -.103E-05 -.671E-06
   -.263E+01 -.902E+01 -.334E+01   0.255E+01 0.874E+01 0.341E+01   0.353E+00 0.101E+01 -.431E+00   0.928E-05 0.274E-05 -.111E-04
   -.168E+02 -.155E+02 -.342E+02   0.163E+02 0.154E+02 0.342E+02   0.222E+01 0.901E-01 0.114E+00   0.265E-05 -.394E-06 -.115E-04
   0.169E+02 0.188E+02 -.658E+01   -.167E+02 -.186E+02 0.661E+01   -.588E+00 -.478E+00 0.265E+00   -.611E-05 0.208E-05 -.689E-05
   0.262E+02 0.106E+02 0.271E+02   -.262E+02 -.107E+02 -.272E+02   -.566E+00 0.205E-01 0.732E+00   -.195E-05 -.676E-05 -.812E-05
   0.283E+02 -.112E+02 -.788E+01   -.281E+02 0.111E+02 0.786E+01   -.438E+00 0.730E+00 0.246E+00   -.491E-05 0.176E-05 -.813E-05
 -----------------------------------------------------------------------------------------------
   0.164E-01 0.946E+00 0.345E+01   0.107E-12 -.338E-12 0.390E-11   -.182E-01 -.942E+00 -.345E+01   -.840E-05 0.767E-05 -.527E-03
 
 
 POSITION                                       TOTAL-FORCE (eV/Angst)
 -----------------------------------------------------------------------------------
      0.00191      1.91314     15.10671        -0.270529      1.255203      0.181214
     -1.75101      5.08858     15.00417        -0.199666     -0.649124      0.880252
     -3.57786      7.93740     15.14453         0.997437      0.038528      0.757789
     -5.03172     10.94995     15.20550        -0.591580     -0.139987      0.392469
      3.36384      2.07253     15.09165         0.317540     -0.315189     -0.232483
      1.72659      4.98651     15.03776        -0.699722      0.095045      0.057946
     -0.02744      7.86898     15.08229         0.739039      1.092633      0.495565
     -1.65505     10.80172     15.25790         0.665919      1.150308     -0.425562
      6.89821      1.97464     15.12834        -0.152153     -0.772896     -0.074831
      5.23618      4.92880     15.12109        -0.658993      0.296717     -0.206814
      3.43608      7.84924     15.19147        -0.558365      0.599704     -0.205952
      1.81261     10.86988     15.31516        -1.247829      0.583961     -1.569849
     10.33132      2.07247     15.07387        -0.067899      0.178117      1.157541
      8.49611      5.06728     15.03918         1.183041     -0.691685      0.907414
      6.88424      7.96136     15.14090         0.262231      0.113951      0.556351
      5.12766     10.80662     15.15848         0.608751      0.536090      0.649912
      1.59863      0.83770     12.73674         0.860280      0.934792     -0.649141
     -0.11304      3.95384     12.59529         0.675524      0.137324     -0.332009
     -1.79068      7.01514     12.71126         0.461226      0.357582     -0.674588
     -3.40457     10.02657     12.77654         0.405662     -0.938307      0.154119
      5.09360      0.86900     12.63095         1.028663      0.930599      1.000527
      3.46753      3.96988     12.49857        -0.390291     -0.163620      0.347857
      1.76139      6.99417     12.58103        -0.259891      0.074620      0.258393
      0.06740      9.93166     12.61983        -0.167315      0.027710      1.284230
      8.72107      0.87633     12.65966        -1.575126      1.057894      0.219991
      6.86285      3.89991     12.64423         0.254051      0.134286     -0.351593
      5.13881      7.08386     12.72228         0.416931     -1.155443     -0.571327
      3.40084     10.07072     12.66178         0.134204     -1.502449      0.284536
     12.08930      0.95785     12.76099        -0.368493      0.101959     -0.726096
     10.25749      3.99172     12.62167         0.147281      0.260485     -0.284868
      8.59718      7.03620     12.69514        -0.079876     -0.558177     -0.536345
      6.91249      9.90757     12.70173         0.135123      0.041494      0.307893
     -0.26829      1.89084     10.92989         0.789112      0.063496      0.265638
     -1.82918      5.14640     11.03639         0.174732     -0.535619     -0.382917
     -3.45532      7.97449     11.16731         0.122938      0.540574     -0.928523
     -4.95419     10.87250     11.07559        -0.971616      0.209988     -0.413463
      3.38748      1.81273     11.04564        -0.190879      0.512865     -0.369675
      1.57570      5.00014     10.83494         0.421733     -0.269238      0.440094
      0.05011      7.97440     10.93838        -0.161459      0.216813      0.025512
     -1.62830     10.95102     11.06031        -0.265740     -0.332892     -0.687753
      7.01506      2.00835     10.93061        -0.357412     -0.419376      0.377870
      5.34940      4.82301     10.90886        -0.867273      0.519275      0.076152
      3.63301      7.81605     10.93800        -0.600013      0.479997     -0.138228
      1.79530     11.00721     10.90680         0.038158     -0.398702      0.051444
     10.31988      2.01416     10.99709         0.187484     -0.212898      0.089136
      8.55338      5.02860     10.99990         0.236140     -0.102882     -0.019960
      7.06290      8.02772     11.00516        -0.638394     -0.141579     -0.194804
      5.26521     10.74795     11.00509        -0.303730      0.674262      0.053793
      1.63683      1.13331     16.79068         0.556644     -0.212350      0.174373
     -0.28984      4.08472     16.75069         1.264122     -0.371968     -0.250281
     -1.63273      7.02635     16.77776        -0.627465     -0.040276     -0.024934
     -3.27012     10.04198     16.97150        -0.685572     -0.450316     -0.241825
      5.03033      0.95841     16.73985         0.444917      0.721162      0.106222
      3.30244      4.08269     16.77099         0.454647     -0.152668     -0.014540
      1.69595      7.08927     16.92383         0.079998     -0.596718     -0.587852
      0.16130     10.01489     16.92649        -0.845803     -0.300378     -0.031715
      8.58586      1.03384     16.87972         0.247019      0.258248     -0.415072
      6.95869      4.07578     16.86107        -0.395630     -0.208849     -0.412348
      5.23130      7.08489     16.84802        -0.176057     -0.444607      0.017136
      3.29626      9.93223     16.94853         1.368426     -0.121754      0.052511
     12.22960      0.90584     16.75142        -0.956879      0.083457      0.074205
     10.42216      4.08919     16.87046        -0.579557     -0.223637     -0.904585
      8.61559      7.07965     16.92227         0.076013     -0.350319     -0.483639
      7.13483     10.06721     16.84791        -0.957928     -0.501712      0.032011
      6.88923     11.85086     13.97458        -0.242294      0.319106     -0.618583
     -1.69453      3.02168     13.82777        -0.699470     -0.636791      0.238432
     10.26708      6.06552     13.77309         0.379314     -0.398704      1.386161
      8.62630      8.85774     13.99532         0.007345      1.204301     -0.267753
     -3.49535     11.92710     13.94010        -0.125393      0.096864     -0.193478
      1.67205      3.01925     13.79598         0.067308     -0.168769      0.374237
     -0.05102      6.10033     13.83676         0.098011     -1.151072      0.047521
     -1.63423      9.09586     13.95951        -0.530093     -1.094923     -0.561063
      0.00843     11.92805     13.93133         0.142098      0.342233     -0.170301
      5.07384      2.97763     13.80682         0.509247      0.331257      0.596699
      3.37478      6.07739     13.87971         0.658190     -0.909271     -0.072446
      1.76266      8.88335     13.91085         0.275992      0.732998     -0.365631
      3.31754     11.89499     13.92296         1.642662     -0.022171      0.134065
      8.66413      3.03834     13.88383        -0.347649     -0.283446      0.300388
      6.88084      5.96918     13.86731        -0.513613     -0.022444      0.560905
      5.23041      8.91222     13.92632        -0.207506      0.657307      0.224323
 -----------------------------------------------------------------------------------
    total drift:                               -0.001757      0.003747     -0.003375


--------------------------------------------------------------------------------------------------------



  FREE ENERGIE OF THE ION-ELECTRON SYSTEM (eV)
  ---------------------------------------------------
  free  energy   TOTEN  =      -525.73375715 eV

  energy  without entropy=     -525.73375715  energy(sigma->0) =     -525.73375715
 


--------------------------------------------------------------------------------------------------------


    POTLOK:  cpu time    0.8329: real time    0.8329


--------------------------------------------------------------------------------------------------------


     LOOP+:  cpu time 1952.7866: real time 1953.2334
    4ORBIT:  cpu time    0.0000: real time    0.0000

 total amount of memory used by VASP MPI-rank0   253936. kBytes
=======================================================================

   base      :      30000. kBytes
   nonlr-proj:      18752. kBytes
   fftplans  :      72602. kBytes
   grid      :      41267. kBytes
   one-center:        108. kBytes
   wavefun   :      91207. kBytes
 
  
  
 General timing and accounting informations for this job:
 ========================================================
  
                  Total CPU time used (sec):     1983.335
                            User time (sec):     1977.710
                          System time (sec):        5.625
                         Elapsed time (sec):     1983.874
  
                   Maximum memory used (kb):      462372.
                   Average memory used (kb):           0.
  
                          Minor page faults:       449145
                          Major page faults:            0
                 Voluntary context switches:         1946
