<?xml version="1.0" encoding="ISO-8859-1"?>
<modeling>
 <generator>
  <i name="program" type="string">vasp </i>
  <i name="version" type="string">5.4.4.18Apr17-6-g9f103f2a35  </i>
  <i name="subversion" type="string">(build Oct 31 2019 15:01:46) complex            parallel </i>
  <i name="platform" type="string">LinuxIFC </i>
  <i name="date" type="string">2024 05 01 </i>
  <i name="time" type="string">21:13:50 </i>
 </generator>
 <incar>
  <i type="int" name="ISTART">     0</i>
  <i type="string" name="PREC">anormal</i>
  <i type="logical" name="ADDGRID"> T  </i>
  <i type="int" name="IBRION">    -1</i>
  <i name="EDIFF">      0.00000100</i>
  <i name="EDIFFG">     -0.01000000</i>
  <i type="int" name="NSW">     1</i>
  <i type="int" name="ISIF">     2</i>
  <i type="int" name="ISYM">     2</i>
  <i name="ENCUT">    600.00000000</i>
  <i name="POTIM">      1.00000000</i>
  <i type="string" name="LREAL"> Auto.</i>
  <i type="int" name="ISMEAR">     0</i>
  <i name="SIGMA">      0.05000000</i>
  <i name="KSPACING">      0.25000000</i>
  <i type="logical" name="LWAVE"> F  </i>
  <i type="logical" name="LCHARG"> F  </i>
  <i type="logical" name="LSCALAPACK"> F  </i>
  <v type="int" name="KPOINT_BSE">    -1     0     0     0</v>
 </incar>
 <structure name="primitive_cell" >
  <crystal>
   <varray name="basis" >
    <v>      13.79398668       0.00000000       0.00000000 </v>
    <v>      -6.89699334      11.94594288       0.00000000 </v>
    <v>       0.00000000       0.00000000      27.81022107 </v>
   </varray>
   <i name="volume">   4582.62876984 </i>
   <varray name="rec_basis" >
    <v>       0.07249536       0.04185521       0.00000000 </v>
    <v>       0.00000000       0.08371043       0.00000000 </v>
    <v>       0.00000000       0.00000000       0.03595800 </v>
   </varray>
  </crystal>
  <varray name="positions" >
   <v>       0.08021345       0.16015010      -0.45679290 </v>
   <v>      -0.00454218      -0.00795906      -0.49750191 </v>
   <v>       0.24758724       0.25274236       0.49607584 </v>
   <v>       0.00362799       0.25294644       0.49721886 </v>
   <v>       0.16609717       0.09486968      -0.39624069 </v>
   <v>      -0.07549638       0.07582860      -0.39765252 </v>
   <v>       0.14995472       0.34193378      -0.39767865 </v>
   <v>       0.15095533       0.07012450       0.45798763 </v>
   <v>      -0.08349094       0.08018242       0.45885965 </v>
   <v>       0.15729381       0.33097783       0.45290148 </v>
   <v>       0.33060915       0.17349269      -0.45733423 </v>
   <v>       0.09353603      -0.08337479      -0.45324052 </v>
   <v>      -0.16428333       0.17348719      -0.45797357 </v>
   <v>       0.33388161       0.41742324      -0.45927223 </v>
   <v>      -0.17595464      -0.09537287      -0.45493139 </v>
   <v>       0.08604385       0.42596745      -0.46048013 </v>
   <v>       0.24581462      -0.00157751      -0.49874184 </v>
   <v>      -0.06139250      -0.15726959      -0.39418286 </v>
   <v>       0.05969164       0.15828317       0.39301687 </v>
   <v>      -0.26162645      -0.00426553      -0.49935807 </v>
   <v>       0.41029361       0.34176344      -0.39694880 </v>
   <v>       0.25163180      -0.48933848       0.49754215 </v>
   <v>      -0.07328798       0.34230821      -0.39337202 </v>
   <v>      -0.08419275      -0.17063269       0.45672896 </v>
   <v>      -0.08930539       0.33414852       0.45384989 </v>
   <v>       0.41753988       0.33232062       0.44942365 </v>
   <v>       0.32144891       0.15174471       0.39717899 </v>
   <v>       0.49245918       0.24925888       0.49646555 </v>
   <v>      -0.24779675      -0.25395445      -0.49923749 </v>
   <v>       0.40479042       0.08022899      -0.39806847 </v>
   <v>       0.09591530      -0.08985838       0.39825597 </v>
   <v>      -0.16755339       0.16860647       0.39543327 </v>
   <v>      -0.24472065       0.25434072       0.49923489 </v>
   <v>      -0.16843914      -0.10028428       0.39572116 </v>
   <v>      -0.00389087      -0.25851463      -0.49675626 </v>
   <v>       0.49902645      -0.49125933       0.49908649 </v>
   <v>       0.32351265       0.41856387       0.38960287 </v>
   <v>       0.08279671       0.43080743       0.39684669 </v>
   <v>      -0.33429293       0.08654348      -0.39303903 </v>
   <v>       0.18324110      -0.15938130      -0.38973880 </v>
   <v>      -0.00181039      -0.49225271       0.49525277 </v>
   <v>       0.17572380      -0.41182128      -0.39670527 </v>
   <v>      -0.34532063      -0.16856858      -0.39056472 </v>
   <v>       0.17284831      -0.16067165       0.45941882 </v>
   <v>      -0.33194307      -0.15697579       0.45529235 </v>
   <v>      -0.33108399       0.07335792       0.45521607 </v>
   <v>       0.41967109      -0.40655410      -0.39145293 </v>
   <v>       0.40563429       0.07274401       0.45418388 </v>
   <v>      -0.16770013      -0.33355077      -0.45556358 </v>
   <v>      -0.41363312      -0.09007786      -0.44929737 </v>
   <v>       0.16380438      -0.41275952       0.45707141 </v>
   <v>       0.42043550      -0.41451482       0.45238884 </v>
   <v>       0.32736873      -0.34128455      -0.45767094 </v>
   <v>      -0.41410502       0.41259216      -0.45627598 </v>
   <v>       0.33212513      -0.09578303      -0.45135636 </v>
   <v>      -0.17197899       0.42418426      -0.45922117 </v>
   <v>       0.07284324      -0.33555652      -0.45543311 </v>
   <v>      -0.42236890      -0.34293692      -0.45374498 </v>
   <v>      -0.41726273       0.16529813      -0.45601527 </v>
   <v>      -0.15197069      -0.32799618       0.39572358 </v>
   <v>       0.26223509      -0.23858194      -0.49804394 </v>
   <v>      -0.32421532      -0.40692088      -0.39417883 </v>
   <v>      -0.40913980      -0.07858145       0.39218665 </v>
   <v>      -0.07908963      -0.40735922      -0.39150913 </v>
   <v>       0.49959937      -0.25637095      -0.49979371 </v>
   <v>       0.34031285      -0.08328553       0.39770672 </v>
   <v>       0.49986230      -0.00149773      -0.49905735 </v>
   <v>      -0.16944676       0.42094649       0.39553434 </v>
   <v>       0.33740305      -0.33245916       0.39332239 </v>
   <v>      -0.32493458       0.34118563      -0.39370947 </v>
   <v>      -0.41032537       0.40373626       0.39226066 </v>
   <v>      -0.33096383      -0.40700677       0.45746784 </v>
   <v>      -0.08224278      -0.41099675       0.45649193 </v>
   <v>      -0.33924358       0.32646300       0.45466137 </v>
   <v>       0.08327938      -0.33245221       0.40155425 </v>
   <v>      -0.40738085       0.16811951       0.39304303 </v>
   <v>       0.43086891      -0.16164894      -0.39135740 </v>
   <v>      -0.25132995       0.49968244       0.49864093 </v>
   <v>      -0.40948086      -0.34571493       0.39330867 </v>
   <v>       0.42057777      -0.16861613       0.45378375 </v>
  </varray>
 </structure>
 <varray name="primitive_index" >
  <v type="int" >        1 </v>
  <v type="int" >       65 </v>
  <v type="int" >       70 </v>
  <v type="int" >       66 </v>
  <v type="int" >       49 </v>
  <v type="int" >       61 </v>
  <v type="int" >       50 </v>
  <v type="int" >       17 </v>
  <v type="int" >       29 </v>
  <v type="int" >       18 </v>
  <v type="int" >        5 </v>
  <v type="int" >        4 </v>
  <v type="int" >       13 </v>
  <v type="int" >        6 </v>
  <v type="int" >       16 </v>
  <v type="int" >        2 </v>
  <v type="int" >       69 </v>
  <v type="int" >       64 </v>
  <v type="int" >       33 </v>
  <v type="int" >       77 </v>
  <v type="int" >       54 </v>
  <v type="int" >       71 </v>
  <v type="int" >       62 </v>
  <v type="int" >       32 </v>
  <v type="int" >       30 </v>
  <v type="int" >       22 </v>
  <v type="int" >       37 </v>
  <v type="int" >       74 </v>
  <v type="int" >       80 </v>
  <v type="int" >       53 </v>
  <v type="int" >       36 </v>
  <v type="int" >       45 </v>
  <v type="int" >       78 </v>
  <v type="int" >       48 </v>
  <v type="int" >       68 </v>
  <v type="int" >       75 </v>
  <v type="int" >       38 </v>
  <v type="int" >       34 </v>
  <v type="int" >       57 </v>
  <v type="int" >       52 </v>
  <v type="int" >       67 </v>
  <v type="int" >       51 </v>
  <v type="int" >       60 </v>
  <v type="int" >       20 </v>
  <v type="int" >       28 </v>
  <v type="int" >       25 </v>
  <v type="int" >       55 </v>
  <v type="int" >       21 </v>
  <v type="int" >       15 </v>
  <v type="int" >       12 </v>
  <v type="int" >       19 </v>
  <v type="int" >       23 </v>
  <v type="int" >        7 </v>
  <v type="int" >       10 </v>
  <v type="int" >        8 </v>
  <v type="int" >       14 </v>
  <v type="int" >        3 </v>
  <v type="int" >       11 </v>
  <v type="int" >        9 </v>
  <v type="int" >       47 </v>
  <v type="int" >       72 </v>
  <v type="int" >       59 </v>
  <v type="int" >       44 </v>
  <v type="int" >       63 </v>
  <v type="int" >       76 </v>
  <v type="int" >       40 </v>
  <v type="int" >       73 </v>
  <v type="int" >       46 </v>
  <v type="int" >       39 </v>
  <v type="int" >       58 </v>
  <v type="int" >       42 </v>
  <v type="int" >       27 </v>
  <v type="int" >       31 </v>
  <v type="int" >       26 </v>
  <v type="int" >       35 </v>
  <v type="int" >       41 </v>
  <v type="int" >       56 </v>
  <v type="int" >       79 </v>
  <v type="int" >       43 </v>
  <v type="int" >       24 </v>
 </varray>
 <kpoints>
  <generation param="Gamma">
   <v type="int" name="divisions">       3        3        1 </v>
   <v name="usershift">      0.00000000       0.00000000       0.00000000 </v>
   <v name="genvec1">      0.33333333      -0.00000000       0.00000000 </v>
   <v name="genvec2">      0.00000000       0.33333333       0.00000000 </v>
   <v name="genvec3">      0.00000000       0.00000000       1.00000000 </v>
   <v name="shift">      0.00000000       0.00000000       0.00000000 </v>
  </generation>
  <varray name="kpointlist" >
   <v>       0.00000000       0.00000000       0.00000000 </v>
   <v>       0.33333333      -0.00000000       0.00000000 </v>
   <v>       0.00000000       0.33333333       0.00000000 </v>
   <v>       0.33333333       0.33333333       0.00000000 </v>
   <v>      -0.33333333       0.33333333       0.00000000 </v>
  </varray>
  <varray name="weights" >
   <v>       0.11111111 </v>
   <v>       0.22222222 </v>
   <v>       0.22222222 </v>
   <v>       0.22222222 </v>
   <v>       0.22222222 </v>
  </varray>
 </kpoints>
 <parameters>
  <separator name="general" >
   <i type="string" name="SYSTEM">unknown system</i>
   <i type="logical" name="LCOMPAT"> F  </i>
  </separator>
  <separator name="electronic" >
   <i type="string" name="PREC">anorma</i>
   <i name="ENMAX">    600.00000000</i>
   <i name="ENAUG">    644.87300000</i>
   <i name="EDIFF">      0.00000100</i>
   <i type="int" name="IALGO">    38</i>
   <i type="int" name="IWAVPR">    10</i>
   <i type="int" name="NBANDS">   384</i>
   <i name="NELECT">    640.00000000</i>
   <i type="int" name="TURBO">     0</i>
   <i type="int" name="IRESTART">     0</i>
   <i type="int" name="NREBOOT">     0</i>
   <i type="int" name="NMIN">     0</i>
   <i name="EREF">      0.00000000</i>
   <separator name="electronic smearing" >
    <i type="int" name="ISMEAR">     0</i>
    <i name="SIGMA">      0.05000000</i>
    <i name="KSPACING">      0.25000000</i>
    <i type="logical" name="KGAMMA"> T  </i>
   </separator>
   <separator name="electronic projectors" >
    <i type="logical" name="LREAL"> T  </i>
    <v name="ROPT">     -0.00025000     -0.00025000     -0.00025000</v>
    <i type="int" name="LMAXPAW">  -100</i>
    <i type="int" name="LMAXMIX">     2</i>
    <i type="logical" name="NLSPLINE"> F  </i>
   </separator>
   <separator name="electronic startup" >
    <i type="int" name="ISTART">     0</i>
    <i type="int" name="ICHARG">     2</i>
    <i type="int" name="INIWAV">     1</i>
   </separator>
   <separator name="electronic spin" >
    <i type="int" name="ISPIN">     1</i>
    <i type="logical" name="LNONCOLLINEAR"> F  </i>
    <v name="MAGMOM">      1.00000000      1.00000000      1.00000000      1.00000000      1.00000000      1.00000000      1.00000000      1.00000000      1.00000000      1.00000000      1.00000000      1.00000000      1.00000000      1.00000000      1.00000000      1.00000000      1.00000000      1.00000000      1.00000000      1.00000000
      1.00000000      1.00000000      1.00000000      1.00000000      1.00000000      1.00000000      1.00000000      1.00000000      1.00000000      1.00000000      1.00000000      1.00000000      1.00000000      1.00000000      1.00000000      1.00000000      1.00000000      1.00000000      1.00000000      1.00000000
      1.00000000      1.00000000      1.00000000      1.00000000      1.00000000      1.00000000      1.00000000      1.00000000      1.00000000      1.00000000      1.00000000      1.00000000      1.00000000      1.00000000      1.00000000      1.00000000      1.00000000      1.00000000      1.00000000      1.00000000
      1.00000000      1.00000000      1.00000000      1.00000000      1.00000000      1.00000000      1.00000000      1.00000000      1.00000000      1.00000000      1.00000000      1.00000000      1.00000000      1.00000000      1.00000000      1.00000000      1.00000000      1.00000000      1.00000000      1.00000000
</v>
    <i name="NUPDOWN">     -1.00000000</i>
    <i type="logical" name="LSORBIT"> F  </i>
    <v name="SAXIS">      0.00000000      0.00000000      1.00000000</v>
    <i type="logical" name="LSPIRAL"> F  </i>
    <v name="QSPIRAL">      0.00000000      0.00000000      0.00000000</v>
    <i type="logical" name="LZEROZ"> F  </i>
   </separator>
   <separator name="electronic exchange-correlation" >
    <i type="logical" name="LASPH"> F  </i>
    <i type="logical" name="LMETAGGA"> F  </i>
   </separator>
   <separator name="electronic convergence" >
    <i type="int" name="NELM">    60</i>
    <i type="int" name="NELMDL">    -5</i>
    <i type="int" name="NELMIN">     2</i>
    <i name="ENINI">    600.00000000</i>
    <separator name="electronic convergence detail" >
     <i type="logical" name="LDIAG"> T  </i>
     <i type="logical" name="LSUBROT"> F  </i>
     <i name="WEIMIN">      0.00000000</i>
     <i name="EBREAK">      0.00000000</i>
     <i name="DEPER">      0.30000000</i>
     <i type="int" name="NRMM">     4</i>
     <i name="TIME">      0.40000000</i>
    </separator>
   </separator>
   <separator name="electronic mixer" >
    <i name="AMIX">      0.40000000</i>
    <i name="BMIX">      1.00000000</i>
    <i name="AMIN">      0.10000000</i>
    <i name="AMIX_MAG">      1.60000000</i>
    <i name="BMIX_MAG">      1.00000000</i>
    <separator name="electronic mixer details" >
     <i type="int" name="IMIX">     4</i>
     <i type="logical" name="MIXFIRST"> F  </i>
     <i type="int" name="MAXMIX">   -45</i>
     <i name="WC">    100.00000000</i>
     <i type="int" name="INIMIX">     1</i>
     <i type="int" name="MIXPRE">     1</i>
     <i type="int" name="MREMOVE">     5</i>
    </separator>
   </separator>
   <separator name="electronic dipolcorrection" >
    <i type="logical" name="LDIPOL"> F  </i>
    <i type="logical" name="LMONO"> F  </i>
    <i type="int" name="IDIPOL">     0</i>
    <i name="EPSILON">      1.00000000</i>
    <v name="DIPOL">   -100.00000000   -100.00000000   -100.00000000</v>
    <i name="EFIELD">      0.00000000</i>
   </separator>
  </separator>
  <separator name="grids" >
   <i type="int" name="NGX">   112</i>
   <i type="int" name="NGY">   112</i>
   <i type="int" name="NGZ">   224</i>
   <i type="int" name="NGXF">   224</i>
   <i type="int" name="NGYF">   224</i>
   <i type="int" name="NGZF">   448</i>
   <i type="logical" name="ADDGRID"> T  </i>
  </separator>
  <separator name="ionic" >
   <i type="int" name="NSW">     1</i>
   <i type="int" name="IBRION">    -1</i>
   <i type="int" name="MDALGO">     0</i>
   <i type="int" name="ISIF">     2</i>
   <i name="PSTRESS">      0.00000000</i>
   <i name="EDIFFG">     -0.01000000</i>
   <i type="int" name="NFREE">     0</i>
   <i name="POTIM">      1.00000000</i>
   <i name="SMASS">     -3.00000000</i>
   <i name="SCALEE">      1.00000000</i>
  </separator>
  <separator name="ionic md" >
   <i name="TEBEG">      0.00010000</i>
   <i name="TEEND">      0.00010000</i>
   <i type="int" name="NBLOCK">     1</i>
   <i type="int" name="KBLOCK">     1</i>
   <i type="int" name="NPACO">   256</i>
   <i name="APACO">     16.00000000</i>
  </separator>
  <separator name="symmetry" >
   <i type="int" name="ISYM">     2</i>
   <i name="SYMPREC">      0.00001000</i>
  </separator>
  <separator name="dos" >
   <i type="int" name="LORBIT">     0</i>
   <v name="RWIGS">     -1.00000000     -1.00000000     -1.00000000</v>
   <i type="int" name="NEDOS">   301</i>
   <i name="EMIN">     10.00000000</i>
   <i name="EMAX">    -10.00000000</i>
   <i name="EFERMI">      0.00000000</i>
  </separator>
  <separator name="writing" >
   <i type="int" name="NWRITE">     2</i>
   <i type="logical" name="LWAVE"> F  </i>
   <i type="logical" name="LDOWNSAMPLE"> F  </i>
   <i type="logical" name="LCHARG"> F  </i>
   <i type="logical" name="LPARD"> F  </i>
   <i type="logical" name="LVTOT"> F  </i>
   <i type="logical" name="LVHAR"> F  </i>
   <i type="logical" name="LELF"> F  </i>
   <i type="logical" name="LOPTICS"> F  </i>
   <v name="STM">      0.00000000      0.00000000      0.00000000      0.00000000      0.00000000      0.00000000      0.00000000</v>
  </separator>
  <separator name="performance" >
   <i type="int" name="NPAR">     4</i>
   <i type="int" name="NSIM">     4</i>
   <i type="int" name="NBLK">    -1</i>
   <i type="logical" name="LPLANE"> T  </i>
   <i type="logical" name="LSCALAPACK"> F  </i>
   <i type="logical" name="LSCAAWARE"> F  </i>
   <i type="logical" name="LSCALU"> F  </i>
   <i type="logical" name="LASYNC"> F  </i>
   <i type="logical" name="LORBITALREAL"> F  </i>
  </separator>
  <separator name="miscellaneous" >
   <i type="int" name="IDIOT">     3</i>
   <i type="int" name="ISPECIAL">     0</i>
   <i type="logical" name="LMUSIC"> F  </i>
   <v name="POMASS">     44.95600000     35.45300000     12.01100000</v>
   <v name="DARWINR">      0.00000000      0.00000000      0.00000000</v>
   <v name="DARWINV">      1.00000000      1.00000000      1.00000000</v>
   <i type="logical" name="LCORR"> T  </i>
  </separator>
  <i type="logical" name="GGA_COMPAT"> T  </i>
  <i type="logical" name="LBERRY"> F  </i>
  <i type="int" name="ICORELEVEL">     0</i>
  <i type="logical" name="LDAU"> F  </i>
  <i type="int" name="I_CONSTRAINED_M">     0</i>
  <separator name="electronic exchange-correlation" >
   <i type="string" name="GGA">--</i>
   <i type="int" name="VOSKOWN">     0</i>
   <i type="logical" name="LHFCALC"> F  </i>
   <i type="string" name="PRECFOCK"></i>
   <i type="logical" name="LSYMGRAD"> F  </i>
   <i type="logical" name="LHFONE"> F  </i>
   <i type="logical" name="LRHFCALC"> F  </i>
   <i type="logical" name="LTHOMAS"> F  </i>
   <i type="logical" name="LMODELHF"> F  </i>
   <i name="ENCUT4O">     -1.00000000</i>
   <i type="int" name="EXXOEP">     0</i>
   <i type="int" name="FOURORBIT">     0</i>
   <i name="AEXX">      0.00000000</i>
   <i name="HFALPHA">      0.00000000</i>
   <i name="MCALPHA">      0.00000000</i>
   <i name="ALDAX">      1.00000000</i>
   <i name="AGGAX">      1.00000000</i>
   <i name="ALDAC">      1.00000000</i>
   <i name="AGGAC">      1.00000000</i>
   <i type="int" name="NKREDX">     1</i>
   <i type="int" name="NKREDY">     1</i>
   <i type="int" name="NKREDZ">     1</i>
   <i type="logical" name="SHIFTRED"> F  </i>
   <i type="logical" name="ODDONLY"> F  </i>
   <i type="logical" name="EVENONLY"> F  </i>
   <i type="int" name="LMAXFOCK">     0</i>
   <i type="int" name="NMAXFOCKAE">     0</i>
   <i type="logical" name="LFOCKAEDFT"> F  </i>
   <i name="HFSCREEN">      0.00000000</i>
   <i name="HFSCREENC">      0.00000000</i>
   <i type="int" name="NBANDSGWLOW">     0</i>
  </separator>
  <separator name="vdW DFT" >
   <i type="logical" name="LUSE_VDW"> F  </i>
   <i name="Zab_VDW">     -0.84910000</i>
   <i name="PARAM1">      0.12340000</i>
   <i name="PARAM2">      1.00000000</i>
   <i name="PARAM3">      0.00000000</i>
  </separator>
  <separator name="model GW" >
   <i type="int" name="MODEL_GW">     0</i>
   <i name="MODEL_EPS0">     34.36971577</i>
   <i name="MODEL_ALPHA">      1.00000000</i>
  </separator>
  <separator name="linear response parameters" >
   <i type="logical" name="LEPSILON"> F  </i>
   <i type="logical" name="LRPA"> F  </i>
   <i type="logical" name="LNABLA"> F  </i>
   <i type="logical" name="LVEL"> F  </i>
   <i type="int" name="KINTER">     0</i>
   <i name="CSHIFT">      0.10000000</i>
   <i name="OMEGAMAX">     -1.00000000</i>
   <i name="DEG_THRESHOLD">      0.00200000</i>
   <i name="RTIME">     -0.10000000</i>
   <i name="WPLASMAI">      0.00000000</i>
   <v name="DFIELD">      0.00000000      0.00000000      0.00000000</v>
   <v name="WPLASMA">      0.00000000      0.00000000      0.00000000      0.00000000      0.00000000      0.00000000      0.00000000      0.00000000      0.00000000</v>
  </separator>
  <separator name="orbital magnetization" >
   <i type="logical" name="NUCIND"> F  </i>
   <v name="MAGPOS">      0.00000000      0.00000000      0.00000000</v>
   <i type="logical" name="LNICSALL"> T  </i>
   <i type="logical" name="ORBITALMAG"> F  </i>
   <i type="logical" name="LMAGBLOCH"> F  </i>
   <i type="logical" name="LCHIMAG"> F  </i>
   <i type="logical" name="LGAUGE"> T  </i>
   <i type="int" name="MAGATOM">     0</i>
   <v name="MAGDIPOL">      0.00000000      0.00000000      0.00000000</v>
   <v name="AVECCONST">      0.00000000      0.00000000      0.00000000</v>
  </separator>
  <separator name="response functions" >
   <i type="logical" name="LADDER"> F  </i>
   <i type="logical" name="LRPAFORCE"> F  </i>
   <i type="logical" name="LFXC"> F  </i>
   <i type="logical" name="LHARTREE"> T  </i>
   <i type="int" name="IBSE">     0</i>
   <v type="int" name="KPOINT">    -1     0     0     0</v>
   <i type="logical" name="LTCTE"> F  </i>
   <i type="logical" name="LTETE"> F  </i>
   <i type="logical" name="LTRIPLET"> F  </i>
   <i type="logical" name="LFXCEPS"> F  </i>
   <i type="logical" name="LFXHEG"> F  </i>
   <i type="int" name="NATURALO">     2</i>
   <i type="logical" name="L2ORDER"> F  </i>
   <i type="logical" name="LMP2LT"> F  </i>
   <i type="logical" name="LUSEW"> F  </i>
   <i name="ENCUTGW">     -2.00000000</i>
   <i name="ENCUTGWSOFT">     -2.00000000</i>
   <i name="ENCUTLF">     -1.00000000</i>
   <i type="int" name="LMAXMP2">    -1</i>
   <i name="SCISSOR">      0.00000000</i>
   <i type="int" name="NOMEGA">     0</i>
   <i type="int" name="NOMEGAR">     0</i>
   <i type="int" name="NBANDSGW">    -1</i>
   <i type="int" name="NBANDSO">    -1</i>
   <i type="int" name="NBANDSV">    -1</i>
   <i type="int" name="NELM">     1</i>
   <i type="int" name="NELMHF">     1</i>
   <i type="int" name="DIM">     3</i>
   <i type="int" name="ANTIRES">     0</i>
   <i name="OMEGAMAX">    -30.00000000</i>
   <i name="OMEGAMIN">    -30.00000000</i>
   <i name="OMEGATL">   -200.00000000</i>
   <i type="int" name="OMEGAGRID">   140</i>
   <i name="CSHIFT">     -0.10000000</i>
   <i type="logical" name="SELFENERGY"> F  </i>
   <i type="logical" name="LSPECTRAL"> F  </i>
   <i type="logical" name="LSPECTRALGW"> F  </i>
   <i type="logical" name="LSINGLES"> F  </i>
   <i type="logical" name="LFERMIGW"> F  </i>
   <i type="logical" name="ODDONLYGW"> F  </i>
   <i type="logical" name="EVENONLYGW"> F  </i>
   <i type="int" name="NKREDLFX">     1</i>
   <i type="int" name="NKREDLFY">     1</i>
   <i type="int" name="NKREDLFZ">     1</i>
   <i type="int" name="MAXMEM">  2800</i>
   <i type="int" name="TELESCOPE">     0</i>
   <i type="int" name="TAUPAR">     1</i>
   <i type="int" name="OMEGAPAR">    -1</i>
   <i name="LAMBDA">      1.00000000</i>
  </separator>
  <separator name="External order field" >
   <i name="OFIELD_KAPPA">      0.00000000</i>
   <v name="OFIELD_K">      0.00000000      0.00000000      0.00000000</v>
   <i name="OFIELD_Q6_NEAR">      0.00000000</i>
   <i name="OFIELD_Q6_FAR">      0.00000000</i>
   <i name="OFIELD_A">      0.00000000</i>
  </separator>
 </parameters>
 <atominfo>
  <atoms>      80 </atoms>
  <types>       3 </types>
  <array name="atoms" >
   <dimension dim="1">ion</dimension>
   <field type="string">element</field>
   <field type="int">atomtype</field>
   <set>
    <rc><c>Sc</c><c>   1</c></rc>
    <rc><c>Sc</c><c>   1</c></rc>
    <rc><c>Sc</c><c>   1</c></rc>
    <rc><c>Sc</c><c>   1</c></rc>
    <rc><c>Sc</c><c>   1</c></rc>
    <rc><c>Sc</c><c>   1</c></rc>
    <rc><c>Sc</c><c>   1</c></rc>
    <rc><c>Sc</c><c>   1</c></rc>
    <rc><c>Sc</c><c>   1</c></rc>
    <rc><c>Sc</c><c>   1</c></rc>
    <rc><c>Sc</c><c>   1</c></rc>
    <rc><c>Sc</c><c>   1</c></rc>
    <rc><c>Sc</c><c>   1</c></rc>
    <rc><c>Sc</c><c>   1</c></rc>
    <rc><c>Sc</c><c>   1</c></rc>
    <rc><c>Sc</c><c>   1</c></rc>
    <rc><c>Sc</c><c>   1</c></rc>
    <rc><c>Sc</c><c>   1</c></rc>
    <rc><c>Sc</c><c>   1</c></rc>
    <rc><c>Sc</c><c>   1</c></rc>
    <rc><c>Sc</c><c>   1</c></rc>
    <rc><c>Sc</c><c>   1</c></rc>
    <rc><c>Sc</c><c>   1</c></rc>
    <rc><c>Sc</c><c>   1</c></rc>
    <rc><c>Sc</c><c>   1</c></rc>
    <rc><c>Sc</c><c>   1</c></rc>
    <rc><c>Sc</c><c>   1</c></rc>
    <rc><c>Sc</c><c>   1</c></rc>
    <rc><c>Sc</c><c>   1</c></rc>
    <rc><c>Sc</c><c>   1</c></rc>
    <rc><c>Sc</c><c>   1</c></rc>
    <rc><c>Sc</c><c>   1</c></rc>
    <rc><c>Cl</c><c>   2</c></rc>
    <rc><c>Cl</c><c>   2</c></rc>
    <rc><c>Cl</c><c>   2</c></rc>
    <rc><c>Cl</c><c>   2</c></rc>
    <rc><c>Cl</c><c>   2</c></rc>
    <rc><c>Cl</c><c>   2</c></rc>
    <rc><c>Cl</c><c>   2</c></rc>
    <rc><c>Cl</c><c>   2</c></rc>
    <rc><c>Cl</c><c>   2</c></rc>
    <rc><c>Cl</c><c>   2</c></rc>
    <rc><c>Cl</c><c>   2</c></rc>
    <rc><c>Cl</c><c>   2</c></rc>
    <rc><c>Cl</c><c>   2</c></rc>
    <rc><c>Cl</c><c>   2</c></rc>
    <rc><c>Cl</c><c>   2</c></rc>
    <rc><c>Cl</c><c>   2</c></rc>
    <rc><c>Cl</c><c>   2</c></rc>
    <rc><c>Cl</c><c>   2</c></rc>
    <rc><c>Cl</c><c>   2</c></rc>
    <rc><c>Cl</c><c>   2</c></rc>
    <rc><c>Cl</c><c>   2</c></rc>
    <rc><c>Cl</c><c>   2</c></rc>
    <rc><c>Cl</c><c>   2</c></rc>
    <rc><c>Cl</c><c>   2</c></rc>
    <rc><c>Cl</c><c>   2</c></rc>
    <rc><c>Cl</c><c>   2</c></rc>
    <rc><c>Cl</c><c>   2</c></rc>
    <rc><c>Cl</c><c>   2</c></rc>
    <rc><c>Cl</c><c>   2</c></rc>
    <rc><c>Cl</c><c>   2</c></rc>
    <rc><c>Cl</c><c>   2</c></rc>
    <rc><c>Cl</c><c>   2</c></rc>
    <rc><c>C </c><c>   3</c></rc>
    <rc><c>C </c><c>   3</c></rc>
    <rc><c>C </c><c>   3</c></rc>
    <rc><c>C </c><c>   3</c></rc>
    <rc><c>C </c><c>   3</c></rc>
    <rc><c>C </c><c>   3</c></rc>
    <rc><c>C </c><c>   3</c></rc>
    <rc><c>C </c><c>   3</c></rc>
    <rc><c>C </c><c>   3</c></rc>
    <rc><c>C </c><c>   3</c></rc>
    <rc><c>C </c><c>   3</c></rc>
    <rc><c>C </c><c>   3</c></rc>
    <rc><c>C </c><c>   3</c></rc>
    <rc><c>C </c><c>   3</c></rc>
    <rc><c>C </c><c>   3</c></rc>
    <rc><c>C </c><c>   3</c></rc>
   </set>
  </array>
  <array name="atomtypes" >
   <dimension dim="1">type</dimension>
   <field type="int">atomspertype</field>
   <field type="string">element</field>
   <field>mass</field>
   <field>valence</field>
   <field type="string">pseudopotential</field>
   <set>
    <rc><c>  32</c><c>Sc</c><c>     44.95600000</c><c>     11.00000000</c><c>  PAW_PBE Sc_sv 07Sep2000               </c></rc>
    <rc><c>  32</c><c>Cl</c><c>     35.45300000</c><c>      7.00000000</c><c>  PAW_PBE Cl 06Sep2000                  </c></rc>
    <rc><c>  16</c><c>C </c><c>     12.01100000</c><c>      4.00000000</c><c>  PAW_PBE C 08Apr2002                   </c></rc>
   </set>
  </array>
 </atominfo>
 <structure name="initialpos" >
  <crystal>
   <varray name="basis" >
    <v>      13.79398668       0.00000000       0.00000000 </v>
    <v>      -6.89699334      11.94594288       0.00000000 </v>
    <v>       0.00000000       0.00000000      27.81022107 </v>
   </varray>
   <i name="volume">   4582.62876984 </i>
   <varray name="rec_basis" >
    <v>       0.07249536       0.04185521       0.00000000 </v>
    <v>       0.00000000       0.08371043       0.00000000 </v>
    <v>       0.00000000       0.00000000       0.03595800 </v>
   </varray>
  </crystal>
  <varray name="positions" >
   <v>       0.08021345       0.16015010       0.54320710 </v>
   <v>       0.08604385       0.42596745       0.53951987 </v>
   <v>       0.07284324       0.66444348       0.54456689 </v>
   <v>       0.09353603       0.91662521       0.54675948 </v>
   <v>       0.33060915       0.17349269       0.54266577 </v>
   <v>       0.33388161       0.41742324       0.54072777 </v>
   <v>       0.32736873       0.65871545       0.54232906 </v>
   <v>       0.33212513       0.90421697       0.54864364 </v>
   <v>       0.58273727       0.16529813       0.54398473 </v>
   <v>       0.58589498       0.41259216       0.54372402 </v>
   <v>       0.57763110       0.65706308       0.54625502 </v>
   <v>       0.58636688       0.90992214       0.55070263 </v>
   <v>       0.83571667       0.17348719       0.54202643 </v>
   <v>       0.82802101       0.42418426       0.54077883 </v>
   <v>       0.83229987       0.66644923       0.54443642 </v>
   <v>       0.82404536       0.90462713       0.54506861 </v>
   <v>       0.15095533       0.07012450       0.45798763 </v>
   <v>       0.15729381       0.33097783       0.45290148 </v>
   <v>       0.16380438       0.58724048       0.45707141 </v>
   <v>       0.17284831       0.83932835       0.45941882 </v>
   <v>       0.40563429       0.07274401       0.45418388 </v>
   <v>       0.41753988       0.33232062       0.44942365 </v>
   <v>       0.42043550       0.58548518       0.45238884 </v>
   <v>       0.42057777       0.83138387       0.45378375 </v>
   <v>       0.66891601       0.07335792       0.45521607 </v>
   <v>       0.66075642       0.32646300       0.45466137 </v>
   <v>       0.66903617       0.59299323       0.45746784 </v>
   <v>       0.66805693       0.84302421       0.45529235 </v>
   <v>       0.91650906       0.08018242       0.45885965 </v>
   <v>       0.91069461       0.33414852       0.45384989 </v>
   <v>       0.91775722       0.58900325       0.45649193 </v>
   <v>       0.91580725       0.82936731       0.45672896 </v>
   <v>       0.05969164       0.15828317       0.39301687 </v>
   <v>       0.08279671       0.43080743       0.39684669 </v>
   <v>       0.08327938       0.66754779       0.40155425 </v>
   <v>       0.09591530       0.91014162       0.39825597 </v>
   <v>       0.32144891       0.15174471       0.39717899 </v>
   <v>       0.32351265       0.41856387       0.38960287 </v>
   <v>       0.33740305       0.66754084       0.39332239 </v>
   <v>       0.34031285       0.91671447       0.39770672 </v>
   <v>       0.59261915       0.16811951       0.39304303 </v>
   <v>       0.58967463       0.40373626       0.39226066 </v>
   <v>       0.59051914       0.65428507       0.39330867 </v>
   <v>       0.59086020       0.92141855       0.39218665 </v>
   <v>       0.83244661       0.16860647       0.39543327 </v>
   <v>       0.83055324       0.42094649       0.39553434 </v>
   <v>       0.84802931       0.67200382       0.39572358 </v>
   <v>       0.83156086       0.89971572       0.39572116 </v>
   <v>       0.16609717       0.09486968       0.60375931 </v>
   <v>       0.14995472       0.34193378       0.60232135 </v>
   <v>       0.17572380       0.58817872       0.60329473 </v>
   <v>       0.18324110       0.84061870       0.61026120 </v>
   <v>       0.40479042       0.08022899       0.60193153 </v>
   <v>       0.41029361       0.34176344       0.60305120 </v>
   <v>       0.41967109       0.59344590       0.60854707 </v>
   <v>       0.43086891       0.83835106       0.60864260 </v>
   <v>       0.66570707       0.08654348       0.60696097 </v>
   <v>       0.67506542       0.34118563       0.60629053 </v>
   <v>       0.67578468       0.59307912       0.60582117 </v>
   <v>       0.65467937       0.83143142       0.60943528 </v>
   <v>       0.92450362       0.07582860       0.60234748 </v>
   <v>       0.92671202       0.34230821       0.60662798 </v>
   <v>       0.92091037       0.59264078       0.60849087 </v>
   <v>       0.93860750       0.84273041       0.60581714 </v>
   <v>       0.99545782       0.99204094       0.50249809 </v>
   <v>       0.00362799       0.25294644       0.49721886 </v>
   <v>       0.99818961       0.50774729       0.49525277 </v>
   <v>       0.99610913       0.74148537       0.50324374 </v>
   <v>       0.24581462       0.99842249       0.50125816 </v>
   <v>       0.24758724       0.25274236       0.49607584 </v>
   <v>       0.25163180       0.51066152       0.49754215 </v>
   <v>       0.26223509       0.76141806       0.50195606 </v>
   <v>       0.49986230       0.99850227       0.50094265 </v>
   <v>       0.49245918       0.24925888       0.49646555 </v>
   <v>       0.49902645       0.50874067       0.49908649 </v>
   <v>       0.49959937       0.74362905       0.50020629 </v>
   <v>       0.73837355       0.99573447       0.50064193 </v>
   <v>       0.75527935       0.25434072       0.49923489 </v>
   <v>       0.74867005       0.49968244       0.49864093 </v>
   <v>       0.75220325       0.74604555       0.50076251 </v>
  </varray>
  <varray name="velocities" >
   <v>       0.00000000       0.00000000       0.00000000 </v>
   <v>       0.00000000       0.00000000       0.00000000 </v>
   <v>       0.00000000       0.00000000       0.00000000 </v>
   <v>       0.00000000       0.00000000       0.00000000 </v>
   <v>       0.00000000       0.00000000       0.00000000 </v>
   <v>       0.00000000       0.00000000       0.00000000 </v>
   <v>       0.00000000       0.00000000       0.00000000 </v>
   <v>       0.00000000       0.00000000       0.00000000 </v>
   <v>       0.00000000       0.00000000       0.00000000 </v>
   <v>       0.00000000       0.00000000       0.00000000 </v>
   <v>       0.00000000       0.00000000       0.00000000 </v>
   <v>       0.00000000       0.00000000       0.00000000 </v>
   <v>       0.00000000       0.00000000       0.00000000 </v>
   <v>       0.00000000       0.00000000       0.00000000 </v>
   <v>       0.00000000       0.00000000       0.00000000 </v>
   <v>       0.00000000       0.00000000       0.00000000 </v>
   <v>       0.00000000       0.00000000       0.00000000 </v>
   <v>       0.00000000       0.00000000       0.00000000 </v>
   <v>       0.00000000       0.00000000       0.00000000 </v>
   <v>       0.00000000       0.00000000       0.00000000 </v>
   <v>       0.00000000       0.00000000       0.00000000 </v>
   <v>       0.00000000       0.00000000       0.00000000 </v>
   <v>       0.00000000       0.00000000       0.00000000 </v>
   <v>       0.00000000       0.00000000       0.00000000 </v>
   <v>       0.00000000       0.00000000       0.00000000 </v>
   <v>       0.00000000       0.00000000       0.00000000 </v>
   <v>       0.00000000       0.00000000       0.00000000 </v>
   <v>       0.00000000       0.00000000       0.00000000 </v>
   <v>       0.00000000       0.00000000       0.00000000 </v>
   <v>       0.00000000       0.00000000       0.00000000 </v>
   <v>       0.00000000       0.00000000       0.00000000 </v>
   <v>       0.00000000       0.00000000       0.00000000 </v>
   <v>       0.00000000       0.00000000       0.00000000 </v>
   <v>       0.00000000       0.00000000       0.00000000 </v>
   <v>       0.00000000       0.00000000       0.00000000 </v>
   <v>       0.00000000       0.00000000       0.00000000 </v>
   <v>       0.00000000       0.00000000       0.00000000 </v>
   <v>       0.00000000       0.00000000       0.00000000 </v>
   <v>       0.00000000       0.00000000       0.00000000 </v>
   <v>       0.00000000       0.00000000       0.00000000 </v>
   <v>       0.00000000       0.00000000       0.00000000 </v>
   <v>       0.00000000       0.00000000       0.00000000 </v>
   <v>       0.00000000       0.00000000       0.00000000 </v>
   <v>       0.00000000       0.00000000       0.00000000 </v>
   <v>       0.00000000       0.00000000       0.00000000 </v>
   <v>       0.00000000       0.00000000       0.00000000 </v>
   <v>       0.00000000       0.00000000       0.00000000 </v>
   <v>       0.00000000       0.00000000       0.00000000 </v>
   <v>       0.00000000       0.00000000       0.00000000 </v>
   <v>       0.00000000       0.00000000       0.00000000 </v>
   <v>       0.00000000       0.00000000       0.00000000 </v>
   <v>       0.00000000       0.00000000       0.00000000 </v>
   <v>       0.00000000       0.00000000       0.00000000 </v>
   <v>       0.00000000       0.00000000       0.00000000 </v>
   <v>       0.00000000       0.00000000       0.00000000 </v>
   <v>       0.00000000       0.00000000       0.00000000 </v>
   <v>       0.00000000       0.00000000       0.00000000 </v>
   <v>       0.00000000       0.00000000       0.00000000 </v>
   <v>       0.00000000       0.00000000       0.00000000 </v>
   <v>       0.00000000       0.00000000       0.00000000 </v>
   <v>       0.00000000       0.00000000       0.00000000 </v>
   <v>       0.00000000       0.00000000       0.00000000 </v>
   <v>       0.00000000       0.00000000       0.00000000 </v>
   <v>       0.00000000       0.00000000       0.00000000 </v>
   <v>       0.00000000       0.00000000       0.00000000 </v>
   <v>       0.00000000       0.00000000       0.00000000 </v>
   <v>       0.00000000       0.00000000       0.00000000 </v>
   <v>       0.00000000       0.00000000       0.00000000 </v>
   <v>       0.00000000       0.00000000       0.00000000 </v>
   <v>       0.00000000       0.00000000       0.00000000 </v>
   <v>       0.00000000       0.00000000       0.00000000 </v>
   <v>       0.00000000       0.00000000       0.00000000 </v>
   <v>       0.00000000       0.00000000       0.00000000 </v>
   <v>       0.00000000       0.00000000       0.00000000 </v>
   <v>       0.00000000       0.00000000       0.00000000 </v>
   <v>       0.00000000       0.00000000       0.00000000 </v>
   <v>       0.00000000       0.00000000       0.00000000 </v>
   <v>       0.00000000       0.00000000       0.00000000 </v>
   <v>       0.00000000       0.00000000       0.00000000 </v>
   <v>       0.00000000       0.00000000       0.00000000 </v>
  </varray>
 </structure>
 <calculation>
  <scstep>
   <time name="dav">   50.67   50.69</time>
   <time name="total">   51.52   51.55</time>
   <energy>
    <i name="alphaZ">    784.57699423 </i>
    <i name="ewald"> 252534.61652632 </i>
    <i name="hartreedc">-300189.07055568 </i>
    <i name="XCdc">   2502.92640989 </i>
    <i name="pawpsdc">  43679.68029659 </i>
    <i name="pawaedc"> -43417.33247688 </i>
    <i name="eentropy">     -0.05721880 </i>
    <i name="bandstr">    114.22927143 </i>
    <i name="atom">  56210.72393729 </i>
    <i name="e_fr_energy">  12220.29318439 </i>
    <i name="e_wo_entrp">  12220.35040319 </i>
    <i name="e_0_energy">  12220.32179379 </i>
   </energy>
  </scstep>
  <scstep>
   <time name="dav">   57.30   57.31</time>
   <time name="total">   57.30   57.31</time>
   <energy>
    <i name="e_fr_energy">   1735.82370584 </i>
    <i name="e_wo_entrp">   1735.86195321 </i>
    <i name="e_0_energy">   1735.84282953 </i>
   </energy>
  </scstep>
  <scstep>
   <time name="dav">   71.70   71.71</time>
   <time name="total">   71.70   71.71</time>
   <energy>
    <i name="e_fr_energy">   -406.41362018 </i>
    <i name="e_wo_entrp">   -406.41356549 </i>
    <i name="e_0_energy">   -406.41359284 </i>
   </energy>
  </scstep>
  <scstep>
   <time name="dav">   65.35   65.37</time>
   <time name="total">   65.35   65.37</time>
   <energy>
    <i name="e_fr_energy">   -643.70001276 </i>
    <i name="e_wo_entrp">   -643.70001276 </i>
    <i name="e_0_energy">   -643.70001276 </i>
   </energy>
  </scstep>
  <scstep>
   <time name="dav">   65.29   65.30</time>
   <time name="total">   69.29   69.30</time>
   <energy>
    <i name="e_fr_energy">   -654.16780414 </i>
    <i name="e_wo_entrp">   -654.16780414 </i>
    <i name="e_0_energy">   -654.16780414 </i>
   </energy>
  </scstep>
  <scstep>
   <time name="dav">   63.21   63.21</time>
   <time name="total">   68.03   68.04</time>
   <energy>
    <i name="e_fr_energy">   -523.98378587 </i>
    <i name="e_wo_entrp">   -523.98378559 </i>
    <i name="e_0_energy">   -523.98378573 </i>
   </energy>
  </scstep>
  <scstep>
   <time name="dav">   63.59   63.59</time>
   <time name="total">   68.40   68.42</time>
   <energy>
    <i name="e_fr_energy">   -528.53543761 </i>
    <i name="e_wo_entrp">   -528.53543761 </i>
    <i name="e_0_energy">   -528.53543761 </i>
   </energy>
  </scstep>
  <scstep>
   <time name="dav">   63.00   63.01</time>
   <time name="total">   67.82   67.83</time>
   <energy>
    <i name="e_fr_energy">   -526.37881811 </i>
    <i name="e_wo_entrp">   -526.37881811 </i>
    <i name="e_0_energy">   -526.37881811 </i>
   </energy>
  </scstep>
  <scstep>
   <time name="dav">   58.87   58.88</time>
   <time name="total">   63.69   63.70</time>
   <energy>
    <i name="e_fr_energy">   -525.88183454 </i>
    <i name="e_wo_entrp">   -525.88183454 </i>
    <i name="e_0_energy">   -525.88183454 </i>
   </energy>
  </scstep>
  <scstep>
   <time name="dav">   62.25   62.25</time>
   <time name="total">   67.07   67.08</time>
   <energy>
    <i name="e_fr_energy">   -525.75776602 </i>
    <i name="e_wo_entrp">   -525.75776602 </i>
    <i name="e_0_energy">   -525.75776602 </i>
   </energy>
  </scstep>
  <scstep>
   <time name="dav">   61.96   61.96</time>
   <time name="total">   66.76   66.77</time>
   <energy>
    <i name="e_fr_energy">   -525.73837124 </i>
    <i name="e_wo_entrp">   -525.73837124 </i>
    <i name="e_0_energy">   -525.73837124 </i>
   </energy>
  </scstep>
  <scstep>
   <time name="dav">   64.89   64.89</time>
   <time name="total">   69.70   69.71</time>
   <energy>
    <i name="e_fr_energy">   -525.72551877 </i>
    <i name="e_wo_entrp">   -525.72551877 </i>
    <i name="e_0_energy">   -525.72551877 </i>
   </energy>
  </scstep>
  <scstep>
   <time name="dav">   58.83   58.83</time>
   <time name="total">   63.64   63.65</time>
   <energy>
    <i name="e_fr_energy">   -525.72242175 </i>
    <i name="e_wo_entrp">   -525.72242175 </i>
    <i name="e_0_energy">   -525.72242175 </i>
   </energy>
  </scstep>
  <scstep>
   <time name="dav">   58.47   58.47</time>
   <time name="total">   63.28   63.29</time>
   <energy>
    <i name="e_fr_energy">   -525.72063241 </i>
    <i name="e_wo_entrp">   -525.72063241 </i>
    <i name="e_0_energy">   -525.72063241 </i>
   </energy>
  </scstep>
  <scstep>
   <time name="dav">   60.64   60.64</time>
   <time name="total">   65.45   65.46</time>
   <energy>
    <i name="e_fr_energy">   -525.72206970 </i>
    <i name="e_wo_entrp">   -525.72206970 </i>
    <i name="e_0_energy">   -525.72206970 </i>
   </energy>
  </scstep>
  <scstep>
   <time name="dav">   62.61   62.61</time>
   <time name="total">   67.42   67.43</time>
   <energy>
    <i name="e_fr_energy">   -525.72408874 </i>
    <i name="e_wo_entrp">   -525.72408874 </i>
    <i name="e_0_energy">   -525.72408874 </i>
   </energy>
  </scstep>
  <scstep>
   <time name="dav">   57.37   57.38</time>
   <time name="total">   62.20   62.21</time>
   <energy>
    <i name="e_fr_energy">   -525.72740049 </i>
    <i name="e_wo_entrp">   -525.72740049 </i>
    <i name="e_0_energy">   -525.72740049 </i>
   </energy>
  </scstep>
  <scstep>
   <time name="dav">   56.33   56.33</time>
   <time name="total">   61.16   61.17</time>
   <energy>
    <i name="e_fr_energy">   -525.72958894 </i>
    <i name="e_wo_entrp">   -525.72958894 </i>
    <i name="e_0_energy">   -525.72958894 </i>
   </energy>
  </scstep>
  <scstep>
   <time name="dav">   55.71   55.72</time>
   <time name="total">   60.54   60.55</time>
   <energy>
    <i name="e_fr_energy">   -525.73067913 </i>
    <i name="e_wo_entrp">   -525.73067913 </i>
    <i name="e_0_energy">   -525.73067913 </i>
   </energy>
  </scstep>
  <scstep>
   <time name="dav">   50.15   50.15</time>
   <time name="total">   54.97   54.99</time>
   <energy>
    <i name="e_fr_energy">   -525.73189835 </i>
    <i name="e_wo_entrp">   -525.73189835 </i>
    <i name="e_0_energy">   -525.73189835 </i>
   </energy>
  </scstep>
  <scstep>
   <time name="dav">   48.46   48.47</time>
   <time name="total">   53.29   53.30</time>
   <energy>
    <i name="e_fr_energy">   -525.73239390 </i>
    <i name="e_wo_entrp">   -525.73239390 </i>
    <i name="e_0_energy">   -525.73239390 </i>
   </energy>
  </scstep>
  <scstep>
   <time name="dav">   46.92   46.92</time>
   <time name="total">   51.74   51.76</time>
   <energy>
    <i name="e_fr_energy">   -525.73272000 </i>
    <i name="e_wo_entrp">   -525.73272000 </i>
    <i name="e_0_energy">   -525.73272000 </i>
   </energy>
  </scstep>
  <scstep>
   <time name="dav">   44.30   44.30</time>
   <time name="total">   49.09   49.10</time>
   <energy>
    <i name="e_fr_energy">   -525.73322946 </i>
    <i name="e_wo_entrp">   -525.73322946 </i>
    <i name="e_0_energy">   -525.73322946 </i>
   </energy>
  </scstep>
  <scstep>
   <time name="dav">   40.54   40.54</time>
   <time name="total">   45.36   45.37</time>
   <energy>
    <i name="e_fr_energy">   -525.73351822 </i>
    <i name="e_wo_entrp">   -525.73351822 </i>
    <i name="e_0_energy">   -525.73351822 </i>
   </energy>
  </scstep>
  <scstep>
   <time name="dav">   40.14   40.14</time>
   <time name="total">   44.97   44.98</time>
   <energy>
    <i name="e_fr_energy">   -525.73360547 </i>
    <i name="e_wo_entrp">   -525.73360547 </i>
    <i name="e_0_energy">   -525.73360547 </i>
   </energy>
  </scstep>
  <scstep>
   <time name="dav">   40.98   40.99</time>
   <time name="total">   45.81   45.82</time>
   <energy>
    <i name="e_fr_energy">   -525.73370050 </i>
    <i name="e_wo_entrp">   -525.73370050 </i>
    <i name="e_0_energy">   -525.73370050 </i>
   </energy>
  </scstep>
  <scstep>
   <time name="dav">   35.27   35.27</time>
   <time name="total">   40.09   40.10</time>
   <energy>
    <i name="e_fr_energy">   -525.73372012 </i>
    <i name="e_wo_entrp">   -525.73372012 </i>
    <i name="e_0_energy">   -525.73372012 </i>
   </energy>
  </scstep>
  <scstep>
   <time name="dav">   33.65   33.65</time>
   <time name="total">   38.47   38.49</time>
   <energy>
    <i name="e_fr_energy">   -525.73372693 </i>
    <i name="e_wo_entrp">   -525.73372693 </i>
    <i name="e_0_energy">   -525.73372693 </i>
   </energy>
  </scstep>
  <scstep>
   <time name="dav">   35.93   35.94</time>
   <time name="total">   40.76   40.77</time>
   <energy>
    <i name="e_fr_energy">   -525.73374145 </i>
    <i name="e_wo_entrp">   -525.73374145 </i>
    <i name="e_0_energy">   -525.73374145 </i>
   </energy>
  </scstep>
  <scstep>
   <time name="dav">   36.18   36.18</time>
   <time name="total">   41.01   41.02</time>
   <energy>
    <i name="e_fr_energy">   -525.73375190 </i>
    <i name="e_wo_entrp">   -525.73375190 </i>
    <i name="e_0_energy">   -525.73375190 </i>
   </energy>
  </scstep>
  <scstep>
   <time name="dav">   33.03   33.03</time>
   <time name="total">   37.85   37.86</time>
   <energy>
    <i name="e_fr_energy">   -525.73375353 </i>
    <i name="e_wo_entrp">   -525.73375353 </i>
    <i name="e_0_energy">   -525.73375353 </i>
   </energy>
  </scstep>
  <scstep>
   <time name="dav">   34.02   34.02</time>
   <time name="total">   38.86   38.88</time>
   <energy>
    <i name="e_fr_energy">   -525.73375531 </i>
    <i name="e_wo_entrp">   -525.73375531 </i>
    <i name="e_0_energy">   -525.73375531 </i>
   </energy>
  </scstep>
  <scstep>
   <time name="dav">   32.79   32.79</time>
   <time name="total">   37.61   37.62</time>
   <energy>
    <i name="e_fr_energy">   -525.73375645 </i>
    <i name="e_wo_entrp">   -525.73375645 </i>
    <i name="e_0_energy">   -525.73375645 </i>
   </energy>
  </scstep>
  <scstep>
   <time name="dav">   32.95   32.96</time>
   <time name="total">   33.79   33.80</time>
   <energy>
    <i name="alphaZ">    784.57699423 </i>
    <i name="ewald"> 252534.61652632 </i>
    <i name="hartreedc">-300501.82065892 </i>
    <i name="XCdc">   2490.11700641 </i>
    <i name="pawpsdc">  59533.79103324 </i>
    <i name="pawaedc"> -59366.25518772 </i>
    <i name="eentropy">     -0.00000000 </i>
    <i name="bandstr"> -12211.48340801 </i>
    <i name="atom">  56210.72393729 </i>
    <i name="e_fr_energy">   -525.73375715 </i>
    <i name="e_wo_entrp">   -525.73375715 </i>
    <i name="e_0_energy">   -525.73375715 </i>
   </energy>
  </scstep>
  <structure>
   <crystal>
    <varray name="basis" >
     <v>      13.79398668       0.00000000       0.00000000 </v>
     <v>      -6.89699334      11.94594288       0.00000000 </v>
     <v>       0.00000000       0.00000000      27.81022107 </v>
    </varray>
    <i name="volume">   4582.62876984 </i>
    <varray name="rec_basis" >
     <v>       0.07249536       0.04185521       0.00000000 </v>
     <v>       0.00000000       0.08371043       0.00000000 </v>
     <v>       0.00000000       0.00000000       0.03595800 </v>
    </varray>
   </crystal>
   <varray name="positions" >
    <v>       0.08021345       0.16015010       0.54320710 </v>
    <v>       0.08604385       0.42596745       0.53951987 </v>
    <v>       0.07284324       0.66444348       0.54456689 </v>
    <v>       0.09353603       0.91662521       0.54675948 </v>
    <v>       0.33060915       0.17349269       0.54266577 </v>
    <v>       0.33388161       0.41742324       0.54072777 </v>
    <v>       0.32736873       0.65871545       0.54232906 </v>
    <v>       0.33212513       0.90421697       0.54864364 </v>
    <v>       0.58273727       0.16529813       0.54398473 </v>
    <v>       0.58589498       0.41259216       0.54372402 </v>
    <v>       0.57763110       0.65706308       0.54625502 </v>
    <v>       0.58636688       0.90992214       0.55070263 </v>
    <v>       0.83571667       0.17348719       0.54202643 </v>
    <v>       0.82802101       0.42418426       0.54077883 </v>
    <v>       0.83229987       0.66644923       0.54443642 </v>
    <v>       0.82404536       0.90462713       0.54506861 </v>
    <v>       0.15095533       0.07012450       0.45798763 </v>
    <v>       0.15729381       0.33097783       0.45290148 </v>
    <v>       0.16380438       0.58724048       0.45707141 </v>
    <v>       0.17284831       0.83932835       0.45941882 </v>
    <v>       0.40563429       0.07274401       0.45418388 </v>
    <v>       0.41753988       0.33232062       0.44942365 </v>
    <v>       0.42043550       0.58548518       0.45238884 </v>
    <v>       0.42057777       0.83138387       0.45378375 </v>
    <v>       0.66891601       0.07335792       0.45521607 </v>
    <v>       0.66075642       0.32646300       0.45466137 </v>
    <v>       0.66903617       0.59299323       0.45746784 </v>
    <v>       0.66805693       0.84302421       0.45529235 </v>
    <v>       0.91650906       0.08018242       0.45885965 </v>
    <v>       0.91069461       0.33414852       0.45384989 </v>
    <v>       0.91775722       0.58900325       0.45649193 </v>
    <v>       0.91580725       0.82936731       0.45672896 </v>
    <v>       0.05969164       0.15828317       0.39301687 </v>
    <v>       0.08279671       0.43080743       0.39684669 </v>
    <v>       0.08327938       0.66754779       0.40155425 </v>
    <v>       0.09591530       0.91014162       0.39825597 </v>
    <v>       0.32144891       0.15174471       0.39717899 </v>
    <v>       0.32351265       0.41856387       0.38960287 </v>
    <v>       0.33740305       0.66754084       0.39332239 </v>
    <v>       0.34031285       0.91671447       0.39770672 </v>
    <v>       0.59261915       0.16811951       0.39304303 </v>
    <v>       0.58967463       0.40373626       0.39226066 </v>
    <v>       0.59051914       0.65428507       0.39330867 </v>
    <v>       0.59086020       0.92141855       0.39218665 </v>
    <v>       0.83244661       0.16860647       0.39543327 </v>
    <v>       0.83055324       0.42094649       0.39553434 </v>
    <v>       0.84802931       0.67200382       0.39572358 </v>
    <v>       0.83156086       0.89971572       0.39572116 </v>
    <v>       0.16609717       0.09486968       0.60375931 </v>
    <v>       0.14995472       0.34193378       0.60232135 </v>
    <v>       0.17572380       0.58817872       0.60329473 </v>
    <v>       0.18324110       0.84061870       0.61026120 </v>
    <v>       0.40479042       0.08022899       0.60193153 </v>
    <v>       0.41029361       0.34176344       0.60305120 </v>
    <v>       0.41967109       0.59344590       0.60854707 </v>
    <v>       0.43086891       0.83835106       0.60864260 </v>
    <v>       0.66570707       0.08654348       0.60696097 </v>
    <v>       0.67506542       0.34118563       0.60629053 </v>
    <v>       0.67578468       0.59307912       0.60582117 </v>
    <v>       0.65467937       0.83143142       0.60943528 </v>
    <v>       0.92450362       0.07582860       0.60234748 </v>
    <v>       0.92671202       0.34230821       0.60662798 </v>
    <v>       0.92091037       0.59264078       0.60849087 </v>
    <v>       0.93860750       0.84273041       0.60581714 </v>
    <v>       0.99545782       0.99204094       0.50249809 </v>
    <v>       0.00362799       0.25294644       0.49721886 </v>
    <v>       0.99818961       0.50774729       0.49525277 </v>
    <v>       0.99610913       0.74148537       0.50324374 </v>
    <v>       0.24581462       0.99842249       0.50125816 </v>
    <v>       0.24758724       0.25274236       0.49607584 </v>
    <v>       0.25163180       0.51066152       0.49754215 </v>
    <v>       0.26223509       0.76141806       0.50195606 </v>
    <v>       0.49986230       0.99850227       0.50094265 </v>
    <v>       0.49245918       0.24925888       0.49646555 </v>
    <v>       0.49902645       0.50874067       0.49908649 </v>
    <v>       0.49959937       0.74362905       0.50020629 </v>
    <v>       0.73837355       0.99573447       0.50064193 </v>
    <v>       0.75527935       0.25434072       0.49923489 </v>
    <v>       0.74867005       0.49968244       0.49864093 </v>
    <v>       0.75220325       0.74604555       0.50076251 </v>
   </varray>
  </structure>
  <varray name="forces" >
   <v>      -0.27052921       1.25520304       0.18121445 </v>
   <v>      -0.19966594      -0.64912369       0.88025223 </v>
   <v>       0.99743664       0.03852791       0.75778913 </v>
   <v>      -0.59158020      -0.13998685       0.39246907 </v>
   <v>       0.31753996      -0.31518891      -0.23248252 </v>
   <v>      -0.69972177       0.09504540       0.05794573 </v>
   <v>       0.73903909       1.09263340       0.49556491 </v>
   <v>       0.66591888       1.15030794      -0.42556205 </v>
   <v>      -0.15215279      -0.77289638      -0.07483147 </v>
   <v>      -0.65899296       0.29671698      -0.20681357 </v>
   <v>      -0.55836514       0.59970371      -0.20595217 </v>
   <v>      -1.24782933       0.58396120      -1.56984858 </v>
   <v>      -0.06789910       0.17811695       1.15754131 </v>
   <v>       1.18304088      -0.69168506       0.90741432 </v>
   <v>       0.26223096       0.11395145       0.55635053 </v>
   <v>       0.60875091       0.53608964       0.64991152 </v>
   <v>       0.86027955       0.93479190      -0.64914087 </v>
   <v>       0.67552354       0.13732362      -0.33200860 </v>
   <v>       0.46122637       0.35758214      -0.67458823 </v>
   <v>       0.40566228      -0.93830689       0.15411930 </v>
   <v>       1.02866301       0.93059872       1.00052739 </v>
   <v>      -0.39029110      -0.16361974       0.34785690 </v>
   <v>      -0.25989138       0.07461951       0.25839342 </v>
   <v>      -0.16731475       0.02771009       1.28423022 </v>
   <v>      -1.57512645       1.05789409       0.21999105 </v>
   <v>       0.25405074       0.13428606      -0.35159255 </v>
   <v>       0.41693150      -1.15544307      -0.57132678 </v>
   <v>       0.13420382      -1.50244923       0.28453603 </v>
   <v>      -0.36849324       0.10195931      -0.72609620 </v>
   <v>       0.14728090       0.26048475      -0.28486787 </v>
   <v>      -0.07987640      -0.55817660      -0.53634529 </v>
   <v>       0.13512260       0.04149368       0.30789317 </v>
   <v>       0.78911196       0.06349570       0.26563774 </v>
   <v>       0.17473169      -0.53561874      -0.38291698 </v>
   <v>       0.12293825       0.54057400      -0.92852331 </v>
   <v>      -0.97161623       0.20998801      -0.41346335 </v>
   <v>      -0.19087899       0.51286515      -0.36967506 </v>
   <v>       0.42173344      -0.26923848       0.44009398 </v>
   <v>      -0.16145918       0.21681273       0.02551165 </v>
   <v>      -0.26574010      -0.33289248      -0.68775345 </v>
   <v>      -0.35741190      -0.41937632       0.37787001 </v>
   <v>      -0.86727280       0.51927537       0.07615176 </v>
   <v>      -0.60001331       0.47999742      -0.13822822 </v>
   <v>       0.03815842      -0.39870171       0.05144441 </v>
   <v>       0.18748412      -0.21289824       0.08913637 </v>
   <v>       0.23614028      -0.10288152      -0.01995984 </v>
   <v>      -0.63839421      -0.14157904      -0.19480420 </v>
   <v>      -0.30373028       0.67426245       0.05379337 </v>
   <v>       0.55664404      -0.21234980       0.17437271 </v>
   <v>       1.26412235      -0.37196782      -0.25028122 </v>
   <v>      -0.62746506      -0.04027593      -0.02493367 </v>
   <v>      -0.68557158      -0.45031611      -0.24182545 </v>
   <v>       0.44491737       0.72116237       0.10622215 </v>
   <v>       0.45464724      -0.15266788      -0.01453997 </v>
   <v>       0.07999832      -0.59671790      -0.58785179 </v>
   <v>      -0.84580274      -0.30037756      -0.03171518 </v>
   <v>       0.24701950       0.25824773      -0.41507229 </v>
   <v>      -0.39563049      -0.20884929      -0.41234786 </v>
   <v>      -0.17605657      -0.44460671       0.01713615 </v>
   <v>       1.36842607      -0.12175385       0.05251077 </v>
   <v>      -0.95687887       0.08345719       0.07420522 </v>
   <v>      -0.57955692      -0.22363717      -0.90458519 </v>
   <v>       0.07601257      -0.35031918      -0.48363916 </v>
   <v>      -0.95792755      -0.50171212       0.03201135 </v>
   <v>      -0.24229443       0.31910622      -0.61858338 </v>
   <v>      -0.69947047      -0.63679134       0.23843154 </v>
   <v>       0.37931357      -0.39870365       1.38616090 </v>
   <v>       0.00734531       1.20430050      -0.26775341 </v>
   <v>      -0.12539280       0.09686389      -0.19347789 </v>
   <v>       0.06730799      -0.16876855       0.37423736 </v>
   <v>       0.09801080      -1.15107167       0.04752085 </v>
   <v>      -0.53009279      -1.09492325      -0.56106269 </v>
   <v>       0.14209805       0.34223254      -0.17030129 </v>
   <v>       0.50924704       0.33125687       0.59669898 </v>
   <v>       0.65819046      -0.90927096      -0.07244599 </v>
   <v>       0.27599238       0.73299802      -0.36563104 </v>
   <v>       1.64266199      -0.02217129       0.13406504 </v>
   <v>      -0.34764853      -0.28344641       0.30038820 </v>
   <v>      -0.51361332      -0.02244353       0.56090477 </v>
   <v>      -0.20750597       0.65730724       0.22432267 </v>
  </varray>
  <varray name="stress" >
   <v>       3.35923077      -1.00958611       0.95903873 </v>
   <v>      -1.00958610       2.00581256      -2.10112308 </v>
   <v>       0.95903870      -2.10112310      -0.46963514 </v>
  </varray>
  <energy>
   <i name="e_fr_energy">   -525.73375715 </i>
   <i name="e_wo_entrp">   -525.73375715 </i>
   <i name="e_0_energy">     -0.00000000 </i>
  </energy>
  <time name="totalsc"> 1952.79 1953.23</time>
  <eigenvalues>
   <array>
    <dimension dim="1">band</dimension>
    <dimension dim="2">kpoint</dimension>
    <dimension dim="3">spin</dimension>
    <field>eigene</field>
    <field>occ</field>
    <set>
     <set comment="spin 1">
      <set comment="kpoint 1">
       <r>  -51.8136    1.0000 </r>
       <r>  -51.7670    1.0000 </r>
       <r>  -51.7532    1.0000 </r>
       <r>  -51.6711    1.0000 </r>
       <r>  -51.6511    1.0000 </r>
       <r>  -51.6453    1.0000 </r>
       <r>  -51.6096    1.0000 </r>
       <r>  -51.5461    1.0000 </r>
       <r>  -51.5260    1.0000 </r>
       <r>  -51.5155    1.0000 </r>
       <r>  -51.5101    1.0000 </r>
       <r>  -51.5073    1.0000 </r>
       <r>  -51.5044    1.0000 </r>
       <r>  -51.4883    1.0000 </r>
       <r>  -51.4704    1.0000 </r>
       <r>  -51.4456    1.0000 </r>
       <r>  -51.4268    1.0000 </r>
       <r>  -51.3955    1.0000 </r>
       <r>  -51.3931    1.0000 </r>
       <r>  -51.3763    1.0000 </r>
       <r>  -51.3736    1.0000 </r>
       <r>  -51.3527    1.0000 </r>
       <r>  -51.3524    1.0000 </r>
       <r>  -51.3464    1.0000 </r>
       <r>  -51.3371    1.0000 </r>
       <r>  -51.3234    1.0000 </r>
       <r>  -51.3207    1.0000 </r>
       <r>  -51.2982    1.0000 </r>
       <r>  -51.1927    1.0000 </r>
       <r>  -51.1764    1.0000 </r>
       <r>  -51.0175    1.0000 </r>
       <r>  -51.0000    1.0000 </r>
       <r>  -30.5043    1.0000 </r>
       <r>  -30.4987    1.0000 </r>
       <r>  -30.4652    1.0000 </r>
       <r>  -30.4639    1.0000 </r>
       <r>  -30.4561    1.0000 </r>
       <r>  -30.4443    1.0000 </r>
       <r>  -30.4401    1.0000 </r>
       <r>  -30.4135    1.0000 </r>
       <r>  -30.4083    1.0000 </r>
       <r>  -30.4005    1.0000 </r>
       <r>  -30.3620    1.0000 </r>
       <r>  -30.3500    1.0000 </r>
       <r>  -30.3425    1.0000 </r>
       <r>  -30.3312    1.0000 </r>
       <r>  -30.3208    1.0000 </r>
       <r>  -30.3141    1.0000 </r>
       <r>  -30.2975    1.0000 </r>
       <r>  -30.2908    1.0000 </r>
       <r>  -30.2871    1.0000 </r>
       <r>  -30.2795    1.0000 </r>
       <r>  -30.2725    1.0000 </r>
       <r>  -30.2639    1.0000 </r>
       <r>  -30.2538    1.0000 </r>
       <r>  -30.2485    1.0000 </r>
       <r>  -30.2398    1.0000 </r>
       <r>  -30.2359    1.0000 </r>
       <r>  -30.2292    1.0000 </r>
       <r>  -30.2190    1.0000 </r>
       <r>  -30.2088    1.0000 </r>
       <r>  -30.2011    1.0000 </r>
       <r>  -30.1976    1.0000 </r>
       <r>  -30.1835    1.0000 </r>
       <r>  -30.1815    1.0000 </r>
       <r>  -30.1763    1.0000 </r>
       <r>  -30.1711    1.0000 </r>
       <r>  -30.1683    1.0000 </r>
       <r>  -30.1594    1.0000 </r>
       <r>  -30.1543    1.0000 </r>
       <r>  -30.1502    1.0000 </r>
       <r>  -30.1464    1.0000 </r>
       <r>  -30.1415    1.0000 </r>
       <r>  -30.1335    1.0000 </r>
       <r>  -30.1288    1.0000 </r>
       <r>  -30.1272    1.0000 </r>
       <r>  -30.1151    1.0000 </r>
       <r>  -30.1112    1.0000 </r>
       <r>  -30.1076    1.0000 </r>
       <r>  -30.1050    1.0000 </r>
       <r>  -30.0978    1.0000 </r>
       <r>  -30.0930    1.0000 </r>
       <r>  -30.0901    1.0000 </r>
       <r>  -30.0805    1.0000 </r>
       <r>  -30.0790    1.0000 </r>
       <r>  -30.0725    1.0000 </r>
       <r>  -30.0639    1.0000 </r>
       <r>  -30.0608    1.0000 </r>
       <r>  -30.0583    1.0000 </r>
       <r>  -30.0542    1.0000 </r>
       <r>  -30.0478    1.0000 </r>
       <r>  -30.0466    1.0000 </r>
       <r>  -30.0372    1.0000 </r>
       <r>  -30.0303    1.0000 </r>
       <r>  -30.0274    1.0000 </r>
       <r>  -30.0237    1.0000 </r>
       <r>  -30.0143    1.0000 </r>
       <r>  -30.0118    1.0000 </r>
       <r>  -30.0100    1.0000 </r>
       <r>  -29.9970    1.0000 </r>
       <r>  -29.9898    1.0000 </r>
       <r>  -29.9869    1.0000 </r>
       <r>  -29.9785    1.0000 </r>
       <r>  -29.9737    1.0000 </r>
       <r>  -29.9692    1.0000 </r>
       <r>  -29.9671    1.0000 </r>
       <r>  -29.9646    1.0000 </r>
       <r>  -29.9569    1.0000 </r>
       <r>  -29.9508    1.0000 </r>
       <r>  -29.9410    1.0000 </r>
       <r>  -29.9366    1.0000 </r>
       <r>  -29.9345    1.0000 </r>
       <r>  -29.9247    1.0000 </r>
       <r>  -29.9147    1.0000 </r>
       <r>  -29.9057    1.0000 </r>
       <r>  -29.8991    1.0000 </r>
       <r>  -29.8811    1.0000 </r>
       <r>  -29.8741    1.0000 </r>
       <r>  -29.8467    1.0000 </r>
       <r>  -29.8263    1.0000 </r>
       <r>  -29.8031    1.0000 </r>
       <r>  -29.7973    1.0000 </r>
       <r>  -29.6886    1.0000 </r>
       <r>  -29.6866    1.0000 </r>
       <r>  -29.6746    1.0000 </r>
       <r>  -29.6583    1.0000 </r>
       <r>  -29.6525    1.0000 </r>
       <r>  -29.6451    1.0000 </r>
       <r>  -18.6130    1.0000 </r>
       <r>  -18.4312    1.0000 </r>
       <r>  -18.4084    1.0000 </r>
       <r>  -18.3835    1.0000 </r>
       <r>  -18.2996    1.0000 </r>
       <r>  -18.2781    1.0000 </r>
       <r>  -18.2293    1.0000 </r>
       <r>  -18.2026    1.0000 </r>
       <r>  -18.1880    1.0000 </r>
       <r>  -18.1624    1.0000 </r>
       <r>  -18.1294    1.0000 </r>
       <r>  -18.1126    1.0000 </r>
       <r>  -18.0749    1.0000 </r>
       <r>  -18.0675    1.0000 </r>
       <r>  -18.0241    1.0000 </r>
       <r>  -18.0183    1.0000 </r>
       <r>  -17.9591    1.0000 </r>
       <r>  -17.9486    1.0000 </r>
       <r>  -17.9312    1.0000 </r>
       <r>  -17.9155    1.0000 </r>
       <r>  -17.8705    1.0000 </r>
       <r>  -17.8613    1.0000 </r>
       <r>  -17.8428    1.0000 </r>
       <r>  -17.7952    1.0000 </r>
       <r>  -17.7547    1.0000 </r>
       <r>  -17.7506    1.0000 </r>
       <r>  -17.7372    1.0000 </r>
       <r>  -17.7162    1.0000 </r>
       <r>  -17.6309    1.0000 </r>
       <r>  -17.6164    1.0000 </r>
       <r>  -17.5896    1.0000 </r>
       <r>  -17.3302    1.0000 </r>
       <r>  -11.8550    1.0000 </r>
       <r>  -11.5100    1.0000 </r>
       <r>  -11.4775    1.0000 </r>
       <r>  -11.4635    1.0000 </r>
       <r>  -11.4109    1.0000 </r>
       <r>  -11.3609    1.0000 </r>
       <r>  -11.3434    1.0000 </r>
       <r>  -11.0615    1.0000 </r>
       <r>  -11.0557    1.0000 </r>
       <r>  -10.9786    1.0000 </r>
       <r>  -10.9611    1.0000 </r>
       <r>  -10.9435    1.0000 </r>
       <r>  -10.9016    1.0000 </r>
       <r>  -10.8672    1.0000 </r>
       <r>  -10.7932    1.0000 </r>
       <r>  -10.6826    1.0000 </r>
       <r>   -8.0448    1.0000 </r>
       <r>   -7.9867    1.0000 </r>
       <r>   -7.9437    1.0000 </r>
       <r>   -7.7782    1.0000 </r>
       <r>   -7.7497    1.0000 </r>
       <r>   -7.7313    1.0000 </r>
       <r>   -7.6013    1.0000 </r>
       <r>   -7.5472    1.0000 </r>
       <r>   -7.5116    1.0000 </r>
       <r>   -7.4616    1.0000 </r>
       <r>   -7.4484    1.0000 </r>
       <r>   -7.4315    1.0000 </r>
       <r>   -7.3948    1.0000 </r>
       <r>   -7.3865    1.0000 </r>
       <r>   -7.3593    1.0000 </r>
       <r>   -7.3565    1.0000 </r>
       <r>   -7.2713    1.0000 </r>
       <r>   -7.2520    1.0000 </r>
       <r>   -7.2429    1.0000 </r>
       <r>   -7.1524    1.0000 </r>
       <r>   -7.1188    1.0000 </r>
       <r>   -7.0550    1.0000 </r>
       <r>   -7.0354    1.0000 </r>
       <r>   -7.0083    1.0000 </r>
       <r>   -6.9727    1.0000 </r>
       <r>   -6.9431    1.0000 </r>
       <r>   -6.8981    1.0000 </r>
       <r>   -6.8874    1.0000 </r>
       <r>   -6.8663    1.0000 </r>
       <r>   -6.8476    1.0000 </r>
       <r>   -6.8318    1.0000 </r>
       <r>   -6.8177    1.0000 </r>
       <r>   -6.8010    1.0000 </r>
       <r>   -6.7699    1.0000 </r>
       <r>   -6.7487    1.0000 </r>
       <r>   -6.7237    1.0000 </r>
       <r>   -6.7231    1.0000 </r>
       <r>   -6.7083    1.0000 </r>
       <r>   -6.6896    1.0000 </r>
       <r>   -6.6819    1.0000 </r>
       <r>   -6.6572    1.0000 </r>
       <r>   -6.6533    1.0000 </r>
       <r>   -6.6405    1.0000 </r>
       <r>   -6.6258    1.0000 </r>
       <r>   -6.6077    1.0000 </r>
       <r>   -6.6047    1.0000 </r>
       <r>   -6.5884    1.0000 </r>
       <r>   -6.5781    1.0000 </r>
       <r>   -6.5583    1.0000 </r>
       <r>   -6.5445    1.0000 </r>
       <r>   -6.5393    1.0000 </r>
       <r>   -6.5210    1.0000 </r>
       <r>   -6.5038    1.0000 </r>
       <r>   -6.4883    1.0000 </r>
       <r>   -6.4844    1.0000 </r>
       <r>   -6.4724    1.0000 </r>
       <r>   -6.4543    1.0000 </r>
       <r>   -6.4427    1.0000 </r>
       <r>   -6.4270    1.0000 </r>
       <r>   -6.4158    1.0000 </r>
       <r>   -6.4026    1.0000 </r>
       <r>   -6.3853    1.0000 </r>
       <r>   -6.3797    1.0000 </r>
       <r>   -6.3637    1.0000 </r>
       <r>   -6.3473    1.0000 </r>
       <r>   -6.3246    1.0000 </r>
       <r>   -6.2844    1.0000 </r>
       <r>   -6.2769    1.0000 </r>
       <r>   -6.2702    1.0000 </r>
       <r>   -6.2556    1.0000 </r>
       <r>   -6.2136    1.0000 </r>
       <r>   -6.2042    1.0000 </r>
       <r>   -6.0817    1.0000 </r>
       <r>   -6.0633    1.0000 </r>
       <r>   -5.9691    1.0000 </r>
       <r>   -5.8411    1.0000 </r>
       <r>   -5.8172    1.0000 </r>
       <r>   -5.7460    1.0000 </r>
       <r>   -5.7042    1.0000 </r>
       <r>   -5.6671    1.0000 </r>
       <r>   -5.6434    1.0000 </r>
       <r>   -5.6147    1.0000 </r>
       <r>   -5.5717    1.0000 </r>
       <r>   -5.5506    1.0000 </r>
       <r>   -5.5227    1.0000 </r>
       <r>   -5.4746    1.0000 </r>
       <r>   -5.4391    1.0000 </r>
       <r>   -5.3882    1.0000 </r>
       <r>   -5.3832    1.0000 </r>
       <r>   -5.3546    1.0000 </r>
       <r>   -5.3425    1.0000 </r>
       <r>   -5.2782    1.0000 </r>
       <r>   -5.2436    1.0000 </r>
       <r>   -5.1947    1.0000 </r>
       <r>   -5.0278    1.0000 </r>
       <r>   -4.9132    1.0000 </r>
       <r>   -4.9069    1.0000 </r>
       <r>   -4.8794    1.0000 </r>
       <r>   -4.8528    1.0000 </r>
       <r>   -4.7097    1.0000 </r>
       <r>   -4.6607    1.0000 </r>
       <r>   -4.6236    1.0000 </r>
       <r>   -4.5951    1.0000 </r>
       <r>   -4.5748    1.0000 </r>
       <r>   -4.5489    1.0000 </r>
       <r>   -4.2480    1.0000 </r>
       <r>   -4.2271    1.0000 </r>
       <r>   -4.2076    1.0000 </r>
       <r>   -4.1886    1.0000 </r>
       <r>   -4.1831    1.0000 </r>
       <r>   -4.1449    1.0000 </r>
       <r>   -4.1314    1.0000 </r>
       <r>   -4.1047    1.0000 </r>
       <r>   -4.0890    1.0000 </r>
       <r>   -4.0748    1.0000 </r>
       <r>   -4.0382    1.0000 </r>
       <r>   -4.0109    1.0000 </r>
       <r>   -3.9730    1.0000 </r>
       <r>   -3.9569    1.0000 </r>
       <r>   -3.9073    1.0000 </r>
       <r>   -3.8874    1.0000 </r>
       <r>   -3.8437    1.0000 </r>
       <r>   -3.8172    1.0000 </r>
       <r>   -3.7775    1.0000 </r>
       <r>   -3.7349    1.0000 </r>
       <r>   -3.7184    1.0000 </r>
       <r>   -3.7001    1.0000 </r>
       <r>   -3.6625    1.0000 </r>
       <r>   -3.6349    1.0000 </r>
       <r>   -3.6268    1.0000 </r>
       <r>   -3.5966    1.0000 </r>
       <r>   -3.5543    1.0000 </r>
       <r>   -3.4870    1.0000 </r>
       <r>   -3.4652    1.0000 </r>
       <r>   -3.4535    1.0000 </r>
       <r>   -3.3858    1.0000 </r>
       <r>   -3.3449    1.0000 </r>
       <r>   -3.3078    1.0000 </r>
       <r>   -3.2987    1.0000 </r>
       <r>   -3.2736    1.0000 </r>
       <r>   -3.2062    1.0000 </r>
       <r>   -3.1381    1.0000 </r>
       <r>   -2.9992    1.0000 </r>
       <r>   -2.9190    1.0000 </r>
       <r>   -2.1420    0.0000 </r>
       <r>   -2.1274    0.0000 </r>
       <r>   -2.0795    0.0000 </r>
       <r>   -1.5856    0.0000 </r>
       <r>   -1.5227    0.0000 </r>
       <r>   -1.5028    0.0000 </r>
       <r>   -1.4519    0.0000 </r>
       <r>   -1.3968    0.0000 </r>
       <r>   -1.3892    0.0000 </r>
       <r>   -0.7726    0.0000 </r>
       <r>   -0.7315    0.0000 </r>
       <r>   -0.6988    0.0000 </r>
       <r>   -0.6713    0.0000 </r>
       <r>   -0.5956    0.0000 </r>
       <r>   -0.5930    0.0000 </r>
       <r>   -0.5486    0.0000 </r>
       <r>   -0.5348    0.0000 </r>
       <r>   -0.5273    0.0000 </r>
       <r>   -0.4916    0.0000 </r>
       <r>   -0.4474    0.0000 </r>
       <r>   -0.4285    0.0000 </r>
       <r>   -0.3856    0.0000 </r>
       <r>   -0.3430    0.0000 </r>
       <r>   -0.3031    0.0000 </r>
       <r>    0.0177    0.0000 </r>
       <r>    0.0325    0.0000 </r>
       <r>    0.0726    0.0000 </r>
       <r>    0.0880    0.0000 </r>
       <r>    0.1013    0.0000 </r>
       <r>    0.1422    0.0000 </r>
       <r>    0.1667    0.0000 </r>
       <r>    0.1838    0.0000 </r>
       <r>    0.2216    0.0000 </r>
       <r>    0.2302    0.0000 </r>
       <r>    0.2604    0.0000 </r>
       <r>    0.3037    0.0000 </r>
       <r>    0.4250    0.0000 </r>
       <r>    0.5179    0.0000 </r>
       <r>    0.5347    0.0000 </r>
       <r>    0.5807    0.0000 </r>
       <r>    0.6165    0.0000 </r>
       <r>    0.6372    0.0000 </r>
       <r>    0.6436    0.0000 </r>
       <r>    0.6553    0.0000 </r>
       <r>    0.6877    0.0000 </r>
       <r>    0.7006    0.0000 </r>
       <r>    0.7040    0.0000 </r>
       <r>    0.7420    0.0000 </r>
       <r>    0.7608    0.0000 </r>
       <r>    0.7695    0.0000 </r>
       <r>    0.7859    0.0000 </r>
       <r>    0.8053    0.0000 </r>
       <r>    0.8196    0.0000 </r>
       <r>    0.8264    0.0000 </r>
       <r>    0.8602    0.0000 </r>
       <r>    0.8802    0.0000 </r>
       <r>    0.8973    0.0000 </r>
       <r>    0.9091    0.0000 </r>
       <r>    0.9131    0.0000 </r>
       <r>    0.9322    0.0000 </r>
       <r>    0.9377    0.0000 </r>
       <r>    0.9711    0.0000 </r>
       <r>    1.0016    0.0000 </r>
       <r>    1.0286    0.0000 </r>
      </set>
      <set comment="kpoint 2">
       <r>  -51.8136    1.0000 </r>
       <r>  -51.7670    1.0000 </r>
       <r>  -51.7532    1.0000 </r>
       <r>  -51.6711    1.0000 </r>
       <r>  -51.6511    1.0000 </r>
       <r>  -51.6453    1.0000 </r>
       <r>  -51.6096    1.0000 </r>
       <r>  -51.5461    1.0000 </r>
       <r>  -51.5260    1.0000 </r>
       <r>  -51.5155    1.0000 </r>
       <r>  -51.5101    1.0000 </r>
       <r>  -51.5073    1.0000 </r>
       <r>  -51.5044    1.0000 </r>
       <r>  -51.4883    1.0000 </r>
       <r>  -51.4704    1.0000 </r>
       <r>  -51.4456    1.0000 </r>
       <r>  -51.4268    1.0000 </r>
       <r>  -51.3955    1.0000 </r>
       <r>  -51.3931    1.0000 </r>
       <r>  -51.3763    1.0000 </r>
       <r>  -51.3736    1.0000 </r>
       <r>  -51.3527    1.0000 </r>
       <r>  -51.3524    1.0000 </r>
       <r>  -51.3464    1.0000 </r>
       <r>  -51.3371    1.0000 </r>
       <r>  -51.3234    1.0000 </r>
       <r>  -51.3207    1.0000 </r>
       <r>  -51.2982    1.0000 </r>
       <r>  -51.1927    1.0000 </r>
       <r>  -51.1764    1.0000 </r>
       <r>  -51.0175    1.0000 </r>
       <r>  -51.0000    1.0000 </r>
       <r>  -30.5042    1.0000 </r>
       <r>  -30.4985    1.0000 </r>
       <r>  -30.4648    1.0000 </r>
       <r>  -30.4639    1.0000 </r>
       <r>  -30.4553    1.0000 </r>
       <r>  -30.4448    1.0000 </r>
       <r>  -30.4399    1.0000 </r>
       <r>  -30.4126    1.0000 </r>
       <r>  -30.4087    1.0000 </r>
       <r>  -30.4004    1.0000 </r>
       <r>  -30.3612    1.0000 </r>
       <r>  -30.3486    1.0000 </r>
       <r>  -30.3438    1.0000 </r>
       <r>  -30.3302    1.0000 </r>
       <r>  -30.3210    1.0000 </r>
       <r>  -30.3163    1.0000 </r>
       <r>  -30.3006    1.0000 </r>
       <r>  -30.2938    1.0000 </r>
       <r>  -30.2879    1.0000 </r>
       <r>  -30.2772    1.0000 </r>
       <r>  -30.2713    1.0000 </r>
       <r>  -30.2616    1.0000 </r>
       <r>  -30.2547    1.0000 </r>
       <r>  -30.2503    1.0000 </r>
       <r>  -30.2425    1.0000 </r>
       <r>  -30.2352    1.0000 </r>
       <r>  -30.2279    1.0000 </r>
       <r>  -30.2198    1.0000 </r>
       <r>  -30.2077    1.0000 </r>
       <r>  -30.2005    1.0000 </r>
       <r>  -30.1984    1.0000 </r>
       <r>  -30.1839    1.0000 </r>
       <r>  -30.1814    1.0000 </r>
       <r>  -30.1728    1.0000 </r>
       <r>  -30.1706    1.0000 </r>
       <r>  -30.1698    1.0000 </r>
       <r>  -30.1605    1.0000 </r>
       <r>  -30.1550    1.0000 </r>
       <r>  -30.1497    1.0000 </r>
       <r>  -30.1471    1.0000 </r>
       <r>  -30.1386    1.0000 </r>
       <r>  -30.1327    1.0000 </r>
       <r>  -30.1300    1.0000 </r>
       <r>  -30.1286    1.0000 </r>
       <r>  -30.1170    1.0000 </r>
       <r>  -30.1097    1.0000 </r>
       <r>  -30.1070    1.0000 </r>
       <r>  -30.1043    1.0000 </r>
       <r>  -30.0976    1.0000 </r>
       <r>  -30.0934    1.0000 </r>
       <r>  -30.0867    1.0000 </r>
       <r>  -30.0838    1.0000 </r>
       <r>  -30.0804    1.0000 </r>
       <r>  -30.0696    1.0000 </r>
       <r>  -30.0637    1.0000 </r>
       <r>  -30.0593    1.0000 </r>
       <r>  -30.0578    1.0000 </r>
       <r>  -30.0546    1.0000 </r>
       <r>  -30.0480    1.0000 </r>
       <r>  -30.0451    1.0000 </r>
       <r>  -30.0416    1.0000 </r>
       <r>  -30.0335    1.0000 </r>
       <r>  -30.0255    1.0000 </r>
       <r>  -30.0220    1.0000 </r>
       <r>  -30.0140    1.0000 </r>
       <r>  -30.0111    1.0000 </r>
       <r>  -30.0096    1.0000 </r>
       <r>  -29.9982    1.0000 </r>
       <r>  -29.9895    1.0000 </r>
       <r>  -29.9866    1.0000 </r>
       <r>  -29.9772    1.0000 </r>
       <r>  -29.9736    1.0000 </r>
       <r>  -29.9718    1.0000 </r>
       <r>  -29.9658    1.0000 </r>
       <r>  -29.9634    1.0000 </r>
       <r>  -29.9569    1.0000 </r>
       <r>  -29.9498    1.0000 </r>
       <r>  -29.9422    1.0000 </r>
       <r>  -29.9370    1.0000 </r>
       <r>  -29.9352    1.0000 </r>
       <r>  -29.9234    1.0000 </r>
       <r>  -29.9158    1.0000 </r>
       <r>  -29.9049    1.0000 </r>
       <r>  -29.8995    1.0000 </r>
       <r>  -29.8812    1.0000 </r>
       <r>  -29.8742    1.0000 </r>
       <r>  -29.8470    1.0000 </r>
       <r>  -29.8262    1.0000 </r>
       <r>  -29.8031    1.0000 </r>
       <r>  -29.7974    1.0000 </r>
       <r>  -29.6890    1.0000 </r>
       <r>  -29.6861    1.0000 </r>
       <r>  -29.6746    1.0000 </r>
       <r>  -29.6587    1.0000 </r>
       <r>  -29.6527    1.0000 </r>
       <r>  -29.6451    1.0000 </r>
       <r>  -18.5994    1.0000 </r>
       <r>  -18.4682    1.0000 </r>
       <r>  -18.4053    1.0000 </r>
       <r>  -18.3426    1.0000 </r>
       <r>  -18.3253    1.0000 </r>
       <r>  -18.2790    1.0000 </r>
       <r>  -18.2391    1.0000 </r>
       <r>  -18.2328    1.0000 </r>
       <r>  -18.1898    1.0000 </r>
       <r>  -18.1457    1.0000 </r>
       <r>  -18.1144    1.0000 </r>
       <r>  -18.1092    1.0000 </r>
       <r>  -18.0547    1.0000 </r>
       <r>  -18.0528    1.0000 </r>
       <r>  -18.0223    1.0000 </r>
       <r>  -18.0079    1.0000 </r>
       <r>  -17.9770    1.0000 </r>
       <r>  -17.9436    1.0000 </r>
       <r>  -17.9245    1.0000 </r>
       <r>  -17.9155    1.0000 </r>
       <r>  -17.8793    1.0000 </r>
[...]
       <r>   -32.3656     0.0000    64.0000 </r>
       <r>   -32.1718     0.0000    64.0000 </r>
       <r>   -31.9780     0.0000    64.0000 </r>
       <r>   -31.7842     0.0000    64.0000 </r>
       <r>   -31.5904     0.0000    64.0000 </r>
       <r>   -31.3967     0.0000    64.0000 </r>
       <r>   -31.2029     0.0000    64.0000 </r>
       <r>   -31.0091     0.0000    64.0000 </r>
       <r>   -30.8153     0.0000    64.0000 </r>
       <r>   -30.6216     0.0073    64.0014 </r>
       <r>   -30.4278    68.7924    77.3317 </r>
       <r>   -30.2340   194.6093   115.0422 </r>
       <r>   -30.0402   353.4967   183.5413 </r>
       <r>   -29.8465   275.1390   236.8565 </r>
       <r>   -29.6527    77.0009   251.7774 </r>
       <r>   -29.4589    21.7912   256.0000 </r>
       <r>   -29.2651     0.0000   256.0000 </r>
       <r>   -29.0714     0.0000   256.0000 </r>
       <r>   -28.8776     0.0000   256.0000 </r>
       <r>   -28.6838     0.0000   256.0000 </r>
       <r>   -28.4900     0.0000   256.0000 </r>
       <r>   -28.2963     0.0000   256.0000 </r>
       <r>   -28.1025     0.0000   256.0000 </r>
       <r>   -27.9087     0.0000   256.0000 </r>
       <r>   -27.7149     0.0000   256.0000 </r>
       <r>   -27.5212     0.0000   256.0000 </r>
       <r>   -27.3274     0.0000   256.0000 </r>
       <r>   -27.1336     0.0000   256.0000 </r>
       <r>   -26.9398     0.0000   256.0000 </r>
       <r>   -26.7461     0.0000   256.0000 </r>
       <r>   -26.5523     0.0000   256.0000 </r>
       <r>   -26.3585     0.0000   256.0000 </r>
       <r>   -26.1647     0.0000   256.0000 </r>
       <r>   -25.9710     0.0000   256.0000 </r>
       <r>   -25.7772     0.0000   256.0000 </r>
       <r>   -25.5834     0.0000   256.0000 </r>
       <r>   -25.3896     0.0000   256.0000 </r>
       <r>   -25.1959     0.0000   256.0000 </r>
       <r>   -25.0021     0.0000   256.0000 </r>
       <r>   -24.8083     0.0000   256.0000 </r>
       <r>   -24.6145     0.0000   256.0000 </r>
       <r>   -24.4208     0.0000   256.0000 </r>
       <r>   -24.2270     0.0000   256.0000 </r>
       <r>   -24.0332     0.0000   256.0000 </r>
       <r>   -23.8394     0.0000   256.0000 </r>
       <r>   -23.6457     0.0000   256.0000 </r>
       <r>   -23.4519     0.0000   256.0000 </r>
       <r>   -23.2581     0.0000   256.0000 </r>
       <r>   -23.0643     0.0000   256.0000 </r>
       <r>   -22.8705     0.0000   256.0000 </r>
       <r>   -22.6768     0.0000   256.0000 </r>
       <r>   -22.4830     0.0000   256.0000 </r>
       <r>   -22.2892     0.0000   256.0000 </r>
       <r>   -22.0954     0.0000   256.0000 </r>
       <r>   -21.9017     0.0000   256.0000 </r>
       <r>   -21.7079     0.0000   256.0000 </r>
       <r>   -21.5141     0.0000   256.0000 </r>
       <r>   -21.3203     0.0000   256.0000 </r>
       <r>   -21.1266     0.0000   256.0000 </r>
       <r>   -20.9328     0.0000   256.0000 </r>
       <r>   -20.7390     0.0000   256.0000 </r>
       <r>   -20.5452     0.0000   256.0000 </r>
       <r>   -20.3515     0.0000   256.0000 </r>
       <r>   -20.1577     0.0000   256.0000 </r>
       <r>   -19.9639     0.0000   256.0000 </r>
       <r>   -19.7701     0.0000   256.0000 </r>
       <r>   -19.5764     0.0000   256.0000 </r>
       <r>   -19.3826     0.0000   256.0000 </r>
       <r>   -19.1888     0.0000   256.0000 </r>
       <r>   -18.9950     0.0000   256.0000 </r>
       <r>   -18.8013     0.0000   256.0000 </r>
       <r>   -18.6075     4.5063   256.8732 </r>
       <r>   -18.4137    19.2691   260.6071 </r>
       <r>   -18.2199    51.9810   270.6798 </r>
       <r>   -18.0262    72.2890   284.6876 </r>
       <r>   -17.8324    85.3727   301.2308 </r>
       <r>   -17.6386    62.9188   313.4229 </r>
       <r>   -17.4448    23.6262   318.0011 </r>
       <r>   -17.2511    10.1804   319.9738 </r>
       <r>   -17.0573     0.1352   320.0000 </r>
       <r>   -16.8635     0.0000   320.0000 </r>
       <r>   -16.6697     0.0000   320.0000 </r>
       <r>   -16.4760     0.0000   320.0000 </r>
       <r>   -16.2822     0.0000   320.0000 </r>
       <r>   -16.0884     0.0000   320.0000 </r>
       <r>   -15.8946     0.0000   320.0000 </r>
       <r>   -15.7009     0.0000   320.0000 </r>
       <r>   -15.5071     0.0000   320.0000 </r>
       <r>   -15.3133     0.0000   320.0000 </r>
       <r>   -15.1195     0.0000   320.0000 </r>
       <r>   -14.9257     0.0000   320.0000 </r>
       <r>   -14.7320     0.0000   320.0000 </r>
       <r>   -14.5382     0.0000   320.0000 </r>
       <r>   -14.3444     0.0000   320.0000 </r>
       <r>   -14.1506     0.0000   320.0000 </r>
       <r>   -13.9569     0.0000   320.0000 </r>
       <r>   -13.7631     0.0000   320.0000 </r>
       <r>   -13.5693     0.0000   320.0000 </r>
       <r>   -13.3755     0.0000   320.0000 </r>
       <r>   -13.1818     0.0000   320.0000 </r>
       <r>   -12.9880     0.0000   320.0000 </r>
       <r>   -12.7942     0.0000   320.0000 </r>
       <r>   -12.6004     0.0000   320.0000 </r>
       <r>   -12.4067     0.0000   320.0000 </r>
       <r>   -12.2129     0.0000   320.0000 </r>
       <r>   -12.0191     0.0000   320.0000 </r>
       <r>   -11.8253     3.4353   320.6657 </r>
       <r>   -11.6316    14.4488   323.4655 </r>
       <r>   -11.4378    20.0301   327.3469 </r>
       <r>   -11.2440    25.1317   332.2168 </r>
       <r>   -11.0502    30.7095   338.1675 </r>
       <r>   -10.8565    45.3922   346.9634 </r>
       <r>   -10.6627    21.9971   351.2259 </r>
       <r>   -10.4689     3.9948   352.0000 </r>
       <r>   -10.2751     0.0000   352.0000 </r>
       <r>   -10.0814     0.0000   352.0000 </r>
       <r>    -9.8876     0.0000   352.0000 </r>
       <r>    -9.6938     0.0000   352.0000 </r>
       <r>    -9.5000     0.0000   352.0000 </r>
       <r>    -9.3063     0.0000   352.0000 </r>
       <r>    -9.1125     0.0000   352.0000 </r>
       <r>    -8.9187     0.0000   352.0000 </r>
       <r>    -8.7249     0.0000   352.0000 </r>
       <r>    -8.5312     0.0000   352.0000 </r>
       <r>    -8.3374     0.0000   352.0000 </r>
       <r>    -8.1436     0.0030   352.0006 </r>
       <r>    -7.9498     8.5430   353.6560 </r>
       <r>    -7.7561    25.1664   358.5326 </r>
       <r>    -7.5623    47.5934   367.7551 </r>
       <r>    -7.3685    67.7752   380.8882 </r>
       <r>    -7.1747    60.4673   392.6053 </r>
       <r>    -6.9810    66.3675   405.4657 </r>
       <r>    -6.7872    89.9921   422.9040 </r>
       <r>    -6.5934   118.4548   445.8577 </r>
       <r>    -6.3996   103.7674   465.9653 </r>
       <r>    -6.2058    89.0099   483.2132 </r>
       <r>    -6.0121    59.3994   494.7234 </r>
       <r>    -5.8183    56.2002   505.6136 </r>
       <r>    -5.6245    61.8959   517.6075 </r>
       <r>    -5.4307    56.6701   528.5888 </r>
       <r>    -5.2370    47.2498   537.7446 </r>
       <r>    -5.0432    20.6629   541.7486 </r>
       <r>    -4.8494    23.3703   546.2772 </r>
       <r>    -4.6556    44.3964   554.8801 </r>
       <r>    -4.4619    40.2406   562.6778 </r>
       <r>    -4.2681    29.3024   568.3559 </r>
       <r>    -4.0743    35.5733   575.2491 </r>
       <r>    -3.8805    64.9338   587.8317 </r>
       <r>    -3.6868    89.2387   605.1240 </r>
       <r>    -3.4930    82.5728   621.1246 </r>
       <r>    -3.2992    55.7211   631.9219 </r>
       <r>    -3.1054    25.1341   636.7923 </r>
       <r>    -2.9117    15.5658   639.8086 </r>
       <r>    -2.7179     0.9878   640.0000 </r>
       <r>    -2.5241     0.0000   640.0000 </r>
       <r>    -2.3303     0.0000   640.0000 </r>
       <r>    -2.1366     1.2218   640.2367 </r>
       <r>    -1.9428     9.3751   642.0534 </r>
       <r>    -1.7490    24.4162   646.7847 </r>
       <r>    -1.5552    10.9432   648.9052 </r>
       <r>    -1.3615    20.0243   652.7854 </r>
       <r>    -1.1677    24.8171   657.5944 </r>
       <r>    -0.9739    31.6842   663.7340 </r>
       <r>    -0.7801    11.7683   666.0144 </r>
       <r>    -0.5864    27.4090   671.3256 </r>
       <r>    -0.3926    38.3838   678.7634 </r>
       <r>    -0.1988    29.1817   684.4182 </r>
       <r>    -0.0050    36.9692   691.5819 </r>
       <r>     0.1887    34.2163   698.2122 </r>
       <r>     0.3825    38.9321   705.7562 </r>
       <r>     0.5763    62.8704   717.9390 </r>
       <r>     0.7701   111.4330   739.5320 </r>
       <r>     0.9638   118.0796   762.4129 </r>
       <r>     1.1576    28.8318   767.9998 </r>
       <r>     1.3514     0.0008   768.0000 </r>
       <r>     1.5452     0.0000   768.0000 </r>
       <r>     1.7390     0.0000   768.0000 </r>
       <r>     1.9327     0.0000   768.0000 </r>
       <r>     2.1265     0.0000   768.0000 </r>
       <r>     2.3203     0.0000   768.0000 </r>
       <r>     2.5141     0.0000   768.0000 </r>
       <r>     2.7078     0.0000   768.0000 </r>
       <r>     2.9016     0.0000   768.0000 </r>
       <r>     3.0954     0.0000   768.0000 </r>
       <r>     3.2892     0.0000   768.0000 </r>
       <r>     3.4829     0.0000   768.0000 </r>
       <r>     3.6767     0.0000   768.0000 </r>
      </set>
     </set>
    </array>
   </total>
  </dos>
 </calculation>
 <structure name="finalpos" >
  <crystal>
   <varray name="basis" >
    <v>      13.79398668       0.00000000       0.00000000 </v>
    <v>      -6.89699334      11.94594288       0.00000000 </v>
    <v>       0.00000000       0.00000000      27.81022107 </v>
   </varray>
   <i name="volume">   4582.62876984 </i>
   <varray name="rec_basis" >
    <v>       0.07249536       0.04185521       0.00000000 </v>
    <v>       0.00000000       0.08371043       0.00000000 </v>
    <v>       0.00000000       0.00000000       0.03595800 </v>
   </varray>
  </crystal>
  <varray name="positions" >
   <v>       0.08021345       0.16015010       0.54320710 </v>
   <v>       0.08604385       0.42596745       0.53951987 </v>
   <v>       0.07284324       0.66444348       0.54456689 </v>
   <v>       0.09353603       0.91662521       0.54675948 </v>
   <v>       0.33060915       0.17349269       0.54266577 </v>
   <v>       0.33388161       0.41742324       0.54072777 </v>
   <v>       0.32736873       0.65871545       0.54232906 </v>
   <v>       0.33212513       0.90421697       0.54864364 </v>
   <v>       0.58273727       0.16529813       0.54398473 </v>
   <v>       0.58589498       0.41259216       0.54372402 </v>
   <v>       0.57763110       0.65706308       0.54625502 </v>
   <v>       0.58636688       0.90992214       0.55070263 </v>
   <v>       0.83571667       0.17348719       0.54202643 </v>
   <v>       0.82802101       0.42418426       0.54077883 </v>
   <v>       0.83229987       0.66644923       0.54443642 </v>
   <v>       0.82404536       0.90462713       0.54506861 </v>
   <v>       0.15095533       0.07012450       0.45798763 </v>
   <v>       0.15729381       0.33097783       0.45290148 </v>
   <v>       0.16380438       0.58724048       0.45707141 </v>
   <v>       0.17284831       0.83932835       0.45941882 </v>
   <v>       0.40563429       0.07274401       0.45418388 </v>
   <v>       0.41753988       0.33232062       0.44942365 </v>
   <v>       0.42043550       0.58548518       0.45238884 </v>
   <v>       0.42057777       0.83138387       0.45378375 </v>
   <v>       0.66891601       0.07335792       0.45521607 </v>
   <v>       0.66075642       0.32646300       0.45466137 </v>
   <v>       0.66903617       0.59299323       0.45746784 </v>
   <v>       0.66805693       0.84302421       0.45529235 </v>
   <v>       0.91650906       0.08018242       0.45885965 </v>
   <v>       0.91069461       0.33414852       0.45384989 </v>
   <v>       0.91775722       0.58900325       0.45649193 </v>
   <v>       0.91580725       0.82936731       0.45672896 </v>
   <v>       0.05969164       0.15828317       0.39301687 </v>
   <v>       0.08279671       0.43080743       0.39684669 </v>
   <v>       0.08327938       0.66754779       0.40155425 </v>
   <v>       0.09591530       0.91014162       0.39825597 </v>
   <v>       0.32144891       0.15174471       0.39717899 </v>
   <v>       0.32351265       0.41856387       0.38960287 </v>
   <v>       0.33740305       0.66754084       0.39332239 </v>
   <v>       0.34031285       0.91671447       0.39770672 </v>
   <v>       0.59261915       0.16811951       0.39304303 </v>
   <v>       0.58967463       0.40373626       0.39226066 </v>
   <v>       0.59051914       0.65428507       0.39330867 </v>
   <v>       0.59086020       0.92141855       0.39218665 </v>
   <v>       0.83244661       0.16860647       0.39543327 </v>
   <v>       0.83055324       0.42094649       0.39553434 </v>
   <v>       0.84802931       0.67200382       0.39572358 </v>
   <v>       0.83156086       0.89971572       0.39572116 </v>
   <v>       0.16609717       0.09486968       0.60375931 </v>
   <v>       0.14995472       0.34193378       0.60232135 </v>
   <v>       0.17572380       0.58817872       0.60329473 </v>
   <v>       0.18324110       0.84061870       0.61026120 </v>
   <v>       0.40479042       0.08022899       0.60193153 </v>
   <v>       0.41029361       0.34176344       0.60305120 </v>
   <v>       0.41967109       0.59344590       0.60854707 </v>
   <v>       0.43086891       0.83835106       0.60864260 </v>
   <v>       0.66570707       0.08654348       0.60696097 </v>
   <v>       0.67506542       0.34118563       0.60629053 </v>
   <v>       0.67578468       0.59307912       0.60582117 </v>
   <v>       0.65467937       0.83143142       0.60943528 </v>
   <v>       0.92450362       0.07582860       0.60234748 </v>
   <v>       0.92671202       0.34230821       0.60662798 </v>
   <v>       0.92091037       0.59264078       0.60849087 </v>
   <v>       0.93860750       0.84273041       0.60581714 </v>
   <v>       0.99545782       0.99204094       0.50249809 </v>
   <v>       0.00362799       0.25294644       0.49721886 </v>
   <v>       0.99818961       0.50774729       0.49525277 </v>
   <v>       0.99610913       0.74148537       0.50324374 </v>
   <v>       0.24581462       0.99842249       0.50125816 </v>
   <v>       0.24758724       0.25274236       0.49607584 </v>
   <v>       0.25163180       0.51066152       0.49754215 </v>
   <v>       0.26223509       0.76141806       0.50195606 </v>
   <v>       0.49986230       0.99850227       0.50094265 </v>
   <v>       0.49245918       0.24925888       0.49646555 </v>
   <v>       0.49902645       0.50874067       0.49908649 </v>
   <v>       0.49959937       0.74362905       0.50020629 </v>
   <v>       0.73837355       0.99573447       0.50064193 </v>
   <v>       0.75527935       0.25434072       0.49923489 </v>
   <v>       0.74867005       0.49968244       0.49864093 </v>
   <v>       0.75220325       0.74604555       0.50076251 </v>
  </varray>
  <varray name="velocities" >
   <v>       0.00000000       0.00000000       0.00000000 </v>
   <v>       0.00000000       0.00000000       0.00000000 </v>
   <v>       0.00000000       0.00000000       0.00000000 </v>
   <v>       0.00000000       0.00000000       0.00000000 </v>
   <v>       0.00000000       0.00000000       0.00000000 </v>
   <v>       0.00000000       0.00000000       0.00000000 </v>
   <v>       0.00000000       0.00000000       0.00000000 </v>
   <v>       0.00000000       0.00000000       0.00000000 </v>
   <v>       0.00000000       0.00000000       0.00000000 </v>
   <v>       0.00000000       0.00000000       0.00000000 </v>
   <v>       0.00000000       0.00000000       0.00000000 </v>
   <v>       0.00000000       0.00000000       0.00000000 </v>
   <v>       0.00000000       0.00000000       0.00000000 </v>
   <v>       0.00000000       0.00000000       0.00000000 </v>
   <v>       0.00000000       0.00000000       0.00000000 </v>
   <v>       0.00000000       0.00000000       0.00000000 </v>
   <v>       0.00000000       0.00000000       0.00000000 </v>
   <v>       0.00000000       0.00000000       0.00000000 </v>
   <v>       0.00000000       0.00000000       0.00000000 </v>
   <v>       0.00000000       0.00000000       0.00000000 </v>
   <v>       0.00000000       0.00000000       0.00000000 </v>
   <v>       0.00000000       0.00000000       0.00000000 </v>
   <v>       0.00000000       0.00000000       0.00000000 </v>
   <v>       0.00000000       0.00000000       0.00000000 </v>
   <v>       0.00000000       0.00000000       0.00000000 </v>
   <v>       0.00000000       0.00000000       0.00000000 </v>
   <v>       0.00000000       0.00000000       0.00000000 </v>
   <v>       0.00000000       0.00000000       0.00000000 </v>
   <v>       0.00000000       0.00000000       0.00000000 </v>
   <v>       0.00000000       0.00000000       0.00000000 </v>
   <v>       0.00000000       0.00000000       0.00000000 </v>
   <v>       0.00000000       0.00000000       0.00000000 </v>
   <v>       0.00000000       0.00000000       0.00000000 </v>
   <v>       0.00000000       0.00000000       0.00000000 </v>
   <v>       0.00000000       0.00000000       0.00000000 </v>
   <v>       0.00000000       0.00000000       0.00000000 </v>
   <v>       0.00000000       0.00000000       0.00000000 </v>
   <v>       0.00000000       0.00000000       0.00000000 </v>
   <v>       0.00000000       0.00000000       0.00000000 </v>
   <v>       0.00000000       0.00000000       0.00000000 </v>
   <v>       0.00000000       0.00000000       0.00000000 </v>
   <v>       0.00000000       0.00000000       0.00000000 </v>
   <v>       0.00000000       0.00000000       0.00000000 </v>
   <v>       0.00000000       0.00000000       0.00000000 </v>
   <v>       0.00000000       0.00000000       0.00000000 </v>
   <v>       0.00000000       0.00000000       0.00000000 </v>
   <v>       0.00000000       0.00000000       0.00000000 </v>
   <v>       0.00000000       0.00000000       0.00000000 </v>
   <v>       0.00000000       0.00000000       0.00000000 </v>
   <v>       0.00000000       0.00000000       0.00000000 </v>
   <v>       0.00000000       0.00000000       0.00000000 </v>
   <v>       0.00000000       0.00000000       0.00000000 </v>
   <v>       0.00000000       0.00000000       0.00000000 </v>
   <v>       0.00000000       0.00000000       0.00000000 </v>
   <v>       0.00000000       0.00000000       0.00000000 </v>
   <v>       0.00000000       0.00000000       0.00000000 </v>
   <v>       0.00000000       0.00000000       0.00000000 </v>
   <v>       0.00000000       0.00000000       0.00000000 </v>
   <v>       0.00000000       0.00000000       0.00000000 </v>
   <v>       0.00000000       0.00000000       0.00000000 </v>
   <v>       0.00000000       0.00000000       0.00000000 </v>
   <v>       0.00000000       0.00000000       0.00000000 </v>
   <v>       0.00000000       0.00000000       0.00000000 </v>
   <v>       0.00000000       0.00000000       0.00000000 </v>
   <v>       0.00000000       0.00000000       0.00000000 </v>
   <v>       0.00000000       0.00000000       0.00000000 </v>
   <v>       0.00000000       0.00000000       0.00000000 </v>
   <v>       0.00000000       0.00000000       0.00000000 </v>
   <v>       0.00000000       0.00000000       0.00000000 </v>
   <v>       0.00000000       0.00000000       0.00000000 </v>
   <v>       0.00000000       0.00000000       0.00000000 </v>
   <v>       0.00000000       0.00000000       0.00000000 </v>
   <v>       0.00000000       0.00000000       0.00000000 </v>
   <v>       0.00000000       0.00000000       0.00000000 </v>
   <v>       0.00000000       0.00000000       0.00000000 </v>
   <v>       0.00000000       0.00000000       0.00000000 </v>
   <v>       0.00000000       0.00000000       0.00000000 </v>
   <v>       0.00000000       0.00000000       0.00000000 </v>
   <v>       0.00000000       0.00000000       0.00000000 </v>
   <v>       0.00000000       0.00000000       0.00000000 </v>
  </varray>
 </structure>
</modeling>
