 vasp.5.4.4.18Apr17-6-g9f103f2a35 (build Mar 16 2023 09:39:13) complex          
  
 executed on             LinuxIFC date 2024.04.29  18:48:54
 running on   48 total cores
 distrk:  each k-point on   48 cores,    1 groups
 distr:  one band on NCORES_PER_BAND=  12 cores,    4 groups


--------------------------------------------------------------------------------------------------------


 INCAR:
 POTCAR:    PAW_PBE Ca_sv 06Sep2000               
 POTCAR:    PAW_PBE Si 05Jan2001                  
 POTCAR:    PAW_PBE O 08Apr2002                   
 POTCAR:    PAW_PBE Ca_sv 06Sep2000               
   SHA256 =  a47365830e737f14e0e6c5cf1ed81b94e081eecf0a33df105380881bc9da05d5 Ca
   COPYR  = (c) Copyright 06Sep2000 Georg Kresse                                
   COPYR  = This file is part of the software VASP. Any use, copying, and all ot
   COPYR  = If you do not have a valid VASP license, you may not use, copy or di
   VRHFIN =Ca: 3s3p4s                                                           
   LEXCH  = PE                                                                  
   EATOM  =  1006.0909 eV,   73.9456 Ry                                         
                                                                                
   TITEL  = PAW_PBE Ca_sv 06Sep2000                                             
   LULTRA =        F    use ultrasoft PP ?                                      
   IUNSCR =        1    unscreen: 0-lin 1-nonlin 2-no                           
   RPACOR =    2.000    partial core radius                                     
   POMASS =   40.078; ZVAL   =   10.000    mass and valenz                      
   RCORE  =    2.300    outmost cutoff radius                                   
   RWIGS  =    2.500; RWIGS  =    1.323    wigner-seitz radius (au A)           
   ENMAX  =  266.622; ENMIN  =  199.967 eV                                      
   RCLOC  =    1.808    cutoff for local pot                                    
   LCOR   =        T    correct aug charges                                     
   LPAW   =        T    paw PP                                                  
   EAUG   =  420.852                                                            
   RMAX   =    2.359    core radius for proj-oper                               
   RAUG   =    1.300    factor for augmentation sphere                          
   RDEP   =    2.392    radius for radial grids                                 
   RDEPT  =    1.987    core radius for aug-charge                              
                                                                                
   Atomic configuration                                                         
    7 entries                                                                   
     n  l   j            E        occ.                                          
     1  0  0.50     -3949.1705   2.0000                                         
     2  0  0.50      -414.3434   2.0000                                         
     2  1  1.50      -334.7047   6.0000                                         
     3  0  0.50       -47.0896   2.0000                                         
     4  0  0.50        -3.7663   2.0000                                         
     3  1  1.50       -28.0061   6.0000                                         
     3  2  1.50        -4.0817   0.0000                                         
   Description                                                                  
     l       E           TYP  RCUT    TYP  RCUT                                 
     0    -47.0896403     23  2.300                                             
     0     -3.7663320     23  2.300                                             
     1    -28.0060855     23  2.300                                             
     1      6.8029130     23  2.300                                             
     2     -4.0817478     23  2.300                                             
     2      0.4464412     23  2.300                                             
  local pseudopotential read in
  partial core-charges read in
  partial kinetic energy density read in
  atomic valenz-charges read in
  non local Contribution for L=           0  read in
    real space projection operators read in
  non local Contribution for L=           0  read in
    real space projection operators read in
  non local Contribution for L=           1  read in
    real space projection operators read in
  non local Contribution for L=           1  read in
    real space projection operators read in
  non local Contribution for L=           2  read in
    real space projection operators read in
  non local Contribution for L=           2  read in
    real space projection operators read in
    PAW grid and wavefunctions read in
 
   number of l-projection  operators is LMAX  =           6
   number of lm-projection operators is LMMAX =          18
 
 POTCAR:    PAW_PBE Si 05Jan2001                  
   SHA256 =  79d9987ad8750f624c4d6acb2a16d13abf6a777132adc04dc6c8399be72b42bb Si
   COPYR  = (c) Copyright 05Jan2001 Georg Kresse                                
   COPYR  = This file is part of the software VASP. Any use, copying, and all ot
   COPYR  = If you do not have a valid VASP license, you may not use, copy or di
   VRHFIN =Si: s2p2                                                             
   LEXCH  = PE                                                                  
   EATOM  =   103.0669 eV,    7.5752 Ry                                         
                                                                                
   TITEL  = PAW_PBE Si 05Jan2001                                                
   LULTRA =        F    use ultrasoft PP ?                                      
   IUNSCR =        1    unscreen: 0-lin 1-nonlin 2-no                           
   RPACOR =    1.500    partial core radius                                     
   POMASS =   28.085; ZVAL   =    4.000    mass and valenz                      
   RCORE  =    1.900    outmost cutoff radius                                   
   RWIGS  =    2.480; RWIGS  =    1.312    wigner-seitz radius (au A)           
   ENMAX  =  245.345; ENMIN  =  184.009 eV                                      
   ICORE  =        2    local potential                                         
   LCOR   =        T    correct aug charges                                     
   LPAW   =        T    paw PP                                                  
   EAUG   =  322.069                                                            
   DEXC   =    0.000                                                            
   RMAX   =    1.950    core radius for proj-oper                               
   RAUG   =    1.300    factor for augmentation sphere                          
   RDEP   =    1.993    radius for radial grids                                 
   RDEPT  =    1.837    core radius for aug-charge                              
                                                                                
   Atomic configuration                                                         
    6 entries                                                                   
     n  l   j            E        occ.                                          
     1  0  0.50     -1785.8828   2.0000                                         
     2  0  0.50      -139.4969   2.0000                                         
     2  1  1.50       -95.5546   6.0000                                         
     3  0  0.50       -10.8127   2.0000                                         
     3  1  0.50        -4.0811   2.0000                                         
     3  2  1.50        -4.0817   0.0000                                         
   Description                                                                  
     l       E           TYP  RCUT    TYP  RCUT                                 
     0    -10.8127223     23  1.900                                             
     0     -7.6451159     23  1.900                                             
     1     -4.0811372     23  1.900                                             
     1      2.4879257     23  1.900                                             
     2     -4.0817478      7  1.900                                             
  local pseudopotential read in
  partial core-charges read in
  partial kinetic energy density read in
  atomic valenz-charges read in
  non local Contribution for L=           0  read in
    real space projection operators read in
  non local Contribution for L=           0  read in
    real space projection operators read in
  non local Contribution for L=           1  read in
    real space projection operators read in
  non local Contribution for L=           1  read in
    real space projection operators read in
    PAW grid and wavefunctions read in
 
   number of l-projection  operators is LMAX  =           4
   number of lm-projection operators is LMMAX =           8
 
 POTCAR:    PAW_PBE O 08Apr2002                   
   SHA256 =  818f92134a0a090dccd8ba1447fa70422a3b330e708bb4f08108d8ae51209ddf O/
   COPYR  = (c) Copyright 08Apr2002 Georg Kresse                                
   COPYR  = This file is part of the software VASP. Any use, copying, and all ot
   COPYR  = If you do not have a valid VASP license, you may not use, copy or di
   VRHFIN =O: s2p4                                                              
   LEXCH  = PE                                                                  
   EATOM  =   432.3788 eV,   31.7789 Ry                                         
                                                                                
   TITEL  = PAW_PBE O 08Apr2002                                                 
   LULTRA =        F    use ultrasoft PP ?                                      
   IUNSCR =        1    unscreen: 0-lin 1-nonlin 2-no                           
   RPACOR =    1.200    partial core radius                                     
   POMASS =   16.000; ZVAL   =    6.000    mass and valenz                      
   RCORE  =    1.520    outmost cutoff radius                                   
   RWIGS  =    1.550; RWIGS  =    0.820    wigner-seitz radius (au A)           
   ENMAX  =  400.000; ENMIN  =  300.000 eV                                      
   ICORE  =        2    local potential                                         
   LCOR   =        T    correct aug charges                                     
   LPAW   =        T    paw PP                                                  
   EAUG   =  605.392                                                            
   DEXC   =    0.000                                                            
   RMAX   =    1.553    core radius for proj-oper                               
   RAUG   =    1.300    factor for augmentation sphere                          
   RDEP   =    1.550    radius for radial grids                                 
   RDEPT  =    1.329    core radius for aug-charge                              
                                                                                
   Atomic configuration                                                         
    4 entries                                                                   
     n  l   j            E        occ.                                          
     1  0  0.50      -514.6923   2.0000                                         
     2  0  0.50       -23.9615   2.0000                                         
     2  1  0.50        -9.0305   4.0000                                         
     3  2  1.50        -9.5241   0.0000                                         
   Description                                                                  
     l       E           TYP  RCUT    TYP  RCUT                                 
     0    -23.9615318     23  1.200                                             
     0     -9.5240782     23  1.200                                             
     1     -9.0304911     23  1.520                                             
     1      8.1634956     23  1.520                                             
     2     -9.5240782      7  1.500                                             
  local pseudopotential read in
  partial core-charges read in
  partial kinetic energy density read in
  kinetic energy density of atom read in
  atomic valenz-charges read in
  non local Contribution for L=           0  read in
    real space projection operators read in
  non local Contribution for L=           0  read in
    real space projection operators read in
  non local Contribution for L=           1  read in
    real space projection operators read in
  non local Contribution for L=           1  read in
    real space projection operators read in
    PAW grid and wavefunctions read in
 
   number of l-projection  operators is LMAX  =           4
   number of lm-projection operators is LMMAX =           8
 
 Optimization of the real space projectors (new method)

 maximal supplied QI-value         = 16.25
 optimisation between [QCUT,QGAM] = [ 12.51, 25.03] = [ 43.85,175.40] Ry 
 Optimized for a Real-space Cutoff    1.47 Angstroem

   l    n(q)    QCUT    max X(q) W(low)/X(q) W(high)/X(q)  e(spline) 
   0     11    12.514    11.817    0.25E-04    0.32E-05    0.87E-07
   0     11    12.514     8.461    0.39E-04    0.59E-05    0.18E-06
   1     11    12.514     3.957    0.97E-05    0.57E-05    0.28E-07
   1     11    12.514     4.314    0.42E-04    0.14E-04    0.23E-06
   2     10    12.514    14.565    0.79E-04    0.50E-03    0.16E-05
   2     10    12.514    14.552    0.75E-04    0.48E-03    0.15E-05
 Optimization of the real space projectors (new method)

 maximal supplied QI-value         = 19.84
 optimisation between [QCUT,QGAM] = [ 12.50, 25.00] = [ 43.76,175.03] Ry 
 Optimized for a Real-space Cutoff    1.16 Angstroem

   l    n(q)    QCUT    max X(q) W(low)/X(q) W(high)/X(q)  e(spline) 
   0      9    12.501   159.560    0.10E-03    0.83E-04    0.71E-07
   0      9    12.501   115.863    0.99E-04    0.81E-04    0.70E-07
   1      8    12.501    88.339    0.20E-03    0.25E-03    0.76E-07
   1      8    12.501    48.592    0.20E-03    0.24E-03    0.75E-07
 Optimization of the real space projectors (new method)

 maximal supplied QI-value         = 24.76
 optimisation between [QCUT,QGAM] = [ 12.38, 25.00] = [ 42.90,175.06] Ry 
 Optimized for a Real-space Cutoff    1.16 Angstroem

   l    n(q)    QCUT    max X(q) W(low)/X(q) W(high)/X(q)  e(spline) 
   0      9    12.378    20.381    0.16E-03    0.67E-05    0.31E-06
   0      9    12.378    15.268    0.17E-03    0.81E-05    0.33E-06
   1      8    12.378     5.964    0.20E-03    0.16E-03    0.30E-06
   1      8    12.378     5.382    0.18E-03    0.14E-03    0.26E-06
  PAW_PBE Ca_sv 06Sep2000               :
 energy of atom  1       EATOM=-1006.0909
 kinetic energy error for atom=    0.0012 (will be added to EATOM!!)
  PAW_PBE Si 05Jan2001                  :
 energy of atom  2       EATOM= -103.0669
 kinetic energy error for atom=    0.0003 (will be added to EATOM!!)
  PAW_PBE O 08Apr2002                   :
 energy of atom  3       EATOM= -432.3788
 kinetic energy error for atom=    0.0168 (will be added to EATOM!!)
 
 
 POSCAR: Ca Si  O                                
  positions in direct lattice
  No initial velocities read in
 exchange correlation table for  LEXCH =        8
   RHO(1)=    0.500       N(1)  =     2000
   RHO(2)=  100.500       N(2)  =     4000
 


--------------------------------------------------------------------------------------------------------


 ion  position               nearest neighbor table
   1  0.213  0.705  0.780- 113 2.00 114 2.16 107 2.22  82 2.35  66 2.39 100 2.48  45 2.82  50 2.86
                            51 2.99
   2  0.668  0.782  0.926-  72 2.14 122 2.51  87 2.52  62 2.54
   3  0.316  0.714  0.310-  97 2.08  92 2.23 102 2.37 126 2.37 117 2.54  53 2.92  15 3.09
   4  0.317  0.084  0.644-  81 2.01 116 2.25  59 2.28 100 2.38  78 2.41  67 2.45  50 2.95
   5  0.336  0.016  0.064- 128 2.12  83 2.39
   6  0.781  0.334  0.292-  65 2.08  69 2.20  85 2.28 132 2.38 112 2.45  39 2.87  43 3.15
   7  0.142  0.244  0.062- 101 2.11  93 2.12  55 2.30  56 2.35 124 2.44  27 2.84  21 3.04
   8  0.799  0.885  0.212-  80 2.15 121 2.26  76 2.28  91 2.46  72 2.56  54 2.93  40 2.97
   9  0.722  0.640  0.664-  64 2.21 104 2.22 122 2.35  16 3.11  49 3.15
  10  0.408  0.360  0.550- 111 2.26  73 2.37  78 2.40 133 2.47  77 2.54  37 2.77  28 2.87
  11  0.015  0.760  0.343-  80 2.08 115 2.49 108 2.51  75 2.55  38 2.88  31 2.97  41 3.13
  12  0.491  0.994  0.399-  97 2.27  76 2.28  59 2.42  40 2.88
  13  0.583  0.568  0.421- 112 2.14 104 2.40 133 2.46  92 2.48  38 2.83  28 3.09  37 3.10
  14  0.540  0.163  0.811-  57 2.20  98 2.20  61 2.31  88 2.39 116 2.41  67 2.53  29 2.73  35 2.97

  15  0.339  0.452  0.273-  92 2.09  68 2.09 105 2.15 106 2.19 117 2.37 133 2.45  56 2.48  33 2.87
                            39 2.95   3 3.09
  16  0.509  0.568  0.808-  94 2.45  79 2.48  77 2.55  28 2.98   9 3.11
  17  0.880  0.208  0.746- 118 2.16  95 2.26  90 2.29 119 2.32  52 2.87  30 2.98
  18  0.920  0.439  0.573-  95 2.26  85 2.30 119 2.32 109 2.45  64 2.45 120 2.49 104 2.49  48 2.63
                            49 2.92  22 3.02
  19  0.522  0.844  0.656-  94 2.15  67 2.21 123 2.23 135 2.41 122 2.42  50 2.78  51 2.93
  20  0.026  0.941  0.913-  71 1.99  86 2.12 128 2.32  89 2.39  31 2.89  54 2.93
  21  0.007  0.142  0.262-  65 2.16 103 2.38  93 2.49   7 3.04  32 3.06  47 3.10
  22  0.082  0.239  0.540- 119 2.02 109 2.06 118 2.31  78 2.34 103 2.35  84 2.48  52 2.89  18 3.02
                            48 3.05  33 3.09
  23  0.954  0.558  0.887-  89 2.15 131 2.27  64 2.30 107 2.40  44 2.49  30 3.12
  24  0.758  0.523  0.092- 131 1.96 130 2.26 112 2.38  69 2.45  72 2.46  44 2.91  26 3.15  34 3.16
                            30 3.16
  25  0.046  0.947  0.626-  71 2.12  96 2.32 125 2.39 113 2.49  42 3.08
  26  0.534  0.378  0.044- 105 2.05 130 2.33  79 2.43  88 2.49  39 3.08  24 3.15
  27  0.068  0.446  0.177-  93 2.13 124 2.29 131 2.42  56 2.43 110 2.47  68 2.57   7 2.84  46 2.88
                            48 3.13
  28  0.381  0.603  0.589- 114 1.57  94 1.64 133 1.67  77 1.73  51 2.81  10 2.87  45 2.88  16 2.98
                            13 3.09
  29  0.643  0.095  0.611-  99 1.55  67 1.63  90 1.66  98 1.85  14 2.73  32 2.89  42 2.92  37 3.08

  30  0.742  0.397  0.851-  63 1.51  88 1.58  74 1.68  95 1.75  43 2.94  17 2.98  23 3.12  24 3.16

  31  0.097  0.903  0.148- 108 1.58 128 1.68 115 1.69 102 1.76  86 2.19  20 2.89  11 2.97  53 3.03

  32  0.836  0.092  0.455-  65 1.58 118 1.74 121 1.75  99 1.80 125 2.35  29 2.89  41 2.91  21 3.06

  33  0.270  0.229  0.352- 129 1.56  78 1.60 106 1.64  56 1.68  15 2.87  47 2.94  22 3.09
  34  0.522  0.646  0.143-  92 1.66  58 1.68 126 1.70 130 1.74  40 2.46  62 2.52  53 3.13  24 3.16

  35  0.335  0.311  0.850-  79 1.52 116 1.55  55 1.59 134 1.83  52 2.75  14 2.97
  36  0.601  0.103  0.133-  83 1.63  91 1.68  57 1.73 132 1.83  76 2.22  54 2.96  39 3.03
  37  0.644  0.357  0.572-  73 1.60  98 1.68  85 1.72 111 1.90  95 2.42  10 2.77  29 3.08  13 3.10

  38  0.816  0.616  0.368-  80 1.58 104 1.59 110 1.72 112 1.85  13 2.83  11 2.88  41 3.00
  39  0.537  0.296  0.296- 132 1.62 105 1.66 106 1.67 111 1.73   6 2.87  15 2.95  36 3.03  26 3.08

  40  0.547  0.845  0.209-  62 1.54  58 1.58  97 1.66  76 1.73  34 2.46  12 2.88   8 2.97
  41  0.802  0.846  0.483- 127 1.61  75 1.71 125 1.76 121 1.80  80 2.25  32 2.91  38 3.00  42 3.03
                            11 3.13
  42  0.801  0.938  0.727- 122 1.55 125 1.65  71 1.69  90 1.81  87 2.22  29 2.92  41 3.03  25 3.08

  43  0.860  0.275  0.039-  69 1.54  70 1.58  93 1.66  63 1.67  54 2.85  30 2.94   6 3.15
  44  0.933  0.697  0.050- 131 1.64 115 1.68  72 1.75  89 1.88  23 2.49  60 2.50  24 2.91
  45  0.188  0.482  0.687- 107 1.48  84 1.63  77 1.71 134 1.88   1 2.82  28 2.88  48 3.03
  46  0.225  0.529  0.004-  68 1.55  82 1.59 124 1.72  60 1.98  53 2.66  27 2.88
  47  0.184  0.995  0.397- 103 1.59  59 1.60 108 1.76 129 1.85  96 1.97  33 2.94  51 3.03  21 3.10

  48  0.099  0.481  0.442- 109 1.53 117 1.64  84 1.69 120 1.86  18 2.63  45 3.03  22 3.05  27 3.13

  49  0.988  0.675  0.623-  64 1.55 113 1.57 120 1.64  75 1.70 107 2.35  18 2.92   9 3.15
  50  0.356  0.902  0.817-  61 1.58  66 1.68 123 1.71 100 1.88  19 2.78   1 2.86   4 2.95
  51  0.288  0.825  0.565- 135 1.51 114 1.57 100 1.68  96 1.81  59 2.18  28 2.81  19 2.93   1 2.99
                            47 3.03
  52  0.122  0.233  0.785- 101 1.50  81 1.68 134 1.73 119 1.85  35 2.75  17 2.87  22 2.89
  53  0.284  0.742  0.062- 126 1.49 102 1.63  60 1.83  82 1.96  66 2.11  46 2.66   3 2.92  31 3.03
                            34 3.13
  54  0.814  0.037  0.011-  91 1.59  87 1.69  70 1.71  86 1.78  43 2.85   8 2.93  20 2.93  36 2.96

  55  0.305  0.224  0.952-  35 1.59   7 2.30
  56  0.194  0.297  0.250-  33 1.68   7 2.35  27 2.43  15 2.48
  57  0.558  0.153  0.999-  36 1.73  14 2.20
  58  0.620  0.731  0.206-  40 1.58  34 1.68
  59  0.297  0.988  0.474-  47 1.60  51 2.18   4 2.28  12 2.42
  60  0.145  0.666  0.065-  53 1.83  46 1.98  44 2.50
  61  0.399  0.028  0.844-  50 1.58  14 2.31
  62  0.528  0.852  0.078-  40 1.54  34 2.52   2 2.54
  63  0.840  0.370  0.933-  30 1.51  43 1.67
  64  0.906  0.605  0.702-  49 1.55   9 2.21  23 2.30  18 2.45
  65  0.855  0.186  0.359-  32 1.58   6 2.08  21 2.16
  66  0.265  0.849  0.917-  50 1.68  53 2.11   1 2.39
  67  0.521  0.033  0.638-  29 1.63  19 2.21   4 2.45  14 2.53
  68  0.276  0.457  0.104-  46 1.55  15 2.09  27 2.57
  69  0.752  0.312  0.106-  43 1.54   6 2.20  24 2.45
  70  0.880  0.161  0.968-  43 1.58  54 1.71
  71  0.936  0.970  0.770-  42 1.69  20 1.99  25 2.12
  72  0.786  0.729  0.057-  44 1.75   2 2.14  24 2.46   8 2.56
  73  0.569  0.461  0.622-  37 1.60  10 2.37
  74  0.727  0.541  0.862-  30 1.68
  75  0.907  0.756  0.533-  49 1.70  41 1.71  11 2.55
  76  0.624  0.962  0.259-  40 1.73  36 2.22  12 2.28   8 2.28
  77  0.333  0.508  0.693-  45 1.71  28 1.73  10 2.54  16 2.55
  78  0.275  0.215  0.489-  33 1.60  22 2.34  10 2.40   4 2.41
  79  0.388  0.419  0.901-  35 1.52  26 2.43  16 2.48
  80  0.838  0.743  0.324-  38 1.58  11 2.08   8 2.15  41 2.25
  81  0.163  0.113  0.716-  52 1.68   4 2.01
  82  0.301  0.624  0.943-  46 1.59  53 1.96   1 2.35
  83  0.475  0.094  0.194-  36 1.63   5 2.39
  84  0.171  0.432  0.557-  45 1.63  48 1.69  22 2.48
  85  0.765  0.352  0.486-  37 1.72   6 2.28  18 2.30
  86  0.942  0.976  0.070-  54 1.78  20 2.12  31 2.19
  87  0.735  0.986  0.900-  54 1.69  42 2.22   2 2.52
  88  0.614  0.351  0.848-  30 1.58  14 2.39  26 2.49
  89  0.986  0.740  0.903-  44 1.88  23 2.15  20 2.39
  90  0.734  0.078  0.721-  29 1.66  42 1.81  17 2.29
  91  0.741  0.067  0.122-  54 1.59  36 1.68   8 2.46
  92  0.452  0.590  0.255-  34 1.66  15 2.09   3 2.23  13 2.48
  93  0.978  0.298  0.118-  43 1.66   7 2.12  27 2.13  21 2.49
  94  0.504  0.663  0.620-  28 1.64  19 2.15  16 2.45
  95  0.797  0.381  0.712-  30 1.75  18 2.26  17 2.26  37 2.42
  96  0.156  0.854  0.488-  51 1.81  47 1.97  25 2.32
  97  0.424  0.854  0.281-  40 1.66   3 2.08  12 2.27
  98  0.611  0.244  0.656-  37 1.68  29 1.85  14 2.20
  99  0.688  0.065  0.489-  29 1.55  32 1.80
 100  0.257  0.893  0.689-  51 1.68  50 1.88   4 2.38   1 2.48
 101  0.070  0.207  0.900-  52 1.50   7 2.11
 102  0.222  0.819  0.163-  53 1.63  31 1.76   3 2.37
 103  0.074  0.064  0.438-  47 1.59  22 2.35  21 2.38
 104  0.777  0.576  0.492-  38 1.59   9 2.22  13 2.40  18 2.49
 105  0.510  0.411  0.215-  39 1.66  26 2.05  15 2.15
 106  0.399  0.283  0.332-  33 1.64  39 1.67  15 2.19
 107  0.101  0.556  0.743-  45 1.48   1 2.22  49 2.35  23 2.40
 108  0.107  0.944  0.277-  31 1.58  47 1.76  11 2.51
 109  0.043  0.364  0.420-  48 1.53  22 2.06  18 2.45
 110  0.929  0.552  0.297-  38 1.72  27 2.47
 111  0.560  0.307  0.442-  39 1.73  37 1.90  10 2.26
 112  0.707  0.531  0.290-  38 1.85  13 2.14  24 2.38   6 2.45
 113  0.063  0.749  0.708-  49 1.57   1 2.00  25 2.49
 114  0.285  0.697  0.609-  28 1.57  51 1.57   1 2.16
 115  0.012  0.787  0.130-  44 1.68  31 1.69  11 2.49
 116  0.365  0.246  0.738-  35 1.55   4 2.25  14 2.41
 117  0.176  0.551  0.346-  48 1.64  15 2.37   3 2.54
 118  0.909  0.147  0.573-  32 1.74  17 2.16  22 2.31
 119  0.033  0.320  0.686-  52 1.85  22 2.02  18 2.32  17 2.32
 120  0.029  0.610  0.505-  49 1.64  48 1.86  18 2.49
 121  0.845  0.959  0.386-  32 1.75  41 1.80   8 2.26
 122  0.719  0.833  0.722-  42 1.55   9 2.35  19 2.42   2 2.51
 123  0.437  0.780  0.816-  50 1.71  19 2.23
 124  0.111  0.436  0.985-  46 1.72  27 2.29   7 2.44
 125  0.843  0.943  0.592-  42 1.65  41 1.76  32 2.35  25 2.39
 126  0.394  0.713  0.121-  53 1.49  34 1.70   3 2.37
 127  0.667  0.815  0.485-  41 1.61
 128  0.155  0.997  0.055-  31 1.68   5 2.12  20 2.32
 129  0.265  0.101  0.310-  33 1.56  47 1.85
 130  0.582  0.572  0.027-  34 1.74  24 2.26  26 2.33
 131  0.922  0.559  0.080-  44 1.64  24 1.96  23 2.27  27 2.42
 132  0.630  0.203  0.250-  39 1.62  36 1.83   6 2.38
 133  0.376  0.548  0.457-  28 1.67  15 2.45  13 2.46  10 2.47
 134  0.197  0.361  0.794-  52 1.73  35 1.83  45 1.88
 135  0.396  0.809  0.495-  51 1.51  19 2.41
 

IMPORTANT INFORMATION: All symmetrisations will be switched off!
NOSYMM: (Re-)initialisation of all symmetry stuff for point group C_1.

 
 

Automatic generation of k-mesh.
 generate k-points for:    2    2    2
Space group operators:
 irot       det(A)        alpha          n_x          n_y          n_z        tau_x        tau_y        tau_z
    1     1.000000     0.000001     1.000000     0.000000     0.000000     0.000000     0.000000     0.000000
 
 Subroutine IBZKPT returns following result:
 ===========================================
 
 Found      8 irreducible k-points:
 
 Following reciprocal coordinates:
            Coordinates               Weight
  0.000000  0.000000  0.000000      1.000000
  0.500000  0.000000  0.000000      1.000000
  0.000000  0.500000  0.000000      1.000000
  0.500000  0.500000  0.000000      1.000000
  0.000000  0.000000  0.500000      1.000000
  0.500000  0.000000  0.500000      1.000000
  0.000000  0.500000  0.500000      1.000000
  0.500000  0.500000  0.500000      1.000000
 
 Following cartesian coordinates:
            Coordinates               Weight
  0.000000  0.000000  0.000000      1.000000
  0.042999  0.000000  0.000000      1.000000
  0.000000  0.042999  0.000000      1.000000
  0.042999  0.042999  0.000000      1.000000
  0.000000  0.000000  0.042999      1.000000
  0.042999  0.000000  0.042999      1.000000
  0.000000  0.042999  0.042999      1.000000
  0.042999  0.042999  0.042999      1.000000
 


--------------------------------------------------------------------------------------------------------




 Dimension of arrays:
   k-points           NKPTS =      8   k-points in BZ     NKDIM =      8   number of bands    NBANDS=    520
   number of dos      NEDOS =    301   number of ions     NIONS =    135
   non local maximal  LDIM  =      6   non local SUM 2l+1 LMDIM =     18
   total plane-waves  NPLWV = 884736
   max r-space proj   IRMAX =   7548   max aug-charges    IRDMAX= 214954
   dimension x,y,z NGX =    96 NGY =   96 NGZ =   96
   dimension x,y,z NGXF=   192 NGYF=  192 NGZF=  192
   support grid    NGXF=   384 NGYF=  384 NGZF=  384
   ions per type =              27  27  81
   NGX,Y,Z   is equivalent  to a cutoff of  13.72, 13.72, 13.72 a.u.
   NGXF,Y,Z  is equivalent  to a cutoff of  27.45, 27.45, 27.45 a.u.

 SYSTEM =  unknown system                          
 POSCAR =  Ca Si  O                                

 Startparameter for this run:
   NWRITE =      2    write-flag & timer
   PREC   = a         normal or accurate (medium, high low for compatibility)
   ISTART =      0    job   : 0-new  1-cont  2-samecut
   ICHARG =      2    charge: 1-file 2-atom 10-const
   ISPIN  =      1    spin polarized calculation?
   LNONCOLLINEAR =      F non collinear calculations
   LSORBIT =      F    spin-orbit coupling
   INIWAV =      1    electr: 0-lowe 1-rand  2-diag
   LASPH  =      F    aspherical Exc in radial PAW
   METAGGA=      F    non-selfconsistent MetaGGA calc.

 Electronic Relaxation 1
   ENCUT  =  600.0 eV  44.10 Ry    6.64 a.u.  23.22 23.22 23.22*2*pi/ulx,y,z
   ENINI  =  600.0     initial cutoff
   ENAUG  =  605.4 eV  augmentation charge cutoff
   NELM   =     60;   NELMIN=  2; NELMDL= -5     # of ELM steps 
   EDIFF  = 0.1E-05   stopping-criterion for ELM
   LREAL  =      T    real-space projection
   NLSPLINE    = F    spline interpolate recip. space projectors
   LCOMPAT=      F    compatible to vasp.4.4
   GGA_COMPAT  = T    GGA compatible to vasp.4.4-vasp.4.6
   LMAXPAW     = -100 max onsite density
   LMAXMIX     =    2 max onsite mixed and CHGCAR
   VOSKOWN=      0    Vosko Wilk Nusair interpolation
   ROPT   =   -0.00025  -0.00025  -0.00025
 Ionic relaxation
   EDIFFG = -.1E-01   stopping-criterion for IOM
   NSW    =      1    number of steps for IOM
   NBLOCK =      1;   KBLOCK =      1    inner block; outer block 
   IBRION =     -1    ionic relax: 0-MD 1-quasi-New 2-CG
   NFREE  =      0    steps in history (QN), initial steepest desc. (CG)
   ISIF   =      2    stress and relaxation
   IWAVPR =     10    prediction:  0-non 1-charg 2-wave 3-comb
   ISYM   =      0    0-nonsym 1-usesym 2-fastsym
   LCORR  =      T    Harris-Foulkes like correction to forces

   POTIM  = 1.0000    time-step for ionic-motion
   TEIN   =    0.0    initial temperature
   TEBEG  =    0.0;   TEEND  =   0.0 temperature during run
   SMASS  =  -3.00    Nose mass-parameter (am)
   estimated Nose-frequenzy (Omega)   =  0.10E-29 period in steps =****** mass=  -0.309E-26a.u.
   SCALEE = 1.0000    scale energy and forces
   NPACO  =    256;   APACO  = 16.0  distance and # of slots for P.C.
   PSTRESS=    0.0 pullay stress

  Mass of Ions in am
   POMASS =  40.08 28.09 16.00
  Ionic Valenz
   ZVAL   =  10.00  4.00  6.00
  Atomic Wigner-Seitz radii
   RWIGS  =  -1.00 -1.00 -1.00
  virtual crystal weights 
   VCA    =   1.00  1.00  1.00
   NELECT =     864.0000    total number of electrons
   NUPDOWN=      -1.0000    fix difference up-down

 DOS related values:
   EMIN   =  10.00;   EMAX   =-10.00  energy-range for DOS
   EFERMI =   0.00
   ISMEAR =     0;   SIGMA  =   0.05  broadening in eV -4-tet -1-fermi 0-gaus

 Electronic relaxation 2 (details)
   IALGO  =     38    algorithm
   LDIAG  =      T    sub-space diagonalisation (order eigenvalues)
   LSUBROT=      F    optimize rotation matrix (better conditioning)
   TURBO    =      0    0=normal 1=particle mesh
   IRESTART =      0    0=no restart 2=restart with 2 vectors
   NREBOOT  =      0    no. of reboots
   NMIN     =      0    reboot dimension
   EREF     =   0.00    reference energy to select bands
   IMIX   =      4    mixing-type and parameters
     AMIX     =   0.40;   BMIX     =  1.00
     AMIX_MAG =   1.60;   BMIX_MAG =  1.00
     AMIN     =   0.10
     WC   =   100.;   INIMIX=   1;  MIXPRE=   1;  MAXMIX= -45

 Intra band minimization:
   WEIMIN = 0.0000     energy-eigenvalue tresh-hold
   EBREAK =  0.48E-09  absolut break condition
   DEPER  =   0.30     relativ break condition  

   TIME   =   0.40     timestep for ELM

  volume/ion in A,a.u.               =      11.65        78.60
  Fermi-wavevector in a.u.,A,eV,Ry     =   1.340915  2.533962 24.463997  1.798053
  Thomas-Fermi vector in A             =   2.469190
 
 Write flags
   LWAVE        =      F    write WAVECAR
   LDOWNSAMPLE  =      F    k-point downsampling of WAVECAR
   LCHARG       =      F    write CHGCAR
   LVTOT        =      F    write LOCPOT, total local potential
   LVHAR        =      F    write LOCPOT, Hartree potential only
   LELF         =      F    write electronic localiz. function (ELF)
   LORBIT       =      0    0 simple, 1 ext, 2 COOP (PROOUT), +10 PAW based schemes


 Dipole corrections
   LMONO  =      F    monopole corrections only (constant potential shift)
   LDIPOL =      F    correct potential (dipole corrections)
   IDIPOL =      0    1-x, 2-y, 3-z, 4-all directions 
   EPSILON=  1.0000000 bulk dielectric constant

 Exchange correlation treatment:
   GGA     =    --    GGA type
   LEXCH   =     8    internal setting for exchange type
   VOSKOWN=      0    Vosko Wilk Nusair interpolation
   LHFCALC =     F    Hartree Fock is set to
   LHFONE  =     F    Hartree Fock one center treatment
   AEXX    =    0.0000 exact exchange contribution

 Linear response parameters
   LEPSILON=     F    determine dielectric tensor
   LRPA    =     F    only Hartree local field effects (RPA)
   LNABLA  =     F    use nabla operator in PAW spheres
   LVEL    =     F    velocity operator in full k-point grid
   LINTERFAST=   F  fast interpolation
   KINTER  =     0    interpolate to denser k-point grid
   CSHIFT  =0.1000    complex shift for real part using Kramers Kronig
   OMEGAMAX=  -1.0    maximum frequency
   DEG_THRESHOLD= 0.2000000E-02 threshold for treating states as degnerate
   RTIME   =   -0.100 relaxation time in fs
  (WPLASMAI=    0.000 imaginary part of plasma frequency in eV, 0.658/RTIME)
   DFIELD  = 0.0000000 0.0000000 0.0000000 field for delta impulse in time
 
 Orbital magnetization related:
   ORBITALMAG=     F  switch on orbital magnetization
   LCHIMAG   =     F  perturbation theory with respect to B field
   DQ        =  0.001000  dq finite difference perturbation B field
   LLRAUG    =     F  two centre corrections for induced B field



--------------------------------------------------------------------------------------------------------


 Static calculation
 charge density and potential will be updated during run
 non-spin polarized calculation
 Variant of blocked Davidson
 Davidson routine will perform the subspace rotation
 perform sub-space diagonalisation
    after iterative eigenvector-optimisation
 modified Broyden-mixing scheme, WC =      100.0
 initial mixing is a Kerker type mixing with AMIX =  0.4000 and BMIX =      1.0000
 Hartree-type preconditioning will be used
 using additional bands           88
 real space projection scheme for non local part
 use partial core corrections
 calculate Harris-corrections to forces 
   (improved forces if not selfconsistent)
 use gradient corrections 
 use of overlap-Matrix (Vanderbilt PP)
 Gauss-broadening in eV      SIGMA  =   0.05


--------------------------------------------------------------------------------------------------------


  energy-cutoff  :      600.00
  volume of cell :     1572.30
      direct lattice vectors                 reciprocal lattice vectors
    11.628173330  0.000000000  0.000000000     0.085998030  0.000000000  0.000000000
     0.000000000 11.628173330  0.000000000     0.000000000  0.085998030  0.000000000
     0.000000000  0.000000000 11.628173330     0.000000000  0.000000000  0.085998030

  length of vectors
    11.628173330 11.628173330 11.628173330     0.085998030  0.085998030  0.085998030


 
 k-points in units of 2pi/SCALE and weight: read from INCAR                         
   0.00000000  0.00000000  0.00000000       0.125
   0.04299902  0.00000000  0.00000000       0.125
   0.00000000  0.04299902  0.00000000       0.125
   0.04299902  0.04299902  0.00000000       0.125
   0.00000000  0.00000000  0.04299902       0.125
   0.04299902  0.00000000  0.04299902       0.125
   0.00000000  0.04299902  0.04299902       0.125
   0.04299902  0.04299902  0.04299902       0.125
 
 k-points in reciprocal lattice and weights: read from INCAR                         
   0.00000000  0.00000000  0.00000000       0.125
   0.50000000  0.00000000  0.00000000       0.125
   0.00000000  0.50000000  0.00000000       0.125
   0.50000000  0.50000000  0.00000000       0.125
   0.00000000  0.00000000  0.50000000       0.125
   0.50000000  0.00000000  0.50000000       0.125
   0.00000000  0.50000000  0.50000000       0.125
   0.50000000  0.50000000  0.50000000       0.125
 
 position of ions in fractional coordinates (direct lattice) 
   0.21319890  0.70515794  0.78001786
   0.66847474  0.78158100  0.92610869
   0.31609516  0.71436131  0.30976554
   0.31672008  0.08384999  0.64413889
   0.33627254  0.01646322  0.06351147
   0.78099107  0.33406787  0.29182797
   0.14229078  0.24377957  0.06173216
   0.79909026  0.88544843  0.21231814
   0.72247990  0.63997575  0.66399751
   0.40752685  0.36040098  0.55025367
   0.01509945  0.76033380  0.34283625
   0.49108764  0.99423100  0.39922969
   0.58299926  0.56772928  0.42106081
   0.54047976  0.16345978  0.81138263
   0.33850191  0.45214098  0.27276821
   0.50864677  0.56815745  0.80832373
   0.87967769  0.20815126  0.74610910
   0.91986886  0.43885660  0.57294758
   0.52201407  0.84399101  0.65614044
   0.02641948  0.94130736  0.91266440
   0.00705303  0.14243789  0.26159272
   0.08206666  0.23865084  0.53999319
   0.95362053  0.55816898  0.88734351
   0.75834855  0.52279249  0.09163177
   0.04607808  0.94652653  0.62633767
   0.53440795  0.37818419  0.04406457
   0.06775869  0.44591515  0.17660981
   0.38067841  0.60292971  0.58906403
   0.64346617  0.09522418  0.61128660
   0.74219047  0.39696366  0.85120254
   0.09706422  0.90281253  0.14777518
   0.83642921  0.09200076  0.45533787
   0.26999831  0.22856714  0.35239303
   0.52202131  0.64578778  0.14299693
   0.33523341  0.31105440  0.85007616
   0.60112580  0.10303140  0.13292247
   0.64449354  0.35746926  0.57233964
   0.81584765  0.61606347  0.36797549
   0.53698751  0.29640803  0.29558078
   0.54700327  0.84546112  0.20891425
   0.80172084  0.84600432  0.48343245
   0.80131433  0.93822044  0.72729979
   0.86001680  0.27547146  0.03924631
   0.93305124  0.69657929  0.04973124
   0.18784313  0.48232312  0.68680011
   0.22481098  0.52851664  0.00390981
   0.18369808  0.99483940  0.39682547
   0.09913242  0.48088848  0.44150735
   0.98838470  0.67481670  0.62318013
   0.35552859  0.90236365  0.81732783
   0.28773133  0.82463351  0.56490081
   0.12211144  0.23312672  0.78495374
   0.28353022  0.74177889  0.06236661
   0.81449717  0.03662444  0.01092869
   0.30547583  0.22407511  0.95166160
   0.19437102  0.29701463  0.24975826
   0.55837370  0.15251294  0.99928018
   0.62048671  0.73142232  0.20581775
   0.29731421  0.98786458  0.47380014
   0.14530377  0.66594419  0.06533443
   0.39898092  0.02785670  0.84446384
   0.52813221  0.85247815  0.07821126
   0.83995305  0.37038758  0.93294136
   0.90583827  0.60501046  0.70159000
   0.85509261  0.18565722  0.35914041
   0.26487070  0.84900536  0.91696557
   0.52099354  0.03283543  0.63814281
   0.27599708  0.45738799  0.10419631
   0.75188784  0.31228407  0.10602368
   0.88033235  0.16136092  0.96841153
   0.93635579  0.97017053  0.76990898
   0.78609835  0.72930704  0.05706551
   0.56920204  0.46079342  0.62238504
   0.72665413  0.54051165  0.86191412
   0.90657750  0.75554709  0.53323313
   0.62433165  0.96188923  0.25912087
   0.33253595  0.50774477  0.69271585
   0.27504762  0.21450886  0.48916912
   0.38774446  0.41946802  0.90111458
   0.83768318  0.74291435  0.32416170
   0.16282547  0.11284402  0.71648555
   0.30123208  0.62443523  0.94256472
   0.47517329  0.09385168  0.19405225
   0.17116415  0.43152969  0.55732051
   0.76454207  0.35245188  0.48609732
   0.94204387  0.97646685  0.07001156
   0.73533230  0.98576277  0.90030424
   0.61431287  0.35146339  0.84754515
   0.98581193  0.73981539  0.90284519
   0.73377103  0.07840567  0.72084990
   0.74087035  0.06739484  0.12183574
   0.45214398  0.59032512  0.25456156
   0.97756602  0.29815308  0.11778913
   0.50428384  0.66324378  0.62042477
   0.79687402  0.38104915  0.71231331
   0.15635433  0.85412751  0.48762866
   0.42404657  0.85441252  0.28112871
   0.61082108  0.24445810  0.65556032
   0.68780977  0.06457709  0.48935503
   0.25735340  0.89297198  0.68888510
   0.07034205  0.20661414  0.89974747
   0.22246405  0.81915626  0.16252558
   0.07362894  0.06366758  0.43841788
   0.77675033  0.57638506  0.49238835
   0.50965702  0.41078410  0.21529393
   0.39856075  0.28335102  0.33209381
   0.10060465  0.55610776  0.74266695
   0.10730500  0.94379118  0.27656300
   0.04348729  0.36372755  0.41998035
   0.92931694  0.55200911  0.29717130
   0.55991538  0.30675463  0.44234425
   0.70675397  0.53086130  0.28957129
   0.06319890  0.74924636  0.70772192
   0.28526751  0.69655998  0.60863016
   0.01188385  0.78684875  0.12996718
   0.36538784  0.24628582  0.73766077
   0.17591119  0.55059533  0.34621784
   0.90934255  0.14728188  0.57344249
   0.03337715  0.31995136  0.68564573
   0.02901730  0.60960077  0.50459744
   0.84505410  0.95886142  0.38622734
   0.71901361  0.83337065  0.72247282
   0.43685095  0.77956219  0.81564305
   0.11093730  0.43638157  0.98458326
   0.84347644  0.94327626  0.59161021
   0.39371046  0.71261642  0.12125993
   0.66669002  0.81533692  0.48463282
   0.15496086  0.99723833  0.05496980
   0.26513610  0.10093939  0.31028387
   0.58169593  0.57238826  0.02695033
   0.92213596  0.55901974  0.08020471
   0.62961309  0.20328655  0.25033983
   0.37561601  0.54821091  0.45673997
   0.19658860  0.36135674  0.79411024
   0.39602409  0.80882470  0.49497000
 
 position of ions in cartesian coordinates  (Angst):
   2.47911374  8.19969873  9.07018282
   7.77314019  9.08835938 10.76895238
   3.67560935  8.30671709  3.60200735
   3.68287599  0.97502217  7.49015869
   3.91023536  0.19143721  0.73852237
   9.08149953  3.88459910  3.39342616
   1.65458183  2.83471106  0.71783221
   9.29196005 10.29614780  2.46887219
   8.40112149  7.44174900  7.72107815
   4.73879289  4.19080512  6.39844507
   0.17557903  8.84129325  3.98655935
   5.71045220 11.56109038  4.64231207
   6.77921649  6.60165449  4.89616809
   6.28479236  1.90073862  9.43489782
   3.93615884  5.25757373  3.17179601
   5.91463281  6.60663329  9.39932839
  10.22904469  2.42041892  8.67588596
  10.69639454  5.10310064  6.66233372
   6.07007006  9.81407375  7.62971473
   0.30721029 10.94568513 10.61261988
   0.08201380  1.65629252  3.04184549
   0.95428532  2.77507328  6.27913441
  11.08886484  6.49048565 10.31818409
   8.81820841  6.07912171  1.06551007
   0.53580390 11.00637461  7.28316301
   6.21418830  4.39759130  0.51239042
   0.78790974  5.18517861  2.05364946
   4.42659452  7.01097114  6.84973867
   7.48233615  1.10728324  7.10814649
   8.63031947  4.61596226  9.89793062
   1.12867952 10.49806057  1.71835535
   9.72614387  1.06980077  5.29474769
   3.13958720  2.65781827  4.09768729
   6.07015430  7.50933219  1.66279310
   3.89815225  3.61699453  9.88483289
   6.98999503  1.19806698  1.54564550
   7.49428256  4.15671454  6.65526457
   9.48681793  7.16369286  4.27888282
   6.24418387  3.44668391  3.43706452
   6.36064889  9.83116845  2.42929115
   9.32254887  9.83748489  5.62143636
   9.31782191 10.90978987  8.45716807
  10.00042446  3.20322992  0.45636293
  10.84968159  8.09994477  0.57828348
   2.18427245  5.60853685  7.98623073
   2.61414102  6.14568311  0.04546396
   2.13607312 11.56816502  4.61435533
   1.15272898  5.59185461  5.13392398
  11.49310860  7.84688554  7.24644655
   4.13414811 10.49284095  9.50402968
   3.34578974  9.58898142  6.56876448
   1.41993302  2.71083792  9.12757819
   3.29693854  8.62553355  0.72520973
   9.47111423  0.42587533  0.12708070
   3.55212589  2.60558424 11.06608603
   2.26017986  3.45373762  2.90423238
   6.49286617  1.77344690 11.61980311
   7.21512700  8.50510548  2.39328444
   3.45722120 11.48706053  5.50943012
   1.68961742  7.74371451  0.75972007
   4.63941929  0.32392248  9.81957186
   6.14121288  9.91276373  0.90945407
   9.76711970  4.30693097 10.84840379
  10.53324445  7.03516646  8.15821007
   9.94316512  2.15885436  4.17614697
   3.07996243  9.87238145 10.66263453
   6.05820324  0.38181612  7.42043516
   3.20934192  5.31858679  1.21161277
   8.74308215  3.63129329  1.23286174
  10.23665716  1.87633280 11.26085711
  10.88810746 11.28131104  8.95263503
   9.14088783  8.48050873  0.66356764
   6.61877999  5.35818570  7.23720116
   8.44966018  6.28516310 10.02248681
  10.54184032  8.78563257  6.20052730
   7.25983661 11.18501473  3.01310235
   3.86678571  5.90414417  8.05502002
   3.19830138  2.49434622  5.68814328
   4.50875977  4.87764680 10.47831655
   9.74072518  8.63873684  3.76940843
   1.89336275  1.31216985  8.33141815
   3.50277882  7.26104114 10.96030592
   5.52539736  1.09132358  2.25647318
   1.99032644  5.01790201  6.48061950
   8.89022774  4.09837153  5.65242386
  10.95424937 11.35452574  0.81410656
   8.55057140 11.46262040 10.46889375
   7.14333650  4.08687727  9.85540191
  11.46319195  8.60270155 10.49844039
   8.53241676  0.91171476  8.38216759
   8.61496883  0.78367888  1.41672705
   5.25760859  6.86440285  2.96008592
  11.36730708  3.46697567  1.36967247
   5.86389989  7.71231365  7.21440674
   9.26618923  4.43090562  8.28290266
   1.81811521  9.93194274  5.67023055
   4.93088704  9.93525685  3.26901337
   7.10273339  2.84260114  7.62296907
   7.99797120  0.75091363  5.69030514
   2.99254997 10.38363297  8.01047535
   0.81794958  2.40254507 10.46241956
   2.58685057  9.52529097  1.88987565
   0.85617012  0.74033770  5.09799913
   9.03218748  6.70230538  5.72557703
   5.92638017  4.77666876  2.50347511
   4.63453353  3.29485480  3.86164434
   1.16984825  6.46651744  8.63585997
   1.24776109 10.97456740  3.21592246
   0.50567780  4.22948705  4.88360433
  10.80625843  6.41885763  3.45555938
   6.51079306  3.56699599  5.14365564
   8.21825766  6.17294725  3.36718520
   0.73488774  8.71236655  8.22951315
   3.31714010  8.09972018  7.07725705
   0.13818744  9.14961369  1.51128091
   4.24879314  2.86385425  8.57764725
   2.04552585  6.40241792  4.02588100
  10.57399278  1.71261920  6.66808871
   0.38811533  3.72044989  7.97280739
   0.33741814  7.08854336  5.86754645
   9.82643549 11.14980680  4.49111844
   8.36081491  9.69057837  8.40103915
   5.07977861  9.06488422  9.48443881
   1.28999814  5.07432057 11.44890477
   9.80809026 10.96857980  6.87934601
   4.57813343  8.28642726  1.41003145
   7.75238711  9.48087899  5.63539446
   1.80191176 11.59606018  0.63919836
   3.08304857  1.17374075  3.60803464
   6.76406106  6.65582995  0.31338316
  10.72275682  6.50037840  0.93263430
   7.32125010  2.36385127  2.91099496
   4.36772805  6.37469148  5.31105151
   2.28596626  4.20191875  9.23405147
   4.60503679  9.40515382  5.75559699
 


--------------------------------------------------------------------------------------------------------


 k-point  1 :   0.0000 0.0000 0.0000  plane waves:   52515
 k-point  2 :   0.5000 0.0000 0.0000  plane waves:   52518
 k-point  3 :   0.0000 0.5000 0.0000  plane waves:   52518
 k-point  4 :   0.5000 0.5000 0.0000  plane waves:   52456
 k-point  5 :   0.0000 0.0000 0.5000  plane waves:   52518
 k-point  6 :   0.5000 0.0000 0.5000  plane waves:   52456
 k-point  7 :   0.0000 0.5000 0.5000  plane waves:   52456
 k-point  8 :   0.5000 0.5000 0.5000  plane waves:   52568

 maximum and minimum number of plane-waves per node :      4420     4326

 maximum number of plane-waves:     52568
 maximum index in each direction: 
   IXMAX=   23   IYMAX=   23   IZMAX=   23
   IXMIN=  -23   IYMIN=  -23   IZMIN=  -23


 real space projection operators:
  total allocation   :      51772.47 KBytes
  max/ min on nodes  :       4422.27       4230.00


 parallel 3D FFT for wavefunctions:
    minimum data exchange during FFTs selected (reduces bandwidth)
 parallel 3D FFT for charge:
    minimum data exchange during FFTs selected (reduces bandwidth)


 total amount of memory used by VASP MPI-rank0   164782. kBytes
=======================================================================

   base      :      30000. kBytes
   nonlr-proj:      22671. kBytes
   fftplans  :      23775. kBytes
   grid      :      12472. kBytes
   one-center:        186. kBytes
   wavefun   :      75678. kBytes
 
     INWAV:  cpu time    0.0001: real time    0.0002
 Broyden mixing: mesh for mixing (old mesh)
   NGX = 47   NGY = 47   NGZ = 47
  (NGX  =192   NGY  =192   NGZ  =192)
  gives a total of 103823 points

 initial charge density was supplied:
 charge density of overlapping atoms calculated
 number of electron     864.0000000 magnetization 
 keeping initial charge density in first step


--------------------------------------------------------------------------------------------------------


 Maximum index for non-local projection operator          682
 Maximum index for augmentation-charges         4869 (set IRDMAX)


--------------------------------------------------------------------------------------------------------


 First call to EWALD:  gamma=   0.152
 Maximum number of real-space cells 3x 3x 3
 Maximum number of reciprocal cells 3x 3x 3

    FEWALD:  cpu time    0.0054: real time    0.0055


--------------------------------------- Iteration      1(   1)  ---------------------------------------


    POTLOK:  cpu time    0.1061: real time    0.1147
    SETDIJ:  cpu time    0.2987: real time    0.3064
     EDDAV:  cpu time   33.7031: real time   33.8877
       DOS:  cpu time    0.0024: real time    0.0024
    --------------------------------------------
      LOOP:  cpu time   34.1103: real time   34.3112

 eigenvalue-minimisations  :  8320
 total energy-change (2. order) : 0.9700690E+04  (-0.4839318E+05)
 number of electron     864.0000000 magnetization 
 augmentation part      864.0000000 magnetization 

 Free energy of the ion-electron system (eV)
  ---------------------------------------------------
  alpha Z        PSCENC =      3039.22321400
  Ewald energy   TEWEN  =    -49191.28813429
  -Hartree energ DENC   =    -15544.30037287
  -exchange      EXHF   =         0.00000000
  -V(xc)+E(xc)   XCENC  =      3191.62031001
  PAW double counting   =     50594.51003143   -49994.65612350
  entropy T*S    EENTRO =        -0.03196199
  eigenvalues    EBANDS =      2637.07326107
  atomic energy  EATOM  =     64968.54023382
  Solvation  Ediel_sol  =         0.00000000
  ---------------------------------------------------
  free energy    TOTEN  =      9700.69045769 eV

  energy without entropy =     9700.72241968  energy(sigma->0) =     9700.70643868


--------------------------------------------------------------------------------------------------------




--------------------------------------- Iteration      1(   2)  ---------------------------------------


     EDDAV:  cpu time   38.2983: real time   38.5019
       DOS:  cpu time    0.0010: real time    0.0010
    --------------------------------------------
      LOOP:  cpu time   38.2993: real time   38.5029

 eigenvalue-minimisations  :  9728
 total energy-change (2. order) :-0.9688172E+04  (-0.9383461E+04)
 number of electron     864.0000000 magnetization 
 augmentation part      864.0000000 magnetization 

 Free energy of the ion-electron system (eV)
  ---------------------------------------------------
  alpha Z        PSCENC =      3039.22321400
  Ewald energy   TEWEN  =    -49191.28813429
  -Hartree energ DENC   =    -15544.30037287
  -exchange      EXHF   =         0.00000000
  -V(xc)+E(xc)   XCENC  =      3191.62031001
  PAW double counting   =     50594.51003143   -49994.65612350
  entropy T*S    EENTRO =        -0.00000000
  eigenvalues    EBANDS =     -7051.13109444
  atomic energy  EATOM  =     64968.54023382
  Solvation  Ediel_sol  =         0.00000000
  ---------------------------------------------------
  free energy    TOTEN  =        12.51806417 eV

  energy without entropy =       12.51806417  energy(sigma->0) =       12.51806417


--------------------------------------------------------------------------------------------------------




--------------------------------------- Iteration      1(   3)  ---------------------------------------


     EDDAV:  cpu time   39.7935: real time   39.9660
       DOS:  cpu time    0.0010: real time    0.0010
    --------------------------------------------
      LOOP:  cpu time   39.7945: real time   39.9670

 eigenvalue-minimisations  : 10248
 total energy-change (2. order) :-0.1033874E+04  (-0.1027262E+04)
 number of electron     864.0000000 magnetization 
 augmentation part      864.0000000 magnetization 

 Free energy of the ion-electron system (eV)
  ---------------------------------------------------
  alpha Z        PSCENC =      3039.22321400
  Ewald energy   TEWEN  =    -49191.28813429
  -Hartree energ DENC   =    -15544.30037287
  -exchange      EXHF   =         0.00000000
  -V(xc)+E(xc)   XCENC  =      3191.62031001
  PAW double counting   =     50594.51003143   -49994.65612350
  entropy T*S    EENTRO =        -0.00000000
  eigenvalues    EBANDS =     -8085.00461927
  atomic energy  EATOM  =     64968.54023382
  Solvation  Ediel_sol  =         0.00000000
  ---------------------------------------------------
  free energy    TOTEN  =     -1021.35546066 eV

  energy without entropy =    -1021.35546066  energy(sigma->0) =    -1021.35546066


--------------------------------------------------------------------------------------------------------




--------------------------------------- Iteration      1(   4)  ---------------------------------------


     EDDAV:  cpu time   42.7482: real time   42.9491
       DOS:  cpu time    0.0010: real time    0.0010
    --------------------------------------------
      LOOP:  cpu time   42.7492: real time   42.9501

 eigenvalue-minimisations  : 11288
 total energy-change (2. order) :-0.4896811E+02  (-0.4879518E+02)
 number of electron     864.0000000 magnetization 
 augmentation part      864.0000000 magnetization 

 Free energy of the ion-electron system (eV)
  ---------------------------------------------------
  alpha Z        PSCENC =      3039.22321400
  Ewald energy   TEWEN  =    -49191.28813429
  -Hartree energ DENC   =    -15544.30037287
  -exchange      EXHF   =         0.00000000
  -V(xc)+E(xc)   XCENC  =      3191.62031001
  PAW double counting   =     50594.51003143   -49994.65612350
  entropy T*S    EENTRO =        -0.00000000
  eigenvalues    EBANDS =     -8133.97272819
  atomic energy  EATOM  =     64968.54023382
  Solvation  Ediel_sol  =         0.00000000
  ---------------------------------------------------
  free energy    TOTEN  =     -1070.32356958 eV

  energy without entropy =    -1070.32356958  energy(sigma->0) =    -1070.32356958


--------------------------------------------------------------------------------------------------------




--------------------------------------- Iteration      1(   5)  ---------------------------------------


     EDDAV:  cpu time   53.3956: real time   53.6674
       DOS:  cpu time    0.0010: real time    0.0010
    CHARGE:  cpu time    1.2458: real time    1.2504
    MIXING:  cpu time    0.0042: real time    0.0042
    --------------------------------------------
      LOOP:  cpu time   54.6466: real time   54.9230

 eigenvalue-minimisations  : 14800
 total energy-change (2. order) :-0.4894290E+01  (-0.4891864E+01)
 number of electron     864.0000006 magnetization 
 augmentation part      133.4673216 magnetization 

 Broyden mixing:
  rms(total) = 0.85162E+01    rms(broyden)= 0.85155E+01
  rms(prec ) = 0.10067E+02
  weight for this iteration     100.00

 Free energy of the ion-electron system (eV)
  ---------------------------------------------------
  alpha Z        PSCENC =      3039.22321400
  Ewald energy   TEWEN  =    -49191.28813429
  -Hartree energ DENC   =    -15544.30037287
  -exchange      EXHF   =         0.00000000
  -V(xc)+E(xc)   XCENC  =      3191.62031001
  PAW double counting   =     50594.51003143   -49994.65612350
  entropy T*S    EENTRO =        -0.00000000
  eigenvalues    EBANDS =     -8138.86701856
  atomic energy  EATOM  =     64968.54023382
  Solvation  Ediel_sol  =         0.00000000
  ---------------------------------------------------
  free energy    TOTEN  =     -1075.21785995 eV

  energy without entropy =    -1075.21785995  energy(sigma->0) =    -1075.21785995


--------------------------------------------------------------------------------------------------------




--------------------------------------- Iteration      1(   6)  ---------------------------------------


    POTLOK:  cpu time    0.1013: real time    0.1118
    SETDIJ:  cpu time    0.2960: real time    0.3031
     EDDAV:  cpu time   38.0758: real time   38.8941
       DOS:  cpu time    0.0010: real time    0.0010
    CHARGE:  cpu time    1.2479: real time    1.2532
    MIXING:  cpu time    0.0044: real time    0.0044
    --------------------------------------------
      LOOP:  cpu time   39.7264: real time   40.5676

 eigenvalue-minimisations  :  9872
 total energy-change (2. order) : 0.1381049E+03  (-0.6373873E+02)
 number of electron     864.0000006 magnetization 
 augmentation part      120.8342430 magnetization 

 Broyden mixing:
  rms(total) = 0.36350E+01    rms(broyden)= 0.36340E+01
  rms(prec ) = 0.38301E+01
  weight for this iteration     100.00

 eigenvalues of (default mixing * dielectric matrix)
  average eigenvalue GAMMA=   1.0543
  1.0543

 Free energy of the ion-electron system (eV)
  ---------------------------------------------------
  alpha Z        PSCENC =      3039.22321400
  Ewald energy   TEWEN  =    -49191.28813429
  -Hartree energ DENC   =    -16825.11849761
  -exchange      EXHF   =         0.00000000
  -V(xc)+E(xc)   XCENC  =      3279.88554050
  PAW double counting   =     66287.53891712   -65828.59873100
  entropy T*S    EENTRO =        -0.00000000
  eigenvalues    EBANDS =     -6667.29551906
  atomic energy  EATOM  =     64968.54023382
  Solvation  Ediel_sol  =         0.00000000
  ---------------------------------------------------
  free energy    TOTEN  =      -937.11297652 eV

  energy without entropy =     -937.11297652  energy(sigma->0) =     -937.11297652


--------------------------------------------------------------------------------------------------------




--------------------------------------- Iteration      1(   7)  ---------------------------------------


    POTLOK:  cpu time    0.1346: real time    0.1416
    SETDIJ:  cpu time    0.3005: real time    0.3014
     EDDAV:  cpu time   42.4353: real time   42.6323
       DOS:  cpu time    0.0010: real time    0.0010
    CHARGE:  cpu time    1.2534: real time    1.2587
    MIXING:  cpu time    0.0062: real time    0.0062
    --------------------------------------------
      LOOP:  cpu time   44.1309: real time   44.3411

 eigenvalue-minimisations  : 11176
 total energy-change (2. order) :-0.2575110E+01  (-0.6603472E+01)
 number of electron     864.0000006 magnetization 
 augmentation part      119.5504680 magnetization 

 Broyden mixing:
  rms(total) = 0.17653E+01    rms(broyden)= 0.17653E+01
  rms(prec ) = 0.19197E+01
  weight for this iteration     100.00

 eigenvalues of (default mixing * dielectric matrix)
  average eigenvalue GAMMA=   1.2495
  1.2495  1.2495

 Free energy of the ion-electron system (eV)
  ---------------------------------------------------
  alpha Z        PSCENC =      3039.22321400
  Ewald energy   TEWEN  =    -49191.28813429
  -Hartree energ DENC   =    -16894.41804048
  -exchange      EXHF   =         0.00000000
  -V(xc)+E(xc)   XCENC  =      3284.24192907
  PAW double counting   =     80503.29648181   -80103.61652035
  entropy T*S    EENTRO =        -0.00000000
  eigenvalues    EBANDS =     -6545.66725008
  atomic energy  EATOM  =     64968.54023382
  Solvation  Ediel_sol  =         0.00000000
  ---------------------------------------------------
  free energy    TOTEN  =      -939.68808650 eV

  energy without entropy =     -939.68808650  energy(sigma->0) =     -939.68808650


--------------------------------------------------------------------------------------------------------




--------------------------------------- Iteration      1(   8)  ---------------------------------------


    POTLOK:  cpu time    0.1042: real time    0.1126
    SETDIJ:  cpu time    0.3003: real time    0.3045
     EDDAV:  cpu time   40.6766: real time   40.8711
       DOS:  cpu time    0.0010: real time    0.0010
    CHARGE:  cpu time    1.2437: real time    1.2506
    MIXING:  cpu time    0.0048: real time    0.0048
    --------------------------------------------
      LOOP:  cpu time   42.3306: real time   42.5446

 eigenvalue-minimisations  : 10608
 total energy-change (2. order) : 0.8819841E+00  (-0.1131743E+01)
 number of electron     864.0000006 magnetization 
 augmentation part      119.9484347 magnetization 

 Broyden mixing:
  rms(total) = 0.72580E+00    rms(broyden)= 0.72571E+00
  rms(prec ) = 0.83863E+00
  weight for this iteration     100.00

 eigenvalues of (default mixing * dielectric matrix)
  average eigenvalue GAMMA=   1.3489
  2.1286  0.9590  0.9590

 Free energy of the ion-electron system (eV)
  ---------------------------------------------------
  alpha Z        PSCENC =      3039.22321400
  Ewald energy   TEWEN  =    -49191.28813429
  -Hartree energ DENC   =    -16871.08523616
  -exchange      EXHF   =         0.00000000
  -V(xc)+E(xc)   XCENC  =      3282.41306530
  PAW double counting   =     88814.63954503   -88453.44593930
  entropy T*S    EENTRO =        -0.00000000
  eigenvalues    EBANDS =     -6527.80285077
  atomic energy  EATOM  =     64968.54023382
  Solvation  Ediel_sol  =         0.00000000
  ---------------------------------------------------
  free energy    TOTEN  =      -938.80610237 eV

  energy without entropy =     -938.80610237  energy(sigma->0) =     -938.80610237


--------------------------------------------------------------------------------------------------------




--------------------------------------- Iteration      1(   9)  ---------------------------------------


    POTLOK:  cpu time    0.1029: real time    0.1109
    SETDIJ:  cpu time    0.3012: real time    0.3020
     EDDAV:  cpu time   39.5511: real time   39.7277
       DOS:  cpu time    0.0010: real time    0.0010
    CHARGE:  cpu time    1.2502: real time    1.2547
    MIXING:  cpu time    0.0038: real time    0.0038
    --------------------------------------------
      LOOP:  cpu time   41.2103: real time   41.4000

 eigenvalue-minimisations  : 10160
 total energy-change (2. order) : 0.2544105E+00  (-0.2216752E+00)
 number of electron     864.0000006 magnetization 
 augmentation part      119.3305008 magnetization 

 Broyden mixing:
  rms(total) = 0.21906E+00    rms(broyden)= 0.21905E+00
  rms(prec ) = 0.26111E+00
  weight for this iteration     100.00

 eigenvalues of (default mixing * dielectric matrix)
  average eigenvalue GAMMA=   1.3755
  2.3221  1.2854  0.9472  0.9472

 Free energy of the ion-electron system (eV)
  ---------------------------------------------------
  alpha Z        PSCENC =      3039.22321400
  Ewald energy   TEWEN  =    -49191.28813429
  -Hartree energ DENC   =    -16944.21110114
  -exchange      EXHF   =         0.00000000
  -V(xc)+E(xc)   XCENC  =      3287.57063472
  PAW double counting   =     95127.88093787   -94790.65214888
  entropy T*S    EENTRO =        -0.00000000
  eigenvalues    EBANDS =     -6435.61532797
  atomic energy  EATOM  =     64968.54023382
  Solvation  Ediel_sol  =         0.00000000
  ---------------------------------------------------
  free energy    TOTEN  =      -938.55169186 eV

  energy without entropy =     -938.55169186  energy(sigma->0) =     -938.55169186


--------------------------------------------------------------------------------------------------------




--------------------------------------- Iteration      1(  10)  ---------------------------------------


    POTLOK:  cpu time    0.1059: real time    0.1117
    SETDIJ:  cpu time    0.3014: real time    0.3021
     EDDAV:  cpu time   44.4693: real time   44.6814
       DOS:  cpu time    0.0010: real time    0.0010
    CHARGE:  cpu time    1.2491: real time    1.2535
    MIXING:  cpu time    0.0039: real time    0.0039
    --------------------------------------------
      LOOP:  cpu time   46.1306: real time   46.3537

 eigenvalue-minimisations  : 11816
 total energy-change (2. order) :-0.9549050E-01  (-0.1239141E+00)
 number of electron     864.0000006 magnetization 
 augmentation part      119.1510748 magnetization 

 Broyden mixing:
  rms(total) = 0.14545E+00    rms(broyden)= 0.14541E+00
  rms(prec ) = 0.16815E+00
  weight for this iteration     100.00

 eigenvalues of (default mixing * dielectric matrix)
  average eigenvalue GAMMA=   1.3069
  2.4470  1.1870  1.1870  0.8567  0.8567

 Free energy of the ion-electron system (eV)
  ---------------------------------------------------
  alpha Z        PSCENC =      3039.22321400
  Ewald energy   TEWEN  =    -49191.28813429
  -Hartree energ DENC   =    -16957.18607237
  -exchange      EXHF   =         0.00000000
  -V(xc)+E(xc)   XCENC  =      3288.42755497
  PAW double counting   =     96219.08162104   -95884.53073032
  entropy T*S    EENTRO =        -0.00000000
  eigenvalues    EBANDS =     -6420.91486921
  atomic energy  EATOM  =     64968.54023382
  Solvation  Ediel_sol  =         0.00000000
  ---------------------------------------------------
  free energy    TOTEN  =      -938.64718236 eV

  energy without entropy =     -938.64718236  energy(sigma->0) =     -938.64718236


--------------------------------------------------------------------------------------------------------




--------------------------------------- Iteration      1(  11)  ---------------------------------------


    POTLOK:  cpu time    0.1072: real time    0.1112
    SETDIJ:  cpu time    0.2983: real time    0.3014
     EDDAV:  cpu time   42.7709: real time   42.9533
       DOS:  cpu time    0.0010: real time    0.0010
    CHARGE:  cpu time    1.2580: real time    1.2649
    MIXING:  cpu time    0.0057: real time    0.0057
    --------------------------------------------
      LOOP:  cpu time   44.4411: real time   44.6375

 eigenvalue-minimisations  : 11344
 total energy-change (2. order) :-0.6130283E-03  (-0.1779824E-01)
 number of electron     864.0000006 magnetization 
 augmentation part      119.1262146 magnetization 

 Broyden mixing:
  rms(total) = 0.74434E-01    rms(broyden)= 0.74428E-01
  rms(prec ) = 0.84193E-01
  weight for this iteration     100.00

 eigenvalues of (default mixing * dielectric matrix)
  average eigenvalue GAMMA=   1.3612
  2.4756  1.8261  0.9974  0.9974  0.9353  0.9353

 Free energy of the ion-electron system (eV)
  ---------------------------------------------------
  alpha Z        PSCENC =      3039.22321400
  Ewald energy   TEWEN  =    -49191.28813429
  -Hartree energ DENC   =    -16965.08560565
  -exchange      EXHF   =         0.00000000
  -V(xc)+E(xc)   XCENC  =      3288.92386356
  PAW double counting   =     96271.84837240   -95936.84587365
  entropy T*S    EENTRO =        -0.00000000
  eigenvalues    EBANDS =     -6413.96386559
  atomic energy  EATOM  =     64968.54023382
  Solvation  Ediel_sol  =         0.00000000
  ---------------------------------------------------
  free energy    TOTEN  =      -938.64779539 eV

  energy without entropy =     -938.64779539  energy(sigma->0) =     -938.64779539


--------------------------------------------------------------------------------------------------------




--------------------------------------- Iteration      1(  12)  ---------------------------------------


    POTLOK:  cpu time    0.1063: real time    0.1149
    SETDIJ:  cpu time    0.3051: real time    0.3059
     EDDAV:  cpu time   39.0618: real time   39.2313
       DOS:  cpu time    0.0010: real time    0.0010
    CHARGE:  cpu time    1.2441: real time    1.2487
    MIXING:  cpu time    0.0053: real time    0.0069
    --------------------------------------------
      LOOP:  cpu time   40.7237: real time   40.9086

 eigenvalue-minimisations  : 10056
 total energy-change (2. order) :-0.5986244E-02  (-0.4127434E-02)
 number of electron     864.0000006 magnetization 
 augmentation part      119.1265197 magnetization 

 Broyden mixing:
  rms(total) = 0.26504E-01    rms(broyden)= 0.26496E-01
  rms(prec ) = 0.31640E-01
  weight for this iteration     100.00

 eigenvalues of (default mixing * dielectric matrix)
  average eigenvalue GAMMA=   1.4001
  2.5196  2.5196  0.9389  1.0162  1.0162  0.8950  0.8950

 Free energy of the ion-electron system (eV)
  ---------------------------------------------------
  alpha Z        PSCENC =      3039.22321400
  Ewald energy   TEWEN  =    -49191.28813429
  -Hartree energ DENC   =    -16967.03404645
  -exchange      EXHF   =         0.00000000
  -V(xc)+E(xc)   XCENC  =      3288.97818114
  PAW double counting   =     96081.00739745   -95744.23580361
  entropy T*S    EENTRO =        -0.00000000
  eigenvalues    EBANDS =     -6413.84482370
  atomic energy  EATOM  =     64968.54023382
  Solvation  Ediel_sol  =         0.00000000
  ---------------------------------------------------
  free energy    TOTEN  =      -938.65378163 eV

  energy without entropy =     -938.65378163  energy(sigma->0) =     -938.65378163


--------------------------------------------------------------------------------------------------------




--------------------------------------- Iteration      1(  13)  ---------------------------------------


    POTLOK:  cpu time    0.1040: real time    0.1115
    SETDIJ:  cpu time    0.3012: real time    0.3021
     EDDAV:  cpu time   44.9413: real time   45.1803
       DOS:  cpu time    0.0010: real time    0.0010
    CHARGE:  cpu time    1.2470: real time    1.2513
    MIXING:  cpu time    0.0050: real time    0.0050
    --------------------------------------------
      LOOP:  cpu time   46.5995: real time   46.8512

 eigenvalue-minimisations  : 11992
 total energy-change (2. order) :-0.2173922E-02  (-0.8196678E-03)
 number of electron     864.0000006 magnetization 
 augmentation part      119.1410408 magnetization 

 Broyden mixing:
  rms(total) = 0.12718E-01    rms(broyden)= 0.12716E-01
  rms(prec ) = 0.16041E-01
  weight for this iteration     100.00

 eigenvalues of (default mixing * dielectric matrix)
  average eigenvalue GAMMA=   1.3715
  2.6262  2.5123  0.9266  0.9266  1.0716  1.0716  0.9187  0.9187

 Free energy of the ion-electron system (eV)
  ---------------------------------------------------
  alpha Z        PSCENC =      3039.22321400
  Ewald energy   TEWEN  =    -49191.28813429
  -Hartree energ DENC   =    -16968.38612238
  -exchange      EXHF   =         0.00000000
  -V(xc)+E(xc)   XCENC  =      3289.00879985
  PAW double counting   =     95909.42457777   -95571.33689260
  entropy T*S    EENTRO =        -0.00000000
  eigenvalues    EBANDS =     -6413.84163172
  atomic energy  EATOM  =     64968.54023382
  Solvation  Ediel_sol  =         0.00000000
  ---------------------------------------------------
  free energy    TOTEN  =      -938.65595555 eV

  energy without entropy =     -938.65595555  energy(sigma->0) =     -938.65595555


--------------------------------------------------------------------------------------------------------




--------------------------------------- Iteration      1(  14)  ---------------------------------------


    POTLOK:  cpu time    0.1029: real time    0.1094
    SETDIJ:  cpu time    0.2989: real time    0.3020
     EDDAV:  cpu time   43.2780: real time   43.5080
       DOS:  cpu time    0.0010: real time    0.0010
    CHARGE:  cpu time    1.2396: real time    1.2497
    MIXING:  cpu time    0.0044: real time    0.0044
    --------------------------------------------
      LOOP:  cpu time   44.9248: real time   45.1745

 eigenvalue-minimisations  : 11488
 total energy-change (2. order) :-0.1361301E-03  (-0.3207832E-03)
 number of electron     864.0000006 magnetization 
 augmentation part      119.1334872 magnetization 

 Broyden mixing:
  rms(total) = 0.78174E-02    rms(broyden)= 0.78163E-02
  rms(prec ) = 0.93123E-02
  weight for this iteration     100.00

 eigenvalues of (default mixing * dielectric matrix)
  average eigenvalue GAMMA=   1.3131
  2.7503  2.4944  0.9344  0.9344  1.0713  1.0713  0.9571  0.8023  0.8023

 Free energy of the ion-electron system (eV)
  ---------------------------------------------------
  alpha Z        PSCENC =      3039.22321400
  Ewald energy   TEWEN  =    -49191.28813429
  -Hartree energ DENC   =    -16969.60951223
  -exchange      EXHF   =         0.00000000
  -V(xc)+E(xc)   XCENC  =      3289.07638578
  PAW double counting   =     95910.98088741   -95572.76844840
  entropy T*S    EENTRO =        -0.00000000
  eigenvalues    EBANDS =     -6412.81071777
  atomic energy  EATOM  =     64968.54023382
  Solvation  Ediel_sol  =         0.00000000
  ---------------------------------------------------
  free energy    TOTEN  =      -938.65609168 eV

  energy without entropy =     -938.65609168  energy(sigma->0) =     -938.65609168


--------------------------------------------------------------------------------------------------------




--------------------------------------- Iteration      1(  15)  ---------------------------------------


    POTLOK:  cpu time    0.1038: real time    0.1108
    SETDIJ:  cpu time    0.2985: real time    0.3019
     EDDAV:  cpu time   40.8262: real time   40.9993
       DOS:  cpu time    0.0010: real time    0.0010
    CHARGE:  cpu time    1.2484: real time    1.2529
    MIXING:  cpu time    0.0043: real time    0.0043
    --------------------------------------------
      LOOP:  cpu time   42.4822: real time   42.6703

 eigenvalue-minimisations  : 10640
 total energy-change (2. order) :-0.3637561E-04  (-0.5161681E-04)
 number of electron     864.0000006 magnetization 
 augmentation part      119.1377717 magnetization 

 Broyden mixing:
  rms(total) = 0.51926E-02    rms(broyden)= 0.51921E-02
  rms(prec ) = 0.62272E-02
  weight for this iteration     100.00

 eigenvalues of (default mixing * dielectric matrix)
  average eigenvalue GAMMA=   1.4054
  2.9378  2.2959  2.2959  0.9362  1.0029  1.0029  0.9200  0.9200  0.8712  0.8712

 Free energy of the ion-electron system (eV)
  ---------------------------------------------------
  alpha Z        PSCENC =      3039.22321400
  Ewald energy   TEWEN  =    -49191.28813429
  -Hartree energ DENC   =    -16969.70715722
  -exchange      EXHF   =         0.00000000
  -V(xc)+E(xc)   XCENC  =      3289.07549749
  PAW double counting   =     95909.82410897   -95571.55165313
  entropy T*S    EENTRO =        -0.00000000
  eigenvalues    EBANDS =     -6412.77223772
  atomic energy  EATOM  =     64968.54023382
  Solvation  Ediel_sol  =         0.00000000
  ---------------------------------------------------
  free energy    TOTEN  =      -938.65612806 eV

  energy without entropy =     -938.65612806  energy(sigma->0) =     -938.65612806


--------------------------------------------------------------------------------------------------------




--------------------------------------- Iteration      1(  16)  ---------------------------------------


    POTLOK:  cpu time    0.1039: real time    0.1115
    SETDIJ:  cpu time    0.3004: real time    0.3013
     EDDAV:  cpu time   38.3300: real time   38.5082
       DOS:  cpu time    0.0010: real time    0.0010
    CHARGE:  cpu time    1.2453: real time    1.2498
    MIXING:  cpu time    0.0054: real time    0.0054
    --------------------------------------------
      LOOP:  cpu time   39.9860: real time   40.1772

 eigenvalue-minimisations  :  9848
 total energy-change (2. order) : 0.1870663E-05  (-0.2569613E-04)
 number of electron     864.0000006 magnetization 
 augmentation part      119.1338838 magnetization 

 Broyden mixing:
  rms(total) = 0.16723E-02    rms(broyden)= 0.16710E-02
  rms(prec ) = 0.23000E-02
  weight for this iteration     100.00

 eigenvalues of (default mixing * dielectric matrix)
  average eigenvalue GAMMA=   1.3924
  3.0296  2.4233  2.4233  0.9184  0.9184  0.9739  0.9739  0.9454  0.9454  0.8825
  0.8825

 Free energy of the ion-electron system (eV)
  ---------------------------------------------------
  alpha Z        PSCENC =      3039.22321400
  Ewald energy   TEWEN  =    -49191.28813429
  -Hartree energ DENC   =    -16970.47746000
  -exchange      EXHF   =         0.00000000
  -V(xc)+E(xc)   XCENC  =      3289.11867728
  PAW double counting   =     95937.71365618   -95599.50100466
  entropy T*S    EENTRO =        -0.00000000
  eigenvalues    EBANDS =     -6411.98530853
  atomic energy  EATOM  =     64968.54023382
  Solvation  Ediel_sol  =         0.00000000
  ---------------------------------------------------
  free energy    TOTEN  =      -938.65612619 eV

  energy without entropy =     -938.65612619  energy(sigma->0) =     -938.65612619


--------------------------------------------------------------------------------------------------------




--------------------------------------- Iteration      1(  17)  ---------------------------------------


    POTLOK:  cpu time    0.4408: real time   55.7779
    SETDIJ:  cpu time    0.3731: real time    0.3748
     EDDAV:  cpu time   54.9547: real time   55.8571
       DOS:  cpu time    0.0010: real time    0.0010
    CHARGE:  cpu time    1.2487: real time    1.2532
    MIXING:  cpu time    0.0053: real time    0.0054
    --------------------------------------------
      LOOP:  cpu time   57.0236: real time  113.2693

 eigenvalue-minimisations  : 11936
 total energy-change (2. order) :-0.7012568E-06  (-0.1031536E-04)
 number of electron     864.0000006 magnetization 
 augmentation part      119.1355171 magnetization 

 Broyden mixing:
  rms(total) = 0.12593E-02    rms(broyden)= 0.12583E-02
  rms(prec ) = 0.15341E-02
  weight for this iteration     100.00

 eigenvalues of (default mixing * dielectric matrix)
  average eigenvalue GAMMA=   1.3441
  3.1474  2.4168  2.4168  1.0889  0.9460  0.9653  0.9653  0.9308  0.9308  0.8730
  0.8730  0.5747

 Free energy of the ion-electron system (eV)
  ---------------------------------------------------
  alpha Z        PSCENC =      3039.22321400
  Ewald energy   TEWEN  =    -49191.28813429
  -Hartree energ DENC   =    -16970.39739197
  -exchange      EXHF   =         0.00000000
  -V(xc)+E(xc)   XCENC  =      3289.11108133
  PAW double counting   =     95937.14639125   -95598.92842466
  entropy T*S    EENTRO =        -0.00000000
  eigenvalues    EBANDS =     -6412.06309637
  atomic energy  EATOM  =     64968.54023382
  Solvation  Ediel_sol  =         0.00000000
  ---------------------------------------------------
  free energy    TOTEN  =      -938.65612689 eV

  energy without entropy =     -938.65612689  energy(sigma->0) =     -938.65612689


--------------------------------------------------------------------------------------------------------




--------------------------------------- Iteration      1(  18)  ---------------------------------------


    POTLOK:  cpu time    0.1048: real time    0.1126
    SETDIJ:  cpu time    0.3002: real time    0.3009
     EDDAV:  cpu time   38.6057: real time   38.7827
       DOS:  cpu time    0.0010: real time    0.0010
    CHARGE:  cpu time    1.2487: real time    1.2532
    MIXING:  cpu time    0.0059: real time    0.0059
    --------------------------------------------
      LOOP:  cpu time   40.2663: real time   40.4564

 eigenvalue-minimisations  :  9872
 total energy-change (2. order) : 0.6742048E-06  (-0.3183717E-05)
 number of electron     864.0000006 magnetization 
 augmentation part      119.1360110 magnetization 

 Broyden mixing:
  rms(total) = 0.79265E-03    rms(broyden)= 0.79118E-03
  rms(prec ) = 0.94411E-03
  weight for this iteration     100.00

 eigenvalues of (default mixing * dielectric matrix)
  average eigenvalue GAMMA=   1.3719
  3.3108  2.5254  2.3069  1.5056  1.0161  1.0161  0.9079  0.8576  0.8576  0.9299
  0.9299  0.8355  0.8355

 Free energy of the ion-electron system (eV)
  ---------------------------------------------------
[...]
   0.591E+02 0.489E+02 -.266E+02   -.868E+02 -.565E+02 0.213E+02   0.272E+02 0.677E+01 0.708E+01   -.591E-04 -.461E-03 -.321E-05
   0.438E+02 -.101E+03 0.720E+01   -.374E+02 0.106E+03 -.256E+02   -.833E+01 -.655E+01 0.228E+02   -.247E-03 0.854E-03 -.733E-04
   0.524E+02 0.161E+01 -.103E+03   -.449E+02 0.958E+01 0.123E+03   -.841E+01 -.126E+02 -.208E+02   0.169E-03 -.358E-03 0.131E-03
   0.926E+01 -.131E+02 0.508E+01   -.339E+01 0.173E+02 0.195E+02   -.573E+01 -.449E+01 -.242E+02   -.465E-03 -.204E-03 0.346E-03
   -.643E+02 -.251E+02 0.455E+01   0.571E+02 0.157E+02 0.116E+02   0.949E+01 0.111E+02 -.158E+02   0.724E-03 0.521E-03 -.345E-03
   0.678E+02 0.594E+02 -.349E+02   -.540E+02 -.544E+02 0.445E+02   -.168E+02 -.665E+01 -.894E+01   -.598E-03 -.469E-03 -.390E-04
   -.854E+02 -.112E+02 -.926E+00   0.105E+03 0.213E+02 0.967E+00   -.198E+02 -.120E+02 0.846E+00   0.610E-03 0.277E-03 0.972E-04
   0.526E+02 0.277E+01 -.158E+02   -.469E+02 -.148E+01 -.373E+00   -.683E+01 -.162E+01 0.179E+02   -.217E-03 -.137E-03 -.598E-04
   0.386E+02 0.759E+02 0.722E+02   -.532E+02 -.810E+02 -.751E+02   0.148E+02 0.352E+01 0.207E+01   -.271E-03 0.254E-03 -.165E-03
   0.138E+02 -.981E+02 0.130E+02   -.344E+02 0.103E+03 -.408E+01   0.229E+02 -.388E+01 -.909E+01   -.244E-03 0.637E-03 0.102E-03
   0.110E+02 0.145E+02 0.915E+01   -.183E+02 -.135E+02 0.105E+02   0.805E+01 -.323E+01 -.227E+02   0.380E-03 -.478E-03 -.175E-03
   0.742E+02 -.238E+02 0.967E+02   -.803E+02 0.109E+02 -.125E+03   0.769E+01 0.142E+02 0.258E+02   0.362E-03 -.359E-03 -.395E-03
   0.148E+02 -.703E+02 -.971E+02   -.325E+02 0.801E+02 0.105E+03   0.200E+02 -.938E+01 -.647E+01   -.807E-04 0.423E-03 0.204E-03
   0.346E+02 0.911E+02 -.333E+02   -.509E+02 -.994E+02 0.632E+02   0.139E+02 0.681E+01 -.279E+02   -.721E-03 -.667E-03 0.173E-03
   -.229E+02 -.687E+02 -.236E+02   0.264E+02 0.735E+02 0.434E+02   -.337E+01 -.227E+01 -.194E+02   -.329E-05 0.438E-03 -.128E-03
   0.620E+02 0.406E+01 0.165E+02   -.854E+02 0.724E+01 -.669E+01   0.223E+02 -.100E+02 -.881E+01   -.695E-03 -.365E-03 0.190E-04
   0.343E+02 0.975E+01 -.562E+01   -.398E+02 -.214E+02 0.279E+02   0.500E+01 0.124E+02 -.212E+02   -.180E-04 0.455E-03 0.438E-03
   -.615E+02 0.361E+02 0.487E+02   0.584E+02 -.122E+02 -.578E+02   0.602E+01 -.269E+02 0.107E+02   0.648E-03 -.192E-04 0.236E-04
   -.303E+02 0.128E+03 0.449E+02   0.325E+02 -.125E+03 -.424E+02   -.264E+01 -.342E+01 -.255E+01   0.532E-03 -.925E-03 -.436E-04
   0.278E+02 0.416E+02 -.726E+02   -.575E+02 -.235E+02 0.899E+02   0.282E+02 -.166E+02 -.156E+02   -.470E-03 0.111E-04 0.134E-03
   0.377E+01 -.250E+02 0.212E+02   -.823E+01 0.295E+02 -.732E+01   0.313E+01 -.438E+01 -.122E+02   -.794E-04 0.896E-05 0.840E-04
   0.714E+02 0.434E+02 0.166E+03   -.852E+02 -.715E+02 -.178E+03   0.106E+02 0.271E+02 0.100E+02   -.451E-03 -.473E-03 -.535E-03
   -.366E+02 0.436E+02 0.329E+02   0.498E+02 -.520E+02 -.457E+02   -.136E+02 0.872E+01 0.150E+02   -.110E-03 0.293E-03 -.141E-03
   -.446E+02 0.105E+03 0.653E+01   0.431E+02 -.113E+03 0.158E+01   0.247E+01 0.974E+01 -.763E+01   0.436E-03 -.536E-03 -.277E-03
   0.132E+02 0.689E+01 0.527E+02   -.230E+02 -.145E+02 -.616E+02   0.115E+02 0.876E+01 0.915E+01   -.104E-03 0.378E-03 -.380E-03
   0.600E+02 -.114E+03 -.398E+02   -.518E+02 0.128E+03 0.607E+02   -.878E+01 -.998E+01 -.233E+02   -.470E-03 0.919E-03 0.217E-04
   0.530E+02 0.351E+02 0.512E+02   -.726E+02 -.418E+02 -.432E+02   0.162E+02 0.453E+01 -.662E+01   -.297E-03 0.266E-03 0.170E-04
   0.349E+02 -.491E+01 -.146E+01   -.313E+02 -.243E+01 0.720E+01   -.520E+01 0.897E+01 -.322E+01   -.119E-03 0.488E-03 0.256E-05
   -.531E+02 0.647E+01 0.985E+01   0.566E+02 -.192E+02 -.330E+02   -.104E+01 0.121E+02 0.200E+02   0.235E-03 -.607E-03 -.595E-03
   0.180E+02 -.803E+02 0.400E+02   -.542E+01 0.946E+02 -.555E+02   -.135E+02 -.150E+02 0.156E+02   -.294E-03 0.440E-03 0.458E-05
   0.450E+02 0.983E+01 0.228E+02   -.364E+02 -.367E+01 -.992E+01   -.984E+01 -.712E+01 -.153E+02   -.570E-03 -.104E-02 -.279E-03
   0.281E+02 -.327E+02 -.123E+03   -.347E+02 0.463E+02 0.120E+03   0.615E+01 -.153E+02 0.557E+01   -.181E-03 -.301E-04 0.672E-03
   -.762E+02 -.217E+02 0.688E+02   0.760E+02 0.277E+02 -.873E+02   0.247E+01 -.973E+01 0.177E+02   -.220E-03 0.423E-03 -.285E-04
   -.129E+02 -.410E+02 0.732E+02   0.177E+02 0.384E+02 -.910E+02   -.398E+01 0.209E+01 0.187E+02   -.183E-03 0.114E-03 0.201E-03
   0.367E+02 0.215E+02 -.972E+02   -.522E+02 -.422E+02 0.926E+02   0.133E+02 0.178E+02 0.634E+01   0.885E-05 0.114E-03 0.168E-03
   -.103E+03 -.886E+01 -.145E+03   0.110E+03 -.108E+02 0.152E+03   -.660E+01 0.215E+02 -.826E+01   0.435E-03 0.393E-03 0.391E-03
   0.178E+02 0.171E+02 0.905E+02   -.333E+02 -.320E+02 -.978E+02   0.161E+02 0.171E+02 0.632E+01   -.411E-03 -.101E-03 -.493E-03
   0.299E+02 -.294E+01 0.896E+01   -.180E+02 0.154E+02 -.172E+02   -.128E+02 -.137E+02 0.623E+01   -.124E-04 0.271E-03 -.279E-03
   -.388E+02 -.238E+02 0.120E+03   0.514E+02 0.264E+02 -.107E+03   -.916E+01 -.424E+01 -.132E+02   0.527E-03 0.550E-03 -.424E-03
   0.101E+03 -.293E+01 0.509E+02   -.130E+03 -.289E+01 -.539E+02   0.299E+02 0.544E+01 0.341E+01   0.676E-04 0.362E-03 -.140E-03
   -.292E+02 -.103E+03 0.381E+02   0.369E+02 0.118E+03 -.541E+02   -.993E+01 -.150E+02 0.176E+02   -.776E-04 -.140E-03 0.151E-03
   -.682E+02 0.534E+02 0.164E+03   0.788E+02 -.722E+02 -.182E+03   -.127E+02 0.149E+02 0.166E+02   0.286E-03 -.920E-03 -.361E-03
   0.549E+02 -.561E+02 0.761E+02   -.467E+02 0.482E+02 -.950E+02   -.104E+02 0.100E+02 0.212E+02   -.889E-04 0.692E-03 0.980E-04
   -.618E+02 0.376E+01 -.431E+02   0.658E+02 -.266E+02 0.533E+02   -.492E+00 0.249E+02 -.115E+02   0.130E-03 -.127E-04 0.225E-03
   -.142E+02 0.751E+02 -.790E+01   0.341E+02 -.889E+02 0.121E+02   -.193E+02 0.149E+02 -.404E+01   0.208E-03 -.805E-03 -.251E-03
   0.271E+02 -.647E+01 0.208E+02   -.322E+02 0.742E+00 -.452E+02   0.598E+01 0.539E+01 0.273E+02   0.170E-03 0.246E-03 -.297E-04
   -.145E+02 -.157E+02 -.637E+02   0.838E+01 0.288E+02 0.744E+02   0.803E+01 -.130E+02 -.120E+02   -.175E-03 0.159E-03 -.317E-03
   -.113E+03 -.825E+01 0.986E+02   0.143E+03 0.381E+01 -.121E+03   -.245E+02 0.470E+01 0.210E+02   0.749E-03 0.529E-03 -.722E-03
 -----------------------------------------------------------------------------------------------
   -.761E+02 -.199E+01 0.957E+02   0.313E-12 0.875E-13 0.909E-12   0.761E+02 0.201E+01 -.957E+02   -.412E-03 0.139E-02 -.296E-03
 
 
 POSITION                                       TOTAL-FORCE (eV/Angst)
 -----------------------------------------------------------------------------------
      2.47911      8.19970      9.07018         0.588977      0.339910      3.340563
      7.77314      9.08836     10.76895        -0.671578      0.898085      0.857965
      3.67561      8.30672      3.60201        -0.154895     -0.328280      1.294872
      3.68288      0.97502      7.49016         2.025503      0.759983     -1.143608
      3.91024      0.19144      0.73852         2.700450      0.984803      0.162534
      9.08150      3.88460      3.39343         0.139263      1.615189      1.219708
      1.65458      2.83471      0.71783         3.394582     -0.094731     -1.698028
      9.29196     10.29615      2.46887        -1.104406      0.103076     -0.943614
      8.40112      7.44175      7.72108         0.717943     -0.635459     -0.305523
      4.73879      4.19081      6.39845        -1.426134     -1.308159      0.344360
      0.17558      8.84129      3.98656         2.277215     -1.434969      1.076242
      5.71045     11.56109      4.64231        -0.544607     -0.120877     -0.929325
      6.77922      6.60165      4.89617        -1.038656      0.561203     -0.376262
      6.28479      1.90074      9.43490        -0.187099     -0.053110      2.249950
      3.93616      5.25757      3.17180        -1.571401      0.295275      0.175121
      5.91463      6.60663      9.39933        -0.942318     -1.870334      1.677411
     10.22904      2.42042      8.67589         0.172864     -0.118315      0.446644
     10.69639      5.10310      6.66233        -2.771500     -0.403682      1.131427
      6.07007      9.81407      7.62971         1.970570     -0.342935     -1.775872
      0.30721     10.94569     10.61262         2.900122     -1.316926      0.153786
      0.08201      1.65629      3.04185         0.611214     -0.156723      0.476231
      0.95429      2.77507      6.27913         0.990318     -3.272310     -0.924756
     11.08886      6.49049     10.31818         1.007219     -2.564535     -2.968339
      8.81821      6.07912      1.06551        -2.914578      0.085740      0.968245
      0.53580     11.00637      7.28316         0.218951      0.333474     -1.030023
      6.21419      4.39759      0.51239        -0.893448     -1.653699     -2.833693
      0.78791      5.18518      2.05365         0.264557      2.972697      1.336043
      4.42659      7.01097      6.84974         2.449267     -0.673554     -2.632775
      7.48234      1.10728      7.10815        -1.097285      2.921048      2.903099
      8.63032      4.61596      9.89793        -3.864640      4.167836     -7.427395
      1.12868     10.49806      1.71836         2.890954     -1.029392     -3.633360
      9.72614      1.06980      5.29475        -0.008429     -0.711863      3.395177
      3.13959      2.65782      4.09769         0.781714      0.018860     -2.146534
      6.07015      7.50933      1.66279        -0.612357     -1.863937     -0.224336
      3.89815      3.61699      9.88483        -3.361953     -0.739527      1.628367
      6.99000      1.19807      1.54565        -3.144583      1.499936      0.513191
      7.49428      4.15671      6.65526         4.559389     -2.542851     -2.336901
      9.48682      7.16369      4.27888         0.312088     -6.455809     -4.392930
      6.24418      3.44668      3.43706        -2.243703     -0.170034      1.213983
      6.36065      9.83117      2.42929        -1.846657      6.021758      3.104189
      9.32255      9.83748      5.62144         0.609256      1.265593      0.739302
      9.31782     10.90979      8.45717         2.244849      4.710002      1.156660
     10.00042      3.20323      0.45636         2.391136      1.952935     -0.278593
     10.84968      8.09994      0.57828        -0.121276      3.223115     -1.519259
      2.18427      5.60854      7.98623         3.035060     -6.961457      0.492664
      2.61414      6.14568      0.04546        -3.986211     -0.594581      0.641907
      2.13607     11.56817      4.61436         1.317884      0.269973     -0.762020
      1.15273      5.59185      5.13392         2.701714      6.330939     -1.293195
     11.49311      7.84689      7.24645         0.027086      1.570464     -0.347693
      4.13415     10.49284      9.50403        -1.185172     -3.271083      2.895539
      3.34579      9.58898      6.56876        -5.479930      4.948708     -3.059472
      1.41993      2.71084      9.12758         0.741554      2.392246     -4.506901
      3.29694      8.62553      0.72521        -7.762669     -1.341440     -6.181805
      9.47111      0.42588      0.12708         1.293471      0.239044     -2.590924
      3.55213      2.60558     11.06609        -0.476693     -1.034670      0.862790
      2.26018      3.45374      2.90423        -0.599094     -0.581963      1.930929
      6.49287      1.77345     11.61980         1.809262     -0.375578      2.479459
      7.21513      8.50511      2.39328         0.909785     -3.112933      1.320433
      3.45722     11.48706      5.50943         1.844351      0.153605      1.950638
      1.68962      7.74371      0.75972         3.417240     -3.544304     -1.138329
      4.63942      0.32392      9.81957        -0.268448     -1.122836     -0.795893
      6.14121      9.91276      0.90945         0.275799      1.795573     -5.479829
      9.76712      4.30693     10.84840         4.702213     -1.073840      2.342650
     10.53324      7.03517      8.15821        -2.807187     -1.653637      0.111271
      9.94317      2.15885      4.17615         1.081910     -1.224696     -1.340440
      3.07996      9.87238     10.66263        -0.189098      0.372552      1.373161
      6.05820      0.38182      7.42044         0.399088      0.653765     -0.875047
      3.20934      5.31859      1.21161         1.480146     -0.380564      1.840974
      8.74308      3.63129      1.23286        -2.244671      0.950078      1.319534
     10.23666      1.87633     11.26086        -1.948699     -2.826047     -0.696452
     10.88811     11.28131      8.95264        -3.210345      0.422764     -0.112770
      9.14089      8.48051      0.66357         3.237935      0.359095      0.162884
      6.61878      5.35819      7.23720         0.036497      0.379764     -0.623720
      8.44966      6.28516     10.02249         0.159060      1.011106     -0.279877
     10.54184      8.78563      6.20053        -1.017256      2.049742     -0.786569
      7.25984     11.18501      3.01310         0.224597     -2.589528     -0.590204
      3.86679      5.90414      8.05502         0.082972      1.021439     -1.132574
      3.19830      2.49435      5.68814        -0.707685      1.841319      1.677941
      4.50876      4.87765     10.47832         2.713475      3.470059      0.610807
      9.74073      8.63874      3.76941        -1.497127      2.417659      1.037278
      1.89336      1.31217      8.33142        -3.000413      1.830905      0.638521
      3.50278      7.26104     10.96031         1.722285      1.265102     -1.485618
      5.52540      1.09132      2.25647        -1.895147     -0.918042     -0.724454
      1.99033      5.01790      6.48062         1.324739      1.258203      0.526297
      8.89023      4.09837      5.65242        -2.014023      0.366658      2.290187
     10.95425     11.35453      0.81411        -3.626107      1.053231      0.966973
      8.55057     11.46262     10.46889         2.238623     -1.260009      2.353906
      7.14334      4.08688      9.85540        -0.533039     -0.871810      1.761470
     11.46319      8.60270     10.49844        -1.954990     -0.632355      4.398523
      8.53242      0.91171      8.38217        -0.894926     -1.390492     -0.940453
      8.61497      0.78368      1.41673         0.143185     -0.262416      0.341159
      5.25761      6.86440      2.96009         2.284690      1.689032      0.396149
     11.36731      3.46698      1.36967        -3.003625     -1.621491      0.677035
      5.86390      7.71231      7.21441         0.137702     -1.871095      0.887907
      9.26619      4.43091      8.28290        -1.163898     -0.327250      1.692758
      1.81812      9.93194      5.67023         0.226388     -1.598645     -0.865502
      4.93089      9.93526      3.26901         2.347175      0.768885     -0.200137
      7.10273      2.84260      7.62297         0.683492     -2.232089     -3.039819
      7.99797      0.75091      5.69031         1.583961      1.192569     -2.324787
      2.99255     10.38363      8.01048         2.350792      0.414340      1.767309
      0.81795      2.40255     10.46242        -2.429694     -1.468190      1.943669
      2.58685      9.52529      1.88988         0.109407      2.474850      0.422704
      0.85617      0.74034      5.09800        -1.117797      1.286635      0.969558
      9.03219      6.70231      5.72558        -0.533790      0.775713      1.076683
      5.92638      4.77667      2.50348         2.942590     -3.032685      1.579942
      4.63453      3.29485      3.86164        -0.464234     -0.888468     -0.099909
      1.16985      6.46652      8.63586        -1.484729      1.504512      1.681810
      1.24776     10.97457      3.21592        -1.329886      0.111257      1.668831
      0.50568      4.22949      4.88360        -3.137245     -0.977659     -2.290321
     10.80626      6.41886      3.45556        -0.417391      0.362913      2.221158
      6.51079      3.56700      5.14366         0.917462      1.404541      0.474687
      8.21826      6.17295      3.36719         1.630113      1.197175      0.203598
      0.73489      8.71237      8.22951        -0.537178      3.868036     -2.421698
      3.31714      8.09972      7.07726        -3.419764     -2.212626      1.412679
      0.13819      9.14961      1.51128        -1.631038      1.621816      2.524900
      4.24879      2.86385      8.57765         2.523623     -0.657708     -3.198483
      2.04553      6.40242      4.02588        -0.856074     -0.644029      0.106120
     10.57399      1.71262      6.66809        -1.296054     -0.960203     -2.421601
      0.38812      3.72045      7.97281        -0.396336     -1.671551      3.174474
      0.33742      7.08854      5.86755         2.209181     -3.667872     -0.780014
      9.82644     11.14981      4.49112         0.812736     -0.476779      0.881405
      8.36081      9.69058      8.40104        -2.207440     -2.814404      1.745984
      5.07978      9.06488      9.48444         0.459472      1.894161     -1.042593
      1.29000      5.07432     11.44890         0.543343      2.211402     -1.009185
      9.80809     10.96858      6.87935        -0.822976     -1.164536     -1.955608
      4.57813      8.28643      1.41003         3.430905     -1.598027      0.034892
      7.75239      9.48088      5.63539         0.661880     -0.381661      0.389797
      1.80191     11.59606      0.63920        -2.175624     -0.103241      1.617644
      3.08305      1.17374      3.60803        -2.044535     -3.957142     -1.768782
      6.76406      6.65583      0.31338        -2.302691      2.175351      2.288831
     10.72276      6.50038      0.93263         3.498868      2.002437     -1.240343
      7.32125      2.36385      2.91099         0.682009      1.064407      0.142571
      4.36773      6.37469      5.31105         0.924064     -0.331370      2.878685
      2.28597      4.20192      9.23405         1.931031      0.111280     -1.185463
      4.60504      9.40515      5.75560         4.563216      0.259195     -1.645133
 -----------------------------------------------------------------------------------
    total drift:                                0.003182      0.023857     -0.013024


--------------------------------------------------------------------------------------------------------



  FREE ENERGIE OF THE ION-ELECTRON SYSTEM (eV)
  ---------------------------------------------------
  free  energy   TOTEN  =      -938.65612429 eV

  energy  without entropy=     -938.65612429  energy(sigma->0) =     -938.65612429
 


--------------------------------------------------------------------------------------------------------


    POTLOK:  cpu time    0.4057: real time    0.4070


--------------------------------------------------------------------------------------------------------


     LOOP+:  cpu time  882.1939: real time  944.1740
    4ORBIT:  cpu time    0.0000: real time    0.0000

 total amount of memory used by VASP MPI-rank0   164782. kBytes
=======================================================================

   base      :      30000. kBytes
   nonlr-proj:      22671. kBytes
   fftplans  :      23775. kBytes
   grid      :      12472. kBytes
   one-center:        186. kBytes
   wavefun   :      75678. kBytes
 
  
  
 General timing and accounting informations for this job:
 ========================================================
  
                  Total CPU time used (sec):      901.065
                            User time (sec):      897.332
                          System time (sec):        3.732
                         Elapsed time (sec):      963.220
  
                   Maximum memory used (kb):      299884.
                   Average memory used (kb):           0.
  
                          Minor page faults:       111963
                          Major page faults:            0
                 Voluntary context switches:          359
