<?xml version="1.0" encoding="ISO-8859-1"?>
<modeling>
 <generator>
  <i name="program" type="string">vasp </i>
  <i name="version" type="string">5.4.4.18Apr17-6-g9f103f2a35  </i>
  <i name="subversion" type="string">(build Mar 16 2023 09:39:13) complex            parallel </i>
  <i name="platform" type="string">LinuxIFC </i>
  <i name="date" type="string">2024 04 29 </i>
  <i name="time" type="string">18:48:54 </i>
 </generator>
 <incar>
  <i type="int" name="ISTART">     0</i>
  <i type="string" name="PREC">a</i>
  <i type="logical" name="ADDGRID"> T  </i>
  <i type="int" name="IBRION">    -1</i>
  <i name="EDIFF">      0.00000100</i>
  <i name="EDIFFG">     -0.01000000</i>
  <i type="int" name="NSW">     1</i>
  <i type="int" name="ISIF">     2</i>
  <i type="int" name="ISYM">     0</i>
  <i name="ENCUT">    600.00000000</i>
  <i name="POTIM">      1.00000000</i>
  <i type="string" name="LREAL">  A</i>
  <i type="int" name="ISMEAR">     0</i>
  <i name="SIGMA">      0.05000000</i>
  <i name="KSPACING">      0.30000000</i>
  <i type="logical" name="KGAMMA"> T  </i>
  <i type="logical" name="LWAVE"> F  </i>
  <i type="logical" name="LCHARG"> F  </i>
  <i type="logical" name="LSCALAPACK"> F  </i>
  <v type="int" name="KPOINT_BSE">    -1     0     0     0</v>
 </incar>
 <structure name="primitive_cell" >
  <crystal>
   <varray name="basis" >
    <v>      11.62817333       0.00000000       0.00000000 </v>
    <v>       0.00000000      11.62817333       0.00000000 </v>
    <v>       0.00000000       0.00000000      11.62817333 </v>
   </varray>
   <i name="volume">   1572.29665425 </i>
   <varray name="rec_basis" >
    <v>       0.08599803       0.00000000       0.00000000 </v>
    <v>       0.00000000       0.08599803       0.00000000 </v>
    <v>       0.00000000       0.00000000       0.08599803 </v>
   </varray>
  </crystal>
  <varray name="positions" >
   <v>       0.21319890      -0.29484206      -0.21998214 </v>
   <v>       0.06319890      -0.25075364      -0.29227808 </v>
   <v>       0.28526751      -0.30344002      -0.39136984 </v>
   <v>       0.10060465      -0.44389224      -0.25733305 </v>
   <v>       0.30123208      -0.37556477      -0.05743528 </v>
   <v>       0.26487070      -0.15099464      -0.08303443 </v>
   <v>       0.25735340      -0.10702802      -0.31111490 </v>
   <v>       0.43685095      -0.22043781      -0.18435695 </v>
   <v>       0.18784313       0.48232312      -0.31319989 </v>
   <v>       0.35552859      -0.09763635      -0.18267217 </v>
   <v>       0.33253595      -0.49225523      -0.30728415 </v>
   <v>       0.28773133      -0.17536649      -0.43509919 </v>
   <v>      -0.01418807      -0.26018461      -0.09715481 </v>
   <v>       0.38067841      -0.39707029      -0.41093597 </v>
   <v>      -0.01161530      -0.32518330      -0.37681987 </v>
   <v>       0.22481098      -0.47148336       0.00390981 </v>
   <v>       0.28353022      -0.25822111       0.06236661 </v>
   <v>       0.14530377      -0.33405581       0.06533443 </v>
   <v>      -0.04637947      -0.44183102      -0.11265649 </v>
   <v>      -0.49135323      -0.43184255      -0.19167627 </v>
   <v>       0.02641948      -0.05869264      -0.08733560 </v>
   <v>       0.04607808      -0.05347347      -0.37366233 </v>
   <v>      -0.09416173      -0.39498954      -0.29841000 </v>
   <v>       0.15635433      -0.14587249       0.48762866 </v>
   <v>      -0.49571616      -0.33675622      -0.37957523 </v>
   <v>       0.19658860       0.36135674      -0.20588976 </v>
   <v>       0.02901730      -0.39039923      -0.49540256 </v>
   <v>       0.11093730       0.43638157      -0.01541674 </v>
   <v>       0.39602409      -0.19117530       0.49497000 </v>
   <v>       0.17116415       0.43152969      -0.44267949 </v>
   <v>       0.38774446       0.41946802      -0.09888542 </v>
   <v>      -0.47798593      -0.15600899      -0.34385956 </v>
   <v>       0.39898092       0.02785670      -0.15553616 </v>
   <v>      -0.06364421      -0.02982947      -0.23009102 </v>
   <v>       0.39371046      -0.28738358       0.12125993 </v>
   <v>      -0.06694876      -0.30342071       0.04973124 </v>
   <v>       0.37561601      -0.45178909       0.45673997 </v>
   <v>      -0.09342250      -0.24445291      -0.46676687 </v>
   <v>       0.22246405      -0.18084374       0.16252558 </v>
   <v>       0.15496086      -0.00276167       0.05496980 </v>
   <v>       0.01188385      -0.21315125       0.12996718 </v>
   <v>       0.27599708       0.45738799       0.10419631 </v>
   <v>       0.31672008       0.08384999      -0.35586111 </v>
   <v>       0.16282547       0.11284402      -0.28351445 </v>
   <v>       0.33523341       0.31105440      -0.14992384 </v>
   <v>       0.09913242       0.48088848       0.44150735 </v>
   <v>       0.29731421      -0.01213542       0.47380014 </v>
   <v>       0.09706422      -0.09718747       0.14777518 </v>
   <v>       0.03337715       0.31995136      -0.31435427 </v>
   <v>       0.33627254       0.01646322       0.06351147 </v>
   <v>      -0.07786404      -0.44098026       0.08020471 </v>
   <v>      -0.08013114       0.43885660      -0.42705242 </v>
   <v>       0.40752685       0.36040098      -0.44974633 </v>
   <v>      -0.47186779      -0.14752185       0.07821126 </v>
   <v>      -0.43079796       0.46079342      -0.37761496 </v>
   <v>       0.17591119      -0.44940467       0.34621784 </v>
   <v>      -0.41830407      -0.42761174       0.02695033 </v>
   <v>      -0.47900646       0.03283543      -0.36185719 </v>
   <v>      -0.19868567      -0.06177956      -0.27270021 </v>
   <v>      -0.15652356      -0.05672374      -0.40838979 </v>
   <v>      -0.47797869      -0.35421222       0.14299693 </v>
   <v>       0.12211144       0.23312672      -0.21504626 </v>
   <v>      -0.05795613      -0.02353315       0.07001156 </v>
   <v>       0.18369808      -0.00516060       0.39682547 </v>
   <v>       0.31609516      -0.28563869       0.30976554 </v>
   <v>       0.01509945      -0.23966620       0.34283625 </v>
   <v>      -0.33152526      -0.21841900      -0.07389131 </v>
   <v>       0.36538784       0.24628582      -0.26233923 </v>
   <v>       0.06775869       0.44591515       0.17660981 </v>
   <v>      -0.27752010      -0.36002425      -0.33600249 </v>
   <v>      -0.21390165      -0.27069296       0.05706551 </v>
   <v>      -0.28098639      -0.16662935      -0.27752718 </v>
   <v>       0.07362894       0.06366758       0.43841788 </v>
   <v>       0.30547583       0.22407511      -0.04833840 </v>
   <v>      -0.27334587      -0.45948835      -0.13808588 </v>
   <v>      -0.16004695       0.37038758      -0.06705864 </v>
   <v>       0.04348729       0.36372755       0.41998035 </v>
   <v>      -0.19827916      -0.15399568       0.48343245 </v>
   <v>      -0.46559205       0.37818419       0.04406457 </v>
   <v>      -0.20312598       0.38104915      -0.28768669 </v>
   <v>       0.07034205       0.20661414      -0.10025253 </v>
   <v>      -0.41700074      -0.43227072       0.42106081 </v>
   <v>      -0.22324967      -0.42361494       0.49238835 </v>
   <v>      -0.38568713       0.35146339      -0.15245485 </v>
   <v>       0.08206666       0.23865084      -0.46000681 </v>
   <v>       0.45214398      -0.40967488       0.25456156 </v>
   <v>       0.14229078       0.24377957       0.06173216 </v>
   <v>      -0.33330998      -0.18466308       0.48463282 </v>
   <v>       0.49108764      -0.00576900       0.39922969 </v>
   <v>       0.10730500      -0.05620882       0.27656300 </v>
   <v>      -0.45299673      -0.15453888       0.20891425 </v>
   <v>       0.42404657      -0.14558748       0.28112871 </v>
   <v>      -0.45952024       0.16345978      -0.18861737 </v>
   <v>      -0.26466770      -0.01423723      -0.09969576 </v>
   <v>      -0.25780953       0.39696366      -0.14879746 </v>
   <v>      -0.18550283       0.03662444       0.01092869 </v>
   <v>       0.33850191       0.45214098       0.27276821 </v>
   <v>       0.27504762       0.21450886       0.48916912 </v>
   <v>      -0.09065745       0.14728188      -0.42655751 </v>
   <v>      -0.02243398       0.29815308       0.11778913 </v>
   <v>      -0.18415235      -0.38393653       0.36797549 </v>
   <v>      -0.07068306      -0.44799089       0.29717130 </v>
   <v>      -0.24165145      -0.47720751       0.09163177 </v>
   <v>      -0.37951329      -0.26857768       0.20581775 </v>
   <v>      -0.35550646       0.35746926      -0.42766036 </v>
   <v>      -0.16231682      -0.25708565       0.32416170 </v>
   <v>      -0.11966765       0.16136092      -0.03158847 </v>
   <v>      -0.15494590      -0.04113858       0.38622734 </v>
   <v>      -0.12032231       0.20815126      -0.25389090 </v>
   <v>      -0.49034298       0.41078410       0.21529393 </v>
   <v>      -0.35653383       0.09522418      -0.38871340 </v>
   <v>      -0.44162630       0.15251294      -0.00071982 </v>
   <v>      -0.26622897       0.07840567      -0.27915010 </v>
   <v>      -0.13998320       0.27547146       0.03924631 </v>
   <v>       0.26513610       0.10093939       0.31028387 </v>
   <v>      -0.38917892       0.24445810      -0.34443968 </v>
   <v>       0.19437102       0.29701463       0.24975826 </v>
   <v>      -0.20090974      -0.11455157       0.21231814 </v>
   <v>       0.47517329       0.09385168       0.19405225 </v>
   <v>      -0.44008462       0.30675463       0.44234425 </v>
   <v>      -0.16357079       0.09200076       0.45533787 </v>
   <v>      -0.23545793       0.35245188       0.48609732 </v>
   <v>       0.39856075       0.28335102       0.33209381 </v>
   <v>       0.26999831       0.22856714       0.35239303 </v>
   <v>      -0.39887420       0.10303140       0.13292247 </v>
   <v>      -0.31219023       0.06457709       0.48935503 </v>
   <v>      -0.37566835      -0.03811077       0.25912087 </v>
   <v>       0.00705303       0.14243789       0.26159272 </v>
   <v>      -0.25912965       0.06739484       0.12183574 </v>
   <v>      -0.24811216       0.31228407       0.10602368 </v>
   <v>      -0.46301249       0.29640803       0.29558078 </v>
   <v>      -0.29324603      -0.46913870       0.28957129 </v>
   <v>      -0.14490739       0.18565722       0.35914041 </v>
   <v>      -0.21900893       0.33406787       0.29182797 </v>
   <v>      -0.37038691       0.20328655       0.25033983 </v>
  </varray>
 </structure>
 <varray name="primitive_index" >
  <v type="int" >        1 </v>
  <v type="int" >      113 </v>
  <v type="int" >      114 </v>
  <v type="int" >      107 </v>
  <v type="int" >       82 </v>
  <v type="int" >       66 </v>
  <v type="int" >      100 </v>
  <v type="int" >      123 </v>
  <v type="int" >       45 </v>
  <v type="int" >       50 </v>
  <v type="int" >       77 </v>
  <v type="int" >       51 </v>
  <v type="int" >       89 </v>
  <v type="int" >       28 </v>
  <v type="int" >       49 </v>
  <v type="int" >       46 </v>
  <v type="int" >       53 </v>
  <v type="int" >       60 </v>
  <v type="int" >       23 </v>
  <v type="int" >       16 </v>
  <v type="int" >       20 </v>
  <v type="int" >       25 </v>
  <v type="int" >       64 </v>
  <v type="int" >       96 </v>
  <v type="int" >       94 </v>
  <v type="int" >      134 </v>
  <v type="int" >      120 </v>
  <v type="int" >      124 </v>
  <v type="int" >      135 </v>
  <v type="int" >       84 </v>
  <v type="int" >       79 </v>
  <v type="int" >       19 </v>
  <v type="int" >       61 </v>
  <v type="int" >       71 </v>
  <v type="int" >      126 </v>
  <v type="int" >       44 </v>
  <v type="int" >      133 </v>
  <v type="int" >       75 </v>
  <v type="int" >      102 </v>
  <v type="int" >      128 </v>
  <v type="int" >      115 </v>
  <v type="int" >       68 </v>
  <v type="int" >        4 </v>
  <v type="int" >       81 </v>
  <v type="int" >       35 </v>
  <v type="int" >       48 </v>
  <v type="int" >       59 </v>
  <v type="int" >       31 </v>
  <v type="int" >      119 </v>
  <v type="int" >        5 </v>
  <v type="int" >      131 </v>
  <v type="int" >       18 </v>
  <v type="int" >       10 </v>
  <v type="int" >       62 </v>
  <v type="int" >       73 </v>
  <v type="int" >      117 </v>
  <v type="int" >      130 </v>
  <v type="int" >       67 </v>
  <v type="int" >       42 </v>
  <v type="int" >      125 </v>
  <v type="int" >       34 </v>
  <v type="int" >       52 </v>
  <v type="int" >       86 </v>
  <v type="int" >       47 </v>
  <v type="int" >        3 </v>
  <v type="int" >       11 </v>
  <v type="int" >        2 </v>
  <v type="int" >      116 </v>
  <v type="int" >       27 </v>
  <v type="int" >        9 </v>
  <v type="int" >       72 </v>
  <v type="int" >      122 </v>
  <v type="int" >      103 </v>
  <v type="int" >       55 </v>
  <v type="int" >       74 </v>
  <v type="int" >       63 </v>
  <v type="int" >      109 </v>
  <v type="int" >       41 </v>
  <v type="int" >       26 </v>
  <v type="int" >       95 </v>
  <v type="int" >      101 </v>
  <v type="int" >       13 </v>
  <v type="int" >      104 </v>
  <v type="int" >       88 </v>
  <v type="int" >       22 </v>
  <v type="int" >       92 </v>
  <v type="int" >        7 </v>
  <v type="int" >      127 </v>
  <v type="int" >       12 </v>
  <v type="int" >      108 </v>
  <v type="int" >       40 </v>
  <v type="int" >       97 </v>
  <v type="int" >       14 </v>
  <v type="int" >       87 </v>
  <v type="int" >       30 </v>
  <v type="int" >       54 </v>
  <v type="int" >       15 </v>
  <v type="int" >       78 </v>
  <v type="int" >      118 </v>
  <v type="int" >       93 </v>
  <v type="int" >       38 </v>
  <v type="int" >      110 </v>
  <v type="int" >       24 </v>
  <v type="int" >       58 </v>
  <v type="int" >       37 </v>
  <v type="int" >       80 </v>
  <v type="int" >       70 </v>
  <v type="int" >      121 </v>
  <v type="int" >       17 </v>
  <v type="int" >      105 </v>
  <v type="int" >       29 </v>
  <v type="int" >       57 </v>
  <v type="int" >       90 </v>
  <v type="int" >       43 </v>
  <v type="int" >      129 </v>
  <v type="int" >       98 </v>
  <v type="int" >       56 </v>
  <v type="int" >        8 </v>
  <v type="int" >       83 </v>
  <v type="int" >      111 </v>
  <v type="int" >       32 </v>
  <v type="int" >       85 </v>
  <v type="int" >      106 </v>
  <v type="int" >       33 </v>
  <v type="int" >       36 </v>
  <v type="int" >       99 </v>
  <v type="int" >       76 </v>
  <v type="int" >       21 </v>
  <v type="int" >       91 </v>
  <v type="int" >       69 </v>
  <v type="int" >       39 </v>
  <v type="int" >      112 </v>
  <v type="int" >       65 </v>
  <v type="int" >        6 </v>
  <v type="int" >      132 </v>
 </varray>
 <kpoints>
  <generation param="Gamma">
   <v type="int" name="divisions">       2        2        2 </v>
   <v name="usershift">      0.00000000       0.00000000       0.00000000 </v>
   <v name="genvec1">      0.50000000       0.00000000       0.00000000 </v>
   <v name="genvec2">      0.00000000       0.50000000       0.00000000 </v>
   <v name="genvec3">      0.00000000       0.00000000       0.50000000 </v>
   <v name="shift">      0.00000000       0.00000000       0.00000000 </v>
  </generation>
  <varray name="kpointlist" >
   <v>       0.00000000       0.00000000       0.00000000 </v>
   <v>       0.50000000       0.00000000       0.00000000 </v>
   <v>       0.00000000       0.50000000       0.00000000 </v>
   <v>       0.50000000       0.50000000       0.00000000 </v>
   <v>       0.00000000       0.00000000       0.50000000 </v>
   <v>       0.50000000       0.00000000       0.50000000 </v>
   <v>       0.00000000       0.50000000       0.50000000 </v>
   <v>       0.50000000       0.50000000       0.50000000 </v>
  </varray>
  <varray name="weights" >
   <v>       0.12500000 </v>
   <v>       0.12500000 </v>
   <v>       0.12500000 </v>
   <v>       0.12500000 </v>
   <v>       0.12500000 </v>
   <v>       0.12500000 </v>
   <v>       0.12500000 </v>
   <v>       0.12500000 </v>
  </varray>
 </kpoints>
 <parameters>
  <separator name="general" >
   <i type="string" name="SYSTEM">unknown system</i>
   <i type="logical" name="LCOMPAT"> F  </i>
  </separator>
  <separator name="electronic" >
   <i type="string" name="PREC">a</i>
   <i name="ENMAX">    600.00000000</i>
   <i name="ENAUG">    605.39200000</i>
   <i name="EDIFF">      0.00000100</i>
   <i type="int" name="IALGO">    38</i>
   <i type="int" name="IWAVPR">    10</i>
   <i type="int" name="NBANDS">   520</i>
   <i name="NELECT">    864.00000000</i>
   <i type="int" name="TURBO">     0</i>
   <i type="int" name="IRESTART">     0</i>
   <i type="int" name="NREBOOT">     0</i>
   <i type="int" name="NMIN">     0</i>
   <i name="EREF">      0.00000000</i>
   <separator name="electronic smearing" >
    <i type="int" name="ISMEAR">     0</i>
    <i name="SIGMA">      0.05000000</i>
    <i name="KSPACING">      0.30000000</i>
    <i type="logical" name="KGAMMA"> T  </i>
   </separator>
   <separator name="electronic projectors" >
    <i type="logical" name="LREAL"> T  </i>
    <v name="ROPT">     -0.00025000     -0.00025000     -0.00025000</v>
    <i type="int" name="LMAXPAW">  -100</i>
    <i type="int" name="LMAXMIX">     2</i>
    <i type="logical" name="NLSPLINE"> F  </i>
   </separator>
   <separator name="electronic startup" >
    <i type="int" name="ISTART">     0</i>
    <i type="int" name="ICHARG">     2</i>
    <i type="int" name="INIWAV">     1</i>
   </separator>
   <separator name="electronic spin" >
    <i type="int" name="ISPIN">     1</i>
    <i type="logical" name="LNONCOLLINEAR"> F  </i>
    <v name="MAGMOM">      1.00000000      1.00000000      1.00000000      1.00000000      1.00000000      1.00000000      1.00000000      1.00000000      1.00000000      1.00000000      1.00000000      1.00000000      1.00000000      1.00000000      1.00000000      1.00000000      1.00000000      1.00000000      1.00000000      1.00000000
      1.00000000      1.00000000      1.00000000      1.00000000      1.00000000      1.00000000      1.00000000      1.00000000      1.00000000      1.00000000      1.00000000      1.00000000      1.00000000      1.00000000      1.00000000      1.00000000      1.00000000      1.00000000      1.00000000      1.00000000
      1.00000000      1.00000000      1.00000000      1.00000000      1.00000000      1.00000000      1.00000000      1.00000000      1.00000000      1.00000000      1.00000000      1.00000000      1.00000000      1.00000000      1.00000000      1.00000000      1.00000000      1.00000000      1.00000000      1.00000000
      1.00000000      1.00000000      1.00000000      1.00000000      1.00000000      1.00000000      1.00000000      1.00000000      1.00000000      1.00000000      1.00000000      1.00000000      1.00000000      1.00000000      1.00000000      1.00000000      1.00000000      1.00000000      1.00000000      1.00000000
      1.00000000      1.00000000      1.00000000      1.00000000      1.00000000      1.00000000      1.00000000      1.00000000      1.00000000      1.00000000      1.00000000      1.00000000      1.00000000      1.00000000      1.00000000      1.00000000      1.00000000      1.00000000      1.00000000      1.00000000
      1.00000000      1.00000000      1.00000000      1.00000000      1.00000000      1.00000000      1.00000000      1.00000000      1.00000000      1.00000000      1.00000000      1.00000000      1.00000000      1.00000000      1.00000000      1.00000000      1.00000000      1.00000000      1.00000000      1.00000000
      1.00000000      1.00000000      1.00000000      1.00000000      1.00000000      1.00000000      1.00000000      1.00000000      1.00000000      1.00000000      1.00000000      1.00000000      1.00000000      1.00000000      1.00000000</v>
    <i name="NUPDOWN">     -1.00000000</i>
    <i type="logical" name="LSORBIT"> F  </i>
    <v name="SAXIS">      0.00000000      0.00000000      1.00000000</v>
    <i type="logical" name="LSPIRAL"> F  </i>
    <v name="QSPIRAL">      0.00000000      0.00000000      0.00000000</v>
    <i type="logical" name="LZEROZ"> F  </i>
   </separator>
   <separator name="electronic exchange-correlation" >
    <i type="logical" name="LASPH"> F  </i>
    <i type="logical" name="LMETAGGA"> F  </i>
   </separator>
   <separator name="electronic convergence" >
    <i type="int" name="NELM">    60</i>
    <i type="int" name="NELMDL">    -5</i>
    <i type="int" name="NELMIN">     2</i>
    <i name="ENINI">    600.00000000</i>
    <separator name="electronic convergence detail" >
     <i type="logical" name="LDIAG"> T  </i>
     <i type="logical" name="LSUBROT"> F  </i>
     <i name="WEIMIN">      0.00000000</i>
     <i name="EBREAK">      0.00000000</i>
     <i name="DEPER">      0.30000000</i>
     <i type="int" name="NRMM">     4</i>
     <i name="TIME">      0.40000000</i>
    </separator>
   </separator>
   <separator name="electronic mixer" >
    <i name="AMIX">      0.40000000</i>
    <i name="BMIX">      1.00000000</i>
    <i name="AMIN">      0.10000000</i>
    <i name="AMIX_MAG">      1.60000000</i>
    <i name="BMIX_MAG">      1.00000000</i>
    <separator name="electronic mixer details" >
     <i type="int" name="IMIX">     4</i>
     <i type="logical" name="MIXFIRST"> F  </i>
     <i type="int" name="MAXMIX">   -45</i>
     <i name="WC">    100.00000000</i>
     <i type="int" name="INIMIX">     1</i>
     <i type="int" name="MIXPRE">     1</i>
     <i type="int" name="MREMOVE">     5</i>
    </separator>
   </separator>
   <separator name="electronic dipolcorrection" >
    <i type="logical" name="LDIPOL"> F  </i>
    <i type="logical" name="LMONO"> F  </i>
    <i type="int" name="IDIPOL">     0</i>
    <i name="EPSILON">      1.00000000</i>
    <v name="DIPOL">   -100.00000000   -100.00000000   -100.00000000</v>
    <i name="EFIELD">      0.00000000</i>
   </separator>
  </separator>
  <separator name="grids" >
   <i type="int" name="NGX">    96</i>
   <i type="int" name="NGY">    96</i>
   <i type="int" name="NGZ">    96</i>
   <i type="int" name="NGXF">   192</i>
   <i type="int" name="NGYF">   192</i>
   <i type="int" name="NGZF">   192</i>
   <i type="logical" name="ADDGRID"> T  </i>
  </separator>
  <separator name="ionic" >
   <i type="int" name="NSW">     1</i>
   <i type="int" name="IBRION">    -1</i>
   <i type="int" name="MDALGO">     0</i>
   <i type="int" name="ISIF">     2</i>
   <i name="PSTRESS">      0.00000000</i>
   <i name="EDIFFG">     -0.01000000</i>
   <i type="int" name="NFREE">     0</i>
   <i name="POTIM">      1.00000000</i>
   <i name="SMASS">     -3.00000000</i>
   <i name="SCALEE">      1.00000000</i>
  </separator>
  <separator name="ionic md" >
   <i name="TEBEG">      0.00010000</i>
   <i name="TEEND">      0.00010000</i>
   <i type="int" name="NBLOCK">     1</i>
   <i type="int" name="KBLOCK">     1</i>
   <i type="int" name="NPACO">   256</i>
   <i name="APACO">     16.00000000</i>
  </separator>
  <separator name="symmetry" >
   <i type="int" name="ISYM">     0</i>
   <i name="SYMPREC">      0.00001000</i>
  </separator>
  <separator name="dos" >
   <i type="int" name="LORBIT">     0</i>
   <v name="RWIGS">     -1.00000000     -1.00000000     -1.00000000</v>
   <i type="int" name="NEDOS">   301</i>
   <i name="EMIN">     10.00000000</i>
   <i name="EMAX">    -10.00000000</i>
   <i name="EFERMI">      0.00000000</i>
  </separator>
  <separator name="writing" >
   <i type="int" name="NWRITE">     2</i>
   <i type="logical" name="LWAVE"> F  </i>
   <i type="logical" name="LDOWNSAMPLE"> F  </i>
   <i type="logical" name="LCHARG"> F  </i>
   <i type="logical" name="LPARD"> F  </i>
   <i type="logical" name="LVTOT"> F  </i>
   <i type="logical" name="LVHAR"> F  </i>
   <i type="logical" name="LELF"> F  </i>
   <i type="logical" name="LOPTICS"> F  </i>
   <v name="STM">      0.00000000      0.00000000      0.00000000      0.00000000      0.00000000      0.00000000      0.00000000</v>
  </separator>
  <separator name="performance" >
   <i type="int" name="NPAR">     4</i>
   <i type="int" name="NSIM">     4</i>
   <i type="int" name="NBLK">    -1</i>
   <i type="logical" name="LPLANE"> T  </i>
   <i type="logical" name="LSCALAPACK"> F  </i>
   <i type="logical" name="LSCAAWARE"> F  </i>
   <i type="logical" name="LSCALU"> F  </i>
   <i type="logical" name="LASYNC"> F  </i>
   <i type="logical" name="LORBITALREAL"> F  </i>
  </separator>
  <separator name="miscellaneous" >
   <i type="int" name="IDIOT">     3</i>
   <i type="int" name="ISPECIAL">     0</i>
   <i type="logical" name="LMUSIC"> F  </i>
   <v name="POMASS">     40.07800000     28.08500000     16.00000000</v>
   <v name="DARWINR">      0.00000000      0.00000000      0.00000000</v>
   <v name="DARWINV">      1.00000000      1.00000000      1.00000000</v>
   <i type="logical" name="LCORR"> T  </i>
  </separator>
  <i type="logical" name="GGA_COMPAT"> T  </i>
  <i type="logical" name="LBERRY"> F  </i>
  <i type="int" name="ICORELEVEL">     0</i>
  <i type="logical" name="LDAU"> F  </i>
  <i type="int" name="I_CONSTRAINED_M">     0</i>
  <separator name="electronic exchange-correlation" >
   <i type="string" name="GGA">--</i>
   <i type="int" name="VOSKOWN">     0</i>
   <i type="logical" name="LHFCALC"> F  </i>
   <i type="string" name="PRECFOCK"></i>
   <i type="logical" name="LSYMGRAD"> F  </i>
   <i type="logical" name="LHFONE"> F  </i>
   <i type="logical" name="LRHFCALC"> F  </i>
   <i type="logical" name="LTHOMAS"> F  </i>
   <i type="logical" name="LMODELHF"> F  </i>
   <i name="ENCUT4O">     -1.00000000</i>
   <i type="int" name="EXXOEP">     0</i>
   <i type="int" name="FOURORBIT">     0</i>
   <i name="AEXX">      0.00000000</i>
   <i name="HFALPHA">      0.00000000</i>
   <i name="MCALPHA">      0.00000000</i>
   <i name="ALDAX">      1.00000000</i>
   <i name="AGGAX">      1.00000000</i>
   <i name="ALDAC">      1.00000000</i>
   <i name="AGGAC">      1.00000000</i>
   <i type="int" name="NKREDX">     1</i>
   <i type="int" name="NKREDY">     1</i>
   <i type="int" name="NKREDZ">     1</i>
   <i type="logical" name="SHIFTRED"> F  </i>
   <i type="logical" name="ODDONLY"> F  </i>
   <i type="logical" name="EVENONLY"> F  </i>
   <i type="int" name="LMAXFOCK">     0</i>
   <i type="int" name="NMAXFOCKAE">     0</i>
   <i type="logical" name="LFOCKAEDFT"> F  </i>
   <i name="HFSCREEN">      0.00000000</i>
   <i name="HFSCREENC">      0.00000000</i>
   <i type="int" name="NBANDSGWLOW">     0</i>
  </separator>
  <separator name="vdW DFT" >
   <i type="logical" name="LUSE_VDW"> F  </i>
   <i name="Zab_VDW">     -0.84910000</i>
   <i name="PARAM1">      0.12340000</i>
   <i name="PARAM2">      1.00000000</i>
   <i name="PARAM3">      0.00000000</i>
  </separator>
  <separator name="model GW" >
   <i type="int" name="MODEL_GW">     0</i>
   <i name="MODEL_EPS0">      6.98798513</i>
   <i name="MODEL_ALPHA">      1.00000000</i>
  </separator>
  <separator name="linear response parameters" >
   <i type="logical" name="LEPSILON"> F  </i>
   <i type="logical" name="LRPA"> F  </i>
   <i type="logical" name="LNABLA"> F  </i>
   <i type="logical" name="LVEL"> F  </i>
   <i type="int" name="KINTER">     0</i>
   <i name="CSHIFT">      0.10000000</i>
   <i name="OMEGAMAX">     -1.00000000</i>
   <i name="DEG_THRESHOLD">      0.00200000</i>
   <i name="RTIME">     -0.10000000</i>
   <i name="WPLASMAI">      0.00000000</i>
   <v name="DFIELD">      0.00000000      0.00000000      0.00000000</v>
   <v name="WPLASMA">      0.00000000      0.00000000      0.00000000      0.00000000      0.00000000      0.00000000      0.00000000      0.00000000      0.00000000</v>
  </separator>
  <separator name="orbital magnetization" >
   <i type="logical" name="NUCIND"> F  </i>
   <v name="MAGPOS">      0.00000000      0.00000000      0.00000000</v>
   <i type="logical" name="LNICSALL"> T  </i>
   <i type="logical" name="ORBITALMAG"> F  </i>
   <i type="logical" name="LMAGBLOCH"> F  </i>
   <i type="logical" name="LCHIMAG"> F  </i>
   <i type="logical" name="LGAUGE"> T  </i>
   <i type="int" name="MAGATOM">     0</i>
   <v name="MAGDIPOL">      0.00000000      0.00000000      0.00000000</v>
   <v name="AVECCONST">      0.00000000      0.00000000      0.00000000</v>
  </separator>
  <separator name="response functions" >
   <i type="logical" name="LADDER"> F  </i>
   <i type="logical" name="LRPAFORCE"> F  </i>
   <i type="logical" name="LFXC"> F  </i>
   <i type="logical" name="LHARTREE"> T  </i>
   <i type="int" name="IBSE">     0</i>
   <v type="int" name="KPOINT">    -1     0     0     0</v>
   <i type="logical" name="LTCTE"> F  </i>
   <i type="logical" name="LTETE"> F  </i>
   <i type="logical" name="LTRIPLET"> F  </i>
   <i type="logical" name="LFXCEPS"> F  </i>
   <i type="logical" name="LFXHEG"> F  </i>
   <i type="int" name="NATURALO">     2</i>
   <i type="logical" name="L2ORDER"> F  </i>
   <i type="logical" name="LMP2LT"> F  </i>
   <i type="logical" name="LUSEW"> F  </i>
   <i name="ENCUTGW">     -2.00000000</i>
   <i name="ENCUTGWSOFT">     -2.00000000</i>
   <i name="ENCUTLF">     -1.00000000</i>
   <i type="int" name="LMAXMP2">    -1</i>
   <i name="SCISSOR">      0.00000000</i>
   <i type="int" name="NOMEGA">     0</i>
   <i type="int" name="NOMEGAR">     0</i>
   <i type="int" name="NBANDSGW">    -1</i>
   <i type="int" name="NBANDSO">    -1</i>
   <i type="int" name="NBANDSV">    -1</i>
   <i type="int" name="NELM">     1</i>
   <i type="int" name="NELMHF">     1</i>
   <i type="int" name="DIM">     3</i>
   <i type="int" name="ANTIRES">     0</i>
   <i name="OMEGAMAX">    -30.00000000</i>
   <i name="OMEGAMIN">    -30.00000000</i>
   <i name="OMEGATL">   -200.00000000</i>
   <i type="int" name="OMEGAGRID">   140</i>
   <i name="CSHIFT">     -0.10000000</i>
   <i type="logical" name="SELFENERGY"> F  </i>
   <i type="logical" name="LSPECTRAL"> F  </i>
   <i type="logical" name="LSPECTRALGW"> F  </i>
   <i type="logical" name="LSINGLES"> F  </i>
   <i type="logical" name="LFERMIGW"> F  </i>
   <i type="logical" name="ODDONLYGW"> F  </i>
   <i type="logical" name="EVENONLYGW"> F  </i>
   <i type="int" name="NKREDLFX">     1</i>
   <i type="int" name="NKREDLFY">     1</i>
   <i type="int" name="NKREDLFZ">     1</i>
   <i type="int" name="MAXMEM">  2800</i>
   <i type="int" name="TELESCOPE">     0</i>
   <i type="int" name="TAUPAR">     1</i>
   <i type="int" name="OMEGAPAR">    -1</i>
   <i name="LAMBDA">      1.00000000</i>
  </separator>
  <separator name="External order field" >
   <i name="OFIELD_KAPPA">      0.00000000</i>
   <v name="OFIELD_K">      0.00000000      0.00000000      0.00000000</v>
   <i name="OFIELD_Q6_NEAR">      0.00000000</i>
   <i name="OFIELD_Q6_FAR">      0.00000000</i>
   <i name="OFIELD_A">      0.00000000</i>
  </separator>
 </parameters>
 <atominfo>
  <atoms>     135 </atoms>
  <types>       3 </types>
  <array name="atoms" >
   <dimension dim="1">ion</dimension>
   <field type="string">element</field>
   <field type="int">atomtype</field>
   <set>
    <rc><c>Ca</c><c>   1</c></rc>
    <rc><c>Ca</c><c>   1</c></rc>
    <rc><c>Ca</c><c>   1</c></rc>
    <rc><c>Ca</c><c>   1</c></rc>
    <rc><c>Ca</c><c>   1</c></rc>
    <rc><c>Ca</c><c>   1</c></rc>
    <rc><c>Ca</c><c>   1</c></rc>
    <rc><c>Ca</c><c>   1</c></rc>
    <rc><c>Ca</c><c>   1</c></rc>
    <rc><c>Ca</c><c>   1</c></rc>
    <rc><c>Ca</c><c>   1</c></rc>
    <rc><c>Ca</c><c>   1</c></rc>
    <rc><c>Ca</c><c>   1</c></rc>
    <rc><c>Ca</c><c>   1</c></rc>
    <rc><c>Ca</c><c>   1</c></rc>
    <rc><c>Ca</c><c>   1</c></rc>
    <rc><c>Ca</c><c>   1</c></rc>
    <rc><c>Ca</c><c>   1</c></rc>
    <rc><c>Ca</c><c>   1</c></rc>
    <rc><c>Ca</c><c>   1</c></rc>
    <rc><c>Ca</c><c>   1</c></rc>
    <rc><c>Ca</c><c>   1</c></rc>
    <rc><c>Ca</c><c>   1</c></rc>
    <rc><c>Ca</c><c>   1</c></rc>
    <rc><c>Ca</c><c>   1</c></rc>
    <rc><c>Ca</c><c>   1</c></rc>
    <rc><c>Ca</c><c>   1</c></rc>
    <rc><c>Si</c><c>   2</c></rc>
    <rc><c>Si</c><c>   2</c></rc>
    <rc><c>Si</c><c>   2</c></rc>
    <rc><c>Si</c><c>   2</c></rc>
    <rc><c>Si</c><c>   2</c></rc>
    <rc><c>Si</c><c>   2</c></rc>
    <rc><c>Si</c><c>   2</c></rc>
    <rc><c>Si</c><c>   2</c></rc>
    <rc><c>Si</c><c>   2</c></rc>
    <rc><c>Si</c><c>   2</c></rc>
    <rc><c>Si</c><c>   2</c></rc>
    <rc><c>Si</c><c>   2</c></rc>
    <rc><c>Si</c><c>   2</c></rc>
    <rc><c>Si</c><c>   2</c></rc>
    <rc><c>Si</c><c>   2</c></rc>
    <rc><c>Si</c><c>   2</c></rc>
    <rc><c>Si</c><c>   2</c></rc>
    <rc><c>Si</c><c>   2</c></rc>
    <rc><c>Si</c><c>   2</c></rc>
    <rc><c>Si</c><c>   2</c></rc>
    <rc><c>Si</c><c>   2</c></rc>
    <rc><c>Si</c><c>   2</c></rc>
    <rc><c>Si</c><c>   2</c></rc>
    <rc><c>Si</c><c>   2</c></rc>
    <rc><c>Si</c><c>   2</c></rc>
    <rc><c>Si</c><c>   2</c></rc>
    <rc><c>Si</c><c>   2</c></rc>
    <rc><c>O </c><c>   3</c></rc>
    <rc><c>O </c><c>   3</c></rc>
    <rc><c>O </c><c>   3</c></rc>
    <rc><c>O </c><c>   3</c></rc>
    <rc><c>O </c><c>   3</c></rc>
    <rc><c>O </c><c>   3</c></rc>
    <rc><c>O </c><c>   3</c></rc>
    <rc><c>O </c><c>   3</c></rc>
    <rc><c>O </c><c>   3</c></rc>
    <rc><c>O </c><c>   3</c></rc>
    <rc><c>O </c><c>   3</c></rc>
    <rc><c>O </c><c>   3</c></rc>
    <rc><c>O </c><c>   3</c></rc>
    <rc><c>O </c><c>   3</c></rc>
    <rc><c>O </c><c>   3</c></rc>
    <rc><c>O </c><c>   3</c></rc>
    <rc><c>O </c><c>   3</c></rc>
    <rc><c>O </c><c>   3</c></rc>
    <rc><c>O </c><c>   3</c></rc>
    <rc><c>O </c><c>   3</c></rc>
    <rc><c>O </c><c>   3</c></rc>
    <rc><c>O </c><c>   3</c></rc>
    <rc><c>O </c><c>   3</c></rc>
    <rc><c>O </c><c>   3</c></rc>
    <rc><c>O </c><c>   3</c></rc>
    <rc><c>O </c><c>   3</c></rc>
    <rc><c>O </c><c>   3</c></rc>
    <rc><c>O </c><c>   3</c></rc>
    <rc><c>O </c><c>   3</c></rc>
    <rc><c>O </c><c>   3</c></rc>
    <rc><c>O </c><c>   3</c></rc>
    <rc><c>O </c><c>   3</c></rc>
    <rc><c>O </c><c>   3</c></rc>
    <rc><c>O </c><c>   3</c></rc>
    <rc><c>O </c><c>   3</c></rc>
    <rc><c>O </c><c>   3</c></rc>
    <rc><c>O </c><c>   3</c></rc>
    <rc><c>O </c><c>   3</c></rc>
    <rc><c>O </c><c>   3</c></rc>
    <rc><c>O </c><c>   3</c></rc>
    <rc><c>O </c><c>   3</c></rc>
    <rc><c>O </c><c>   3</c></rc>
    <rc><c>O </c><c>   3</c></rc>
    <rc><c>O </c><c>   3</c></rc>
    <rc><c>O </c><c>   3</c></rc>
    <rc><c>O </c><c>   3</c></rc>
    <rc><c>O </c><c>   3</c></rc>
    <rc><c>O </c><c>   3</c></rc>
    <rc><c>O </c><c>   3</c></rc>
    <rc><c>O </c><c>   3</c></rc>
    <rc><c>O </c><c>   3</c></rc>
    <rc><c>O </c><c>   3</c></rc>
    <rc><c>O </c><c>   3</c></rc>
    <rc><c>O </c><c>   3</c></rc>
    <rc><c>O </c><c>   3</c></rc>
    <rc><c>O </c><c>   3</c></rc>
    <rc><c>O </c><c>   3</c></rc>
    <rc><c>O </c><c>   3</c></rc>
    <rc><c>O </c><c>   3</c></rc>
    <rc><c>O </c><c>   3</c></rc>
    <rc><c>O </c><c>   3</c></rc>
    <rc><c>O </c><c>   3</c></rc>
    <rc><c>O </c><c>   3</c></rc>
    <rc><c>O </c><c>   3</c></rc>
    <rc><c>O </c><c>   3</c></rc>
    <rc><c>O </c><c>   3</c></rc>
    <rc><c>O </c><c>   3</c></rc>
    <rc><c>O </c><c>   3</c></rc>
    <rc><c>O </c><c>   3</c></rc>
    <rc><c>O </c><c>   3</c></rc>
    <rc><c>O </c><c>   3</c></rc>
    <rc><c>O </c><c>   3</c></rc>
    <rc><c>O </c><c>   3</c></rc>
    <rc><c>O </c><c>   3</c></rc>
    <rc><c>O </c><c>   3</c></rc>
    <rc><c>O </c><c>   3</c></rc>
    <rc><c>O </c><c>   3</c></rc>
    <rc><c>O </c><c>   3</c></rc>
    <rc><c>O </c><c>   3</c></rc>
    <rc><c>O </c><c>   3</c></rc>
    <rc><c>O </c><c>   3</c></rc>
   </set>
  </array>
  <array name="atomtypes" >
   <dimension dim="1">type</dimension>
   <field type="int">atomspertype</field>
   <field type="string">element</field>
   <field>mass</field>
   <field>valence</field>
   <field type="string">pseudopotential</field>
   <set>
    <rc><c>  27</c><c>Ca</c><c>     40.07800000</c><c>     10.00000000</c><c>  PAW_PBE Ca_sv 06Sep2000               </c></rc>
    <rc><c>  27</c><c>Si</c><c>     28.08500000</c><c>      4.00000000</c><c>  PAW_PBE Si 05Jan2001                  </c></rc>
    <rc><c>  81</c><c>O </c><c>     16.00000000</c><c>      6.00000000</c><c>  PAW_PBE O 08Apr2002                   </c></rc>
   </set>
  </array>
 </atominfo>
 <structure name="initialpos" >
  <crystal>
   <varray name="basis" >
    <v>      11.62817333       0.00000000       0.00000000 </v>
    <v>       0.00000000      11.62817333       0.00000000 </v>
    <v>       0.00000000       0.00000000      11.62817333 </v>
   </varray>
   <i name="volume">   1572.29665425 </i>
   <varray name="rec_basis" >
    <v>       0.08599803       0.00000000       0.00000000 </v>
    <v>       0.00000000       0.08599803       0.00000000 </v>
    <v>       0.00000000       0.00000000       0.08599803 </v>
   </varray>
  </crystal>
  <varray name="positions" >
   <v>       0.21319890       0.70515794       0.78001786 </v>
   <v>       0.66847474       0.78158100       0.92610869 </v>
   <v>       0.31609516       0.71436131       0.30976554 </v>
   <v>       0.31672008       0.08384999       0.64413889 </v>
   <v>       0.33627254       0.01646322       0.06351147 </v>
   <v>       0.78099107       0.33406787       0.29182797 </v>
   <v>       0.14229078       0.24377957       0.06173216 </v>
   <v>       0.79909026       0.88544843       0.21231814 </v>
   <v>       0.72247990       0.63997575       0.66399751 </v>
   <v>       0.40752685       0.36040098       0.55025367 </v>
   <v>       0.01509945       0.76033380       0.34283625 </v>
   <v>       0.49108764       0.99423100       0.39922969 </v>
   <v>       0.58299926       0.56772928       0.42106081 </v>
   <v>       0.54047976       0.16345978       0.81138263 </v>
   <v>       0.33850191       0.45214098       0.27276821 </v>
   <v>       0.50864677       0.56815745       0.80832373 </v>
   <v>       0.87967769       0.20815126       0.74610910 </v>
   <v>       0.91986886       0.43885660       0.57294758 </v>
   <v>       0.52201407       0.84399101       0.65614044 </v>
   <v>       0.02641948       0.94130736       0.91266440 </v>
   <v>       0.00705303       0.14243789       0.26159272 </v>
   <v>       0.08206666       0.23865084       0.53999319 </v>
   <v>       0.95362053       0.55816898       0.88734351 </v>
   <v>       0.75834855       0.52279249       0.09163177 </v>
   <v>       0.04607808       0.94652653       0.62633767 </v>
   <v>       0.53440795       0.37818419       0.04406457 </v>
   <v>       0.06775869       0.44591515       0.17660981 </v>
   <v>       0.38067841       0.60292971       0.58906403 </v>
   <v>       0.64346617       0.09522418       0.61128660 </v>
   <v>       0.74219047       0.39696366       0.85120254 </v>
   <v>       0.09706422       0.90281253       0.14777518 </v>
   <v>       0.83642921       0.09200076       0.45533787 </v>
   <v>       0.26999831       0.22856714       0.35239303 </v>
   <v>       0.52202131       0.64578778       0.14299693 </v>
   <v>       0.33523341       0.31105440       0.85007616 </v>
   <v>       0.60112580       0.10303140       0.13292247 </v>
   <v>       0.64449354       0.35746926       0.57233964 </v>
   <v>       0.81584765       0.61606347       0.36797549 </v>
   <v>       0.53698751       0.29640803       0.29558078 </v>
   <v>       0.54700327       0.84546112       0.20891425 </v>
   <v>       0.80172084       0.84600432       0.48343245 </v>
   <v>       0.80131433       0.93822044       0.72729979 </v>
   <v>       0.86001680       0.27547146       0.03924631 </v>
   <v>       0.93305124       0.69657929       0.04973124 </v>
   <v>       0.18784313       0.48232312       0.68680011 </v>
   <v>       0.22481098       0.52851664       0.00390981 </v>
   <v>       0.18369808       0.99483940       0.39682547 </v>
   <v>       0.09913242       0.48088848       0.44150735 </v>
   <v>       0.98838470       0.67481670       0.62318013 </v>
   <v>       0.35552859       0.90236365       0.81732783 </v>
   <v>       0.28773133       0.82463351       0.56490081 </v>
   <v>       0.12211144       0.23312672       0.78495374 </v>
   <v>       0.28353022       0.74177889       0.06236661 </v>
   <v>       0.81449717       0.03662444       0.01092869 </v>
   <v>       0.30547583       0.22407511       0.95166160 </v>
   <v>       0.19437102       0.29701463       0.24975826 </v>
   <v>       0.55837370       0.15251294       0.99928018 </v>
   <v>       0.62048671       0.73142232       0.20581775 </v>
   <v>       0.29731421       0.98786458       0.47380014 </v>
   <v>       0.14530377       0.66594419       0.06533443 </v>
   <v>       0.39898092       0.02785670       0.84446384 </v>
   <v>       0.52813221       0.85247815       0.07821126 </v>
   <v>       0.83995305       0.37038758       0.93294136 </v>
   <v>       0.90583827       0.60501046       0.70159000 </v>
   <v>       0.85509261       0.18565722       0.35914041 </v>
   <v>       0.26487070       0.84900536       0.91696557 </v>
   <v>       0.52099354       0.03283543       0.63814281 </v>
   <v>       0.27599708       0.45738799       0.10419631 </v>
   <v>       0.75188784       0.31228407       0.10602368 </v>
   <v>       0.88033235       0.16136092       0.96841153 </v>
   <v>       0.93635579       0.97017053       0.76990898 </v>
   <v>       0.78609835       0.72930704       0.05706551 </v>
   <v>       0.56920204       0.46079342       0.62238504 </v>
   <v>       0.72665413       0.54051165       0.86191412 </v>
   <v>       0.90657750       0.75554709       0.53323313 </v>
   <v>       0.62433165       0.96188923       0.25912087 </v>
   <v>       0.33253595       0.50774477       0.69271585 </v>
   <v>       0.27504762       0.21450886       0.48916912 </v>
   <v>       0.38774446       0.41946802       0.90111458 </v>
   <v>       0.83768318       0.74291435       0.32416170 </v>
   <v>       0.16282547       0.11284402       0.71648555 </v>
   <v>       0.30123208       0.62443523       0.94256472 </v>
   <v>       0.47517329       0.09385168       0.19405225 </v>
   <v>       0.17116415       0.43152969       0.55732051 </v>
   <v>       0.76454207       0.35245188       0.48609732 </v>
   <v>       0.94204387       0.97646685       0.07001156 </v>
   <v>       0.73533230       0.98576277       0.90030424 </v>
   <v>       0.61431287       0.35146339       0.84754515 </v>
   <v>       0.98581193       0.73981539       0.90284519 </v>
   <v>       0.73377103       0.07840567       0.72084990 </v>
   <v>       0.74087035       0.06739484       0.12183574 </v>
   <v>       0.45214398       0.59032512       0.25456156 </v>
   <v>       0.97756602       0.29815308       0.11778913 </v>
   <v>       0.50428384       0.66324378       0.62042477 </v>
   <v>       0.79687402       0.38104915       0.71231331 </v>
   <v>       0.15635433       0.85412751       0.48762866 </v>
   <v>       0.42404657       0.85441252       0.28112871 </v>
   <v>       0.61082108       0.24445810       0.65556032 </v>
   <v>       0.68780977       0.06457709       0.48935503 </v>
   <v>       0.25735340       0.89297198       0.68888510 </v>
   <v>       0.07034205       0.20661414       0.89974747 </v>
   <v>       0.22246405       0.81915626       0.16252558 </v>
   <v>       0.07362894       0.06366758       0.43841788 </v>
   <v>       0.77675033       0.57638506       0.49238835 </v>
   <v>       0.50965702       0.41078410       0.21529393 </v>
   <v>       0.39856075       0.28335102       0.33209381 </v>
   <v>       0.10060465       0.55610776       0.74266695 </v>
   <v>       0.10730500       0.94379118       0.27656300 </v>
   <v>       0.04348729       0.36372755       0.41998035 </v>
   <v>       0.92931694       0.55200911       0.29717130 </v>
   <v>       0.55991538       0.30675463       0.44234425 </v>
   <v>       0.70675397       0.53086130       0.28957129 </v>
   <v>       0.06319890       0.74924636       0.70772192 </v>
   <v>       0.28526751       0.69655998       0.60863016 </v>
   <v>       0.01188385       0.78684875       0.12996718 </v>
   <v>       0.36538784       0.24628582       0.73766077 </v>
   <v>       0.17591119       0.55059533       0.34621784 </v>
   <v>       0.90934255       0.14728188       0.57344249 </v>
   <v>       0.03337715       0.31995136       0.68564573 </v>
   <v>       0.02901730       0.60960077       0.50459744 </v>
   <v>       0.84505410       0.95886142       0.38622734 </v>
   <v>       0.71901361       0.83337065       0.72247282 </v>
   <v>       0.43685095       0.77956219       0.81564305 </v>
   <v>       0.11093730       0.43638157       0.98458326 </v>
   <v>       0.84347644       0.94327626       0.59161021 </v>
   <v>       0.39371046       0.71261642       0.12125993 </v>
   <v>       0.66669002       0.81533692       0.48463282 </v>
   <v>       0.15496086       0.99723833       0.05496980 </v>
   <v>       0.26513610       0.10093939       0.31028387 </v>
   <v>       0.58169593       0.57238826       0.02695033 </v>
   <v>       0.92213596       0.55901974       0.08020471 </v>
   <v>       0.62961309       0.20328655       0.25033983 </v>
   <v>       0.37561601       0.54821091       0.45673997 </v>
   <v>       0.19658860       0.36135674       0.79411024 </v>
   <v>       0.39602409       0.80882470       0.49497000 </v>
  </varray>
  <varray name="velocities" >
   <v>       0.00000000       0.00000000       0.00000000 </v>
   <v>       0.00000000       0.00000000       0.00000000 </v>
   <v>       0.00000000       0.00000000       0.00000000 </v>
   <v>       0.00000000       0.00000000       0.00000000 </v>
   <v>       0.00000000       0.00000000       0.00000000 </v>
   <v>       0.00000000       0.00000000       0.00000000 </v>
   <v>       0.00000000       0.00000000       0.00000000 </v>
   <v>       0.00000000       0.00000000       0.00000000 </v>
   <v>       0.00000000       0.00000000       0.00000000 </v>
   <v>       0.00000000       0.00000000       0.00000000 </v>
   <v>       0.00000000       0.00000000       0.00000000 </v>
   <v>       0.00000000       0.00000000       0.00000000 </v>
   <v>       0.00000000       0.00000000       0.00000000 </v>
   <v>       0.00000000       0.00000000       0.00000000 </v>
   <v>       0.00000000       0.00000000       0.00000000 </v>
   <v>       0.00000000       0.00000000       0.00000000 </v>
   <v>       0.00000000       0.00000000       0.00000000 </v>
   <v>       0.00000000       0.00000000       0.00000000 </v>
   <v>       0.00000000       0.00000000       0.00000000 </v>
   <v>       0.00000000       0.00000000       0.00000000 </v>
   <v>       0.00000000       0.00000000       0.00000000 </v>
   <v>       0.00000000       0.00000000       0.00000000 </v>
   <v>       0.00000000       0.00000000       0.00000000 </v>
   <v>       0.00000000       0.00000000       0.00000000 </v>
   <v>       0.00000000       0.00000000       0.00000000 </v>
   <v>       0.00000000       0.00000000       0.00000000 </v>
   <v>       0.00000000       0.00000000       0.00000000 </v>
   <v>       0.00000000       0.00000000       0.00000000 </v>
   <v>       0.00000000       0.00000000       0.00000000 </v>
   <v>       0.00000000       0.00000000       0.00000000 </v>
   <v>       0.00000000       0.00000000       0.00000000 </v>
   <v>       0.00000000       0.00000000       0.00000000 </v>
   <v>       0.00000000       0.00000000       0.00000000 </v>
   <v>       0.00000000       0.00000000       0.00000000 </v>
   <v>       0.00000000       0.00000000       0.00000000 </v>
   <v>       0.00000000       0.00000000       0.00000000 </v>
   <v>       0.00000000       0.00000000       0.00000000 </v>
   <v>       0.00000000       0.00000000       0.00000000 </v>
   <v>       0.00000000       0.00000000       0.00000000 </v>
   <v>       0.00000000       0.00000000       0.00000000 </v>
   <v>       0.00000000       0.00000000       0.00000000 </v>
   <v>       0.00000000       0.00000000       0.00000000 </v>
   <v>       0.00000000       0.00000000       0.00000000 </v>
   <v>       0.00000000       0.00000000       0.00000000 </v>
   <v>       0.00000000       0.00000000       0.00000000 </v>
   <v>       0.00000000       0.00000000       0.00000000 </v>
   <v>       0.00000000       0.00000000       0.00000000 </v>
   <v>       0.00000000       0.00000000       0.00000000 </v>
   <v>       0.00000000       0.00000000       0.00000000 </v>
   <v>       0.00000000       0.00000000       0.00000000 </v>
   <v>       0.00000000       0.00000000       0.00000000 </v>
   <v>       0.00000000       0.00000000       0.00000000 </v>
   <v>       0.00000000       0.00000000       0.00000000 </v>
   <v>       0.00000000       0.00000000       0.00000000 </v>
   <v>       0.00000000       0.00000000       0.00000000 </v>
   <v>       0.00000000       0.00000000       0.00000000 </v>
   <v>       0.00000000       0.00000000       0.00000000 </v>
   <v>       0.00000000       0.00000000       0.00000000 </v>
   <v>       0.00000000       0.00000000       0.00000000 </v>
   <v>       0.00000000       0.00000000       0.00000000 </v>
   <v>       0.00000000       0.00000000       0.00000000 </v>
   <v>       0.00000000       0.00000000       0.00000000 </v>
   <v>       0.00000000       0.00000000       0.00000000 </v>
   <v>       0.00000000       0.00000000       0.00000000 </v>
   <v>       0.00000000       0.00000000       0.00000000 </v>
   <v>       0.00000000       0.00000000       0.00000000 </v>
   <v>       0.00000000       0.00000000       0.00000000 </v>
   <v>       0.00000000       0.00000000       0.00000000 </v>
   <v>       0.00000000       0.00000000       0.00000000 </v>
   <v>       0.00000000       0.00000000       0.00000000 </v>
   <v>       0.00000000       0.00000000       0.00000000 </v>
   <v>       0.00000000       0.00000000       0.00000000 </v>
   <v>       0.00000000       0.00000000       0.00000000 </v>
   <v>       0.00000000       0.00000000       0.00000000 </v>
   <v>       0.00000000       0.00000000       0.00000000 </v>
   <v>       0.00000000       0.00000000       0.00000000 </v>
   <v>       0.00000000       0.00000000       0.00000000 </v>
   <v>       0.00000000       0.00000000       0.00000000 </v>
   <v>       0.00000000       0.00000000       0.00000000 </v>
   <v>       0.00000000       0.00000000       0.00000000 </v>
   <v>       0.00000000       0.00000000       0.00000000 </v>
   <v>       0.00000000       0.00000000       0.00000000 </v>
   <v>       0.00000000       0.00000000       0.00000000 </v>
   <v>       0.00000000       0.00000000       0.00000000 </v>
   <v>       0.00000000       0.00000000       0.00000000 </v>
   <v>       0.00000000       0.00000000       0.00000000 </v>
   <v>       0.00000000       0.00000000       0.00000000 </v>
   <v>       0.00000000       0.00000000       0.00000000 </v>
   <v>       0.00000000       0.00000000       0.00000000 </v>
   <v>       0.00000000       0.00000000       0.00000000 </v>
   <v>       0.00000000       0.00000000       0.00000000 </v>
   <v>       0.00000000       0.00000000       0.00000000 </v>
   <v>       0.00000000       0.00000000       0.00000000 </v>
   <v>       0.00000000       0.00000000       0.00000000 </v>
   <v>       0.00000000       0.00000000       0.00000000 </v>
   <v>       0.00000000       0.00000000       0.00000000 </v>
   <v>       0.00000000       0.00000000       0.00000000 </v>
   <v>       0.00000000       0.00000000       0.00000000 </v>
   <v>       0.00000000       0.00000000       0.00000000 </v>
   <v>       0.00000000       0.00000000       0.00000000 </v>
   <v>       0.00000000       0.00000000       0.00000000 </v>
   <v>       0.00000000       0.00000000       0.00000000 </v>
   <v>       0.00000000       0.00000000       0.00000000 </v>
   <v>       0.00000000       0.00000000       0.00000000 </v>
   <v>       0.00000000       0.00000000       0.00000000 </v>
   <v>       0.00000000       0.00000000       0.00000000 </v>
   <v>       0.00000000       0.00000000       0.00000000 </v>
   <v>       0.00000000       0.00000000       0.00000000 </v>
   <v>       0.00000000       0.00000000       0.00000000 </v>
   <v>       0.00000000       0.00000000       0.00000000 </v>
   <v>       0.00000000       0.00000000       0.00000000 </v>
   <v>       0.00000000       0.00000000       0.00000000 </v>
   <v>       0.00000000       0.00000000       0.00000000 </v>
   <v>       0.00000000       0.00000000       0.00000000 </v>
   <v>       0.00000000       0.00000000       0.00000000 </v>
   <v>       0.00000000       0.00000000       0.00000000 </v>
   <v>       0.00000000       0.00000000       0.00000000 </v>
   <v>       0.00000000       0.00000000       0.00000000 </v>
   <v>       0.00000000       0.00000000       0.00000000 </v>
   <v>       0.00000000       0.00000000       0.00000000 </v>
   <v>       0.00000000       0.00000000       0.00000000 </v>
   <v>       0.00000000       0.00000000       0.00000000 </v>
   <v>       0.00000000       0.00000000       0.00000000 </v>
   <v>       0.00000000       0.00000000       0.00000000 </v>
   <v>       0.00000000       0.00000000       0.00000000 </v>
   <v>       0.00000000       0.00000000       0.00000000 </v>
   <v>       0.00000000       0.00000000       0.00000000 </v>
   <v>       0.00000000       0.00000000       0.00000000 </v>
   <v>       0.00000000       0.00000000       0.00000000 </v>
   <v>       0.00000000       0.00000000       0.00000000 </v>
   <v>       0.00000000       0.00000000       0.00000000 </v>
   <v>       0.00000000       0.00000000       0.00000000 </v>
   <v>       0.00000000       0.00000000       0.00000000 </v>
   <v>       0.00000000       0.00000000       0.00000000 </v>
   <v>       0.00000000       0.00000000       0.00000000 </v>
  </varray>
 </structure>
 <calculation>
  <scstep>
   <time name="dav">   33.70   33.89</time>
   <time name="total">   34.11   34.31</time>
   <energy>
    <i name="alphaZ">   3039.22321400 </i>
    <i name="ewald"> -49191.28813429 </i>
    <i name="hartreedc"> -15544.30037287 </i>
    <i name="XCdc">   3191.62031001 </i>
    <i name="pawpsdc">  50594.51003143 </i>
    <i name="pawaedc"> -49994.65612350 </i>
    <i name="eentropy">     -0.03196199 </i>
    <i name="bandstr">   2637.07326107 </i>
    <i name="atom">  64968.54023382 </i>
    <i name="e_fr_energy">   9700.69045769 </i>
    <i name="e_wo_entrp">   9700.72241968 </i>
    <i name="e_0_energy">   9700.70643868 </i>
   </energy>
  </scstep>
  <scstep>
   <time name="dav">   38.30   38.50</time>
   <time name="total">   38.30   38.50</time>
   <energy>
    <i name="e_fr_energy">     12.51806417 </i>
    <i name="e_wo_entrp">     12.51806417 </i>
    <i name="e_0_energy">     12.51806417 </i>
   </energy>
  </scstep>
  <scstep>
   <time name="dav">   39.79   39.97</time>
   <time name="total">   39.79   39.97</time>
   <energy>
    <i name="e_fr_energy">  -1021.35546066 </i>
    <i name="e_wo_entrp">  -1021.35546066 </i>
    <i name="e_0_energy">  -1021.35546066 </i>
   </energy>
  </scstep>
  <scstep>
   <time name="dav">   42.75   42.95</time>
   <time name="total">   42.75   42.95</time>
   <energy>
    <i name="e_fr_energy">  -1070.32356958 </i>
    <i name="e_wo_entrp">  -1070.32356958 </i>
    <i name="e_0_energy">  -1070.32356958 </i>
   </energy>
  </scstep>
  <scstep>
   <time name="dav">   53.40   53.67</time>
   <time name="total">   54.65   54.92</time>
   <energy>
    <i name="e_fr_energy">  -1075.21785995 </i>
    <i name="e_wo_entrp">  -1075.21785995 </i>
    <i name="e_0_energy">  -1075.21785995 </i>
   </energy>
  </scstep>
  <scstep>
   <time name="dav">   38.08   38.89</time>
   <time name="total">   39.73   40.57</time>
   <energy>
    <i name="e_fr_energy">   -937.11297652 </i>
    <i name="e_wo_entrp">   -937.11297652 </i>
    <i name="e_0_energy">   -937.11297652 </i>
   </energy>
  </scstep>
  <scstep>
   <time name="dav">   42.44   42.63</time>
   <time name="total">   44.13   44.34</time>
   <energy>
    <i name="e_fr_energy">   -939.68808650 </i>
    <i name="e_wo_entrp">   -939.68808650 </i>
    <i name="e_0_energy">   -939.68808650 </i>
   </energy>
  </scstep>
  <scstep>
   <time name="dav">   40.68   40.87</time>
   <time name="total">   42.33   42.54</time>
   <energy>
    <i name="e_fr_energy">   -938.80610237 </i>
    <i name="e_wo_entrp">   -938.80610237 </i>
    <i name="e_0_energy">   -938.80610237 </i>
   </energy>
  </scstep>
  <scstep>
   <time name="dav">   39.55   39.73</time>
   <time name="total">   41.21   41.40</time>
   <energy>
    <i name="e_fr_energy">   -938.55169186 </i>
    <i name="e_wo_entrp">   -938.55169186 </i>
    <i name="e_0_energy">   -938.55169186 </i>
   </energy>
  </scstep>
  <scstep>
   <time name="dav">   44.47   44.68</time>
   <time name="total">   46.13   46.35</time>
   <energy>
    <i name="e_fr_energy">   -938.64718236 </i>
    <i name="e_wo_entrp">   -938.64718236 </i>
    <i name="e_0_energy">   -938.64718236 </i>
   </energy>
  </scstep>
  <scstep>
   <time name="dav">   42.77   42.95</time>
   <time name="total">   44.44   44.64</time>
   <energy>
    <i name="e_fr_energy">   -938.64779539 </i>
    <i name="e_wo_entrp">   -938.64779539 </i>
    <i name="e_0_energy">   -938.64779539 </i>
   </energy>
  </scstep>
  <scstep>
   <time name="dav">   39.06   39.23</time>
   <time name="total">   40.72   40.91</time>
   <energy>
    <i name="e_fr_energy">   -938.65378163 </i>
    <i name="e_wo_entrp">   -938.65378163 </i>
    <i name="e_0_energy">   -938.65378163 </i>
   </energy>
  </scstep>
  <scstep>
   <time name="dav">   44.94   45.18</time>
   <time name="total">   46.60   46.85</time>
   <energy>
    <i name="e_fr_energy">   -938.65595555 </i>
    <i name="e_wo_entrp">   -938.65595555 </i>
    <i name="e_0_energy">   -938.65595555 </i>
   </energy>
  </scstep>
  <scstep>
   <time name="dav">   43.28   43.51</time>
   <time name="total">   44.92   45.17</time>
   <energy>
    <i name="e_fr_energy">   -938.65609168 </i>
    <i name="e_wo_entrp">   -938.65609168 </i>
    <i name="e_0_energy">   -938.65609168 </i>
   </energy>
  </scstep>
  <scstep>
   <time name="dav">   40.83   41.00</time>
   <time name="total">   42.48   42.67</time>
   <energy>
    <i name="e_fr_energy">   -938.65612806 </i>
    <i name="e_wo_entrp">   -938.65612806 </i>
    <i name="e_0_energy">   -938.65612806 </i>
   </energy>
  </scstep>
  <scstep>
   <time name="dav">   38.33   38.51</time>
   <time name="total">   39.99   40.18</time>
   <energy>
    <i name="e_fr_energy">   -938.65612619 </i>
    <i name="e_wo_entrp">   -938.65612619 </i>
    <i name="e_0_energy">   -938.65612619 </i>
   </energy>
  </scstep>
  <scstep>
   <time name="dav">   54.95   55.86</time>
   <time name="total">   57.02  113.27</time>
   <energy>
    <i name="e_fr_energy">   -938.65612689 </i>
    <i name="e_wo_entrp">   -938.65612689 </i>
    <i name="e_0_energy">   -938.65612689 </i>
   </energy>
  </scstep>
  <scstep>
   <time name="dav">   38.61   38.78</time>
   <time name="total">   40.27   40.46</time>
   <energy>
    <i name="e_fr_energy">   -938.65612622 </i>
    <i name="e_wo_entrp">   -938.65612622 </i>
    <i name="e_0_energy">   -938.65612622 </i>
   </energy>
  </scstep>
  <scstep>
   <time name="dav">   32.48   33.06</time>
   <time name="total">   34.13   34.75</time>
   <energy>
    <i name="e_fr_energy">   -938.65612489 </i>
    <i name="e_wo_entrp">   -938.65612489 </i>
    <i name="e_0_energy">   -938.65612489 </i>
   </energy>
  </scstep>
  <scstep>
   <time name="dav">   27.48   28.21</time>
   <time name="total">   27.88   28.62</time>
   <energy>
    <i name="alphaZ">   3039.22321400 </i>
    <i name="ewald"> -49191.28813429 </i>
    <i name="hartreedc"> -16970.32141530 </i>
    <i name="XCdc">   3289.10501245 </i>
    <i name="pawpsdc">  95937.45722822 </i>
    <i name="pawaedc"> -95599.26476124 </i>
    <i name="eentropy">     -0.00000000 </i>
    <i name="bandstr">  -6412.10750196 </i>
    <i name="atom">  64968.54023382 </i>
    <i name="e_fr_energy">   -938.65612429 </i>
    <i name="e_wo_entrp">   -938.65612429 </i>
    <i name="e_0_energy">   -938.65612429 </i>
   </energy>
  </scstep>
  <structure>
   <crystal>
    <varray name="basis" >
     <v>      11.62817333       0.00000000       0.00000000 </v>
     <v>       0.00000000      11.62817333       0.00000000 </v>
     <v>       0.00000000       0.00000000      11.62817333 </v>
    </varray>
    <i name="volume">   1572.29665425 </i>
    <varray name="rec_basis" >
     <v>       0.08599803       0.00000000       0.00000000 </v>
     <v>       0.00000000       0.08599803       0.00000000 </v>
     <v>       0.00000000       0.00000000       0.08599803 </v>
    </varray>
   </crystal>
   <varray name="positions" >
    <v>       0.21319890       0.70515794       0.78001786 </v>
    <v>       0.66847474       0.78158100       0.92610869 </v>
    <v>       0.31609516       0.71436131       0.30976554 </v>
    <v>       0.31672008       0.08384999       0.64413889 </v>
    <v>       0.33627254       0.01646322       0.06351147 </v>
    <v>       0.78099107       0.33406787       0.29182797 </v>
    <v>       0.14229078       0.24377957       0.06173216 </v>
    <v>       0.79909026       0.88544843       0.21231814 </v>
    <v>       0.72247990       0.63997575       0.66399751 </v>
    <v>       0.40752685       0.36040098       0.55025367 </v>
    <v>       0.01509945       0.76033380       0.34283625 </v>
    <v>       0.49108764       0.99423100       0.39922969 </v>
    <v>       0.58299926       0.56772928       0.42106081 </v>
    <v>       0.54047976       0.16345978       0.81138263 </v>
    <v>       0.33850191       0.45214098       0.27276821 </v>
    <v>       0.50864677       0.56815745       0.80832373 </v>
    <v>       0.87967769       0.20815126       0.74610910 </v>
    <v>       0.91986886       0.43885660       0.57294758 </v>
    <v>       0.52201407       0.84399101       0.65614044 </v>
    <v>       0.02641948       0.94130736       0.91266440 </v>
    <v>       0.00705303       0.14243789       0.26159272 </v>
    <v>       0.08206666       0.23865084       0.53999319 </v>
    <v>       0.95362053       0.55816898       0.88734351 </v>
    <v>       0.75834855       0.52279249       0.09163177 </v>
    <v>       0.04607808       0.94652653       0.62633767 </v>
    <v>       0.53440795       0.37818419       0.04406457 </v>
    <v>       0.06775869       0.44591515       0.17660981 </v>
    <v>       0.38067841       0.60292971       0.58906403 </v>
    <v>       0.64346617       0.09522418       0.61128660 </v>
    <v>       0.74219047       0.39696366       0.85120254 </v>
    <v>       0.09706422       0.90281253       0.14777518 </v>
    <v>       0.83642921       0.09200076       0.45533787 </v>
    <v>       0.26999831       0.22856714       0.35239303 </v>
    <v>       0.52202131       0.64578778       0.14299693 </v>
    <v>       0.33523341       0.31105440       0.85007616 </v>
    <v>       0.60112580       0.10303140       0.13292247 </v>
    <v>       0.64449354       0.35746926       0.57233964 </v>
    <v>       0.81584765       0.61606347       0.36797549 </v>
    <v>       0.53698751       0.29640803       0.29558078 </v>
    <v>       0.54700327       0.84546112       0.20891425 </v>
    <v>       0.80172084       0.84600432       0.48343245 </v>
    <v>       0.80131433       0.93822044       0.72729979 </v>
    <v>       0.86001680       0.27547146       0.03924631 </v>
    <v>       0.93305124       0.69657929       0.04973124 </v>
    <v>       0.18784313       0.48232312       0.68680011 </v>
    <v>       0.22481098       0.52851664       0.00390981 </v>
    <v>       0.18369808       0.99483940       0.39682547 </v>
    <v>       0.09913242       0.48088848       0.44150735 </v>
    <v>       0.98838470       0.67481670       0.62318013 </v>
    <v>       0.35552859       0.90236365       0.81732783 </v>
    <v>       0.28773133       0.82463351       0.56490081 </v>
    <v>       0.12211144       0.23312672       0.78495374 </v>
    <v>       0.28353022       0.74177889       0.06236661 </v>
    <v>       0.81449717       0.03662444       0.01092869 </v>
    <v>       0.30547583       0.22407511       0.95166160 </v>
    <v>       0.19437102       0.29701463       0.24975826 </v>
    <v>       0.55837370       0.15251294       0.99928018 </v>
    <v>       0.62048671       0.73142232       0.20581775 </v>
    <v>       0.29731421       0.98786458       0.47380014 </v>
    <v>       0.14530377       0.66594419       0.06533443 </v>
    <v>       0.39898092       0.02785670       0.84446384 </v>
    <v>       0.52813221       0.85247815       0.07821126 </v>
    <v>       0.83995305       0.37038758       0.93294136 </v>
    <v>       0.90583827       0.60501046       0.70159000 </v>
    <v>       0.85509261       0.18565722       0.35914041 </v>
    <v>       0.26487070       0.84900536       0.91696557 </v>
    <v>       0.52099354       0.03283543       0.63814281 </v>
    <v>       0.27599708       0.45738799       0.10419631 </v>
    <v>       0.75188784       0.31228407       0.10602368 </v>
    <v>       0.88033235       0.16136092       0.96841153 </v>
    <v>       0.93635579       0.97017053       0.76990898 </v>
    <v>       0.78609835       0.72930704       0.05706551 </v>
    <v>       0.56920204       0.46079342       0.62238504 </v>
    <v>       0.72665413       0.54051165       0.86191412 </v>
    <v>       0.90657750       0.75554709       0.53323313 </v>
    <v>       0.62433165       0.96188923       0.25912087 </v>
    <v>       0.33253595       0.50774477       0.69271585 </v>
    <v>       0.27504762       0.21450886       0.48916912 </v>
    <v>       0.38774446       0.41946802       0.90111458 </v>
    <v>       0.83768318       0.74291435       0.32416170 </v>
    <v>       0.16282547       0.11284402       0.71648555 </v>
    <v>       0.30123208       0.62443523       0.94256472 </v>
    <v>       0.47517329       0.09385168       0.19405225 </v>
    <v>       0.17116415       0.43152969       0.55732051 </v>
    <v>       0.76454207       0.35245188       0.48609732 </v>
    <v>       0.94204387       0.97646685       0.07001156 </v>
    <v>       0.73533230       0.98576277       0.90030424 </v>
    <v>       0.61431287       0.35146339       0.84754515 </v>
    <v>       0.98581193       0.73981539       0.90284519 </v>
    <v>       0.73377103       0.07840567       0.72084990 </v>
    <v>       0.74087035       0.06739484       0.12183574 </v>
    <v>       0.45214398       0.59032512       0.25456156 </v>
    <v>       0.97756602       0.29815308       0.11778913 </v>
    <v>       0.50428384       0.66324378       0.62042477 </v>
    <v>       0.79687402       0.38104915       0.71231331 </v>
    <v>       0.15635433       0.85412751       0.48762866 </v>
    <v>       0.42404657       0.85441252       0.28112871 </v>
    <v>       0.61082108       0.24445810       0.65556032 </v>
    <v>       0.68780977       0.06457709       0.48935503 </v>
    <v>       0.25735340       0.89297198       0.68888510 </v>
    <v>       0.07034205       0.20661414       0.89974747 </v>
    <v>       0.22246405       0.81915626       0.16252558 </v>
    <v>       0.07362894       0.06366758       0.43841788 </v>
    <v>       0.77675033       0.57638506       0.49238835 </v>
    <v>       0.50965702       0.41078410       0.21529393 </v>
    <v>       0.39856075       0.28335102       0.33209381 </v>
    <v>       0.10060465       0.55610776       0.74266695 </v>
    <v>       0.10730500       0.94379118       0.27656300 </v>
    <v>       0.04348729       0.36372755       0.41998035 </v>
    <v>       0.92931694       0.55200911       0.29717130 </v>
    <v>       0.55991538       0.30675463       0.44234425 </v>
    <v>       0.70675397       0.53086130       0.28957129 </v>
    <v>       0.06319890       0.74924636       0.70772192 </v>
    <v>       0.28526751       0.69655998       0.60863016 </v>
    <v>       0.01188385       0.78684875       0.12996718 </v>
    <v>       0.36538784       0.24628582       0.73766077 </v>
    <v>       0.17591119       0.55059533       0.34621784 </v>
    <v>       0.90934255       0.14728188       0.57344249 </v>
    <v>       0.03337715       0.31995136       0.68564573 </v>
    <v>       0.02901730       0.60960077       0.50459744 </v>
    <v>       0.84505410       0.95886142       0.38622734 </v>
    <v>       0.71901361       0.83337065       0.72247282 </v>
    <v>       0.43685095       0.77956219       0.81564305 </v>
    <v>       0.11093730       0.43638157       0.98458326 </v>
    <v>       0.84347644       0.94327626       0.59161021 </v>
    <v>       0.39371046       0.71261642       0.12125993 </v>
    <v>       0.66669002       0.81533692       0.48463282 </v>
    <v>       0.15496086       0.99723833       0.05496980 </v>
    <v>       0.26513610       0.10093939       0.31028387 </v>
    <v>       0.58169593       0.57238826       0.02695033 </v>
    <v>       0.92213596       0.55901974       0.08020471 </v>
    <v>       0.62961309       0.20328655       0.25033983 </v>
    <v>       0.37561601       0.54821091       0.45673997 </v>
    <v>       0.19658860       0.36135674       0.79411024 </v>
    <v>       0.39602409       0.80882470       0.49497000 </v>
   </varray>
  </structure>
  <varray name="forces" >
   <v>       0.58897667       0.33990990       3.34056280 </v>
   <v>      -0.67157786       0.89808474       0.85796455 </v>
   <v>      -0.15489453      -0.32827995       1.29487215 </v>
   <v>       2.02550344       0.75998304      -1.14360760 </v>
   <v>       2.70044993       0.98480257       0.16253437 </v>
   <v>       0.13926265       1.61518852       1.21970760 </v>
   <v>       3.39458183      -0.09473128      -1.69802798 </v>
   <v>      -1.10440626       0.10307579      -0.94361368 </v>
   <v>       0.71794340      -0.63545921      -0.30552317 </v>
   <v>      -1.42613445      -1.30815864       0.34436038 </v>
   <v>       2.27721459      -1.43496920       1.07624237 </v>
   <v>      -0.54460678      -0.12087709      -0.92932513 </v>
   <v>      -1.03865612       0.56120279      -0.37626154 </v>
   <v>      -0.18709859      -0.05310988       2.24994970 </v>
   <v>      -1.57140126       0.29527458       0.17512119 </v>
   <v>      -0.94231788      -1.87033380       1.67741075 </v>
   <v>       0.17286362      -0.11831503       0.44664355 </v>
   <v>      -2.77149992      -0.40368249       1.13142686 </v>
   <v>       1.97056990      -0.34293506      -1.77587220 </v>
   <v>       2.90012191      -1.31692644       0.15378636 </v>
   <v>       0.61121362      -0.15672347       0.47623131 </v>
   <v>       0.99031814      -3.27231049      -0.92475608 </v>
   <v>       1.00721915      -2.56453505      -2.96833864 </v>
   <v>      -2.91457821       0.08573975       0.96824506 </v>
   <v>       0.21895117       0.33347435      -1.03002289 </v>
   <v>      -0.89344815      -1.65369947      -2.83369265 </v>
   <v>       0.26455677       2.97269675       1.33604255 </v>
   <v>       2.44926689      -0.67355421      -2.63277506 </v>
   <v>      -1.09728530       2.92104807       2.90309873 </v>
   <v>      -3.86463983       4.16783562      -7.42739542 </v>
   <v>       2.89095389      -1.02939219      -3.63336037 </v>
   <v>      -0.00842857      -0.71186276       3.39517705 </v>
   <v>       0.78171415       0.01885961      -2.14653385 </v>
   <v>      -0.61235700      -1.86393724      -0.22433580 </v>
   <v>      -3.36195297      -0.73952701       1.62836714 </v>
   <v>      -3.14458258       1.49993555       0.51319122 </v>
   <v>       4.55938854      -2.54285149      -2.33690099 </v>
   <v>       0.31208797      -6.45580940      -4.39293041 </v>
   <v>      -2.24370287      -0.17003413       1.21398294 </v>
   <v>      -1.84665693       6.02175806       3.10418863 </v>
   <v>       0.60925590       1.26559347       0.73930232 </v>
   <v>       2.24484914       4.71000185       1.15666049 </v>
   <v>       2.39113597       1.95293479      -0.27859289 </v>
   <v>      -0.12127621       3.22311536      -1.51925877 </v>
   <v>       3.03506043      -6.96145711       0.49266417 </v>
   <v>      -3.98621062      -0.59458080       0.64190710 </v>
   <v>       1.31788384       0.26997333      -0.76202029 </v>
   <v>       2.70171435       6.33093853      -1.29319538 </v>
   <v>       0.02708585       1.57046396      -0.34769265 </v>
   <v>      -1.18517166      -3.27108258       2.89553876 </v>
   <v>      -5.47992973       4.94870832      -3.05947183 </v>
   <v>       0.74155366       2.39224633      -4.50690083 </v>
   <v>      -7.76266867      -1.34144014      -6.18180507 </v>
   <v>       1.29347059       0.23904427      -2.59092386 </v>
   <v>      -0.47669314      -1.03466979       0.86279011 </v>
   <v>      -0.59909353      -0.58196253       1.93092923 </v>
   <v>       1.80926152      -0.37557819       2.47945868 </v>
   <v>       0.90978469      -3.11293280       1.32043294 </v>
   <v>       1.84435150       0.15360487       1.95063827 </v>
   <v>       3.41723971      -3.54430444      -1.13832941 </v>
   <v>      -0.26844803      -1.12283641      -0.79589348 </v>
   <v>       0.27579945       1.79557259      -5.47982910 </v>
   <v>       4.70221284      -1.07384025       2.34264976 </v>
   <v>      -2.80718672      -1.65363698       0.11127121 </v>
   <v>       1.08191033      -1.22469567      -1.34043995 </v>
   <v>      -0.18909832       0.37255219       1.37316077 </v>
   <v>       0.39908829       0.65376493      -0.87504657 </v>
   <v>       1.48014586      -0.38056421       1.84097398 </v>
   <v>      -2.24467145       0.95007778       1.31953353 </v>
   <v>      -1.94869928      -2.82604670      -0.69645245 </v>
   <v>      -3.21034519       0.42276407      -0.11277002 </v>
   <v>       3.23793502       0.35909546       0.16288351 </v>
   <v>       0.03649709       0.37976386      -0.62371973 </v>
   <v>       0.15905985       1.01110582      -0.27987704 </v>
   <v>      -1.01725558       2.04974239      -0.78656889 </v>
   <v>       0.22459677      -2.58952784      -0.59020368 </v>
   <v>       0.08297212       1.02143931      -1.13257445 </v>
   <v>      -0.70768547       1.84131922       1.67794072 </v>
   <v>       2.71347497       3.47005851       0.61080676 </v>
   <v>      -1.49712669       2.41765883       1.03727790 </v>
   <v>      -3.00041259       1.83090519       0.63852150 </v>
   <v>       1.72228511       1.26510230      -1.48561775 </v>
   <v>      -1.89514735      -0.91804167      -0.72445410 </v>
   <v>       1.32473904       1.25820277       0.52629665 </v>
   <v>      -2.01402338       0.36665841       2.29018674 </v>
   <v>      -3.62610719       1.05323080       0.96697294 </v>
   <v>       2.23862312      -1.26000855       2.35390563 </v>
   <v>      -0.53303876      -0.87181017       1.76147038 </v>
   <v>      -1.95498963      -0.63235481       4.39852273 </v>
   <v>      -0.89492614      -1.39049177      -0.94045270 </v>
   <v>       0.14318548      -0.26241598       0.34115880 </v>
   <v>       2.28468967       1.68903217       0.39614948 </v>
   <v>      -3.00362491      -1.62149114       0.67703462 </v>
   <v>       0.13770186      -1.87109477       0.88790700 </v>
   <v>      -1.16389798      -0.32725046       1.69275814 </v>
   <v>       0.22638806      -1.59864545      -0.86550236 </v>
   <v>       2.34717532       0.76888523      -0.20013737 </v>
   <v>       0.68349227      -2.23208900      -3.03981856 </v>
   <v>       1.58396063       1.19256907      -2.32478721 </v>
   <v>       2.35079229       0.41434035       1.76730915 </v>
   <v>      -2.42969423      -1.46819012       1.94366891 </v>
   <v>       0.10940712       2.47485034       0.42270361 </v>
   <v>      -1.11779657       1.28663473       0.96955839 </v>
   <v>      -0.53379032       0.77571339       1.07668340 </v>
   <v>       2.94258968      -3.03268467       1.57994212 </v>
   <v>      -0.46423378      -0.88846821      -0.09990896 </v>
   <v>      -1.48472883       1.50451224       1.68181022 </v>
   <v>      -1.32988622       0.11125687       1.66883076 </v>
   <v>      -3.13724460      -0.97765929      -2.29032126 </v>
   <v>      -0.41739112       0.36291314       2.22115804 </v>
   <v>       0.91746179       1.40454077       0.47468704 </v>
   <v>       1.63011263       1.19717461       0.20359801 </v>
   <v>      -0.53717816       3.86803584      -2.42169823 </v>
   <v>      -3.41976440      -2.21262604       1.41267856 </v>
   <v>      -1.63103815       1.62181592       2.52489954 </v>
   <v>       2.52362341      -0.65770844      -3.19848288 </v>
   <v>      -0.85607354      -0.64402852       0.10611971 </v>
   <v>      -1.29605390      -0.96020304      -2.42160125 </v>
   <v>      -0.39633553      -1.67155141       3.17447354 </v>
   <v>       2.20918060      -3.66787160      -0.78001374 </v>
   <v>       0.81273627      -0.47677868       0.88140465 </v>
   <v>      -2.20744027      -2.81440380       1.74598448 </v>
   <v>       0.45947216       1.89416144      -1.04259314 </v>
   <v>       0.54334305       2.21140217      -1.00918501 </v>
   <v>      -0.82297581      -1.16453623      -1.95560804 </v>
   <v>       3.43090492      -1.59802719       0.03489184 </v>
   <v>       0.66187955      -0.38166118       0.38979709 </v>
   <v>      -2.17562367      -0.10324087       1.61764396 </v>
   <v>      -2.04453495      -3.95714213      -1.76878164 </v>
   <v>      -2.30269122       2.17535072       2.28883123 </v>
   <v>       3.49886805       2.00243692      -1.24034271 </v>
   <v>       0.68200920       1.06440691       0.14257105 </v>
   <v>       0.92406360      -0.33137035       2.87868528 </v>
   <v>       1.93103057       0.11127998      -1.18546294 </v>
   <v>       4.56321613       0.25919501      -1.64513302 </v>
  </varray>
  <varray name="stress" >
   <v>     129.61165204      -8.97010304     -39.01935833 </v>
   <v>      -8.97010294     112.30405614      12.86171429 </v>
   <v>     -39.01935838      12.86171428     108.74888314 </v>
  </varray>
  <energy>
   <i name="e_fr_energy">   -938.65612429 </i>
   <i name="e_wo_entrp">   -938.65612429 </i>
   <i name="e_0_energy">     -0.00000000 </i>
  </energy>
  <time name="totalsc">  882.19  944.17</time>
  <eigenvalues>
   <array>
    <dimension dim="1">band</dimension>
    <dimension dim="2">kpoint</dimension>
    <dimension dim="3">spin</dimension>
    <field>eigene</field>
    <field>occ</field>
    <set>
     <set comment="spin 1">
      <set comment="kpoint 1">
       <r>  -36.1167    1.0000 </r>
       <r>  -35.7899    1.0000 </r>
       <r>  -35.5731    1.0000 </r>
       <r>  -35.4834    1.0000 </r>
       <r>  -35.2500    1.0000 </r>
       <r>  -35.0246    1.0000 </r>
       <r>  -34.8122    1.0000 </r>
       <r>  -34.6930    1.0000 </r>
       <r>  -34.6542    1.0000 </r>
       <r>  -34.5914    1.0000 </r>
       <r>  -34.5396    1.0000 </r>
       <r>  -34.4397    1.0000 </r>
       <r>  -34.3047    1.0000 </r>
       <r>  -34.2628    1.0000 </r>
       <r>  -34.2325    1.0000 </r>
       <r>  -34.2280    1.0000 </r>
       <r>  -34.2171    1.0000 </r>
       <r>  -34.0898    1.0000 </r>
       <r>  -34.0816    1.0000 </r>
       <r>  -34.0557    1.0000 </r>
       <r>  -33.9658    1.0000 </r>
       <r>  -33.9642    1.0000 </r>
       <r>  -33.9560    1.0000 </r>
       <r>  -33.9299    1.0000 </r>
       <r>  -33.9298    1.0000 </r>
       <r>  -33.3389    1.0000 </r>
       <r>  -32.9403    1.0000 </r>
[...]
       <r>     5.7589     0.0000   864.0000 </r>
       <r>     5.9317     0.0000   864.0000 </r>
       <r>     6.1045     0.0000   864.0000 </r>
       <r>     6.2773     0.0000   864.0000 </r>
       <r>     6.4501     0.0000   864.0000 </r>
       <r>     6.6228     0.0000   864.0000 </r>
       <r>     6.7956     0.0000   864.0000 </r>
       <r>     6.9684     0.7722   864.1334 </r>
       <r>     7.1412     2.1395   864.5031 </r>
       <r>     7.3140     8.7801   866.0201 </r>
       <r>     7.4867     9.1908   867.6081 </r>
       <r>     7.6595    13.8063   869.9936 </r>
       <r>     7.8323     0.0375   870.0000 </r>
       <r>     8.0051     1.8569   870.3209 </r>
       <r>     8.1779     9.2436   871.9180 </r>
       <r>     8.3506    27.5895   876.6849 </r>
       <r>     8.5234    23.9708   880.8266 </r>
       <r>     8.6962    27.6571   885.6052 </r>
       <r>     8.8690    40.5287   892.6077 </r>
       <r>     9.0418    57.7618   902.5878 </r>
       <r>     9.2145    57.5365   912.5290 </r>
       <r>     9.3873    49.4472   921.0725 </r>
       <r>     9.5601    56.1645   930.7766 </r>
       <r>     9.7329    65.6499   942.1196 </r>
       <r>     9.9057    67.2447   953.7382 </r>
       <r>    10.0784    75.9175   966.8552 </r>
       <r>    10.2512    80.5002   980.7640 </r>
       <r>    10.4240    81.6048   994.8637 </r>
       <r>    10.5968    86.4927  1009.8079 </r>
       <r>    10.7696    80.4409  1023.7065 </r>
       <r>    10.9423    79.2285  1037.3956 </r>
       <r>    11.1151    15.0719  1039.9997 </r>
       <r>    11.2879     0.0015  1040.0000 </r>
       <r>    11.4607     0.0000  1040.0000 </r>
       <r>    11.6335     0.0000  1040.0000 </r>
       <r>    11.8062     0.0000  1040.0000 </r>
       <r>    11.9790     0.0000  1040.0000 </r>
       <r>    12.1518     0.0000  1040.0000 </r>
       <r>    12.3246     0.0000  1040.0000 </r>
       <r>    12.4974     0.0000  1040.0000 </r>
       <r>    12.6702     0.0000  1040.0000 </r>
       <r>    12.8429     0.0000  1040.0000 </r>
       <r>    13.0157     0.0000  1040.0000 </r>
       <r>    13.1885     0.0000  1040.0000 </r>
       <r>    13.3613     0.0000  1040.0000 </r>
      </set>
     </set>
    </array>
   </total>
  </dos>
 </calculation>
 <structure name="finalpos" >
  <crystal>
   <varray name="basis" >
    <v>      11.62817333       0.00000000       0.00000000 </v>
    <v>       0.00000000      11.62817333       0.00000000 </v>
    <v>       0.00000000       0.00000000      11.62817333 </v>
   </varray>
   <i name="volume">   1572.29665425 </i>
   <varray name="rec_basis" >
    <v>       0.08599803       0.00000000       0.00000000 </v>
    <v>       0.00000000       0.08599803       0.00000000 </v>
    <v>       0.00000000       0.00000000       0.08599803 </v>
   </varray>
  </crystal>
  <varray name="positions" >
   <v>       0.21319890       0.70515794       0.78001786 </v>
   <v>       0.66847474       0.78158100       0.92610869 </v>
   <v>       0.31609516       0.71436131       0.30976554 </v>
   <v>       0.31672008       0.08384999       0.64413889 </v>
   <v>       0.33627254       0.01646322       0.06351147 </v>
   <v>       0.78099107       0.33406787       0.29182797 </v>
   <v>       0.14229078       0.24377957       0.06173216 </v>
   <v>       0.79909026       0.88544843       0.21231814 </v>
   <v>       0.72247990       0.63997575       0.66399751 </v>
   <v>       0.40752685       0.36040098       0.55025367 </v>
   <v>       0.01509945       0.76033380       0.34283625 </v>
   <v>       0.49108764       0.99423100       0.39922969 </v>
   <v>       0.58299926       0.56772928       0.42106081 </v>
   <v>       0.54047976       0.16345978       0.81138263 </v>
   <v>       0.33850191       0.45214098       0.27276821 </v>
   <v>       0.50864677       0.56815745       0.80832373 </v>
   <v>       0.87967769       0.20815126       0.74610910 </v>
   <v>       0.91986886       0.43885660       0.57294758 </v>
   <v>       0.52201407       0.84399101       0.65614044 </v>
   <v>       0.02641948       0.94130736       0.91266440 </v>
   <v>       0.00705303       0.14243789       0.26159272 </v>
   <v>       0.08206666       0.23865084       0.53999319 </v>
   <v>       0.95362053       0.55816898       0.88734351 </v>
   <v>       0.75834855       0.52279249       0.09163177 </v>
   <v>       0.04607808       0.94652653       0.62633767 </v>
   <v>       0.53440795       0.37818419       0.04406457 </v>
   <v>       0.06775869       0.44591515       0.17660981 </v>
   <v>       0.38067841       0.60292971       0.58906403 </v>
   <v>       0.64346617       0.09522418       0.61128660 </v>
   <v>       0.74219047       0.39696366       0.85120254 </v>
   <v>       0.09706422       0.90281253       0.14777518 </v>
   <v>       0.83642921       0.09200076       0.45533787 </v>
   <v>       0.26999831       0.22856714       0.35239303 </v>
   <v>       0.52202131       0.64578778       0.14299693 </v>
   <v>       0.33523341       0.31105440       0.85007616 </v>
   <v>       0.60112580       0.10303140       0.13292247 </v>
   <v>       0.64449354       0.35746926       0.57233964 </v>
   <v>       0.81584765       0.61606347       0.36797549 </v>
   <v>       0.53698751       0.29640803       0.29558078 </v>
   <v>       0.54700327       0.84546112       0.20891425 </v>
   <v>       0.80172084       0.84600432       0.48343245 </v>
   <v>       0.80131433       0.93822044       0.72729979 </v>
   <v>       0.86001680       0.27547146       0.03924631 </v>
   <v>       0.93305124       0.69657929       0.04973124 </v>
   <v>       0.18784313       0.48232312       0.68680011 </v>
   <v>       0.22481098       0.52851664       0.00390981 </v>
   <v>       0.18369808       0.99483940       0.39682547 </v>
   <v>       0.09913242       0.48088848       0.44150735 </v>
   <v>       0.98838470       0.67481670       0.62318013 </v>
   <v>       0.35552859       0.90236365       0.81732783 </v>
   <v>       0.28773133       0.82463351       0.56490081 </v>
   <v>       0.12211144       0.23312672       0.78495374 </v>
   <v>       0.28353022       0.74177889       0.06236661 </v>
   <v>       0.81449717       0.03662444       0.01092869 </v>
   <v>       0.30547583       0.22407511       0.95166160 </v>
   <v>       0.19437102       0.29701463       0.24975826 </v>
   <v>       0.55837370       0.15251294       0.99928018 </v>
   <v>       0.62048671       0.73142232       0.20581775 </v>
   <v>       0.29731421       0.98786458       0.47380014 </v>
   <v>       0.14530377       0.66594419       0.06533443 </v>
   <v>       0.39898092       0.02785670       0.84446384 </v>
   <v>       0.52813221       0.85247815       0.07821126 </v>
   <v>       0.83995305       0.37038758       0.93294136 </v>
   <v>       0.90583827       0.60501046       0.70159000 </v>
   <v>       0.85509261       0.18565722       0.35914041 </v>
   <v>       0.26487070       0.84900536       0.91696557 </v>
   <v>       0.52099354       0.03283543       0.63814281 </v>
   <v>       0.27599708       0.45738799       0.10419631 </v>
   <v>       0.75188784       0.31228407       0.10602368 </v>
   <v>       0.88033235       0.16136092       0.96841153 </v>
   <v>       0.93635579       0.97017053       0.76990898 </v>
   <v>       0.78609835       0.72930704       0.05706551 </v>
   <v>       0.56920204       0.46079342       0.62238504 </v>
   <v>       0.72665413       0.54051165       0.86191412 </v>
   <v>       0.90657750       0.75554709       0.53323313 </v>
   <v>       0.62433165       0.96188923       0.25912087 </v>
   <v>       0.33253595       0.50774477       0.69271585 </v>
   <v>       0.27504762       0.21450886       0.48916912 </v>
   <v>       0.38774446       0.41946802       0.90111458 </v>
   <v>       0.83768318       0.74291435       0.32416170 </v>
   <v>       0.16282547       0.11284402       0.71648555 </v>
   <v>       0.30123208       0.62443523       0.94256472 </v>
   <v>       0.47517329       0.09385168       0.19405225 </v>
   <v>       0.17116415       0.43152969       0.55732051 </v>
   <v>       0.76454207       0.35245188       0.48609732 </v>
   <v>       0.94204387       0.97646685       0.07001156 </v>
   <v>       0.73533230       0.98576277       0.90030424 </v>
   <v>       0.61431287       0.35146339       0.84754515 </v>
   <v>       0.98581193       0.73981539       0.90284519 </v>
   <v>       0.73377103       0.07840567       0.72084990 </v>
   <v>       0.74087035       0.06739484       0.12183574 </v>
   <v>       0.45214398       0.59032512       0.25456156 </v>
   <v>       0.97756602       0.29815308       0.11778913 </v>
   <v>       0.50428384       0.66324378       0.62042477 </v>
   <v>       0.79687402       0.38104915       0.71231331 </v>
   <v>       0.15635433       0.85412751       0.48762866 </v>
   <v>       0.42404657       0.85441252       0.28112871 </v>
   <v>       0.61082108       0.24445810       0.65556032 </v>
   <v>       0.68780977       0.06457709       0.48935503 </v>
   <v>       0.25735340       0.89297198       0.68888510 </v>
   <v>       0.07034205       0.20661414       0.89974747 </v>
   <v>       0.22246405       0.81915626       0.16252558 </v>
   <v>       0.07362894       0.06366758       0.43841788 </v>
   <v>       0.77675033       0.57638506       0.49238835 </v>
   <v>       0.50965702       0.41078410       0.21529393 </v>
   <v>       0.39856075       0.28335102       0.33209381 </v>
   <v>       0.10060465       0.55610776       0.74266695 </v>
   <v>       0.10730500       0.94379118       0.27656300 </v>
   <v>       0.04348729       0.36372755       0.41998035 </v>
   <v>       0.92931694       0.55200911       0.29717130 </v>
   <v>       0.55991538       0.30675463       0.44234425 </v>
   <v>       0.70675397       0.53086130       0.28957129 </v>
   <v>       0.06319890       0.74924636       0.70772192 </v>
   <v>       0.28526751       0.69655998       0.60863016 </v>
   <v>       0.01188385       0.78684875       0.12996718 </v>
   <v>       0.36538784       0.24628582       0.73766077 </v>
   <v>       0.17591119       0.55059533       0.34621784 </v>
   <v>       0.90934255       0.14728188       0.57344249 </v>
   <v>       0.03337715       0.31995136       0.68564573 </v>
   <v>       0.02901730       0.60960077       0.50459744 </v>
   <v>       0.84505410       0.95886142       0.38622734 </v>
   <v>       0.71901361       0.83337065       0.72247282 </v>
   <v>       0.43685095       0.77956219       0.81564305 </v>
   <v>       0.11093730       0.43638157       0.98458326 </v>
   <v>       0.84347644       0.94327626       0.59161021 </v>
   <v>       0.39371046       0.71261642       0.12125993 </v>
   <v>       0.66669002       0.81533692       0.48463282 </v>
   <v>       0.15496086       0.99723833       0.05496980 </v>
   <v>       0.26513610       0.10093939       0.31028387 </v>
   <v>       0.58169593       0.57238826       0.02695033 </v>
   <v>       0.92213596       0.55901974       0.08020471 </v>
   <v>       0.62961309       0.20328655       0.25033983 </v>
   <v>       0.37561601       0.54821091       0.45673997 </v>
   <v>       0.19658860       0.36135674       0.79411024 </v>
   <v>       0.39602409       0.80882470       0.49497000 </v>
  </varray>
  <varray name="velocities" >
   <v>       0.00000000       0.00000000       0.00000000 </v>
   <v>       0.00000000       0.00000000       0.00000000 </v>
   <v>       0.00000000       0.00000000       0.00000000 </v>
   <v>       0.00000000       0.00000000       0.00000000 </v>
   <v>       0.00000000       0.00000000       0.00000000 </v>
   <v>       0.00000000       0.00000000       0.00000000 </v>
   <v>       0.00000000       0.00000000       0.00000000 </v>
   <v>       0.00000000       0.00000000       0.00000000 </v>
   <v>       0.00000000       0.00000000       0.00000000 </v>
   <v>       0.00000000       0.00000000       0.00000000 </v>
   <v>       0.00000000       0.00000000       0.00000000 </v>
   <v>       0.00000000       0.00000000       0.00000000 </v>
   <v>       0.00000000       0.00000000       0.00000000 </v>
   <v>       0.00000000       0.00000000       0.00000000 </v>
   <v>       0.00000000       0.00000000       0.00000000 </v>
   <v>       0.00000000       0.00000000       0.00000000 </v>
   <v>       0.00000000       0.00000000       0.00000000 </v>
   <v>       0.00000000       0.00000000       0.00000000 </v>
   <v>       0.00000000       0.00000000       0.00000000 </v>
   <v>       0.00000000       0.00000000       0.00000000 </v>
   <v>       0.00000000       0.00000000       0.00000000 </v>
   <v>       0.00000000       0.00000000       0.00000000 </v>
   <v>       0.00000000       0.00000000       0.00000000 </v>
   <v>       0.00000000       0.00000000       0.00000000 </v>
   <v>       0.00000000       0.00000000       0.00000000 </v>
   <v>       0.00000000       0.00000000       0.00000000 </v>
   <v>       0.00000000       0.00000000       0.00000000 </v>
   <v>       0.00000000       0.00000000       0.00000000 </v>
   <v>       0.00000000       0.00000000       0.00000000 </v>
   <v>       0.00000000       0.00000000       0.00000000 </v>
   <v>       0.00000000       0.00000000       0.00000000 </v>
   <v>       0.00000000       0.00000000       0.00000000 </v>
   <v>       0.00000000       0.00000000       0.00000000 </v>
   <v>       0.00000000       0.00000000       0.00000000 </v>
   <v>       0.00000000       0.00000000       0.00000000 </v>
   <v>       0.00000000       0.00000000       0.00000000 </v>
   <v>       0.00000000       0.00000000       0.00000000 </v>
   <v>       0.00000000       0.00000000       0.00000000 </v>
   <v>       0.00000000       0.00000000       0.00000000 </v>
   <v>       0.00000000       0.00000000       0.00000000 </v>
   <v>       0.00000000       0.00000000       0.00000000 </v>
   <v>       0.00000000       0.00000000       0.00000000 </v>
   <v>       0.00000000       0.00000000       0.00000000 </v>
   <v>       0.00000000       0.00000000       0.00000000 </v>
   <v>       0.00000000       0.00000000       0.00000000 </v>
   <v>       0.00000000       0.00000000       0.00000000 </v>
   <v>       0.00000000       0.00000000       0.00000000 </v>
   <v>       0.00000000       0.00000000       0.00000000 </v>
   <v>       0.00000000       0.00000000       0.00000000 </v>
   <v>       0.00000000       0.00000000       0.00000000 </v>
   <v>       0.00000000       0.00000000       0.00000000 </v>
   <v>       0.00000000       0.00000000       0.00000000 </v>
   <v>       0.00000000       0.00000000       0.00000000 </v>
   <v>       0.00000000       0.00000000       0.00000000 </v>
   <v>       0.00000000       0.00000000       0.00000000 </v>
   <v>       0.00000000       0.00000000       0.00000000 </v>
   <v>       0.00000000       0.00000000       0.00000000 </v>
   <v>       0.00000000       0.00000000       0.00000000 </v>
   <v>       0.00000000       0.00000000       0.00000000 </v>
   <v>       0.00000000       0.00000000       0.00000000 </v>
   <v>       0.00000000       0.00000000       0.00000000 </v>
   <v>       0.00000000       0.00000000       0.00000000 </v>
   <v>       0.00000000       0.00000000       0.00000000 </v>
   <v>       0.00000000       0.00000000       0.00000000 </v>
   <v>       0.00000000       0.00000000       0.00000000 </v>
   <v>       0.00000000       0.00000000       0.00000000 </v>
   <v>       0.00000000       0.00000000       0.00000000 </v>
   <v>       0.00000000       0.00000000       0.00000000 </v>
   <v>       0.00000000       0.00000000       0.00000000 </v>
   <v>       0.00000000       0.00000000       0.00000000 </v>
   <v>       0.00000000       0.00000000       0.00000000 </v>
   <v>       0.00000000       0.00000000       0.00000000 </v>
   <v>       0.00000000       0.00000000       0.00000000 </v>
   <v>       0.00000000       0.00000000       0.00000000 </v>
   <v>       0.00000000       0.00000000       0.00000000 </v>
   <v>       0.00000000       0.00000000       0.00000000 </v>
   <v>       0.00000000       0.00000000       0.00000000 </v>
   <v>       0.00000000       0.00000000       0.00000000 </v>
   <v>       0.00000000       0.00000000       0.00000000 </v>
   <v>       0.00000000       0.00000000       0.00000000 </v>
   <v>       0.00000000       0.00000000       0.00000000 </v>
   <v>       0.00000000       0.00000000       0.00000000 </v>
   <v>       0.00000000       0.00000000       0.00000000 </v>
   <v>       0.00000000       0.00000000       0.00000000 </v>
   <v>       0.00000000       0.00000000       0.00000000 </v>
   <v>       0.00000000       0.00000000       0.00000000 </v>
   <v>       0.00000000       0.00000000       0.00000000 </v>
   <v>       0.00000000       0.00000000       0.00000000 </v>
   <v>       0.00000000       0.00000000       0.00000000 </v>
   <v>       0.00000000       0.00000000       0.00000000 </v>
   <v>       0.00000000       0.00000000       0.00000000 </v>
   <v>       0.00000000       0.00000000       0.00000000 </v>
   <v>       0.00000000       0.00000000       0.00000000 </v>
   <v>       0.00000000       0.00000000       0.00000000 </v>
   <v>       0.00000000       0.00000000       0.00000000 </v>
   <v>       0.00000000       0.00000000       0.00000000 </v>
   <v>       0.00000000       0.00000000       0.00000000 </v>
   <v>       0.00000000       0.00000000       0.00000000 </v>
   <v>       0.00000000       0.00000000       0.00000000 </v>
   <v>       0.00000000       0.00000000       0.00000000 </v>
   <v>       0.00000000       0.00000000       0.00000000 </v>
   <v>       0.00000000       0.00000000       0.00000000 </v>
   <v>       0.00000000       0.00000000       0.00000000 </v>
   <v>       0.00000000       0.00000000       0.00000000 </v>
   <v>       0.00000000       0.00000000       0.00000000 </v>
   <v>       0.00000000       0.00000000       0.00000000 </v>
   <v>       0.00000000       0.00000000       0.00000000 </v>
   <v>       0.00000000       0.00000000       0.00000000 </v>
   <v>       0.00000000       0.00000000       0.00000000 </v>
   <v>       0.00000000       0.00000000       0.00000000 </v>
   <v>       0.00000000       0.00000000       0.00000000 </v>
   <v>       0.00000000       0.00000000       0.00000000 </v>
   <v>       0.00000000       0.00000000       0.00000000 </v>
   <v>       0.00000000       0.00000000       0.00000000 </v>
   <v>       0.00000000       0.00000000       0.00000000 </v>
   <v>       0.00000000       0.00000000       0.00000000 </v>
   <v>       0.00000000       0.00000000       0.00000000 </v>
   <v>       0.00000000       0.00000000       0.00000000 </v>
   <v>       0.00000000       0.00000000       0.00000000 </v>
   <v>       0.00000000       0.00000000       0.00000000 </v>
   <v>       0.00000000       0.00000000       0.00000000 </v>
   <v>       0.00000000       0.00000000       0.00000000 </v>
   <v>       0.00000000       0.00000000       0.00000000 </v>
   <v>       0.00000000       0.00000000       0.00000000 </v>
   <v>       0.00000000       0.00000000       0.00000000 </v>
   <v>       0.00000000       0.00000000       0.00000000 </v>
   <v>       0.00000000       0.00000000       0.00000000 </v>
   <v>       0.00000000       0.00000000       0.00000000 </v>
   <v>       0.00000000       0.00000000       0.00000000 </v>
   <v>       0.00000000       0.00000000       0.00000000 </v>
   <v>       0.00000000       0.00000000       0.00000000 </v>
   <v>       0.00000000       0.00000000       0.00000000 </v>
   <v>       0.00000000       0.00000000       0.00000000 </v>
   <v>       0.00000000       0.00000000       0.00000000 </v>
   <v>       0.00000000       0.00000000       0.00000000 </v>
  </varray>
 </structure>
</modeling>
