135
Time=99999.99999996 pbc="T T T" Lattice="10.26287559 0.00000000 0.00000000 0.00000000 10.26287559 0.00000000 0.00000000 0.00000000 10.26287559" energy=-779.98697293 virial="585.20689200 47.82969509 29.86559821 47.82969509 636.75845143 22.14790121 29.86559821 22.14790121 657.33449802" stress="0.59519090 0.04424767 0.02762893 0.04424767 0.64288170 0.02048922 0.02762893 0.02048922 0.66191679" Properties=species:S:1:pos:R:3
Ca 4.30458984 6.94818622 3.28132236
Ca 3.86095738 7.96293140 8.03148387
Ca 5.07908489 2.75591292 0.07400400
Ca 7.88908549 3.78890310 6.12802715
Ca 4.13647181 4.40896815 2.43715773
Ca 3.62114938 1.59372521 7.19916552
Ca 4.89111204 6.37099706 5.63702725
Ca 6.07626661 0.63359514 8.59659027
Ca 7.78032812 4.06561693 0.74246999
Ca 0.22873732 1.34174489 7.23498714
Ca 3.43754594 0.73825615 10.10694223
Ca 7.57738522 5.56703564 8.23200418
Ca 6.31688407 7.63837839 7.25447297
Ca 5.36159411 3.99680373 7.19054838
Ca 6.87929769 1.78650499 1.87737562
Ca 2.94723561 8.65010832 1.42874003
Ca 3.43289531 9.80600270 5.55064916
Ca 7.93084385 10.24795698 0.29427503
Ca 1.59559922 7.17663392 8.72848223
Ca 8.30696584 9.32133157 7.48956678
Ca 6.31712786 6.02996091 1.53970985
Ca 1.26690590 2.05064002 5.34896463
Ca 7.80106555 6.73513321 4.44587126
Ca 2.59043135 5.25642256 7.71629701
Ca 0.49111768 4.96514827 3.34273352
Ca 2.21096832 6.84637477 4.73523135
Ca 5.13116055 0.07050060 2.91584574
Si 6.54224815 9.37993458 5.13354947
Si 8.48426152 7.59754705 9.39457834
Si 2.07026731 10.11139556 8.04932078
Si 4.85766807 5.88784666 9.60041118
Si 0.07840717 4.87092365 9.10862579
Si 10.12221703 0.88244967 2.12321482
Si 9.23381065 0.27113204 4.51844468
Si 8.49444237 2.68342746 8.68217543
Si 10.12646758 7.87033270 3.25138334
Si 9.27829470 6.04759827 1.42852552
Si 0.58824326 3.28279931 1.58054725
Si 7.48656814 8.70922157 2.68532453
Si 2.51640381 3.61831599 10.25529217
Si 6.49986524 4.19125731 3.72938490
Si 2.52851646 6.17431913 1.12389272
Si 7.19830372 1.20907095 6.11467374
Si 9.13008627 7.10167357 6.47742345
Si 1.01191651 8.69746181 6.35783150
Si 5.28529190 1.97171595 4.81854369
Si 8.81199941 3.13088897 4.14917674
Si 2.94434300 3.75657891 4.88484562
Si 0.24210580 4.29119053 6.34628934
Si 2.05743397 9.86393991 3.39727952
Si 5.84921087 8.35801969 0.26704427
Si 0.19275534 8.40763207 0.76715166
Si 0.64028300 1.17334441 9.76922646
Si 2.96907891 1.91102351 3.05910873
O 5.15696231 0.03155337 5.07855848
O 3.37851493 2.94280832 1.49133794
O 2.74298358 0.62984360 4.11421235
O 1.39456133 8.32812737 2.92928882
O 8.87544827 5.69713033 5.97318790
O 8.96656635 1.83648239 5.21538966
O 10.15437216 0.09346409 5.60518702
O 5.02294695 9.32298911 9.76209454
O 5.92578635 4.19753404 9.53793664
O 3.86095586 10.12550089 8.01170342
O 9.52209589 0.45505829 9.11613492
O 1.58706298 7.55094608 0.44164761
O 7.08627555 8.76427224 9.07350594
O 0.59096028 7.34274483 6.76710141
O 3.71984865 5.22977132 4.59129509
O 9.03313786 9.06403413 3.74790344
O 0.55253431 0.16832372 3.47469575
O 10.09369512 6.76333276 4.31578334
O 2.09414637 9.31874832 9.45883329
O 1.12720050 8.75007769 4.91129968
O 8.84137724 4.44538459 8.98926450
O 9.75762059 1.81515596 0.76982228
O 6.61373381 9.91645420 6.70042449
O 1.35950764 1.90334824 2.21250499
O 3.82690357 2.04725975 5.22282258
O 3.51411544 3.81482437 6.53233921
O 2.39357186 8.66888374 7.20854707
O 5.29545630 8.35714975 5.74363921
O 6.23902756 5.71085457 3.43476099
O 9.43260045 3.20866267 6.91543060
O 8.63078456 7.34948458 2.48355336
O 9.53089193 3.14305419 2.58541063
O 9.89040104 4.59777011 0.49266956
O 1.08341224 10.12945545 1.16701788
O 5.78998445 1.60029998 6.61334511
O 3.92385518 4.70215058 0.09977807
O 10.07412068 6.43627124 9.51876733
O 1.35798206 3.28643104 7.10403405
O 1.41588554 4.81895097 5.33292040
O 3.88389735 7.20504701 9.87135742
O 7.20443729 8.57424319 1.01843022
O 6.68066213 5.72884505 5.77917388
O 7.60272652 0.26934251 4.90982554
O 8.32311827 1.29610288 7.34267813
O 6.01797088 7.00744415 9.60312344
O 9.62980226 8.64454634 9.61752196
O 7.25917114 10.25241788 2.92775494
O 2.69519842 3.23560585 3.39789496
O 7.15773778 3.28792705 7.96676250
O 6.18212530 8.00257465 3.38568197
O 4.72981542 1.99073871 3.26252994
O 4.00131239 6.16635989 1.72239942
O 1.81027038 1.41789690 8.69321515
O 8.16023917 4.56297785 4.16426805
O 0.42731237 6.82276887 1.80047431
O 5.89406224 0.95534439 0.43494497
O 2.97376666 6.63940525 6.73231950
O 5.31493113 5.90066339 8.15950705
O 7.93497281 8.11651622 5.68660923
O 10.16639062 2.90234733 8.95721606
O 0.28313741 9.37697343 7.60422269
O 3.47276303 8.85859102 3.69338529
O 8.03696022 5.31716322 2.01562740
O 10.09612402 3.68850856 4.82132919
O 1.85061982 0.54287605 6.61879309
O 6.91438055 2.40843181 4.84029581
O 9.43934389 9.43469013 1.62156596
O 4.90327158 8.59281273 1.68319366
O 5.19154733 3.70334898 4.79107642
O 0.37592852 5.48171378 7.57481359
O 1.11624857 2.94137319 0.01194675
O 2.23587421 5.77237322 2.53001264
O 6.25939786 3.59666235 2.34220980
O 2.21996990 5.34335365 9.66075368
O 8.47316589 7.45574580 7.81410913
O 1.76858547 4.45212547 1.21584444
O 3.39829079 0.53706540 1.86729401
O 3.57209440 2.79642523 8.60131188
O 7.74699647 2.06236872 10.01437205
O 8.14180801 6.49274153 10.13608935
O 8.67023971 1.37275704 3.15765990
135
Time=199999.99999918 pbc="T T T" Lattice="10.26287559 0.00000000 0.00000000 0.00000000 10.26287559 0.00000000 0.00000000 0.00000000 10.26287559" energy=-800.15136351 virial="602.97092371 15.55755245 -13.24319229 15.55755245 635.00961004 6.08553338 -13.24319229 6.08553338 628.58242385" stress="0.61162456 0.01439243 -0.01225139 0.01439243 0.64126383 0.00562978 -0.01225139 0.00562978 0.63531799" Properties=species:S:1:pos:R:3
Ca 1.46208948 6.89796989 9.93515358
Ca 1.63164039 6.82374226 7.64367654
Ca 3.17122636 5.02906641 5.43597930
Ca 10.26183715 5.51729285 3.18708313
Ca 4.46858828 9.57857507 6.11704985
Ca 7.17562612 2.90530630 9.71660645
Ca 8.62132355 6.65067181 1.11053842
Ca 6.98391406 5.81552021 6.58156761
Ca 8.18309439 3.41264298 4.47439198
Ca 1.20396901 9.69809059 7.15102425
Ca 9.71039176 8.00579932 5.26602018
Ca 6.09370149 1.86599941 5.54493261
Ca 5.07181736 6.95867498 3.82528272
Ca 8.96435441 3.54829444 1.58051503
Ca 4.62830052 3.87794139 7.40187437
Ca 6.05181873 0.85212001 8.51107338
Ca 5.96932786 5.08179713 2.16683810
Ca 9.69740419 9.21820438 9.79871470
Ca 2.96202883 1.62684738 8.79379927
Ca 0.02583464 2.45413781 6.74512348
Ca 7.35787356 9.25995856 2.64434984
Ca 4.05238719 2.19436227 3.31854575
Ca 2.62510541 4.59282024 3.25483868
Ca 4.07177388 6.69092328 6.60744334
Ca 6.08220810 8.60093985 8.64082021
Ca 3.74933184 5.76138642 9.66844595
Ca 1.96605379 0.19331144 0.63490332
Si 6.82242126 8.79643603 5.28079041
Si 8.76580383 7.30037230 7.74220608
Si 3.26191717 8.96674118 9.40318051
Si 8.68329229 0.22901509 7.72382361
Si 3.32569531 2.14716692 5.57709246
Si 2.29121997 7.93825803 4.52581794
Si 4.86801440 0.91112540 0.89347628
Si 2.00412994 3.93561582 8.34099989
Si 6.96269803 2.00123972 2.60368982
Si 5.56539758 4.33889187 4.71862349
Si 1.51882504 3.18754477 0.83754945
Si 9.93216163 0.71489191 1.98393117
Si 1.34847822 0.48565633 4.39196258
Si 6.43886553 5.78942441 9.16855805
Si 5.50082754 7.72500655 1.20225791
Si 0.30496837 8.40783972 2.43526041
Si 7.78604306 3.01550819 7.10554053
Si 0.74727356 2.63458980 3.64355620
Si 2.93208176 7.28338021 1.85961197
Si 7.33370439 10.11617165 0.30854887
Si 7.81159666 6.65680069 3.69733135
Si 9.35495820 1.82162841 9.41071509
Si 9.74805500 5.20722976 5.80546991
Si 4.19810045 3.37368908 0.46192864
Si 8.76321780 0.39115561 5.17540808
Si 3.96038298 9.66564479 3.04410280
Si 8.89298877 5.04548438 9.28672352
O 3.33893256 7.71469797 0.21318427
O 1.63931621 9.41114123 9.18068868
O 6.89746216 4.01041605 5.89694320
O 4.35701295 0.96131148 4.83479497
O 2.54904616 7.68104423 5.98554118
O 2.19265580 1.12383426 5.80041495
O 1.69493430 4.71291627 9.71884211
O 9.76138732 7.01107432 9.15061646
O 5.61752035 7.95896407 6.50400635
O 4.26194999 1.83287210 7.21076872
O 6.66578355 7.20206879 2.28413761
O 8.94340953 7.67839759 3.14658548
O 8.90410161 3.80835664 6.40999670
O 3.77732119 0.67359886 1.81931425
O 8.52981477 1.71473178 8.06543308
O 9.50578473 6.26103390 6.99625819
O 5.07303046 9.08531729 1.83387050
O 6.50059726 2.44779945 7.97676280
O 3.11186356 5.16835711 7.76210208
O 6.50381405 0.05406561 6.03862304
O 0.61544778 7.49194492 3.89244324
O 8.81388648 5.57086357 4.60305678
O 1.88257097 8.56863474 2.07697750
O 1.91038147 5.84238759 2.09219100
O 9.99237714 8.29422817 7.53291037
O 0.02057125 0.68015119 8.73261510
O 9.37622483 10.14273211 6.44039316
O 7.16923413 3.35788897 1.65659499
O 5.67713039 4.72231799 0.00407238
O 5.34215015 5.69242558 8.16693012
O 7.92797445 9.56265276 8.53159806
O 8.17330309 0.38387402 1.66323152
O 3.93853156 8.57193432 4.19433915
O 8.08189775 5.50272112 2.58063882
O 7.61283602 4.57771566 8.15861221
O 6.22238697 0.70935725 2.37515833
O 3.07197040 3.94730609 1.43230770
O 4.70169163 4.64421379 3.55895220
O 3.98222257 10.10921882 10.04974786
O 8.14549994 9.40884385 4.58953718
O 5.79531721 10.01487666 10.14789873
O 1.32767165 9.31619608 4.86750843
O 7.56692968 5.28351560 10.17968681
O 7.73048668 1.36321898 3.98503205
O 0.01601919 4.06582103 4.55230527
O 5.04513660 2.58168333 1.63153826
O 4.52594859 3.35112335 5.57545358
O 5.98104517 3.14912571 3.62896979
O 2.35427451 3.17255194 4.53578251
O 7.95521340 8.26162697 6.72202359
O 5.83686109 9.45232001 4.14775568
O 9.45213792 2.11055493 2.77839628
O 3.53548760 3.63420951 9.18371309
O 3.06473106 6.65718937 3.71313916
O 5.12758988 2.14425062 9.85449792
O 10.16260564 9.73428963 3.29057485
O 0.63612228 3.72869569 2.19345040
O 3.24197306 7.76142601 8.36187644
O 1.26500175 5.59398424 5.24398021
O 2.79773713 2.00271671 0.51314257
O 8.03838193 0.93684023 9.95457604
O 0.57570936 4.72648981 7.70141364
O 2.85942851 0.12426696 3.86222393
O 8.03915573 1.63471842 6.07435695
O 0.44535137 9.87558510 1.19220840
O 5.26596543 5.41385239 5.79282454
O 7.35748806 7.03414569 8.67581177
O 2.19859506 3.20599549 6.55746914
O 5.51573474 7.04898883 9.95983499
O 1.20103869 2.54112884 9.32707436
O 10.25374024 2.00460318 0.66089540
O 7.68978155 8.48536373 0.52823952
O 4.12215695 9.51426789 8.12489639
O 10.22904679 7.59824084 1.04501400
O 4.58062234 6.78568323 1.82181730
O 10.04024296 1.47877632 4.80780778
O 6.45890800 5.73611883 4.28974418
O 9.91928651 5.05920290 0.67351746
O 9.20716021 3.32367281 9.16024585
O 7.19141594 7.45173277 4.70166654
O 1.32783395 1.59153301 2.54186865
135
Time=299999.99999840 pbc="T T T" Lattice="10.26287559 0.00000000 0.00000000 0.00000000 10.26287559 0.00000000 0.00000000 0.00000000 10.26287559" energy=-847.05772053 virial="534.12928777 -28.86632810 -22.42723530 -28.86632810 558.64402143 4.52947122 -22.42723530 4.52947122 528.38442155" stress="0.54793856 -0.02670449 -0.02074763 -0.02670449 0.57061736 0.00419025 -0.02074763 0.00419025 0.54262394" Properties=species:S:1:pos:R:3
Ca 0.17549598 10.15290985 9.82100347
Ca 1.31260508 4.08709688 0.98430968
Ca 2.56137767 5.36076157 5.15707809
Ca 10.08517517 6.40630191 3.08631511
Ca 2.75019505 8.31278406 1.51753903
Ca 7.00221981 3.14107381 9.60676876
Ca 8.26309545 7.40743150 0.71738187
Ca 6.84708584 6.74909949 6.52944839
Ca 7.78080218 3.93449337 4.02425318
Ca 1.34653524 8.08644699 7.31538355
Ca 8.98331976 8.46143410 5.58649166
Ca 5.65124876 1.85327341 5.27602950
Ca 4.65640895 7.55134469 4.39265555
Ca 9.18199013 5.12881945 8.28967975
Ca 4.71692965 3.99768599 7.54310734
Ca 3.48342467 10.19700418 6.58771918
Ca 8.37208942 0.77582040 7.52664543
Ca 2.22020231 0.89096615 1.92523810
Ca 2.36826615 2.03577024 8.91876948
Ca 10.14457983 3.24501328 6.34987063
Ca 7.06314100 9.77690420 3.20394003
Ca 3.37350362 2.87559339 3.21739125
Ca 5.49431043 5.01525178 1.85717579
Ca 3.72835118 6.97186846 7.01764237
Ca 5.59980585 8.30502361 8.41956351
Ca 3.59990232 6.26050606 9.61314240
Ca 1.15454400 0.42663492 4.46484417
Si 6.18869642 9.56511355 5.93295089
Si 8.71036629 7.93774829 8.21278272
Si 3.14602179 9.41595358 9.38636164
Si 5.29948354 1.47959253 8.09590163
Si 2.73729537 2.61217277 5.76034061
Si 1.89885970 8.18202991 4.13407907
Si 4.97078807 0.56497428 0.84049087
Si 1.56190550 4.67886967 8.12102026
Si 6.61819530 2.43097289 2.28482865
Si 5.21708456 4.59633461 4.62421962
Si 8.66114422 4.79188883 1.29959947
Si 9.65008636 9.15958744 2.43538794
Si 8.60454517 1.26123977 4.62718455
Si 6.32787158 5.53819600 9.18359292
Si 5.68370909 7.75762140 1.11306470
Si 0.46678135 0.17502266 6.80969774
Si 7.35459352 3.48994331 6.85981345
Si 0.75656983 3.86039973 3.54738818
Si 3.13511207 5.83440747 2.49798200
Si 7.65001130 10.24515350 0.28046896
Si 7.41396240 6.73431793 3.58479201
Si 9.49137938 2.63532506 9.14674915
Si 9.87810656 5.83670469 5.78908172
Si 4.12464076 3.46345743 0.14527066
Si 10.11563562 1.75882939 1.78112038
Si 4.16640977 0.22403755 3.49143271
Si 0.71074113 6.92823567 10.23278852
O 3.93978953 4.83568555 3.58372377
O 9.80437895 1.25668384 5.95765274
O 6.26766694 4.28630221 5.83399684
O 4.95376529 9.24727285 2.64972631
O 2.97927080 7.85329876 5.34304219
O 0.99485942 9.33833892 5.72961565
O 0.98724376 2.04419527 0.51679577
O 6.60642163 0.80152730 8.88424738
O 6.04151405 0.59253586 6.75197019
O 3.98550925 1.69223943 7.04672336
O 6.64117688 7.62304782 2.34915113
O 8.78648983 8.02703819 3.23411697
O 8.66439800 4.72426643 6.30849481
O 3.17764471 8.82184232 7.78262406
O 5.41179481 2.41012052 0.83354131
O 1.76326090 9.99202638 8.07495264
O 4.44990056 6.79312780 2.28418295
O 6.26935349 2.60777289 7.31353431
O 1.36715433 5.88109699 9.03263402
O 7.49199172 9.14588105 7.21840355
O 6.43437550 8.95008929 0.38098546
O 8.50258506 6.07863750 4.56555121
O 0.65143267 8.87740837 3.54165295
O 0.97079041 2.40126436 2.65246103
O 7.54224326 6.79088030 8.88189074
O 7.10518484 1.52606262 3.32688004
O 1.86082097 8.41768795 9.77662359
O 0.37099365 0.16534940 1.87476545
O 5.50949371 4.39324718 10.14122471
O 5.01094607 6.26151181 8.15179486
O 0.05717698 1.70257426 7.85143229
O 2.86672326 4.09121475 9.61426930
O 4.64143963 10.11907184 9.06435465
O 8.26618515 5.89766634 2.25173451
O 6.72696410 4.82153035 8.00055717
O 5.26677390 9.86401647 4.69178939
O 3.04039125 2.51480020 0.70109944
O 5.48693283 3.26501361 3.40032192
O 3.53699810 0.38084564 0.42271265
O 7.69995089 0.23243069 5.21616780
O 7.66675395 4.91392839 10.22560582
O 2.48604250 6.99206750 3.36790512
O 6.48122399 0.72275056 1.14466267
O 9.65038107 4.20560442 2.58111305
O 3.55067299 4.86484020 1.18128653
O 4.46796213 1.40447985 2.55378552
O 3.45685333 1.10928560 4.59446159
O 7.27670082 3.82922305 1.58228196
O 2.23212432 3.45550965 6.98450739
O 0.31617611 3.66617248 8.75429975
O 5.53761912 6.71632293 0.00645249
O 9.28087861 3.46590051 0.48026515
O 0.31050816 8.21666456 1.08895902
O 9.91506235 5.89601065 0.90315743
O 2.20388737 6.24881828 0.79230501
O 1.85798649 1.35375513 6.34610465
O 0.06476437 4.49004381 4.86810297
O 8.99351393 6.75120026 6.70759548
O 0.58647833 5.36814573 7.03016630
O 9.78311775 2.47565911 4.07323048
O 8.25505956 3.27709787 8.03513057
O 8.29176789 8.82905679 9.33282361
O 4.70683728 5.90972440 5.53915429
O 7.71261334 2.47990813 5.76015632
O 1.87861824 4.84662143 2.97455265
O 4.02558527 3.40010033 5.32686768
O 5.20586623 8.30930808 6.35612984
O 2.87219997 5.21883292 7.15428686
O 4.16494297 8.37060677 0.06396757
O 1.78648596 3.03462314 4.65154646
O 4.51442984 2.41813740 9.21901966
O 8.71024643 1.25256241 10.07880474
O 10.02762389 7.46713393 8.91574246
O 8.67574909 1.24239068 1.80566980
O 8.60346244 9.37097765 1.27311346
O 0.86019921 6.65092443 5.21657406
O 6.05898491 5.72585419 3.64864476
O 2.67550837 9.44415105 3.39049328
O 9.83466752 9.37978745 7.60009197
O 7.20980864 8.30589263 4.90508988
O 9.14990394 10.06036950 3.93117690
135
Time=400000.00000008 pbc="T T T" Lattice="10.26287559 0.00000000 0.00000000 0.00000000 10.26287559 0.00000000 0.00000000 0.00000000 10.26287559" energy=-843.10913109 virial="561.49406156 -30.82236526 -7.15201487 -30.82236526 554.83076470 -13.61093680 -7.15201487 -13.61093680 525.55922023" stress="0.57325395 -0.02851404 -0.00661639 -0.02851404 0.56708968 -0.01259160 -0.00661639 -0.01259160 0.54001032" Properties=species:S:1:pos:R:3
Ca 9.99206740 9.96869234 9.66087997
Ca 1.21902709 4.23891704 0.61958671
Ca 2.59440678 5.59921971 5.41403118
Ca 0.08741529 6.26000441 3.26995738
Ca 2.62400612 8.77971854 1.93639926
Ca 6.98339018 3.05362984 9.75563712
Ca 8.36264405 7.59287946 1.06461951
Ca 7.41200212 6.24218725 6.04008189
Ca 8.18521501 3.91334459 4.24851554
Ca 1.15528187 7.40592769 8.15008121
Ca 9.60495897 8.40164278 5.74965277
Ca 5.82503406 1.55936271 5.40398981
Ca 5.11188846 7.40558281 4.24919871
Ca 9.36161814 4.90456739 8.83769724
Ca 4.65274431 4.38416457 7.59262349
Ca 3.47541130 10.02048541 6.11027318
Ca 8.60285523 0.47051042 7.35523386
Ca 1.88275237 0.71551700 0.51169669
Ca 2.41762743 2.16546630 8.58085885
Ca 0.33515601 2.85862696 6.25725721
Ca 7.18004293 9.58655159 3.03605299
Ca 3.32147529 2.84203972 2.64973780
Ca 6.03535842 5.25865545 1.82008769
Ca 4.20733179 7.03890481 6.87336380
Ca 6.08261448 9.22365350 8.42789965
Ca 3.60596036 6.50239031 10.24051612
Ca 1.49539946 0.76379489 4.25208840
Si 6.73874247 9.05487166 5.77549739
Si 8.47755851 8.23995412 8.49692013
Si 3.26919584 9.52058432 9.26067998
Si 5.23448664 1.47108415 8.11039080
Si 3.27431432 2.79090702 5.90781458
Si 1.69396467 8.14567452 4.88278143
Si 4.79010744 0.86024318 1.18729885
Si 1.76794174 4.75304955 8.22926499
Si 6.54460002 2.48021148 2.55877525
Si 5.32263785 4.78451746 4.58418599
Si 8.70217962 4.40229951 1.29169570
Si 0.09177375 9.01601041 2.70118192
Si 8.68261422 1.27364644 4.81666415
Si 6.71929715 5.95975183 9.30691261
Si 5.46392128 8.15045288 1.04209261
Si 0.96562179 0.44878784 6.80552923
Si 7.70749834 3.39574399 7.14177815
Si 0.84360317 3.44719169 3.40754821
Si 3.20497847 5.93615158 2.51790775
Si 7.55296749 0.58289283 10.20973071
Si 7.63689886 6.84316465 3.42833222
Si 9.93163755 2.56419470 9.29764055
Si 9.95296369 5.67821645 6.00988936
Si 3.79032088 3.51837889 0.29934682
Si 9.89367183 1.65379182 1.81935578
Si 4.51739896 0.01960350 3.56005284
Si 1.03055082 7.41188088 0.42077015
O 3.97854771 5.32830862 3.78154359
O 9.95114636 0.34298745 5.85587221
O 6.48164598 3.95953612 5.60883371
O 4.42085692 6.82156923 1.84544062
O 2.85822140 9.53257163 3.94999278
O 1.39875477 8.98387738 6.43476672
O 5.83449675 0.90521054 3.08901346
O 1.85187774 8.60807334 10.03099073
O 5.77526586 0.21991207 6.67840488
O 4.12349144 2.11685893 7.10712215
O 6.48497986 7.53246371 2.47156825
O 9.05300484 7.93798160 3.24088362
O 8.50546816 4.63096150 6.31262761
O 3.36774607 8.47629636 8.06496972
O 3.70518311 0.16497370 0.10278817
O 4.81613981 9.04995257 2.13218531
O 3.83872303 4.83002742 1.52675914
O 6.46660563 2.72538020 7.84519744
O 9.93740822 5.42677548 0.75176041
O 7.88107796 9.08563371 6.96959262
O 8.37013888 10.01273559 1.17783200
O 9.10994539 6.59188930 4.79252729
O 0.59034860 9.05027428 4.11479209
O 1.06347280 2.18952354 2.36254297
O 7.80838683 6.88410402 8.59591224
O 4.33200896 8.40518628 10.12015961
O 5.15365744 2.35928188 1.33902940
O 1.27777266 10.04182150 2.39221665
O 5.20187492 4.51124431 10.04380896
O 5.12626242 6.25706283 8.53926406
O 0.46310644 1.53587287 8.26581799
O 3.01631766 7.30051542 5.32848584
O 7.34970333 1.64488889 1.14390286
O 8.21110867 5.82433013 2.41849490
O 7.33605974 4.66449211 8.31647121
O 5.04390000 9.29508277 4.73608968
O 3.39116583 0.77500253 2.44508687
O 5.48163412 3.48104974 3.39764406
O 7.52170035 3.82272774 2.13911942
O 7.31303728 0.14868893 5.19918324
O 0.17469092 1.80687391 0.32779739
O 2.23860732 7.10372527 3.07500600
O 2.78580272 2.33593815 0.60225916
O 9.56633344 3.38777168 2.38264896
O 2.84393751 4.00491170 9.48244846
O 2.98557839 5.69965347 7.55672270
O 3.76982636 1.28589320 4.57958967
O 7.83394537 1.82856864 3.41485275
O 2.25222679 3.60914892 6.94070564
O 0.58616680 3.83896431 8.80490834
O 6.32500141 7.13338732 0.19137303
O 9.00625364 3.07149294 0.22851386
O 0.13784382 7.88752773 1.68872828
O 7.33516331 5.13719039 0.35962892
O 1.95939710 6.25985596 1.18928809
O 2.10903264 1.19202328 6.21921685
O 10.07722794 4.57441474 4.49711090
O 9.23708674 6.61644603 7.20985876
O 0.49772924 4.88127463 7.19387330
O 9.91782745 2.18517513 4.35207201
O 9.03864831 3.18822263 7.94141879
O 7.82325341 9.31663004 9.47145849
O 5.20492091 5.68863351 6.06174515
O 8.01465040 2.31766988 5.74565096
O 1.65758279 4.68618952 2.81559673
O 4.23879757 3.70699957 5.16494166
O 5.93628580 7.83253574 6.51077857
O 1.31663866 5.99825270 9.45354816
O 4.60893946 0.13250061 8.32703712
O 1.85441467 2.98714076 4.56490023
O 4.36343876 2.65048856 9.07265831
O 6.81761214 0.93957663 8.94806808
O 9.82836316 7.46385411 9.66964849
O 8.73919205 1.12955691 9.35851113
O 6.08966465 10.05432148 0.80759966
O 0.87264814 6.66770525 5.60197235
O 6.49444792 5.86079581 4.22766490
O 2.15019018 0.11138034 8.73475946
O 10.18066114 8.99767767 7.88233870
O 7.37852349 7.89323637 4.69252302
O 9.51158676 0.38283505 3.02925427
135
Time=500000.00000301 pbc="T T T" Lattice="10.26287559 0.00000000 0.00000000 0.00000000 10.26287559 0.00000000 0.00000000 0.00000000 10.26287559" energy=-847.54553777 virial="538.56560632 14.07547480 6.75939729 14.07547480 535.95799283 8.47568961 6.75939729 8.47568961 541.21101913" stress="0.55204264 0.01302135 0.00625318 0.01302135 0.54963031 0.00784093 0.00625318 0.00784093 0.55448993" Properties=species:S:1:pos:R:3
Ca 0.19924796 9.93509604 9.84940454
Ca 1.77244959 4.09714301 0.86371106
Ca 3.00298159 5.16946594 5.23518253
Ca 0.21270194 6.33544555 3.17285021
Ca 2.85159535 8.73990547 1.76620166
Ca 7.38800292 2.74426351 9.82774907
Ca 8.62886807 7.47663896 0.74830833
Ca 6.75854516 6.42558031 6.28197547
Ca 8.38216855 4.24629323 4.05136358
Ca 1.43193485 7.74557525 7.63017423
Ca 9.40827114 8.62241130 5.26896615
Ca 6.09506451 1.76768426 4.79386046
Ca 5.30408374 7.54925008 3.89510903
Ca 9.95905912 5.20000845 8.79439326
Ca 5.17613235 4.17157030 7.34266495
Ca 3.85430728 9.99348403 6.17560194
Ca 8.33301043 0.78862531 7.87687182
Ca 9.73393371 1.75350855 1.83317636
Ca 2.60427791 2.03663564 8.75646678
Ca 0.47016333 2.96141522 6.59490727
Ca 7.44963558 10.03560658 3.17982940
Ca 3.69563636 2.81991601 2.82823564
Ca 6.09468572 5.57961792 1.63553486
Ca 4.06166643 7.27589820 6.44147372
Ca 6.05252698 8.19088073 8.36235332
Ca 3.75343714 6.27682500 9.60594154
Ca 1.47403165 0.44424759 4.22319224
Si 6.87947843 9.34246053 6.07027120
Si 8.82056554 8.09158568 8.30074167
Si 3.41162851 9.12170302 9.27266151
Si 5.46478101 1.30448308 8.06243294
Si 3.42974170 2.41786347 5.67206357
Si 1.81184289 8.20140060 4.42330721
Si 2.03494649 1.08459823 1.25353042
Si 2.39017715 4.54340669 8.05330815
Si 5.29794194 0.70306753 0.25036330
Si 5.55659501 4.55906560 4.62129048
Si 8.94440915 5.05692623 1.47992453
Si 10.07018982 9.18019487 2.22025787
Si 9.34082744 1.47446895 4.84919983
Si 6.75952999 5.86754073 9.11019068
Si 5.92982213 8.33895534 0.92756163
Si 1.32015308 10.15918143 7.16436379
Si 8.03506484 3.78095434 7.09893802
Si 0.76981916 3.84454778 3.86912978
Si 3.18040854 5.79311721 2.31540127
Si 7.69251436 0.23497532 0.12279979
Si 8.00744843 6.87820467 3.75734454
Si 10.22208073 2.39478097 9.36730207
Si 10.17303803 5.73876754 6.08826923
Si 4.52416679 3.55556101 0.15770062
Si 6.85144550 2.56963238 2.44859939
Si 4.28966421 0.09005169 3.01140496
Si 1.13807669 6.78304294 0.45831036
O 4.36038873 5.18953177 3.30890027
O 0.03155900 0.57958573 5.64665231
O 6.74963929 4.21170069 5.71219254
O 4.52886241 7.56318436 1.82335049
O 3.17524977 7.38385256 4.68178173
O 1.83565602 8.93260198 6.03734778
O 5.80230309 4.68360201 9.92274049
O 1.93966821 8.19415179 10.11941759
O 5.85086248 0.42648638 6.57671863
O 4.47486728 1.73039401 6.63029412
O 6.68735480 8.00056054 2.49322810
O 9.11634562 7.83298570 3.28670727
O 9.22606129 4.76699365 6.73578700
O 3.51307515 7.98453982 8.37861264
O 4.73620056 10.18300964 8.75815351
O 4.95554384 10.00819233 1.35683503
O 4.09438552 4.63633631 1.28041135
O 6.79676589 2.50832087 7.86214576
O 10.12228682 5.73564971 0.72497686
O 7.74284995 9.19656605 7.46225317
O 8.62619593 9.62342640 1.56303091
O 9.12433033 7.22252825 7.07177485
O 0.58920268 8.84882158 3.80621369
O 1.39081782 1.95170395 2.36866850
O 7.78091137 6.85441987 8.64252531
O 4.31460464 8.09173257 10.21953568
O 2.82275236 9.38163142 3.70707826
O 1.10658065 9.89575538 1.36488325
O 5.75214192 6.37591385 7.94357727
O 6.44957449 7.01727554 10.23926678
O 0.61936940 1.17408983 8.19962737
O 0.65778711 7.11655536 5.54839967
O 7.01325159 1.06059740 1.29445158
O 8.02758580 5.96473510 2.37919342
O 7.68139798 4.48378367 8.56058146
O 5.48997788 9.53642508 4.09602091
O 7.94423265 1.52304917 3.59948477
O 6.10114037 3.70906030 3.33526782
O 3.25625268 1.06655883 2.12480393
O 7.93531451 0.15405721 5.47548282
O 8.18877583 3.38840903 2.04242899
O 1.98548359 6.91456082 3.05476203
O 0.88685242 1.92250335 0.08809110
O 9.97846360 4.47335085 2.72179424
O 4.94497090 2.28622812 9.23376807
O 3.51208420 3.92438731 9.11662598
O 3.43135751 0.98946357 4.58463318
O 3.16821359 2.60705317 0.66261064
O 2.95207776 3.38838615 7.08157919
O 1.12963570 3.47764849 8.45788021
O 6.99440672 9.10119154 0.45809172
O 9.65451304 3.70022514 0.33660542
O 0.25732435 7.66775905 1.57488909
O 7.99789735 5.30414132 0.19384821
O 2.52270244 5.89146474 0.95759638
O 2.13372425 1.04317396 6.54955762
O 0.57670595 5.00174503 4.79968747
O 0.99210499 5.17984988 7.10031764
O 3.58992828 5.46739554 7.47894132
O 9.99399465 2.64440093 4.07303545
O 8.96386679 3.03176740 8.51319427
O 8.35212905 9.32245339 9.34816234
O 4.89583599 5.88758404 5.23995292
O 8.61315989 2.49335561 5.98190008
O 2.23734204 4.16855570 3.16674437
O 4.52685532 3.37276868 4.92441697
O 5.57907372 8.43275984 6.52866805
O 1.62598486 5.78313410 9.19000757
O 9.16053067 1.20529529 0.17011431
O 1.86007162 2.73203861 5.11318208
O 2.25148727 9.51699716 8.20425797
O 5.60154970 1.45463054 2.82261730
O 9.96146435 7.30429016 9.33199116
O 6.58164200 0.84303793 9.39623844
O 5.74162570 2.80301715 1.15452978
O 8.79414176 6.19756151 5.06996845
O 6.59332326 5.86356310 4.14918246
O 3.20387099 0.33820334 0.05077763
O 9.82691613 9.49900292 7.60369864
O 7.38004162 7.97776063 5.21837126
O 9.75407664 0.10400361 3.56686579
135
Time=600000.00000594 pbc="T T T" Lattice="10.26287559 0.00000000 0.00000000 0.00000000 10.26287559 0.00000000 0.00000000 0.00000000 10.26287559" energy=-847.31752401 virial="554.03417542 0.31065875 28.15021582 0.31065875 499.30675710 -26.00875441 28.15021582 -26.00875441 538.39839665" stress="0.56635275 0.00028739 0.02604201 0.00028739 0.51572393 -0.02406093 0.02604201 -0.02406093 0.55188795" Properties=species:S:1:pos:R:3
Ca 0.33130517 9.87032164 9.83065142
Ca 1.41786064 4.47434171 0.84636706
Ca 2.98655810 5.26405248 5.38849325
Ca 0.13063400 6.57224697 2.85620545
Ca 2.90535755 8.69748237 1.81038224
Ca 7.37458357 3.22510630 9.80589085
Ca 8.37040142 7.73710860 0.75097992
Ca 7.06430013 6.17733046 6.36984429
Ca 8.53824542 4.10236280 3.96175674
Ca 1.87203450 7.57574771 7.53128111
Ca 9.64369518 8.53719197 5.27924026
Ca 6.24413039 1.72446231 5.15509028
Ca 4.74339625 7.88320423 4.34271945
Ca 9.53162106 5.23020068 8.57846012
Ca 5.05819681 4.20909867 7.51188747
Ca 3.49087506 9.71188241 6.57399628
Ca 8.47570599 0.58972858 7.66099079
Ca 9.57833336 1.55278872 2.00890575
Ca 2.96053554 2.23995708 8.64358178
Ca 0.94413809 2.88298329 6.51697078
Ca 7.42303005 10.07522367 3.06682761
Ca 3.89699050 3.14991322 2.79393362
Ca 6.02037997 5.83035819 1.85145889
Ca 4.80500360 7.04776148 6.84319630
Ca 5.75364263 8.98909998 8.68013144
Ca 3.71078427 6.42804879 9.84716563
Ca 1.31049900 0.42426702 4.30570803
Si 6.82074281 8.97077065 6.15385659
Si 9.18085638 8.06918149 7.92429126
Si 2.99825747 9.51636905 9.16035465
Si 5.26427531 1.36728964 7.93698735
Si 3.47003512 2.50559374 5.69588814
Si 2.36487299 7.97882896 4.59538540
Si 1.96577840 1.59257815 1.20121750
Si 2.05811504 4.69282809 8.01086571
Si 5.22746281 0.67457304 0.64230038
Si 5.85671482 4.46461296 4.74037647
Si 8.98846081 4.82537464 1.11644429
Si 10.21753439 9.49915814 2.39566107
Si 8.99071555 1.19368855 4.76201801
Si 6.74687273 6.03765544 9.36337191
Si 5.35613918 8.34920638 1.23089328
Si 0.87218444 10.16701198 6.70412102
Si 8.01931576 3.48416284 6.92826039
Si 1.13255151 3.63911149 3.38607860
Si 3.20810770 5.86488908 2.36625066
Si 7.91883774 0.24884688 0.09772268
Si 7.85785338 6.99833996 3.53281752
Si 10.19317475 2.47974404 9.40921838
Si 10.14945521 5.72563954 5.75469586
Si 4.34253441 3.57973987 10.25668349
Si 6.49331888 2.58892074 2.06707286
Si 4.21883343 10.21447950 3.51250420
Si 0.77586598 7.28642403 0.07069350
O 4.32477887 5.69538331 3.57604141
O 9.94612446 0.50420010 5.72882359
O 6.97017195 3.68684476 5.74941126
O 4.28289545 7.18590884 1.42413111
O 3.02587921 7.34993980 5.73249946
O 1.60338650 8.99924349 5.61521431
O 5.31887147 2.38504330 1.11726578
O 1.95839901 8.43960931 9.83528489
O 6.27899962 0.27859491 7.08604650
O 4.49393345 1.89253663 6.67299489
O 6.51055470 7.78566589 2.64645827
O 8.78501223 8.09366283 3.23898316
O 9.11576830 4.53539190 6.77525601
O 2.29891171 0.32602663 0.16592248
O 4.23424090 0.35447653 8.99374341
O 5.56040383 1.15252805 3.05200756
O 3.83556976 4.70739659 1.44906306
O 6.82174581 2.04259880 7.57949576
O 10.03857002 5.96557515 0.44299664
O 8.34435337 8.53099539 6.73895497
O 8.94007272 9.83100863 1.50853817
O 10.21015096 6.81221827 7.09045451
O 0.85038539 8.61781550 3.51434078
O 2.02994375 3.01151038 2.25203314
O 7.89088155 6.63909233 8.39179878
O 3.69243101 8.01973333 8.50117652
O 3.18965301 9.12020136 3.59992750
O 1.39167777 0.51863266 2.15756807
O 5.49537491 4.57423518 10.08436168
O 5.58605053 6.63510461 8.45567187
O 0.44012756 1.36615455 7.64592768
O 1.10989916 6.74353284 5.27071790
O 7.46082648 1.38997478 1.17237501
O 8.48224859 5.89239023 2.09487463
O 7.13919252 4.55395712 8.09870389
O 5.11432478 9.41885976 2.36971214
O 7.65434701 2.14432192 3.53582414
O 6.16242445 3.99950284 2.99127608
O 3.49998821 0.70626018 1.94892356
O 7.75490171 10.20552755 5.14994329
O 7.95921849 3.36547587 1.54472576
O 2.71825435 7.16465941 3.24811583