<?xml version="1.0" encoding="ISO-8859-1"?>
<modeling>
 <generator>
  <i name="program" type="string">vasp </i>
  <i name="version" type="string">5.4.4.18Apr17-6-g9f103f2a35  </i>
  <i name="subversion" type="string">(build Oct 31 2019 15:01:46) complex            parallel </i>
  <i name="platform" type="string">LinuxIFC </i>
  <i name="date" type="string">2024 04 29 </i>
  <i name="time" type="string">21:25:01 </i>
 </generator>
 <incar>
  <i type="int" name="ISTART">     0</i>
  <i type="string" name="PREC">a</i>
  <i type="logical" name="ADDGRID"> T  </i>
  <i type="int" name="IBRION">    -1</i>
  <i name="EDIFF">      0.00000100</i>
  <i name="EDIFFG">     -0.01000000</i>
  <i type="int" name="NSW">     1</i>
  <i type="int" name="ISIF">     2</i>
  <i type="int" name="ISYM">     0</i>
  <i name="ENCUT">    600.00000000</i>
  <i name="POTIM">      1.00000000</i>
  <i type="string" name="LREAL">  Auto</i>
  <i type="int" name="ISMEAR">     0</i>
  <i name="SIGMA">      0.05000000</i>
  <i name="KSPACING">      0.30000000</i>
  <i type="logical" name="KGAMMA"> T  </i>
  <i type="logical" name="LWAVE"> F  </i>
  <i type="logical" name="LCHARG"> F  </i>
  <i type="logical" name="LSCALAPACK"> F  </i>
  <v type="int" name="KPOINT_BSE">    -1     0     0     0</v>
 </incar>
 <structure name="primitive_cell" >
  <crystal>
   <varray name="basis" >
    <v>      12.09378762       0.00000000       0.00000000 </v>
    <v>       0.00000000      12.09378762       0.00000000 </v>
    <v>       0.00000000       0.00000000      12.09378762 </v>
   </varray>
   <i name="volume">   1768.83373704 </i>
   <varray name="rec_basis" >
    <v>       0.08268708       0.00000000       0.00000000 </v>
    <v>       0.00000000       0.08268708       0.00000000 </v>
    <v>       0.00000000       0.00000000       0.08268708 </v>
   </varray>
  </crystal>
  <varray name="positions" >
   <v>       0.02409084       0.43494311      -0.39513621 </v>
   <v>      -0.07021641       0.43200058       0.47159732 </v>
   <v>       0.01287281      -0.37152826      -0.37305098 </v>
   <v>       0.18733722       0.34932343      -0.47032333 </v>
   <v>      -0.13361964       0.31642347      -0.36476011 </v>
   <v>       0.14502687       0.33911068      -0.26147733 </v>
   <v>      -0.11579655       0.31666030       0.49644415 </v>
   <v>      -0.04461899       0.44315985      -0.16930514 </v>
   <v>       0.10141521      -0.45070352      -0.19462289 </v>
   <v>       0.19910888      -0.42601336       0.49120679 </v>
   <v>      -0.20321434      -0.44938746      -0.34769908 </v>
   <v>      -0.03168417       0.19104655      -0.49136999 </v>
   <v>      -0.12967730      -0.33724259      -0.40558947 </v>
   <v>       0.26222926       0.46073193       0.46547009 </v>
   <v>      -0.21615955       0.42398087      -0.23636801 </v>
   <v>      -0.26614607      -0.47691546      -0.48868599 </v>
   <v>       0.09444444       0.35141947      -0.09205991 </v>
   <v>       0.14074205       0.27757495       0.34549718 </v>
   <v>       0.22403095       0.33188210      -0.15803305 </v>
   <v>       0.11368906       0.16068206      -0.23527874 </v>
   <v>      -0.00521964      -0.32827926       0.37055450 </v>
   <v>       0.12325060       0.39754409       0.28556121 </v>
   <v>      -0.05281506       0.36220327      -0.06934820 </v>
   <v>      -0.16955806      -0.32594433       0.44970546 </v>
   <v>       0.30849346       0.43720345      -0.19118808 </v>
   <v>       0.37960956       0.46569699      -0.47378708 </v>
   <v>      -0.23989143       0.24648512       0.42784755 </v>
   <v>      -0.09501881       0.14918624      -0.19196399 </v>
   <v>       0.29782522      -0.33076023      -0.30098851 </v>
   <v>      -0.23276003      -0.33080460      -0.25256444 </v>
   <v>       0.03314884      -0.20527163       0.47615159 </v>
   <v>      -0.19943138       0.12205036      -0.35368076 </v>
   <v>      -0.01847623       0.09121188       0.42509331 </v>
   <v>      -0.13826031      -0.21487643      -0.33697885 </v>
   <v>       0.05982676       0.15348241       0.33061169 </v>
   <v>       0.32268384       0.41069175       0.34738584 </v>
   <v>      -0.18903740       0.32309589      -0.08151607 </v>
   <v>       0.04563175      -0.18095797      -0.29689182 </v>
   <v>       0.32379255      -0.29816951      -0.49988719 </v>
   <v>       0.15596281      -0.24725730      -0.15659889 </v>
   <v>       0.26798839       0.20414592      -0.13252853 </v>
   <v>       0.39580730       0.22517124      -0.45120215 </v>
   <v>      -0.05157349       0.48156846       0.02762804 </v>
   <v>      -0.30978694      -0.46720964      -0.13733674 </v>
   <v>      -0.32988408       0.20519776      -0.27765482 </v>
   <v>       0.24709510       0.38535088      -0.02098106 </v>
   <v>      -0.02195479       0.29118102       0.18905677 </v>
   <v>       0.15573137       0.03017385       0.47796323 </v>
   <v>       0.18169239      -0.14824451      -0.39041414 </v>
   <v>       0.26496747      -0.19673244      -0.31089822 </v>
   <v>       0.17163780      -0.21772397       0.35744379 </v>
   <v>       0.27075091       0.18758662       0.31788917 </v>
   <v>      -0.10718433       0.10795824       0.32104720 </v>
   <v>       0.18295921       0.02118472      -0.29449069 </v>
   <v>      -0.00525833      -0.30662629      -0.02003587 </v>
   <v>      -0.05336389       0.11234132      -0.07398182 </v>
   <v>      -0.05366145       0.22423627       0.01445667 </v>
   <v>      -0.43448590      -0.46169266      -0.40175059 </v>
   <v>       0.06172015      -0.35539269       0.18230715 </v>
   <v>       0.44322583       0.39563253      -0.16286426 </v>
   <v>      -0.10418880      -0.40106115       0.16926740 </v>
   <v>      -0.17115865      -0.12579980      -0.46915345 </v>
   <v>      -0.23859532       0.11234072       0.35259033 </v>
   <v>      -0.03734547      -0.03322587       0.48566689 </v>
   <v>      -0.41324628       0.45130602       0.39102458 </v>
   <v>       0.21748355      -0.37041461       0.00799201 </v>
   <v>      -0.45301896       0.32674703      -0.40666356 </v>
   <v>      -0.48938803       0.44513069      -0.47394659 </v>
   <v>       0.46392582      -0.35518695      -0.31809948 </v>
   <v>       0.22215727      -0.01723710      -0.42126239 </v>
   <v>       0.37903158       0.27726454       0.29406115 </v>
   <v>       0.21121295       0.49652237       0.14808609 </v>
   <v>      -0.20638605       0.41436505       0.04918157 </v>
   <v>       0.19383032      -0.25967412      -0.03389418 </v>
   <v>       0.06968549      -0.09995112       0.41451734 </v>
   <v>      -0.34863424       0.32883229       0.27777635 </v>
   <v>       0.06509223       0.04378623      -0.07081211 </v>
   <v>      -0.31914235      -0.43981850       0.24081857 </v>
   <v>      -0.46834133       0.46120675      -0.23103182 </v>
   <v>      -0.27226766       0.03054886       0.45921500 </v>
   <v>      -0.05160091      -0.09498372      -0.16947255 </v>
   <v>      -0.22930700       0.32749416       0.15166071 </v>
   <v>      -0.32876108      -0.20353820      -0.23235461 </v>
   <v>      -0.06164214      -0.22372182       0.20546728 </v>
   <v>       0.35721400       0.05888665      -0.20901149 </v>
   <v>       0.48341537       0.26512799      -0.16954787 </v>
   <v>       0.38209132      -0.17672513      -0.27903892 </v>
   <v>      -0.25291956      -0.45499222       0.05927983 </v>
   <v>       0.14420392       0.23385473       0.09747067 </v>
   <v>       0.47096125       0.12834346      -0.32535496 </v>
   <v>       0.46078408      -0.34309921       0.36230242 </v>
   <v>      -0.22154638      -0.30911366       0.02084780 </v>
   <v>      -0.45261013       0.20044440      -0.26108941 </v>
   <v>       0.27476993       0.27537994       0.06707722 </v>
   <v>      -0.43528884      -0.45596212      -0.10171845 </v>
   <v>       0.48483244       0.24863597       0.34899514 </v>
   <v>      -0.31698041       0.15301556       0.26219751 </v>
   <v>       0.34429878      -0.02397896      -0.44607530 </v>
   <v>       0.38237953       0.33326610       0.18334900 </v>
   <v>       0.26568458       0.00387953       0.33044846 </v>
   <v>       0.25896214      -0.20690752       0.22826528 </v>
   <v>      -0.26289930      -0.05077077      -0.30591118 </v>
   <v>      -0.44084028      -0.46376054       0.28657360 </v>
   <v>       0.47528574       0.45918709      -0.03404628 </v>
   <v>       0.06935891      -0.08397673       0.28630643 </v>
   <v>       0.38264033      -0.39527454       0.03712753 </v>
   <v>      -0.14299478       0.03144956      -0.00031681 </v>
   <v>       0.03416105      -0.24597542       0.09958195 </v>
   <v>      -0.46913838      -0.24873692      -0.47993989 </v>
   <v>       0.33624780      -0.20900377      -0.03794243 </v>
   <v>      -0.49450194      -0.33782057      -0.10245207 </v>
   <v>       0.47812579       0.48853150       0.20324747 </v>
   <v>      -0.11087419      -0.08785834      -0.04244457 </v>
   <v>      -0.33597822       0.16147480       0.01587428 </v>
   <v>      -0.22892662      -0.14447974      -0.01951456 </v>
   <v>      -0.29956048      -0.08343760      -0.18036746 </v>
   <v>      -0.00301796      -0.11383666       0.03018310 </v>
   <v>       0.34551479       0.16732711       0.06413275 </v>
   <v>       0.16563700      -0.18676505       0.09408520 </v>
   <v>      -0.37721919      -0.17130827       0.29517516 </v>
   <v>       0.11251004       0.02162851       0.09584976 </v>
   <v>      -0.47810261      -0.21344493       0.38365154 </v>
   <v>       0.35253334       0.00329192      -0.03666580 </v>
   <v>       0.44984153      -0.11558705       0.37531057 </v>
   <v>      -0.41194194      -0.00379437      -0.12515620 </v>
   <v>       0.49214594      -0.15591289      -0.12032080 </v>
   <v>      -0.37479692      -0.24845899       0.05985044 </v>
   <v>      -0.45639852      -0.05006566      -0.41863591 </v>
   <v>       0.43768810      -0.22979317       0.15780781 </v>
   <v>      -0.45190200       0.03488186       0.27221597 </v>
   <v>       0.40625288       0.04726400       0.07064445 </v>
   <v>       0.35790503      -0.02971728       0.17301693 </v>
   <v>      -0.43670926      -0.17051758       0.15533205 </v>
   <v>      -0.47714447       0.15133704       0.09953067 </v>
   <v>      -0.41060107      -0.04684873       0.10681369 </v>
  </varray>
 </structure>
 <varray name="primitive_index" >
  <v type="int" >        1 </v>
  <v type="int" >      128 </v>
  <v type="int" >      131 </v>
  <v type="int" >       78 </v>
  <v type="int" >      129 </v>
  <v type="int" >       70 </v>
  <v type="int" >       42 </v>
  <v type="int" >       57 </v>
  <v type="int" >       13 </v>
  <v type="int" >       63 </v>
  <v type="int" >       67 </v>
  <v type="int" >       90 </v>
  <v type="int" >       41 </v>
  <v type="int" >       45 </v>
  <v type="int" >        2 </v>
  <v type="int" >        3 </v>
  <v type="int" >      121 </v>
  <v type="int" >       33 </v>
  <v type="int" >       37 </v>
  <v type="int" >       14 </v>
  <v type="int" >        9 </v>
  <v type="int" >      126 </v>
  <v type="int" >       40 </v>
  <v type="int" >       68 </v>
  <v type="int" >       58 </v>
  <v type="int" >       91 </v>
  <v type="int" >       73 </v>
  <v type="int" >       83 </v>
  <v type="int" >      108 </v>
  <v type="int" >       19 </v>
  <v type="int" >       99 </v>
  <v type="int" >       15 </v>
  <v type="int" >       39 </v>
  <v type="int" >      123 </v>
  <v type="int" >       60 </v>
  <v type="int" >      115 </v>
  <v type="int" >       62 </v>
  <v type="int" >        5 </v>
  <v type="int" >       12 </v>
  <v type="int" >      125 </v>
  <v type="int" >       98 </v>
  <v type="int" >       27 </v>
  <v type="int" >      110 </v>
  <v type="int" >       85 </v>
  <v type="int" >       59 </v>
  <v type="int" >       69 </v>
  <v type="int" >       11 </v>
  <v type="int" >       94 </v>
  <v type="int" >       92 </v>
  <v type="int" >       48 </v>
  <v type="int" >      116 </v>
  <v type="int" >       84 </v>
  <v type="int" >      102 </v>
  <v type="int" >      133 </v>
  <v type="int" >       93 </v>
  <v type="int" >       34 </v>
  <v type="int" >      118 </v>
  <v type="int" >       64 </v>
  <v type="int" >       66 </v>
  <v type="int" >       29 </v>
  <v type="int" >       18 </v>
  <v type="int" >       17 </v>
  <v type="int" >       44 </v>
  <v type="int" >       96 </v>
  <v type="int" >       88 </v>
  <v type="int" >      122 </v>
  <v type="int" >      113 </v>
  <v type="int" >       50 </v>
  <v type="int" >        6 </v>
  <v type="int" >       36 </v>
  <v type="int" >       38 </v>
  <v type="int" >       25 </v>
  <v type="int" >       32 </v>
  <v type="int" >       28 </v>
  <v type="int" >       49 </v>
  <v type="int" >       23 </v>
  <v type="int" >      130 </v>
  <v type="int" >       55 </v>
  <v type="int" >       82 </v>
  <v type="int" >      117 </v>
  <v type="int" >      105 </v>
  <v type="int" >      111 </v>
  <v type="int" >      124 </v>
  <v type="int" >      127 </v>
  <v type="int" >       26 </v>
  <v type="int" >       65 </v>
  <v type="int" >       97 </v>
  <v type="int" >       77 </v>
  <v type="int" >       80 </v>
  <v type="int" >      107 </v>
  <v type="int" >       89 </v>
  <v type="int" >       16 </v>
  <v type="int" >       47 </v>
  <v type="int" >       35 </v>
  <v type="int" >       53 </v>
  <v type="int" >       81 </v>
  <v type="int" >      135 </v>
  <v type="int" >       75 </v>
  <v type="int" >       79 </v>
  <v type="int" >        4 </v>
  <v type="int" >        7 </v>
  <v type="int" >      120 </v>
  <v type="int" >       46 </v>
  <v type="int" >       76 </v>
  <v type="int" >       61 </v>
  <v type="int" >        8 </v>
  <v type="int" >      114 </v>
  <v type="int" >       30 </v>
  <v type="int" >      101 </v>
  <v type="int" >      104 </v>
  <v type="int" >      106 </v>
  <v type="int" >      103 </v>
  <v type="int" >       43 </v>
  <v type="int" >       20 </v>
  <v type="int" >       72 </v>
  <v type="int" >       52 </v>
  <v type="int" >       87 </v>
  <v type="int" >      132 </v>
  <v type="int" >       56 </v>
  <v type="int" >      100 </v>
  <v type="int" >       24 </v>
  <v type="int" >       31 </v>
  <v type="int" >      109 </v>
  <v type="int" >      134 </v>
  <v type="int" >      112 </v>
  <v type="int" >       22 </v>
  <v type="int" >       71 </v>
  <v type="int" >       10 </v>
  <v type="int" >       86 </v>
  <v type="int" >       21 </v>
  <v type="int" >       51 </v>
  <v type="int" >       74 </v>
  <v type="int" >       54 </v>
  <v type="int" >      119 </v>
  <v type="int" >       95 </v>
 </varray>
 <kpoints>
  <generation param="Gamma">
   <v type="int" name="divisions">       2        2        2 </v>
   <v name="usershift">      0.00000000       0.00000000       0.00000000 </v>
   <v name="genvec1">      0.50000000       0.00000000       0.00000000 </v>
   <v name="genvec2">      0.00000000       0.50000000       0.00000000 </v>
   <v name="genvec3">      0.00000000       0.00000000       0.50000000 </v>
   <v name="shift">      0.00000000       0.00000000       0.00000000 </v>
  </generation>
  <varray name="kpointlist" >
   <v>       0.00000000       0.00000000       0.00000000 </v>
   <v>       0.50000000       0.00000000       0.00000000 </v>
   <v>       0.00000000       0.50000000       0.00000000 </v>
   <v>       0.50000000       0.50000000       0.00000000 </v>
   <v>       0.00000000       0.00000000       0.50000000 </v>
   <v>       0.50000000       0.00000000       0.50000000 </v>
   <v>       0.00000000       0.50000000       0.50000000 </v>
   <v>       0.50000000       0.50000000       0.50000000 </v>
  </varray>
  <varray name="weights" >
   <v>       0.12500000 </v>
   <v>       0.12500000 </v>
   <v>       0.12500000 </v>
   <v>       0.12500000 </v>
   <v>       0.12500000 </v>
   <v>       0.12500000 </v>
   <v>       0.12500000 </v>
   <v>       0.12500000 </v>
  </varray>
 </kpoints>
 <parameters>
  <separator name="general" >
   <i type="string" name="SYSTEM">unknown system</i>
   <i type="logical" name="LCOMPAT"> F  </i>
  </separator>
  <separator name="electronic" >
   <i type="string" name="PREC">a</i>
   <i name="ENMAX">    600.00000000</i>
   <i name="ENAUG">    605.39200000</i>
   <i name="EDIFF">      0.00000100</i>
   <i type="int" name="IALGO">    38</i>
   <i type="int" name="IWAVPR">    10</i>
   <i type="int" name="NBANDS">   520</i>
   <i name="NELECT">    864.00000000</i>
   <i type="int" name="TURBO">     0</i>
   <i type="int" name="IRESTART">     0</i>
   <i type="int" name="NREBOOT">     0</i>
   <i type="int" name="NMIN">     0</i>
   <i name="EREF">      0.00000000</i>
   <separator name="electronic smearing" >
    <i type="int" name="ISMEAR">     0</i>
    <i name="SIGMA">      0.05000000</i>
    <i name="KSPACING">      0.30000000</i>
    <i type="logical" name="KGAMMA"> T  </i>
   </separator>
   <separator name="electronic projectors" >
    <i type="logical" name="LREAL"> T  </i>
    <v name="ROPT">     -0.00025000     -0.00025000     -0.00025000</v>
    <i type="int" name="LMAXPAW">  -100</i>
    <i type="int" name="LMAXMIX">     2</i>
    <i type="logical" name="NLSPLINE"> F  </i>
   </separator>
   <separator name="electronic startup" >
    <i type="int" name="ISTART">     0</i>
    <i type="int" name="ICHARG">     2</i>
    <i type="int" name="INIWAV">     1</i>
   </separator>
   <separator name="electronic spin" >
    <i type="int" name="ISPIN">     1</i>
    <i type="logical" name="LNONCOLLINEAR"> F  </i>
    <v name="MAGMOM">      1.00000000      1.00000000      1.00000000      1.00000000      1.00000000      1.00000000      1.00000000      1.00000000      1.00000000      1.00000000      1.00000000      1.00000000      1.00000000      1.00000000      1.00000000      1.00000000      1.00000000      1.00000000      1.00000000      1.00000000
      1.00000000      1.00000000      1.00000000      1.00000000      1.00000000      1.00000000      1.00000000      1.00000000      1.00000000      1.00000000      1.00000000      1.00000000      1.00000000      1.00000000      1.00000000      1.00000000      1.00000000      1.00000000      1.00000000      1.00000000
      1.00000000      1.00000000      1.00000000      1.00000000      1.00000000      1.00000000      1.00000000      1.00000000      1.00000000      1.00000000      1.00000000      1.00000000      1.00000000      1.00000000      1.00000000      1.00000000      1.00000000      1.00000000      1.00000000      1.00000000
      1.00000000      1.00000000      1.00000000      1.00000000      1.00000000      1.00000000      1.00000000      1.00000000      1.00000000      1.00000000      1.00000000      1.00000000      1.00000000      1.00000000      1.00000000      1.00000000      1.00000000      1.00000000      1.00000000      1.00000000
      1.00000000      1.00000000      1.00000000      1.00000000      1.00000000      1.00000000      1.00000000      1.00000000      1.00000000      1.00000000      1.00000000      1.00000000      1.00000000      1.00000000      1.00000000      1.00000000      1.00000000      1.00000000      1.00000000      1.00000000
      1.00000000      1.00000000      1.00000000      1.00000000      1.00000000      1.00000000      1.00000000      1.00000000      1.00000000      1.00000000      1.00000000      1.00000000      1.00000000      1.00000000      1.00000000      1.00000000      1.00000000      1.00000000      1.00000000      1.00000000
      1.00000000      1.00000000      1.00000000      1.00000000      1.00000000      1.00000000      1.00000000      1.00000000      1.00000000      1.00000000      1.00000000      1.00000000      1.00000000      1.00000000      1.00000000</v>
    <i name="NUPDOWN">     -1.00000000</i>
    <i type="logical" name="LSORBIT"> F  </i>
    <v name="SAXIS">      0.00000000      0.00000000      1.00000000</v>
    <i type="logical" name="LSPIRAL"> F  </i>
    <v name="QSPIRAL">      0.00000000      0.00000000      0.00000000</v>
    <i type="logical" name="LZEROZ"> F  </i>
   </separator>
   <separator name="electronic exchange-correlation" >
    <i type="logical" name="LASPH"> F  </i>
    <i type="logical" name="LMETAGGA"> F  </i>
   </separator>
   <separator name="electronic convergence" >
    <i type="int" name="NELM">    60</i>
    <i type="int" name="NELMDL">    -5</i>
    <i type="int" name="NELMIN">     2</i>
    <i name="ENINI">    600.00000000</i>
    <separator name="electronic convergence detail" >
     <i type="logical" name="LDIAG"> T  </i>
     <i type="logical" name="LSUBROT"> F  </i>
     <i name="WEIMIN">      0.00000000</i>
     <i name="EBREAK">      0.00000000</i>
     <i name="DEPER">      0.30000000</i>
     <i type="int" name="NRMM">     4</i>
     <i name="TIME">      0.40000000</i>
    </separator>
   </separator>
   <separator name="electronic mixer" >
    <i name="AMIX">      0.40000000</i>
    <i name="BMIX">      1.00000000</i>
    <i name="AMIN">      0.10000000</i>
    <i name="AMIX_MAG">      1.60000000</i>
    <i name="BMIX_MAG">      1.00000000</i>
    <separator name="electronic mixer details" >
     <i type="int" name="IMIX">     4</i>
     <i type="logical" name="MIXFIRST"> F  </i>
     <i type="int" name="MAXMIX">   -45</i>
     <i name="WC">    100.00000000</i>
     <i type="int" name="INIMIX">     1</i>
     <i type="int" name="MIXPRE">     1</i>
     <i type="int" name="MREMOVE">     5</i>
    </separator>
   </separator>
   <separator name="electronic dipolcorrection" >
    <i type="logical" name="LDIPOL"> F  </i>
    <i type="logical" name="LMONO"> F  </i>
    <i type="int" name="IDIPOL">     0</i>
    <i name="EPSILON">      1.00000000</i>
    <v name="DIPOL">   -100.00000000   -100.00000000   -100.00000000</v>
    <i name="EFIELD">      0.00000000</i>
   </separator>
  </separator>
  <separator name="grids" >
   <i type="int" name="NGX">    98</i>
   <i type="int" name="NGY">    98</i>
   <i type="int" name="NGZ">    98</i>
   <i type="int" name="NGXF">   196</i>
   <i type="int" name="NGYF">   196</i>
   <i type="int" name="NGZF">   196</i>
   <i type="logical" name="ADDGRID"> T  </i>
  </separator>
  <separator name="ionic" >
   <i type="int" name="NSW">     1</i>
   <i type="int" name="IBRION">    -1</i>
   <i type="int" name="MDALGO">     0</i>
   <i type="int" name="ISIF">     2</i>
   <i name="PSTRESS">      0.00000000</i>
   <i name="EDIFFG">     -0.01000000</i>
   <i type="int" name="NFREE">     0</i>
   <i name="POTIM">      1.00000000</i>
   <i name="SMASS">     -3.00000000</i>
   <i name="SCALEE">      1.00000000</i>
  </separator>
  <separator name="ionic md" >
   <i name="TEBEG">      0.00010000</i>
   <i name="TEEND">      0.00010000</i>
   <i type="int" name="NBLOCK">     1</i>
   <i type="int" name="KBLOCK">     1</i>
   <i type="int" name="NPACO">   256</i>
   <i name="APACO">     16.00000000</i>
  </separator>
  <separator name="symmetry" >
   <i type="int" name="ISYM">     0</i>
   <i name="SYMPREC">      0.00001000</i>
  </separator>
  <separator name="dos" >
   <i type="int" name="LORBIT">     0</i>
   <v name="RWIGS">     -1.00000000     -1.00000000     -1.00000000</v>
   <i type="int" name="NEDOS">   301</i>
   <i name="EMIN">     10.00000000</i>
   <i name="EMAX">    -10.00000000</i>
   <i name="EFERMI">      0.00000000</i>
  </separator>
  <separator name="writing" >
   <i type="int" name="NWRITE">     2</i>
   <i type="logical" name="LWAVE"> F  </i>
   <i type="logical" name="LDOWNSAMPLE"> F  </i>
   <i type="logical" name="LCHARG"> F  </i>
   <i type="logical" name="LPARD"> F  </i>
   <i type="logical" name="LVTOT"> F  </i>
   <i type="logical" name="LVHAR"> F  </i>
   <i type="logical" name="LELF"> F  </i>
   <i type="logical" name="LOPTICS"> F  </i>
   <v name="STM">      0.00000000      0.00000000      0.00000000      0.00000000      0.00000000      0.00000000      0.00000000</v>
  </separator>
  <separator name="performance" >
   <i type="int" name="NPAR">     4</i>
   <i type="int" name="NSIM">     4</i>
   <i type="int" name="NBLK">    -1</i>
   <i type="logical" name="LPLANE"> T  </i>
   <i type="logical" name="LSCALAPACK"> F  </i>
   <i type="logical" name="LSCAAWARE"> F  </i>
   <i type="logical" name="LSCALU"> F  </i>
   <i type="logical" name="LASYNC"> F  </i>
   <i type="logical" name="LORBITALREAL"> F  </i>
  </separator>
  <separator name="miscellaneous" >
   <i type="int" name="IDIOT">     3</i>
   <i type="int" name="ISPECIAL">     0</i>
   <i type="logical" name="LMUSIC"> F  </i>
   <v name="POMASS">     40.07800000     28.08500000     16.00000000</v>
   <v name="DARWINR">      0.00000000      0.00000000      0.00000000</v>
   <v name="DARWINV">      1.00000000      1.00000000      1.00000000</v>
   <i type="logical" name="LCORR"> T  </i>
  </separator>
  <i type="logical" name="GGA_COMPAT"> T  </i>
  <i type="logical" name="LBERRY"> F  </i>
  <i type="int" name="ICORELEVEL">     0</i>
  <i type="logical" name="LDAU"> F  </i>
  <i type="int" name="I_CONSTRAINED_M">     0</i>
  <separator name="electronic exchange-correlation" >
   <i type="string" name="GGA">--</i>
   <i type="int" name="VOSKOWN">     0</i>
   <i type="logical" name="LHFCALC"> F  </i>
   <i type="string" name="PRECFOCK"></i>
   <i type="logical" name="LSYMGRAD"> F  </i>
   <i type="logical" name="LHFONE"> F  </i>
   <i type="logical" name="LRHFCALC"> F  </i>
   <i type="logical" name="LTHOMAS"> F  </i>
   <i type="logical" name="LMODELHF"> F  </i>
   <i name="ENCUT4O">     -1.00000000</i>
   <i type="int" name="EXXOEP">     0</i>
   <i type="int" name="FOURORBIT">     0</i>
   <i name="AEXX">      0.00000000</i>
   <i name="HFALPHA">      0.00000000</i>
   <i name="MCALPHA">      0.00000000</i>
   <i name="ALDAX">      1.00000000</i>
   <i name="AGGAX">      1.00000000</i>
   <i name="ALDAC">      1.00000000</i>
   <i name="AGGAC">      1.00000000</i>
   <i type="int" name="NKREDX">     1</i>
   <i type="int" name="NKREDY">     1</i>
   <i type="int" name="NKREDZ">     1</i>
   <i type="logical" name="SHIFTRED"> F  </i>
   <i type="logical" name="ODDONLY"> F  </i>
   <i type="logical" name="EVENONLY"> F  </i>
   <i type="int" name="LMAXFOCK">     0</i>
   <i type="int" name="NMAXFOCKAE">     0</i>
   <i type="logical" name="LFOCKAEDFT"> F  </i>
   <i name="HFSCREEN">      0.00000000</i>
   <i name="HFSCREENC">      0.00000000</i>
   <i type="int" name="NBANDSGWLOW">     0</i>
  </separator>
  <separator name="vdW DFT" >
   <i type="logical" name="LUSE_VDW"> F  </i>
   <i name="Zab_VDW">     -0.84910000</i>
   <i name="PARAM1">      0.12340000</i>
   <i name="PARAM2">      1.00000000</i>
   <i name="PARAM3">      0.00000000</i>
  </separator>
  <separator name="model GW" >
   <i type="int" name="MODEL_GW">     0</i>
   <i name="MODEL_EPS0">      7.86148328</i>
   <i name="MODEL_ALPHA">      1.00000000</i>
  </separator>
  <separator name="linear response parameters" >
   <i type="logical" name="LEPSILON"> F  </i>
   <i type="logical" name="LRPA"> F  </i>
   <i type="logical" name="LNABLA"> F  </i>
   <i type="logical" name="LVEL"> F  </i>
   <i type="int" name="KINTER">     0</i>
   <i name="CSHIFT">      0.10000000</i>
   <i name="OMEGAMAX">     -1.00000000</i>
   <i name="DEG_THRESHOLD">      0.00200000</i>
   <i name="RTIME">     -0.10000000</i>
   <i name="WPLASMAI">      0.00000000</i>
   <v name="DFIELD">      0.00000000      0.00000000      0.00000000</v>
   <v name="WPLASMA">      0.00000000      0.00000000      0.00000000      0.00000000      0.00000000      0.00000000      0.00000000      0.00000000      0.00000000</v>
  </separator>
  <separator name="orbital magnetization" >
   <i type="logical" name="NUCIND"> F  </i>
   <v name="MAGPOS">      0.00000000      0.00000000      0.00000000</v>
   <i type="logical" name="LNICSALL"> T  </i>
   <i type="logical" name="ORBITALMAG"> F  </i>
   <i type="logical" name="LMAGBLOCH"> F  </i>
   <i type="logical" name="LCHIMAG"> F  </i>
   <i type="logical" name="LGAUGE"> T  </i>
   <i type="int" name="MAGATOM">     0</i>
   <v name="MAGDIPOL">      0.00000000      0.00000000      0.00000000</v>
   <v name="AVECCONST">      0.00000000      0.00000000      0.00000000</v>
  </separator>
  <separator name="response functions" >
   <i type="logical" name="LADDER"> F  </i>
   <i type="logical" name="LRPAFORCE"> F  </i>
   <i type="logical" name="LFXC"> F  </i>
   <i type="logical" name="LHARTREE"> T  </i>
   <i type="int" name="IBSE">     0</i>
   <v type="int" name="KPOINT">    -1     0     0     0</v>
   <i type="logical" name="LTCTE"> F  </i>
   <i type="logical" name="LTETE"> F  </i>
   <i type="logical" name="LTRIPLET"> F  </i>
   <i type="logical" name="LFXCEPS"> F  </i>
   <i type="logical" name="LFXHEG"> F  </i>
   <i type="int" name="NATURALO">     2</i>
   <i type="logical" name="L2ORDER"> F  </i>
   <i type="logical" name="LMP2LT"> F  </i>
   <i type="logical" name="LUSEW"> F  </i>
   <i name="ENCUTGW">     -2.00000000</i>
   <i name="ENCUTGWSOFT">     -2.00000000</i>
   <i name="ENCUTLF">     -1.00000000</i>
   <i type="int" name="LMAXMP2">    -1</i>
   <i name="SCISSOR">      0.00000000</i>
   <i type="int" name="NOMEGA">     0</i>
   <i type="int" name="NOMEGAR">     0</i>
   <i type="int" name="NBANDSGW">    -1</i>
   <i type="int" name="NBANDSO">    -1</i>
   <i type="int" name="NBANDSV">    -1</i>
   <i type="int" name="NELM">     1</i>
   <i type="int" name="NELMHF">     1</i>
   <i type="int" name="DIM">     3</i>
   <i type="int" name="ANTIRES">     0</i>
   <i name="OMEGAMAX">    -30.00000000</i>
   <i name="OMEGAMIN">    -30.00000000</i>
   <i name="OMEGATL">   -200.00000000</i>
   <i type="int" name="OMEGAGRID">   140</i>
   <i name="CSHIFT">     -0.10000000</i>
   <i type="logical" name="SELFENERGY"> F  </i>
   <i type="logical" name="LSPECTRAL"> F  </i>
   <i type="logical" name="LSPECTRALGW"> F  </i>
   <i type="logical" name="LSINGLES"> F  </i>
   <i type="logical" name="LFERMIGW"> F  </i>
   <i type="logical" name="ODDONLYGW"> F  </i>
   <i type="logical" name="EVENONLYGW"> F  </i>
   <i type="int" name="NKREDLFX">     1</i>
   <i type="int" name="NKREDLFY">     1</i>
   <i type="int" name="NKREDLFZ">     1</i>
   <i type="int" name="MAXMEM">  2800</i>
   <i type="int" name="TELESCOPE">     0</i>
   <i type="int" name="TAUPAR">     1</i>
   <i type="int" name="OMEGAPAR">    -1</i>
   <i name="LAMBDA">      1.00000000</i>
  </separator>
  <separator name="External order field" >
   <i name="OFIELD_KAPPA">      0.00000000</i>
   <v name="OFIELD_K">      0.00000000      0.00000000      0.00000000</v>
   <i name="OFIELD_Q6_NEAR">      0.00000000</i>
   <i name="OFIELD_Q6_FAR">      0.00000000</i>
   <i name="OFIELD_A">      0.00000000</i>
  </separator>
 </parameters>
 <atominfo>
  <atoms>     135 </atoms>
  <types>       3 </types>
  <array name="atoms" >
   <dimension dim="1">ion</dimension>
   <field type="string">element</field>
   <field type="int">atomtype</field>
   <set>
    <rc><c>Ca</c><c>   1</c></rc>
    <rc><c>Ca</c><c>   1</c></rc>
    <rc><c>Ca</c><c>   1</c></rc>
    <rc><c>Ca</c><c>   1</c></rc>
    <rc><c>Ca</c><c>   1</c></rc>
    <rc><c>Ca</c><c>   1</c></rc>
    <rc><c>Ca</c><c>   1</c></rc>
    <rc><c>Ca</c><c>   1</c></rc>
    <rc><c>Ca</c><c>   1</c></rc>
    <rc><c>Ca</c><c>   1</c></rc>
    <rc><c>Ca</c><c>   1</c></rc>
    <rc><c>Ca</c><c>   1</c></rc>
    <rc><c>Ca</c><c>   1</c></rc>
    <rc><c>Ca</c><c>   1</c></rc>
    <rc><c>Ca</c><c>   1</c></rc>
    <rc><c>Ca</c><c>   1</c></rc>
    <rc><c>Ca</c><c>   1</c></rc>
    <rc><c>Ca</c><c>   1</c></rc>
    <rc><c>Ca</c><c>   1</c></rc>
    <rc><c>Ca</c><c>   1</c></rc>
    <rc><c>Ca</c><c>   1</c></rc>
    <rc><c>Ca</c><c>   1</c></rc>
    <rc><c>Ca</c><c>   1</c></rc>
    <rc><c>Ca</c><c>   1</c></rc>
    <rc><c>Ca</c><c>   1</c></rc>
    <rc><c>Ca</c><c>   1</c></rc>
    <rc><c>Ca</c><c>   1</c></rc>
    <rc><c>Si</c><c>   2</c></rc>
    <rc><c>Si</c><c>   2</c></rc>
    <rc><c>Si</c><c>   2</c></rc>
    <rc><c>Si</c><c>   2</c></rc>
    <rc><c>Si</c><c>   2</c></rc>
    <rc><c>Si</c><c>   2</c></rc>
    <rc><c>Si</c><c>   2</c></rc>
    <rc><c>Si</c><c>   2</c></rc>
    <rc><c>Si</c><c>   2</c></rc>
    <rc><c>Si</c><c>   2</c></rc>
    <rc><c>Si</c><c>   2</c></rc>
    <rc><c>Si</c><c>   2</c></rc>
    <rc><c>Si</c><c>   2</c></rc>
    <rc><c>Si</c><c>   2</c></rc>
    <rc><c>Si</c><c>   2</c></rc>
    <rc><c>Si</c><c>   2</c></rc>
    <rc><c>Si</c><c>   2</c></rc>
    <rc><c>Si</c><c>   2</c></rc>
    <rc><c>Si</c><c>   2</c></rc>
    <rc><c>Si</c><c>   2</c></rc>
    <rc><c>Si</c><c>   2</c></rc>
    <rc><c>Si</c><c>   2</c></rc>
    <rc><c>Si</c><c>   2</c></rc>
    <rc><c>Si</c><c>   2</c></rc>
    <rc><c>Si</c><c>   2</c></rc>
    <rc><c>Si</c><c>   2</c></rc>
    <rc><c>Si</c><c>   2</c></rc>
    <rc><c>O </c><c>   3</c></rc>
    <rc><c>O </c><c>   3</c></rc>
    <rc><c>O </c><c>   3</c></rc>
    <rc><c>O </c><c>   3</c></rc>
    <rc><c>O </c><c>   3</c></rc>
    <rc><c>O </c><c>   3</c></rc>
    <rc><c>O </c><c>   3</c></rc>
    <rc><c>O </c><c>   3</c></rc>
    <rc><c>O </c><c>   3</c></rc>
    <rc><c>O </c><c>   3</c></rc>
    <rc><c>O </c><c>   3</c></rc>
    <rc><c>O </c><c>   3</c></rc>
    <rc><c>O </c><c>   3</c></rc>
    <rc><c>O </c><c>   3</c></rc>
    <rc><c>O </c><c>   3</c></rc>
    <rc><c>O </c><c>   3</c></rc>
    <rc><c>O </c><c>   3</c></rc>
    <rc><c>O </c><c>   3</c></rc>
    <rc><c>O </c><c>   3</c></rc>
    <rc><c>O </c><c>   3</c></rc>
    <rc><c>O </c><c>   3</c></rc>
    <rc><c>O </c><c>   3</c></rc>
    <rc><c>O </c><c>   3</c></rc>
    <rc><c>O </c><c>   3</c></rc>
    <rc><c>O </c><c>   3</c></rc>
    <rc><c>O </c><c>   3</c></rc>
    <rc><c>O </c><c>   3</c></rc>
    <rc><c>O </c><c>   3</c></rc>
    <rc><c>O </c><c>   3</c></rc>
    <rc><c>O </c><c>   3</c></rc>
    <rc><c>O </c><c>   3</c></rc>
    <rc><c>O </c><c>   3</c></rc>
    <rc><c>O </c><c>   3</c></rc>
    <rc><c>O </c><c>   3</c></rc>
    <rc><c>O </c><c>   3</c></rc>
    <rc><c>O </c><c>   3</c></rc>
    <rc><c>O </c><c>   3</c></rc>
    <rc><c>O </c><c>   3</c></rc>
    <rc><c>O </c><c>   3</c></rc>
    <rc><c>O </c><c>   3</c></rc>
    <rc><c>O </c><c>   3</c></rc>
    <rc><c>O </c><c>   3</c></rc>
    <rc><c>O </c><c>   3</c></rc>
    <rc><c>O </c><c>   3</c></rc>
    <rc><c>O </c><c>   3</c></rc>
    <rc><c>O </c><c>   3</c></rc>
    <rc><c>O </c><c>   3</c></rc>
    <rc><c>O </c><c>   3</c></rc>
    <rc><c>O </c><c>   3</c></rc>
    <rc><c>O </c><c>   3</c></rc>
    <rc><c>O </c><c>   3</c></rc>
    <rc><c>O </c><c>   3</c></rc>
    <rc><c>O </c><c>   3</c></rc>
    <rc><c>O </c><c>   3</c></rc>
    <rc><c>O </c><c>   3</c></rc>
    <rc><c>O </c><c>   3</c></rc>
    <rc><c>O </c><c>   3</c></rc>
    <rc><c>O </c><c>   3</c></rc>
    <rc><c>O </c><c>   3</c></rc>
    <rc><c>O </c><c>   3</c></rc>
    <rc><c>O </c><c>   3</c></rc>
    <rc><c>O </c><c>   3</c></rc>
    <rc><c>O </c><c>   3</c></rc>
    <rc><c>O </c><c>   3</c></rc>
    <rc><c>O </c><c>   3</c></rc>
    <rc><c>O </c><c>   3</c></rc>
    <rc><c>O </c><c>   3</c></rc>
    <rc><c>O </c><c>   3</c></rc>
    <rc><c>O </c><c>   3</c></rc>
    <rc><c>O </c><c>   3</c></rc>
    <rc><c>O </c><c>   3</c></rc>
    <rc><c>O </c><c>   3</c></rc>
    <rc><c>O </c><c>   3</c></rc>
    <rc><c>O </c><c>   3</c></rc>
    <rc><c>O </c><c>   3</c></rc>
    <rc><c>O </c><c>   3</c></rc>
    <rc><c>O </c><c>   3</c></rc>
    <rc><c>O </c><c>   3</c></rc>
    <rc><c>O </c><c>   3</c></rc>
    <rc><c>O </c><c>   3</c></rc>
    <rc><c>O </c><c>   3</c></rc>
   </set>
  </array>
  <array name="atomtypes" >
   <dimension dim="1">type</dimension>
   <field type="int">atomspertype</field>
   <field type="string">element</field>
   <field>mass</field>
   <field>valence</field>
   <field type="string">pseudopotential</field>
   <set>
    <rc><c>  27</c><c>Ca</c><c>     40.07800000</c><c>     10.00000000</c><c>  PAW_PBE Ca_sv 06Sep2000               </c></rc>
    <rc><c>  27</c><c>Si</c><c>     28.08500000</c><c>      4.00000000</c><c>  PAW_PBE Si 05Jan2001                  </c></rc>
    <rc><c>  81</c><c>O </c><c>     16.00000000</c><c>      6.00000000</c><c>  PAW_PBE O 08Apr2002                   </c></rc>
   </set>
  </array>
 </atominfo>
 <structure name="initialpos" >
  <crystal>
   <varray name="basis" >
    <v>      12.09378762       0.00000000       0.00000000 </v>
    <v>       0.00000000      12.09378762       0.00000000 </v>
    <v>       0.00000000       0.00000000      12.09378762 </v>
   </varray>
   <i name="volume">   1768.83373704 </i>
   <varray name="rec_basis" >
    <v>       0.08268708       0.00000000       0.00000000 </v>
    <v>       0.00000000       0.08268708       0.00000000 </v>
    <v>       0.00000000       0.00000000       0.08268708 </v>
   </varray>
  </crystal>
  <varray name="positions" >
   <v>       0.02409084       0.43494311       0.60486379 </v>
   <v>       0.78384045       0.42398087       0.76363199 </v>
   <v>       0.73385393       0.52308454       0.51131401 </v>
   <v>       0.26568458       0.00387953       0.33044846 </v>
   <v>       0.04563175       0.81904203       0.70310818 </v>
   <v>       0.46392582       0.64481305       0.68190052 </v>
   <v>       0.25896214       0.79309248       0.22826528 </v>
   <v>       0.38264033       0.60472546       0.03712753 </v>
   <v>       0.99478036       0.67172074       0.37055450 </v>
   <v>       0.54360148       0.94993434       0.58136409 </v>
   <v>       0.97804521       0.29118102       0.18905677 </v>
   <v>       0.32379255       0.70183049       0.50011281 </v>
   <v>       0.10141521       0.54929648       0.80537711 </v>
   <v>       0.11368906       0.16068206       0.76472126 </v>
   <v>       0.80056862       0.12205036       0.64631924 </v>
   <v>       0.77845362       0.69088634       0.02084780 </v>
   <v>       0.82884135       0.87420020       0.53084655 </v>
   <v>       0.89581120       0.59893885       0.16926740 </v>
   <v>       0.76723997       0.66919540       0.74743556 </v>
   <v>       0.66402178       0.16147480       0.01587428 </v>
   <v>       0.54809800       0.03488186       0.27221597 </v>
   <v>       0.49214594       0.84408711       0.87967920 </v>
   <v>       0.65136576       0.32883229       0.27777635 </v>
   <v>       0.11251004       0.02162851       0.09584976 </v>
   <v>       0.21121295       0.49652237       0.14808609 </v>
   <v>       0.35721400       0.05888665       0.79098851 </v>
   <v>       0.39580730       0.22517124       0.54879785 </v>
   <v>       0.19383032       0.74032588       0.96610582 </v>
   <v>       0.44322583       0.39563253       0.83713574 </v>
   <v>       0.03416105       0.75402458       0.09958195 </v>
   <v>       0.52189739       0.78655507       0.38365154 </v>
   <v>       0.79361395       0.41436505       0.04918157 </v>
   <v>       0.14074205       0.27757495       0.34549718 </v>
   <v>       0.94663611       0.11234132       0.92601818 </v>
   <v>       0.27476993       0.27537994       0.06707722 </v>
   <v>       0.22215727       0.98276290       0.57873761 </v>
   <v>       0.22403095       0.33188210       0.84196695 </v>
   <v>       0.37903158       0.27726454       0.29406115 </v>
   <v>       0.98152377       0.09121188       0.42509331 </v>
   <v>       0.94718494       0.36220327       0.93065180 </v>
   <v>       0.87032270       0.66275741       0.59441053 </v>
   <v>       0.88420345       0.31666030       0.49644415 </v>
   <v>       0.88912581       0.91214166       0.95755543 </v>
   <v>       0.76140468       0.11234072       0.35259033 </v>
   <v>       0.26222926       0.46073193       0.46547009 </v>
   <v>       0.55915972       0.53623946       0.28657360 </v>
   <v>       0.54738987       0.20044440       0.73891059 </v>
   <v>       0.26496747       0.80326756       0.68910178 </v>
   <v>       0.06968549       0.90004888       0.41451734 </v>
   <v>       0.51061197       0.44513069       0.52605341 </v>
   <v>       0.40625288       0.04726400       0.07064445 </v>
   <v>       0.70043952       0.91656240       0.81963254 </v>
   <v>       0.56471116       0.54403788       0.89828155 </v>
   <v>       0.56329074       0.82948242       0.15533205 </v>
   <v>       0.68085765       0.56018150       0.24081857 </v>
   <v>       0.16563700       0.81323495       0.09408520 </v>
   <v>       0.95538101       0.44315985       0.83069486 </v>
   <v>       0.30849346       0.43720345       0.80881192 </v>
   <v>       0.67011592       0.20519776       0.72234518 </v>
   <v>       0.05982676       0.15348241       0.33061169 </v>
   <v>       0.06935891       0.91602327       0.28630643 </v>
   <v>       0.81096260       0.32309589       0.91848393 </v>
   <v>       0.19910888       0.57398664       0.49120679 </v>
   <v>       0.56551410       0.53830734       0.59824941 </v>
   <v>       0.48341537       0.26512799       0.83045213 </v>
   <v>       0.06172015       0.64460731       0.18230715 </v>
   <v>       0.79678566       0.55061254       0.65230092 </v>
   <v>       0.83044194       0.67405567       0.44970546 </v>
   <v>       0.24709510       0.38535088       0.97901894 </v>
   <v>       0.14502687       0.33911068       0.73852267 </v>
   <v>       0.62520308       0.75154101       0.05985044 </v>
   <v>       0.77107338       0.85552026       0.98048544 </v>
   <v>       0.76010857       0.24648512       0.42784755 </v>
   <v>       0.35790503       0.97028272       0.17301693 </v>
   <v>       0.34429878       0.97602104       0.55392470 </v>
   <v>       0.47528574       0.45918709       0.96595372 </v>
   <v>       0.74708044       0.54500778       0.05927983 </v>
   <v>       0.18733722       0.34932343       0.52967667 </v>
   <v>       0.38237953       0.33326610       0.18334900 </v>
   <v>       0.14420392       0.23385473       0.09747067 </v>
   <v>       0.48483244       0.24863597       0.34899514 </v>
   <v>       0.53165867       0.46120675       0.76896818 </v>
   <v>       0.90498119       0.14918624       0.80803601 </v>
   <v>       0.27075091       0.18758662       0.31788917 </v>
   <v>       0.69021306       0.53279036       0.86266326 </v>
   <v>       0.43768810       0.77020683       0.15780781 </v>
   <v>       0.99698204       0.88616334       0.03018310 </v>
   <v>       0.58675372       0.45130602       0.39102458 </v>
   <v>       0.46078408       0.65690079       0.36230242 </v>
   <v>       0.96831583       0.19104655       0.50863001 </v>
   <v>       0.37960956       0.46569699       0.52621292 </v>
   <v>       0.18169239       0.85175549       0.60958586 </v>
   <v>       0.99474167       0.69337371       0.97996413 </v>
   <v>       0.15573137       0.03017385       0.47796323 </v>
   <v>       0.58939893       0.95315127       0.10681369 </v>
   <v>       0.96265453       0.96677413       0.48566689 </v>
   <v>       0.38209132       0.82327487       0.72096108 </v>
   <v>       0.26798839       0.20414592       0.86747147 </v>
   <v>       0.03314884       0.79472837       0.47615159 </v>
   <v>       0.62278081       0.82869173       0.29517516 </v>
   <v>       0.53086162       0.75126308       0.52006011 </v>
   <v>       0.89281567       0.10795824       0.32104720 </v>
   <v>       0.47812579       0.48853150       0.20324747 </v>
   <v>       0.33624780       0.79099623       0.96205757 </v>
   <v>       0.94839909       0.90501628       0.83052745 </v>
   <v>       0.50549806       0.66217943       0.89754793 </v>
   <v>       0.47096125       0.12834346       0.67464504 </v>
   <v>       0.29782522       0.66923977       0.69901149 </v>
   <v>       0.35253334       0.00329192       0.96333420 </v>
   <v>       0.94842651       0.48156846       0.02762804 </v>
   <v>       0.77069300       0.32749416       0.15166071 </v>
   <v>       0.58805806       0.99620563       0.87484380 </v>
   <v>       0.54698104       0.32674703       0.59333644 </v>
   <v>       0.85700522       0.03144956       0.99968319 </v>
   <v>       0.32268384       0.41069175       0.34738584 </v>
   <v>       0.17163780       0.78227603       0.35744379 </v>
   <v>       0.72773234       0.03054886       0.45921500 </v>
   <v>       0.94633855       0.22423627       0.01445667 </v>
   <v>       0.52285553       0.15133704       0.09953067 </v>
   <v>       0.73710070       0.94922923       0.69408882 </v>
   <v>       0.09444444       0.35141947       0.90794009 </v>
   <v>       0.21748355       0.62958539       0.00799201 </v>
   <v>       0.86173969       0.78512357       0.66302115 </v>
   <v>       0.67123892       0.79646180       0.76764539 </v>
   <v>       0.15596281       0.75274270       0.84340111 </v>
   <v>       0.12325060       0.39754409       0.28556121 </v>
   <v>       0.93835786       0.77627818       0.20546728 </v>
   <v>       0.92978359       0.43200058       0.47159732 </v>
   <v>       0.86638036       0.31642347       0.63523989 </v>
   <v>       0.06509223       0.04378623       0.92918789 </v>
   <v>       0.01287281       0.62847174       0.62694902 </v>
   <v>       0.34551479       0.16732711       0.06413275 </v>
   <v>       0.18295921       0.02118472       0.70550931 </v>
   <v>       0.44984153       0.88441295       0.37531057 </v>
   <v>       0.68301959       0.15301556       0.26219751 </v>
  </varray>
  <varray name="velocities" >
   <v>       0.00000000       0.00000000       0.00000000 </v>
   <v>       0.00000000       0.00000000       0.00000000 </v>
   <v>       0.00000000       0.00000000       0.00000000 </v>
   <v>       0.00000000       0.00000000       0.00000000 </v>
   <v>       0.00000000       0.00000000       0.00000000 </v>
   <v>       0.00000000       0.00000000       0.00000000 </v>
   <v>       0.00000000       0.00000000       0.00000000 </v>
   <v>       0.00000000       0.00000000       0.00000000 </v>
   <v>       0.00000000       0.00000000       0.00000000 </v>
   <v>       0.00000000       0.00000000       0.00000000 </v>
   <v>       0.00000000       0.00000000       0.00000000 </v>
   <v>       0.00000000       0.00000000       0.00000000 </v>
   <v>       0.00000000       0.00000000       0.00000000 </v>
   <v>       0.00000000       0.00000000       0.00000000 </v>
   <v>       0.00000000       0.00000000       0.00000000 </v>
   <v>       0.00000000       0.00000000       0.00000000 </v>
   <v>       0.00000000       0.00000000       0.00000000 </v>
   <v>       0.00000000       0.00000000       0.00000000 </v>
   <v>       0.00000000       0.00000000       0.00000000 </v>
   <v>       0.00000000       0.00000000       0.00000000 </v>
   <v>       0.00000000       0.00000000       0.00000000 </v>
   <v>       0.00000000       0.00000000       0.00000000 </v>
   <v>       0.00000000       0.00000000       0.00000000 </v>
   <v>       0.00000000       0.00000000       0.00000000 </v>
   <v>       0.00000000       0.00000000       0.00000000 </v>
   <v>       0.00000000       0.00000000       0.00000000 </v>
   <v>       0.00000000       0.00000000       0.00000000 </v>
   <v>       0.00000000       0.00000000       0.00000000 </v>
   <v>       0.00000000       0.00000000       0.00000000 </v>
   <v>       0.00000000       0.00000000       0.00000000 </v>
   <v>       0.00000000       0.00000000       0.00000000 </v>
   <v>       0.00000000       0.00000000       0.00000000 </v>
   <v>       0.00000000       0.00000000       0.00000000 </v>
   <v>       0.00000000       0.00000000       0.00000000 </v>
   <v>       0.00000000       0.00000000       0.00000000 </v>
   <v>       0.00000000       0.00000000       0.00000000 </v>
   <v>       0.00000000       0.00000000       0.00000000 </v>
   <v>       0.00000000       0.00000000       0.00000000 </v>
   <v>       0.00000000       0.00000000       0.00000000 </v>
   <v>       0.00000000       0.00000000       0.00000000 </v>
   <v>       0.00000000       0.00000000       0.00000000 </v>
   <v>       0.00000000       0.00000000       0.00000000 </v>
   <v>       0.00000000       0.00000000       0.00000000 </v>
   <v>       0.00000000       0.00000000       0.00000000 </v>
   <v>       0.00000000       0.00000000       0.00000000 </v>
   <v>       0.00000000       0.00000000       0.00000000 </v>
   <v>       0.00000000       0.00000000       0.00000000 </v>
   <v>       0.00000000       0.00000000       0.00000000 </v>
   <v>       0.00000000       0.00000000       0.00000000 </v>
   <v>       0.00000000       0.00000000       0.00000000 </v>
   <v>       0.00000000       0.00000000       0.00000000 </v>
   <v>       0.00000000       0.00000000       0.00000000 </v>
   <v>       0.00000000       0.00000000       0.00000000 </v>
   <v>       0.00000000       0.00000000       0.00000000 </v>
   <v>       0.00000000       0.00000000       0.00000000 </v>
   <v>       0.00000000       0.00000000       0.00000000 </v>
   <v>       0.00000000       0.00000000       0.00000000 </v>
   <v>       0.00000000       0.00000000       0.00000000 </v>
   <v>       0.00000000       0.00000000       0.00000000 </v>
   <v>       0.00000000       0.00000000       0.00000000 </v>
   <v>       0.00000000       0.00000000       0.00000000 </v>
   <v>       0.00000000       0.00000000       0.00000000 </v>
   <v>       0.00000000       0.00000000       0.00000000 </v>
   <v>       0.00000000       0.00000000       0.00000000 </v>
   <v>       0.00000000       0.00000000       0.00000000 </v>
   <v>       0.00000000       0.00000000       0.00000000 </v>
   <v>       0.00000000       0.00000000       0.00000000 </v>
   <v>       0.00000000       0.00000000       0.00000000 </v>
   <v>       0.00000000       0.00000000       0.00000000 </v>
   <v>       0.00000000       0.00000000       0.00000000 </v>
   <v>       0.00000000       0.00000000       0.00000000 </v>
   <v>       0.00000000       0.00000000       0.00000000 </v>
   <v>       0.00000000       0.00000000       0.00000000 </v>
   <v>       0.00000000       0.00000000       0.00000000 </v>
   <v>       0.00000000       0.00000000       0.00000000 </v>
   <v>       0.00000000       0.00000000       0.00000000 </v>
   <v>       0.00000000       0.00000000       0.00000000 </v>
   <v>       0.00000000       0.00000000       0.00000000 </v>
   <v>       0.00000000       0.00000000       0.00000000 </v>
   <v>       0.00000000       0.00000000       0.00000000 </v>
   <v>       0.00000000       0.00000000       0.00000000 </v>
   <v>       0.00000000       0.00000000       0.00000000 </v>
   <v>       0.00000000       0.00000000       0.00000000 </v>
   <v>       0.00000000       0.00000000       0.00000000 </v>
   <v>       0.00000000       0.00000000       0.00000000 </v>
   <v>       0.00000000       0.00000000       0.00000000 </v>
   <v>       0.00000000       0.00000000       0.00000000 </v>
   <v>       0.00000000       0.00000000       0.00000000 </v>
   <v>       0.00000000       0.00000000       0.00000000 </v>
   <v>       0.00000000       0.00000000       0.00000000 </v>
   <v>       0.00000000       0.00000000       0.00000000 </v>
   <v>       0.00000000       0.00000000       0.00000000 </v>
   <v>       0.00000000       0.00000000       0.00000000 </v>
   <v>       0.00000000       0.00000000       0.00000000 </v>
   <v>       0.00000000       0.00000000       0.00000000 </v>
   <v>       0.00000000       0.00000000       0.00000000 </v>
   <v>       0.00000000       0.00000000       0.00000000 </v>
   <v>       0.00000000       0.00000000       0.00000000 </v>
   <v>       0.00000000       0.00000000       0.00000000 </v>
   <v>       0.00000000       0.00000000       0.00000000 </v>
   <v>       0.00000000       0.00000000       0.00000000 </v>
   <v>       0.00000000       0.00000000       0.00000000 </v>
   <v>       0.00000000       0.00000000       0.00000000 </v>
   <v>       0.00000000       0.00000000       0.00000000 </v>
   <v>       0.00000000       0.00000000       0.00000000 </v>
   <v>       0.00000000       0.00000000       0.00000000 </v>
   <v>       0.00000000       0.00000000       0.00000000 </v>
   <v>       0.00000000       0.00000000       0.00000000 </v>
   <v>       0.00000000       0.00000000       0.00000000 </v>
   <v>       0.00000000       0.00000000       0.00000000 </v>
   <v>       0.00000000       0.00000000       0.00000000 </v>
   <v>       0.00000000       0.00000000       0.00000000 </v>
   <v>       0.00000000       0.00000000       0.00000000 </v>
   <v>       0.00000000       0.00000000       0.00000000 </v>
   <v>       0.00000000       0.00000000       0.00000000 </v>
   <v>       0.00000000       0.00000000       0.00000000 </v>
   <v>       0.00000000       0.00000000       0.00000000 </v>
   <v>       0.00000000       0.00000000       0.00000000 </v>
   <v>       0.00000000       0.00000000       0.00000000 </v>
   <v>       0.00000000       0.00000000       0.00000000 </v>
   <v>       0.00000000       0.00000000       0.00000000 </v>
   <v>       0.00000000       0.00000000       0.00000000 </v>
   <v>       0.00000000       0.00000000       0.00000000 </v>
   <v>       0.00000000       0.00000000       0.00000000 </v>
   <v>       0.00000000       0.00000000       0.00000000 </v>
   <v>       0.00000000       0.00000000       0.00000000 </v>
   <v>       0.00000000       0.00000000       0.00000000 </v>
   <v>       0.00000000       0.00000000       0.00000000 </v>
   <v>       0.00000000       0.00000000       0.00000000 </v>
   <v>       0.00000000       0.00000000       0.00000000 </v>
   <v>       0.00000000       0.00000000       0.00000000 </v>
   <v>       0.00000000       0.00000000       0.00000000 </v>
   <v>       0.00000000       0.00000000       0.00000000 </v>
   <v>       0.00000000       0.00000000       0.00000000 </v>
   <v>       0.00000000       0.00000000       0.00000000 </v>
  </varray>
 </structure>
 <calculation>
  <scstep>
   <time name="dav">   37.15   37.16</time>
   <time name="total">   37.68   37.70</time>
   <energy>
    <i name="alphaZ">   2701.53174423 </i>
    <i name="ewald"> -44861.55141096 </i>
    <i name="hartreedc"> -18462.72804329 </i>
    <i name="XCdc">   3173.16058117 </i>
    <i name="pawpsdc">  50594.51003143 </i>
    <i name="pawaedc"> -49994.65612350 </i>
    <i name="eentropy">     -0.03739795 </i>
    <i name="bandstr">   1491.05030448 </i>
    <i name="atom">  64968.54023382 </i>
    <i name="e_fr_energy">   9609.81991944 </i>
    <i name="e_wo_entrp">   9609.85731739 </i>
    <i name="e_0_energy">   9609.83861842 </i>
   </energy>
  </scstep>
  <scstep>
   <time name="dav">   42.21   42.24</time>
   <time name="total">   42.21   42.24</time>
   <energy>
    <i name="e_fr_energy">     47.57412186 </i>
    <i name="e_wo_entrp">     47.57412186 </i>
    <i name="e_0_energy">     47.57412186 </i>
   </energy>
  </scstep>
  <scstep>
   <time name="dav">   43.79   43.79</time>
   <time name="total">   43.79   43.80</time>
   <energy>
    <i name="e_fr_energy">   -994.44655750 </i>
    <i name="e_wo_entrp">   -994.44655750 </i>
    <i name="e_0_energy">   -994.44655750 </i>
   </energy>
  </scstep>
  <scstep>
   <time name="dav">   47.34   47.35</time>
   <time name="total">   47.34   47.36</time>
   <energy>
    <i name="e_fr_energy">  -1045.89487942 </i>
    <i name="e_wo_entrp">  -1045.89487942 </i>
    <i name="e_0_energy">  -1045.89487942 </i>
   </energy>
  </scstep>
  <scstep>
   <time name="dav">   57.89   57.89</time>
   <time name="total">   59.34   59.34</time>
   <energy>
    <i name="e_fr_energy">  -1051.78442325 </i>
    <i name="e_wo_entrp">  -1051.78442325 </i>
    <i name="e_0_energy">  -1051.78442325 </i>
   </energy>
  </scstep>
  <scstep>
   <time name="dav">   42.53   42.53</time>
   <time name="total">   44.53   44.55</time>
   <energy>
    <i name="e_fr_energy">   -896.95779156 </i>
    <i name="e_wo_entrp">   -896.95779156 </i>
    <i name="e_0_energy">   -896.95779156 </i>
   </energy>
  </scstep>
  <scstep>
   <time name="dav">   45.69   45.69</time>
   <time name="total">   47.68   47.68</time>
   <energy>
    <i name="e_fr_energy">   -898.73792150 </i>
    <i name="e_wo_entrp">   -898.73732580 </i>
    <i name="e_0_energy">   -898.73762365 </i>
   </energy>
  </scstep>
  <scstep>
   <time name="dav">   48.46   48.46</time>
   <time name="total">   50.47   50.49</time>
   <energy>
    <i name="e_fr_energy">   -898.97299445 </i>
    <i name="e_wo_entrp">   -898.97299445 </i>
    <i name="e_0_energy">   -898.97299445 </i>
   </energy>
  </scstep>
  <scstep>
   <time name="dav">   48.80   48.81</time>
   <time name="total">   50.79   50.79</time>
   <energy>
    <i name="e_fr_energy">   -896.90663444 </i>
    <i name="e_wo_entrp">   -896.90638475 </i>
    <i name="e_0_energy">   -896.90650960 </i>
   </energy>
  </scstep>
  <scstep>
   <time name="dav">   43.58   43.59</time>
   <time name="total">   45.55   45.57</time>
   <energy>
    <i name="e_fr_energy">   -896.89979489 </i>
    <i name="e_wo_entrp">   -896.89715482 </i>
    <i name="e_0_energy">   -896.89847485 </i>
   </energy>
  </scstep>
  <scstep>
   <time name="dav">   41.64   41.65</time>
   <time name="total">   43.63   43.64</time>
   <energy>
    <i name="e_fr_energy">   -896.61833567 </i>
    <i name="e_wo_entrp">   -896.57930401 </i>
    <i name="e_0_energy">   -896.59881984 </i>
   </energy>
  </scstep>
  <scstep>
   <time name="dav">   50.63   50.63</time>
   <time name="total">   52.63   52.66</time>
   <energy>
    <i name="e_fr_energy">   -896.55166750 </i>
    <i name="e_wo_entrp">   -896.52856335 </i>
    <i name="e_0_energy">   -896.54011542 </i>
   </energy>
  </scstep>
  <scstep>
   <time name="dav">   41.16   41.17</time>
   <time name="total">   43.17   43.17</time>
   <energy>
    <i name="e_fr_energy">   -896.51908753 </i>
    <i name="e_wo_entrp">   -896.49901115 </i>
    <i name="e_0_energy">   -896.50904934 </i>
   </energy>
  </scstep>
  <scstep>
   <time name="dav">   42.66   42.66</time>
   <time name="total">   44.62   44.64</time>
   <energy>
    <i name="e_fr_energy">   -896.50728871 </i>
    <i name="e_wo_entrp">   -896.49458212 </i>
    <i name="e_0_energy">   -896.50093542 </i>
   </energy>
  </scstep>
  <scstep>
   <time name="dav">   46.11   46.11</time>
   <time name="total">   48.11   48.11</time>
   <energy>
    <i name="e_fr_energy">   -896.50696108 </i>
    <i name="e_wo_entrp">   -896.48770958 </i>
    <i name="e_0_energy">   -896.49733533 </i>
   </energy>
  </scstep>
  <scstep>
   <time name="dav">   43.09   43.09</time>
   <time name="total">   45.06   45.08</time>
   <energy>
    <i name="e_fr_energy">   -896.50240587 </i>
    <i name="e_wo_entrp">   -896.48221290 </i>
    <i name="e_0_energy">   -896.49230939 </i>
   </energy>
  </scstep>
  <scstep>
   <time name="dav">   42.89   42.90</time>
   <time name="total">   44.85   44.85</time>
   <energy>
    <i name="e_fr_energy">   -896.50260301 </i>
    <i name="e_wo_entrp">   -896.48308299 </i>
    <i name="e_0_energy">   -896.49284300 </i>
   </energy>
  </scstep>
  <scstep>
   <time name="dav">   42.76   42.77</time>
   <time name="total">   44.75   44.77</time>
   <energy>
    <i name="e_fr_energy">   -896.50189701 </i>
    <i name="e_wo_entrp">   -896.47832149 </i>
    <i name="e_0_energy">   -896.49010925 </i>
   </energy>
  </scstep>
  <scstep>
   <time name="dav">   49.44   49.44</time>
   <time name="total">   51.42   51.43</time>
   <energy>
    <i name="e_fr_energy">   -896.50179642 </i>
    <i name="e_wo_entrp">   -896.47998069 </i>
    <i name="e_0_energy">   -896.49088856 </i>
   </energy>
  </scstep>
  <scstep>
   <time name="dav">   42.17   42.17</time>
   <time name="total">   44.18   44.20</time>
   <energy>
    <i name="e_fr_energy">   -896.50182279 </i>
    <i name="e_wo_entrp">   -896.47849530 </i>
    <i name="e_0_energy">   -896.49015904 </i>
   </energy>
  </scstep>
  <scstep>
   <time name="dav">   42.47   42.47</time>
   <time name="total">   44.43   44.44</time>
   <energy>
    <i name="e_fr_energy">   -896.50183516 </i>
    <i name="e_wo_entrp">   -896.47874981 </i>
    <i name="e_0_energy">   -896.49029249 </i>
   </energy>
  </scstep>
  <scstep>
   <time name="dav">   45.08   45.08</time>
   <time name="total">   47.08   47.10</time>
   <energy>
    <i name="e_fr_energy">   -896.50182529 </i>
    <i name="e_wo_entrp">   -896.47867281 </i>
    <i name="e_0_energy">   -896.49024905 </i>
   </energy>
  </scstep>
  <scstep>
   <time name="dav">   40.44   40.44</time>
   <time name="total">   42.43   42.44</time>
   <energy>
    <i name="e_fr_energy">   -896.50182814 </i>
    <i name="e_wo_entrp">   -896.47878102 </i>
    <i name="e_0_energy">   -896.49030458 </i>
   </energy>
  </scstep>
  <scstep>
   <time name="dav">   38.02   38.02</time>
   <time name="total">   38.52   38.54</time>
   <energy>
    <i name="alphaZ">   2701.53174423 </i>
    <i name="ewald"> -44861.55141096 </i>
    <i name="hartreedc"> -20103.45418715 </i>
    <i name="XCdc">   3275.04665398 </i>
    <i name="pawpsdc">  94703.62237215 </i>
    <i name="pawaedc"> -94359.80293404 </i>
    <i name="eentropy">     -0.02294569 </i>
    <i name="bandstr">  -7220.41135421 </i>
    <i name="atom">  64968.54023382 </i>
    <i name="e_fr_energy">   -896.50182787 </i>
    <i name="e_wo_entrp">   -896.47888218 </i>
    <i name="e_0_energy">   -896.49035502 </i>
   </energy>
  </scstep>
  <structure>
   <crystal>
    <varray name="basis" >
     <v>      12.09378762       0.00000000       0.00000000 </v>
     <v>       0.00000000      12.09378762       0.00000000 </v>
     <v>       0.00000000       0.00000000      12.09378762 </v>
    </varray>
    <i name="volume">   1768.83373704 </i>
    <varray name="rec_basis" >
     <v>       0.08268708       0.00000000       0.00000000 </v>
     <v>       0.00000000       0.08268708       0.00000000 </v>
     <v>       0.00000000       0.00000000       0.08268708 </v>
    </varray>
   </crystal>
   <varray name="positions" >
    <v>       0.02409084       0.43494311       0.60486379 </v>
    <v>       0.78384045       0.42398087       0.76363199 </v>
    <v>       0.73385393       0.52308454       0.51131401 </v>
    <v>       0.26568458       0.00387953       0.33044846 </v>
    <v>       0.04563175       0.81904203       0.70310818 </v>
    <v>       0.46392582       0.64481305       0.68190052 </v>
    <v>       0.25896214       0.79309248       0.22826528 </v>
    <v>       0.38264033       0.60472546       0.03712753 </v>
    <v>       0.99478036       0.67172074       0.37055450 </v>
    <v>       0.54360148       0.94993434       0.58136409 </v>
    <v>       0.97804521       0.29118102       0.18905677 </v>
    <v>       0.32379255       0.70183049       0.50011281 </v>
    <v>       0.10141521       0.54929648       0.80537711 </v>
    <v>       0.11368906       0.16068206       0.76472126 </v>
    <v>       0.80056862       0.12205036       0.64631924 </v>
    <v>       0.77845362       0.69088634       0.02084780 </v>
    <v>       0.82884135       0.87420020       0.53084655 </v>
    <v>       0.89581120       0.59893885       0.16926740 </v>
    <v>       0.76723997       0.66919540       0.74743556 </v>
    <v>       0.66402178       0.16147480       0.01587428 </v>
    <v>       0.54809800       0.03488186       0.27221597 </v>
    <v>       0.49214594       0.84408711       0.87967920 </v>
    <v>       0.65136576       0.32883229       0.27777635 </v>
    <v>       0.11251004       0.02162851       0.09584976 </v>
    <v>       0.21121295       0.49652237       0.14808609 </v>
    <v>       0.35721400       0.05888665       0.79098851 </v>
    <v>       0.39580730       0.22517124       0.54879785 </v>
    <v>       0.19383032       0.74032588       0.96610582 </v>
    <v>       0.44322583       0.39563253       0.83713574 </v>
    <v>       0.03416105       0.75402458       0.09958195 </v>
    <v>       0.52189739       0.78655507       0.38365154 </v>
    <v>       0.79361395       0.41436505       0.04918157 </v>
    <v>       0.14074205       0.27757495       0.34549718 </v>
    <v>       0.94663611       0.11234132       0.92601818 </v>
    <v>       0.27476993       0.27537994       0.06707722 </v>
    <v>       0.22215727       0.98276290       0.57873761 </v>
    <v>       0.22403095       0.33188210       0.84196695 </v>
    <v>       0.37903158       0.27726454       0.29406115 </v>
    <v>       0.98152377       0.09121188       0.42509331 </v>
    <v>       0.94718494       0.36220327       0.93065180 </v>
    <v>       0.87032270       0.66275741       0.59441053 </v>
    <v>       0.88420345       0.31666030       0.49644415 </v>
    <v>       0.88912581       0.91214166       0.95755543 </v>
    <v>       0.76140468       0.11234072       0.35259033 </v>
    <v>       0.26222926       0.46073193       0.46547009 </v>
    <v>       0.55915972       0.53623946       0.28657360 </v>
    <v>       0.54738987       0.20044440       0.73891059 </v>
    <v>       0.26496747       0.80326756       0.68910178 </v>
    <v>       0.06968549       0.90004888       0.41451734 </v>
    <v>       0.51061197       0.44513069       0.52605341 </v>
    <v>       0.40625288       0.04726400       0.07064445 </v>
    <v>       0.70043952       0.91656240       0.81963254 </v>
    <v>       0.56471116       0.54403788       0.89828155 </v>
    <v>       0.56329074       0.82948242       0.15533205 </v>
    <v>       0.68085765       0.56018150       0.24081857 </v>
    <v>       0.16563700       0.81323495       0.09408520 </v>
    <v>       0.95538101       0.44315985       0.83069486 </v>
    <v>       0.30849346       0.43720345       0.80881192 </v>
    <v>       0.67011592       0.20519776       0.72234518 </v>
    <v>       0.05982676       0.15348241       0.33061169 </v>
    <v>       0.06935891       0.91602327       0.28630643 </v>
    <v>       0.81096260       0.32309589       0.91848393 </v>
    <v>       0.19910888       0.57398664       0.49120679 </v>
    <v>       0.56551410       0.53830734       0.59824941 </v>
    <v>       0.48341537       0.26512799       0.83045213 </v>
    <v>       0.06172015       0.64460731       0.18230715 </v>
    <v>       0.79678566       0.55061254       0.65230092 </v>
    <v>       0.83044194       0.67405567       0.44970546 </v>
    <v>       0.24709510       0.38535088       0.97901894 </v>
    <v>       0.14502687       0.33911068       0.73852267 </v>
    <v>       0.62520308       0.75154101       0.05985044 </v>
    <v>       0.77107338       0.85552026       0.98048544 </v>
    <v>       0.76010857       0.24648512       0.42784755 </v>
    <v>       0.35790503       0.97028272       0.17301693 </v>
    <v>       0.34429878       0.97602104       0.55392470 </v>
    <v>       0.47528574       0.45918709       0.96595372 </v>
    <v>       0.74708044       0.54500778       0.05927983 </v>
    <v>       0.18733722       0.34932343       0.52967667 </v>
    <v>       0.38237953       0.33326610       0.18334900 </v>
    <v>       0.14420392       0.23385473       0.09747067 </v>
    <v>       0.48483244       0.24863597       0.34899514 </v>
    <v>       0.53165867       0.46120675       0.76896818 </v>
    <v>       0.90498119       0.14918624       0.80803601 </v>
    <v>       0.27075091       0.18758662       0.31788917 </v>
    <v>       0.69021306       0.53279036       0.86266326 </v>
    <v>       0.43768810       0.77020683       0.15780781 </v>
    <v>       0.99698204       0.88616334       0.03018310 </v>
    <v>       0.58675372       0.45130602       0.39102458 </v>
    <v>       0.46078408       0.65690079       0.36230242 </v>
    <v>       0.96831583       0.19104655       0.50863001 </v>
    <v>       0.37960956       0.46569699       0.52621292 </v>
    <v>       0.18169239       0.85175549       0.60958586 </v>
    <v>       0.99474167       0.69337371       0.97996413 </v>
    <v>       0.15573137       0.03017385       0.47796323 </v>
    <v>       0.58939893       0.95315127       0.10681369 </v>
    <v>       0.96265453       0.96677413       0.48566689 </v>
    <v>       0.38209132       0.82327487       0.72096108 </v>
    <v>       0.26798839       0.20414592       0.86747147 </v>
    <v>       0.03314884       0.79472837       0.47615159 </v>
    <v>       0.62278081       0.82869173       0.29517516 </v>
    <v>       0.53086162       0.75126308       0.52006011 </v>
    <v>       0.89281567       0.10795824       0.32104720 </v>
    <v>       0.47812579       0.48853150       0.20324747 </v>
    <v>       0.33624780       0.79099623       0.96205757 </v>
    <v>       0.94839909       0.90501628       0.83052745 </v>
    <v>       0.50549806       0.66217943       0.89754793 </v>
    <v>       0.47096125       0.12834346       0.67464504 </v>
    <v>       0.29782522       0.66923977       0.69901149 </v>
    <v>       0.35253334       0.00329192       0.96333420 </v>
    <v>       0.94842651       0.48156846       0.02762804 </v>
    <v>       0.77069300       0.32749416       0.15166071 </v>
    <v>       0.58805806       0.99620563       0.87484380 </v>
    <v>       0.54698104       0.32674703       0.59333644 </v>
    <v>       0.85700522       0.03144956       0.99968319 </v>
    <v>       0.32268384       0.41069175       0.34738584 </v>
    <v>       0.17163780       0.78227603       0.35744379 </v>
    <v>       0.72773234       0.03054886       0.45921500 </v>
    <v>       0.94633855       0.22423627       0.01445667 </v>
    <v>       0.52285553       0.15133704       0.09953067 </v>
    <v>       0.73710070       0.94922923       0.69408882 </v>
    <v>       0.09444444       0.35141947       0.90794009 </v>
    <v>       0.21748355       0.62958539       0.00799201 </v>
    <v>       0.86173969       0.78512357       0.66302115 </v>
    <v>       0.67123892       0.79646180       0.76764539 </v>
    <v>       0.15596281       0.75274270       0.84340111 </v>
    <v>       0.12325060       0.39754409       0.28556121 </v>
    <v>       0.93835786       0.77627818       0.20546728 </v>
    <v>       0.92978359       0.43200058       0.47159732 </v>
    <v>       0.86638036       0.31642347       0.63523989 </v>
    <v>       0.06509223       0.04378623       0.92918789 </v>
    <v>       0.01287281       0.62847174       0.62694902 </v>
    <v>       0.34551479       0.16732711       0.06413275 </v>
    <v>       0.18295921       0.02118472       0.70550931 </v>
    <v>       0.44984153       0.88441295       0.37531057 </v>
    <v>       0.68301959       0.15301556       0.26219751 </v>
   </varray>
  </structure>
  <varray name="forces" >
   <v>       3.74286344       0.26397150       3.60104189 </v>
   <v>      -0.47094938      -4.03349899       0.81251872 </v>
   <v>      -3.44894595      -1.74280205      -6.42410578 </v>
   <v>       1.15870569      -0.25827531      -0.59368087 </v>
   <v>      -4.36088144      -0.35355737       2.76877886 </v>
   <v>       1.72956303       0.70951280       2.02519202 </v>
   <v>       4.87676532      -0.77499599      -2.45884661 </v>
   <v>       3.51660785       2.50095152       0.42144692 </v>
   <v>       2.42080780      -0.31706132      -1.54734761 </v>
   <v>      -0.20092758      -1.19654627      -0.08222682 </v>
   <v>      -0.23944483      -1.00800384      -2.01129216 </v>
   <v>      -0.55157421       0.01536551      -2.79507764 </v>
   <v>       0.58988465       0.51521050       1.58358243 </v>
   <v>      -3.02713677       0.85401452       1.51249818 </v>
   <v>       1.28729900       0.36308116       0.53204286 </v>
   <v>       0.29795505       4.02261983      -1.61227669 </v>
   <v>      -3.05192497       1.02856767      -2.92925472 </v>
   <v>      -0.87071535      -1.05455646       1.09804944 </v>
   <v>      -3.40344527       2.59538163       9.98497052 </v>
   <v>       1.17904186      -1.44576054      -0.04832884 </v>
   <v>      -0.82293756      -0.34091098      -1.32678759 </v>
   <v>      -1.87521210      -1.36147361       2.72850091 </v>
   <v>      -1.17150222      -0.51463919      -0.01271062 </v>
   <v>       0.35175237      -0.47804880      -0.31690016 </v>
   <v>      -1.49756294      -0.27941297       0.44573283 </v>
   <v>      -1.81411028      -1.14261472       2.91118987 </v>
   <v>      -0.78203824       1.29625477      -1.74701903 </v>
   <v>       4.72174941       9.44573059       0.17895062 </v>
   <v>      -2.95658893       1.07913708       2.10320809 </v>
   <v>      -2.76936085       2.95411792       0.69797976 </v>
   <v>       3.30860240      -7.56223900      -0.00807106 </v>
   <v>       0.19932041       2.27834443      -0.60461902 </v>
   <v>       2.83926457      -1.47573545       1.40789534 </v>
   <v>       0.75008439       0.01330030       2.23234978 </v>
   <v>      -1.44451519      -0.54877218       0.60314175 </v>
   <v>      -2.38741007       1.01454626       4.37539151 </v>
   <v>      -1.74312319       0.36131989       4.31302619 </v>
   <v>      -6.03513487       2.68999092       0.69070099 </v>
   <v>      -0.00680467       0.23714287      -2.38595555 </v>
   <v>       5.40212264      -1.95294714       2.02069444 </v>
   <v>       7.98914292      -0.11222876      -4.12674168 </v>
   <v>      -4.10877282      -7.84513276       2.18654163 </v>
   <v>       3.48541055      -2.34780544      -2.22309131 </v>
   <v>       1.72322284       1.25522570       4.50352576 </v>
   <v>      -1.91894557      -3.10844648      -1.06554595 </v>
   <v>      -0.22876708       4.59525303       0.17281766 </v>
   <v>       3.15895219       3.67804856       0.16407459 </v>
   <v>       1.28040123      -7.37975456       7.37511208 </v>
   <v>       1.74224236      -2.61807376      -1.81845341 </v>
   <v>       2.19880358      -1.91370919      -0.16012009 </v>
   <v>       2.13541514       2.27772869       1.77993842 </v>
   <v>      -0.62472291       0.64466415       0.90451255 </v>
   <v>      -0.16382470       0.12902687      -1.59348946 </v>
   <v>       0.09982166      -3.31018799      -2.44673488 </v>
   <v>       0.65227482       0.09981503       2.25698248 </v>
   <v>      -2.30884973      -0.70699663      -3.56795029 </v>
   <v>      -2.10124940       3.32314466      -5.10358614 </v>
   <v>       3.94958564      -0.99484183      -1.13121025 </v>
   <v>       2.23625299       0.24461105       1.04895783 </v>
   <v>       4.33508436       3.13758608      -0.85396842 </v>
   <v>      -0.19566990       4.76279392      -1.43692760 </v>
   <v>      -2.20401517       2.72936000       2.95863059 </v>
   <v>      -0.18012153      -1.00856292      -1.12943265 </v>
   <v>       2.41840550       0.44899135      -2.23518899 </v>
   <v>      -1.13276903       0.85362834       1.98072131 </v>
   <v>       3.76039086      -3.32627957       0.64482946 </v>
   <v>       4.07707911       0.83824455      -2.55854878 </v>
   <v>      -0.06596330      -0.47537967       4.96266855 </v>
   <v>       4.14675104      -1.09280998       4.71072308 </v>
   <v>      -0.52480297       0.35614125      -4.84736350 </v>
   <v>      -1.34985259       0.04622461       1.79364187 </v>
   <v>      -0.92976144       1.80838453      -4.08756698 </v>
   <v>       3.09081824       1.91543392       1.04903597 </v>
   <v>      -0.36561471       2.02877399       1.36642304 </v>
   <v>       4.12961877       1.06732277      -0.98623888 </v>
   <v>       1.06655094      -1.48307926      -1.62605341 </v>
   <v>      -0.35217700      -8.58321358       0.43925660 </v>
   <v>       0.95951078       0.34262154      -2.93810388 </v>
   <v>      -3.30052863      -0.08780582      -7.56247321 </v>
   <v>       1.38775381       0.92600075       1.95727182 </v>
   <v>       4.03653240      -2.84180840       3.82803971 </v>
   <v>       0.01445873       1.54891021       0.96885009 </v>
   <v>       0.27762366       0.41522344      -1.63814858 </v>
   <v>      -0.32848834       2.30276335       1.08775491 </v>
   <v>       0.81439705       1.65822541       0.78028921 </v>
   <v>       1.31506489       0.14295643       0.98845364 </v>
   <v>       0.12135368      -1.28826521       2.80880996 </v>
   <v>      -1.76704715      -0.09617224       4.82872558 </v>
   <v>       1.52900625      -0.39958396      -1.16409247 </v>
   <v>      -1.22752801       2.20187633       1.66042209 </v>
   <v>       1.70218629       0.35607751       2.21707365 </v>
   <v>       0.04568729       0.54186074      -4.44346306 </v>
   <v>       0.10057476      -0.77313366       0.91808254 </v>
   <v>      -2.12250139      -0.55084378      -1.48869727 </v>
   <v>      -1.41912842       0.12280743       1.56530658 </v>
   <v>       1.33454907       4.57112461      -1.23770716 </v>
   <v>       6.32153557       5.99209671       0.95800504 </v>
   <v>      -0.19799241       1.24083379      -2.06037337 </v>
   <v>      -3.12861557      -1.36133183       4.46703573 </v>
   <v>      -0.41632378      -0.70170519      -0.44515684 </v>
   <v>       1.02729848       2.51619586       0.66313207 </v>
   <v>      -2.96241517      -1.53603828      -0.07996848 </v>
   <v>      -1.32165188       0.54941866      -1.94739393 </v>
   <v>      -2.82700778      -1.66771592      -0.63436385 </v>
   <v>      -2.76036686      -0.24270659       0.29776499 </v>
   <v>       0.23627977      -1.82472341      -1.16993765 </v>
   <v>      -2.25288565      -3.94941012      -3.22372221 </v>
   <v>      -4.58848616      -0.90417828      -2.60752742 </v>
   <v>       0.96513695      -1.60136838      -3.66194689 </v>
   <v>      -2.42393217      -5.15678875       1.35155744 </v>
   <v>       1.75424338       1.05308979      -2.40978619 </v>
   <v>       3.15585610      -0.25005472      -2.14344413 </v>
   <v>      -1.98660869       0.08726832      -1.57021503 </v>
   <v>      -0.69281246       4.73056364      -0.39394563 </v>
   <v>      -1.40349361      -0.76840930       1.64267144 </v>
   <v>       1.57366992       0.20801076       4.91900724 </v>
   <v>      -0.43941223       0.18626332      -0.92903684 </v>
   <v>       0.40261360       0.83650214      -0.61792479 </v>
   <v>      -0.67647002      -2.35441185       0.66572801 </v>
   <v>       0.24155097       3.79735739      -1.42171641 </v>
   <v>      -2.80452067      -1.26162374       1.54678848 </v>
   <v>      -0.55658553      -9.19938059       2.64237613 </v>
   <v>       0.88199316      -3.98865059      -0.31600523 </v>
   <v>      -4.11637742       0.03114731       2.27236256 </v>
   <v>      -1.25778947       0.94856166      -4.97643124 </v>
   <v>      -1.89080365      -1.81584766      -0.21286479 </v>
   <v>      -1.87374707      -0.39416863      -1.14153546 </v>
   <v>      -1.19699365       2.22264974      -4.59178400 </v>
   <v>      -0.25471653       0.48590977      -2.79843423 </v>
   <v>      -0.34265213       3.29363912      -0.99289940 </v>
   <v>      -3.42473966      -0.27064098       0.18253158 </v>
   <v>      -2.34729712       1.04600062       0.09077201 </v>
   <v>       2.01696960      -1.11351767      -2.52360068 </v>
   <v>      -5.43942022       6.90824846       0.52472083 </v>
   <v>      -0.82699456      -1.19452942      -1.93539689 </v>
  </varray>
  <varray name="stress" >
   <v>     113.41754266      -3.88984965      16.57842262 </v>
   <v>      -3.88984966     104.04678624       1.60916372 </v>
   <v>      16.57842268       1.60916374     100.60446100 </v>
  </varray>
  <energy>
   <i name="e_fr_energy">   -896.50182787 </i>
   <i name="e_wo_entrp">   -896.49035502 </i>
   <i name="e_0_energy">     -0.02294569 </i>
  </energy>
  <time name="totalsc"> 1150.25 1150.60</time>
  <eigenvalues>
   <array>
    <dimension dim="1">band</dimension>
    <dimension dim="2">kpoint</dimension>
[...]
       <r>     4.1523    10.4071   852.0282 </r>
       <r>     4.3259    11.6661   854.0536 </r>
       <r>     4.4995    23.6785   858.1645 </r>
       <r>     4.6731    31.7144   863.6706 </r>
       <r>     4.8468    13.2820   865.9766 </r>
       <r>     5.0204     0.1350   866.0000 </r>
       <r>     5.1940     0.0000   866.0000 </r>
       <r>     5.3676     0.8505   866.1477 </r>
       <r>     5.5412     8.5048   867.6242 </r>
       <r>     5.7148    13.1596   869.9089 </r>
       <r>     5.8884    18.6724   873.1507 </r>
       <r>     6.0621    16.6832   876.0472 </r>
       <r>     6.2357    16.0281   878.8299 </r>
       <r>     6.4093    11.6876   880.8590 </r>
       <r>     6.5829    22.1227   884.6999 </r>
       <r>     6.7565    31.6269   890.1908 </r>
       <r>     6.9301    34.5103   896.1823 </r>
       <r>     7.1037    35.8870   902.4128 </r>
       <r>     7.2774    45.6993   910.3469 </r>
       <r>     7.4510    36.7636   916.7296 </r>
       <r>     7.6246    41.7808   923.9833 </r>
       <r>     7.7982    57.0127   933.8816 </r>
       <r>     7.9718    59.6517   944.2380 </r>
       <r>     8.1454    57.8933   954.2891 </r>
       <r>     8.3190    53.3304   963.5481 </r>
       <r>     8.4927    62.7070   974.4350 </r>
       <r>     8.6663    58.3507   984.5655 </r>
       <r>     8.8399    69.9058   996.7022 </r>
       <r>     9.0135    75.8607  1009.8728 </r>
       <r>     9.1871    75.9194  1023.0535 </r>
       <r>     9.3607    81.3763  1037.1816 </r>
       <r>     9.5344    16.2318  1039.9997 </r>
       <r>     9.7080     0.0018  1040.0000 </r>
       <r>     9.8816     0.0000  1040.0000 </r>
       <r>    10.0552     0.0000  1040.0000 </r>
       <r>    10.2288     0.0000  1040.0000 </r>
       <r>    10.4024     0.0000  1040.0000 </r>
       <r>    10.5760     0.0000  1040.0000 </r>
       <r>    10.7497     0.0000  1040.0000 </r>
       <r>    10.9233     0.0000  1040.0000 </r>
       <r>    11.0969     0.0000  1040.0000 </r>
       <r>    11.2705     0.0000  1040.0000 </r>
       <r>    11.4441     0.0000  1040.0000 </r>
       <r>    11.6177     0.0000  1040.0000 </r>
       <r>    11.7913     0.0000  1040.0000 </r>
      </set>
     </set>
    </array>
   </total>
  </dos>
 </calculation>
 <structure name="finalpos" >
  <crystal>
   <varray name="basis" >
    <v>      12.09378762       0.00000000       0.00000000 </v>
    <v>       0.00000000      12.09378762       0.00000000 </v>
    <v>       0.00000000       0.00000000      12.09378762 </v>
   </varray>
   <i name="volume">   1768.83373704 </i>
   <varray name="rec_basis" >
    <v>       0.08268708       0.00000000       0.00000000 </v>
    <v>       0.00000000       0.08268708       0.00000000 </v>
    <v>       0.00000000       0.00000000       0.08268708 </v>
   </varray>
  </crystal>
  <varray name="positions" >
   <v>       0.02409084       0.43494311       0.60486379 </v>
   <v>       0.78384045       0.42398087       0.76363199 </v>
   <v>       0.73385393       0.52308454       0.51131401 </v>
   <v>       0.26568458       0.00387953       0.33044846 </v>
   <v>       0.04563175       0.81904203       0.70310818 </v>
   <v>       0.46392582       0.64481305       0.68190052 </v>
   <v>       0.25896214       0.79309248       0.22826528 </v>
   <v>       0.38264033       0.60472546       0.03712753 </v>
   <v>       0.99478036       0.67172074       0.37055450 </v>
   <v>       0.54360148       0.94993434       0.58136409 </v>
   <v>       0.97804521       0.29118102       0.18905677 </v>
   <v>       0.32379255       0.70183049       0.50011281 </v>
   <v>       0.10141521       0.54929648       0.80537711 </v>
   <v>       0.11368906       0.16068206       0.76472126 </v>
   <v>       0.80056862       0.12205036       0.64631924 </v>
   <v>       0.77845362       0.69088634       0.02084780 </v>
   <v>       0.82884135       0.87420020       0.53084655 </v>
   <v>       0.89581120       0.59893885       0.16926740 </v>
   <v>       0.76723997       0.66919540       0.74743556 </v>
   <v>       0.66402178       0.16147480       0.01587428 </v>
   <v>       0.54809800       0.03488186       0.27221597 </v>
   <v>       0.49214594       0.84408711       0.87967920 </v>
   <v>       0.65136576       0.32883229       0.27777635 </v>
   <v>       0.11251004       0.02162851       0.09584976 </v>
   <v>       0.21121295       0.49652237       0.14808609 </v>
   <v>       0.35721400       0.05888665       0.79098851 </v>
   <v>       0.39580730       0.22517124       0.54879785 </v>
   <v>       0.19383032       0.74032588       0.96610582 </v>
   <v>       0.44322583       0.39563253       0.83713574 </v>
   <v>       0.03416105       0.75402458       0.09958195 </v>
   <v>       0.52189739       0.78655507       0.38365154 </v>
   <v>       0.79361395       0.41436505       0.04918157 </v>
   <v>       0.14074205       0.27757495       0.34549718 </v>
   <v>       0.94663611       0.11234132       0.92601818 </v>
   <v>       0.27476993       0.27537994       0.06707722 </v>
   <v>       0.22215727       0.98276290       0.57873761 </v>
   <v>       0.22403095       0.33188210       0.84196695 </v>
   <v>       0.37903158       0.27726454       0.29406115 </v>
   <v>       0.98152377       0.09121188       0.42509331 </v>
   <v>       0.94718494       0.36220327       0.93065180 </v>
   <v>       0.87032270       0.66275741       0.59441053 </v>
   <v>       0.88420345       0.31666030       0.49644415 </v>
   <v>       0.88912581       0.91214166       0.95755543 </v>
   <v>       0.76140468       0.11234072       0.35259033 </v>
   <v>       0.26222926       0.46073193       0.46547009 </v>
   <v>       0.55915972       0.53623946       0.28657360 </v>
   <v>       0.54738987       0.20044440       0.73891059 </v>
   <v>       0.26496747       0.80326756       0.68910178 </v>
   <v>       0.06968549       0.90004888       0.41451734 </v>
   <v>       0.51061197       0.44513069       0.52605341 </v>
   <v>       0.40625288       0.04726400       0.07064445 </v>
   <v>       0.70043952       0.91656240       0.81963254 </v>
   <v>       0.56471116       0.54403788       0.89828155 </v>
   <v>       0.56329074       0.82948242       0.15533205 </v>
   <v>       0.68085765       0.56018150       0.24081857 </v>
   <v>       0.16563700       0.81323495       0.09408520 </v>
   <v>       0.95538101       0.44315985       0.83069486 </v>
   <v>       0.30849346       0.43720345       0.80881192 </v>
   <v>       0.67011592       0.20519776       0.72234518 </v>
   <v>       0.05982676       0.15348241       0.33061169 </v>
   <v>       0.06935891       0.91602327       0.28630643 </v>
   <v>       0.81096260       0.32309589       0.91848393 </v>
   <v>       0.19910888       0.57398664       0.49120679 </v>
   <v>       0.56551410       0.53830734       0.59824941 </v>
   <v>       0.48341537       0.26512799       0.83045213 </v>
   <v>       0.06172015       0.64460731       0.18230715 </v>
   <v>       0.79678566       0.55061254       0.65230092 </v>
   <v>       0.83044194       0.67405567       0.44970546 </v>
   <v>       0.24709510       0.38535088       0.97901894 </v>
   <v>       0.14502687       0.33911068       0.73852267 </v>
   <v>       0.62520308       0.75154101       0.05985044 </v>
   <v>       0.77107338       0.85552026       0.98048544 </v>
   <v>       0.76010857       0.24648512       0.42784755 </v>
   <v>       0.35790503       0.97028272       0.17301693 </v>
   <v>       0.34429878       0.97602104       0.55392470 </v>
   <v>       0.47528574       0.45918709       0.96595372 </v>
   <v>       0.74708044       0.54500778       0.05927983 </v>
   <v>       0.18733722       0.34932343       0.52967667 </v>
   <v>       0.38237953       0.33326610       0.18334900 </v>
   <v>       0.14420392       0.23385473       0.09747067 </v>
   <v>       0.48483244       0.24863597       0.34899514 </v>
   <v>       0.53165867       0.46120675       0.76896818 </v>
   <v>       0.90498119       0.14918624       0.80803601 </v>
   <v>       0.27075091       0.18758662       0.31788917 </v>
   <v>       0.69021306       0.53279036       0.86266326 </v>
   <v>       0.43768810       0.77020683       0.15780781 </v>
   <v>       0.99698204       0.88616334       0.03018310 </v>
   <v>       0.58675372       0.45130602       0.39102458 </v>
   <v>       0.46078408       0.65690079       0.36230242 </v>
   <v>       0.96831583       0.19104655       0.50863001 </v>
   <v>       0.37960956       0.46569699       0.52621292 </v>
   <v>       0.18169239       0.85175549       0.60958586 </v>
   <v>       0.99474167       0.69337371       0.97996413 </v>
   <v>       0.15573137       0.03017385       0.47796323 </v>
   <v>       0.58939893       0.95315127       0.10681369 </v>
   <v>       0.96265453       0.96677413       0.48566689 </v>
   <v>       0.38209132       0.82327487       0.72096108 </v>
   <v>       0.26798839       0.20414592       0.86747147 </v>
   <v>       0.03314884       0.79472837       0.47615159 </v>
   <v>       0.62278081       0.82869173       0.29517516 </v>
   <v>       0.53086162       0.75126308       0.52006011 </v>
   <v>       0.89281567       0.10795824       0.32104720 </v>
   <v>       0.47812579       0.48853150       0.20324747 </v>
   <v>       0.33624780       0.79099623       0.96205757 </v>
   <v>       0.94839909       0.90501628       0.83052745 </v>
   <v>       0.50549806       0.66217943       0.89754793 </v>
   <v>       0.47096125       0.12834346       0.67464504 </v>
   <v>       0.29782522       0.66923977       0.69901149 </v>
   <v>       0.35253334       0.00329192       0.96333420 </v>
   <v>       0.94842651       0.48156846       0.02762804 </v>
   <v>       0.77069300       0.32749416       0.15166071 </v>
   <v>       0.58805806       0.99620563       0.87484380 </v>
   <v>       0.54698104       0.32674703       0.59333644 </v>
   <v>       0.85700522       0.03144956       0.99968319 </v>
   <v>       0.32268384       0.41069175       0.34738584 </v>
   <v>       0.17163780       0.78227603       0.35744379 </v>
   <v>       0.72773234       0.03054886       0.45921500 </v>
   <v>       0.94633855       0.22423627       0.01445667 </v>
   <v>       0.52285553       0.15133704       0.09953067 </v>
   <v>       0.73710070       0.94922923       0.69408882 </v>
   <v>       0.09444444       0.35141947       0.90794009 </v>
   <v>       0.21748355       0.62958539       0.00799201 </v>
   <v>       0.86173969       0.78512357       0.66302115 </v>
   <v>       0.67123892       0.79646180       0.76764539 </v>
   <v>       0.15596281       0.75274270       0.84340111 </v>
   <v>       0.12325060       0.39754409       0.28556121 </v>
   <v>       0.93835786       0.77627818       0.20546728 </v>
   <v>       0.92978359       0.43200058       0.47159732 </v>
   <v>       0.86638036       0.31642347       0.63523989 </v>
   <v>       0.06509223       0.04378623       0.92918789 </v>
   <v>       0.01287281       0.62847174       0.62694902 </v>
   <v>       0.34551479       0.16732711       0.06413275 </v>
   <v>       0.18295921       0.02118472       0.70550931 </v>
   <v>       0.44984153       0.88441295       0.37531057 </v>
   <v>       0.68301959       0.15301556       0.26219751 </v>
  </varray>
  <varray name="velocities" >
   <v>       0.00000000       0.00000000       0.00000000 </v>
   <v>       0.00000000       0.00000000       0.00000000 </v>
   <v>       0.00000000       0.00000000       0.00000000 </v>
   <v>       0.00000000       0.00000000       0.00000000 </v>
   <v>       0.00000000       0.00000000       0.00000000 </v>
   <v>       0.00000000       0.00000000       0.00000000 </v>
   <v>       0.00000000       0.00000000       0.00000000 </v>
   <v>       0.00000000       0.00000000       0.00000000 </v>
   <v>       0.00000000       0.00000000       0.00000000 </v>
   <v>       0.00000000       0.00000000       0.00000000 </v>
   <v>       0.00000000       0.00000000       0.00000000 </v>
   <v>       0.00000000       0.00000000       0.00000000 </v>
   <v>       0.00000000       0.00000000       0.00000000 </v>
   <v>       0.00000000       0.00000000       0.00000000 </v>
   <v>       0.00000000       0.00000000       0.00000000 </v>
   <v>       0.00000000       0.00000000       0.00000000 </v>
   <v>       0.00000000       0.00000000       0.00000000 </v>
   <v>       0.00000000       0.00000000       0.00000000 </v>
   <v>       0.00000000       0.00000000       0.00000000 </v>
   <v>       0.00000000       0.00000000       0.00000000 </v>
   <v>       0.00000000       0.00000000       0.00000000 </v>
   <v>       0.00000000       0.00000000       0.00000000 </v>
   <v>       0.00000000       0.00000000       0.00000000 </v>
   <v>       0.00000000       0.00000000       0.00000000 </v>
   <v>       0.00000000       0.00000000       0.00000000 </v>
   <v>       0.00000000       0.00000000       0.00000000 </v>
   <v>       0.00000000       0.00000000       0.00000000 </v>
   <v>       0.00000000       0.00000000       0.00000000 </v>
   <v>       0.00000000       0.00000000       0.00000000 </v>
   <v>       0.00000000       0.00000000       0.00000000 </v>
   <v>       0.00000000       0.00000000       0.00000000 </v>
   <v>       0.00000000       0.00000000       0.00000000 </v>
   <v>       0.00000000       0.00000000       0.00000000 </v>
   <v>       0.00000000       0.00000000       0.00000000 </v>
   <v>       0.00000000       0.00000000       0.00000000 </v>
   <v>       0.00000000       0.00000000       0.00000000 </v>
   <v>       0.00000000       0.00000000       0.00000000 </v>
   <v>       0.00000000       0.00000000       0.00000000 </v>
   <v>       0.00000000       0.00000000       0.00000000 </v>
   <v>       0.00000000       0.00000000       0.00000000 </v>
   <v>       0.00000000       0.00000000       0.00000000 </v>
   <v>       0.00000000       0.00000000       0.00000000 </v>
   <v>       0.00000000       0.00000000       0.00000000 </v>
   <v>       0.00000000       0.00000000       0.00000000 </v>
   <v>       0.00000000       0.00000000       0.00000000 </v>
   <v>       0.00000000       0.00000000       0.00000000 </v>
   <v>       0.00000000       0.00000000       0.00000000 </v>
   <v>       0.00000000       0.00000000       0.00000000 </v>
   <v>       0.00000000       0.00000000       0.00000000 </v>
   <v>       0.00000000       0.00000000       0.00000000 </v>
   <v>       0.00000000       0.00000000       0.00000000 </v>
   <v>       0.00000000       0.00000000       0.00000000 </v>
   <v>       0.00000000       0.00000000       0.00000000 </v>
   <v>       0.00000000       0.00000000       0.00000000 </v>
   <v>       0.00000000       0.00000000       0.00000000 </v>
   <v>       0.00000000       0.00000000       0.00000000 </v>
   <v>       0.00000000       0.00000000       0.00000000 </v>
   <v>       0.00000000       0.00000000       0.00000000 </v>
   <v>       0.00000000       0.00000000       0.00000000 </v>
   <v>       0.00000000       0.00000000       0.00000000 </v>
   <v>       0.00000000       0.00000000       0.00000000 </v>
   <v>       0.00000000       0.00000000       0.00000000 </v>
   <v>       0.00000000       0.00000000       0.00000000 </v>
   <v>       0.00000000       0.00000000       0.00000000 </v>
   <v>       0.00000000       0.00000000       0.00000000 </v>
   <v>       0.00000000       0.00000000       0.00000000 </v>
   <v>       0.00000000       0.00000000       0.00000000 </v>
   <v>       0.00000000       0.00000000       0.00000000 </v>
   <v>       0.00000000       0.00000000       0.00000000 </v>
   <v>       0.00000000       0.00000000       0.00000000 </v>
   <v>       0.00000000       0.00000000       0.00000000 </v>
   <v>       0.00000000       0.00000000       0.00000000 </v>
   <v>       0.00000000       0.00000000       0.00000000 </v>
   <v>       0.00000000       0.00000000       0.00000000 </v>
   <v>       0.00000000       0.00000000       0.00000000 </v>
   <v>       0.00000000       0.00000000       0.00000000 </v>
   <v>       0.00000000       0.00000000       0.00000000 </v>
   <v>       0.00000000       0.00000000       0.00000000 </v>
   <v>       0.00000000       0.00000000       0.00000000 </v>
   <v>       0.00000000       0.00000000       0.00000000 </v>
   <v>       0.00000000       0.00000000       0.00000000 </v>
   <v>       0.00000000       0.00000000       0.00000000 </v>
   <v>       0.00000000       0.00000000       0.00000000 </v>
   <v>       0.00000000       0.00000000       0.00000000 </v>
   <v>       0.00000000       0.00000000       0.00000000 </v>
   <v>       0.00000000       0.00000000       0.00000000 </v>
   <v>       0.00000000       0.00000000       0.00000000 </v>
   <v>       0.00000000       0.00000000       0.00000000 </v>
   <v>       0.00000000       0.00000000       0.00000000 </v>
   <v>       0.00000000       0.00000000       0.00000000 </v>
   <v>       0.00000000       0.00000000       0.00000000 </v>
   <v>       0.00000000       0.00000000       0.00000000 </v>
   <v>       0.00000000       0.00000000       0.00000000 </v>
   <v>       0.00000000       0.00000000       0.00000000 </v>
   <v>       0.00000000       0.00000000       0.00000000 </v>
   <v>       0.00000000       0.00000000       0.00000000 </v>
   <v>       0.00000000       0.00000000       0.00000000 </v>
   <v>       0.00000000       0.00000000       0.00000000 </v>
   <v>       0.00000000       0.00000000       0.00000000 </v>
   <v>       0.00000000       0.00000000       0.00000000 </v>
   <v>       0.00000000       0.00000000       0.00000000 </v>
   <v>       0.00000000       0.00000000       0.00000000 </v>
   <v>       0.00000000       0.00000000       0.00000000 </v>
   <v>       0.00000000       0.00000000       0.00000000 </v>
   <v>       0.00000000       0.00000000       0.00000000 </v>
   <v>       0.00000000       0.00000000       0.00000000 </v>
   <v>       0.00000000       0.00000000       0.00000000 </v>
   <v>       0.00000000       0.00000000       0.00000000 </v>
   <v>       0.00000000       0.00000000       0.00000000 </v>
   <v>       0.00000000       0.00000000       0.00000000 </v>
   <v>       0.00000000       0.00000000       0.00000000 </v>
   <v>       0.00000000       0.00000000       0.00000000 </v>
   <v>       0.00000000       0.00000000       0.00000000 </v>
   <v>       0.00000000       0.00000000       0.00000000 </v>
   <v>       0.00000000       0.00000000       0.00000000 </v>
   <v>       0.00000000       0.00000000       0.00000000 </v>
   <v>       0.00000000       0.00000000       0.00000000 </v>
   <v>       0.00000000       0.00000000       0.00000000 </v>
   <v>       0.00000000       0.00000000       0.00000000 </v>
   <v>       0.00000000       0.00000000       0.00000000 </v>
   <v>       0.00000000       0.00000000       0.00000000 </v>
   <v>       0.00000000       0.00000000       0.00000000 </v>
   <v>       0.00000000       0.00000000       0.00000000 </v>
   <v>       0.00000000       0.00000000       0.00000000 </v>
   <v>       0.00000000       0.00000000       0.00000000 </v>
   <v>       0.00000000       0.00000000       0.00000000 </v>
   <v>       0.00000000       0.00000000       0.00000000 </v>
   <v>       0.00000000       0.00000000       0.00000000 </v>
   <v>       0.00000000       0.00000000       0.00000000 </v>
   <v>       0.00000000       0.00000000       0.00000000 </v>
   <v>       0.00000000       0.00000000       0.00000000 </v>
   <v>       0.00000000       0.00000000       0.00000000 </v>
   <v>       0.00000000       0.00000000       0.00000000 </v>
   <v>       0.00000000       0.00000000       0.00000000 </v>
   <v>       0.00000000       0.00000000       0.00000000 </v>
  </varray>
 </structure>
</modeling>
