 running on   52 total cores
 distrk:  each k-point on   52 cores,    1 groups
 distr:  one band on   13 cores,    4 groups
 using from now: INCAR     
 vasp.5.4.4.18Apr17-6-g9f103f2a35 (build Oct 31 2019 15:01:46) complex          
  
 POSCAR found type information on POSCAR  Ca Si O 
 POSCAR found :  3 types and     135 ions
 scaLAPACK is switched off
 LDA part: xc-table for Pade appr. of Perdew
 generate k-points for:    3    3    3
 POSCAR, INCAR and KPOINTS ok, starting setup
 FFT: planning ...
 WAVECAR not read
 entering main loop
       N       E                     dE             d eps       ncg     rms          rms(c)
DAV:   1     0.110110489354E+05    0.11011E+05   -0.50113E+05 14560   0.197E+03
DAV:   2     0.375659541419E+03   -0.10635E+05   -0.10205E+05 16152   0.562E+02
DAV:   3    -0.848525527233E+03   -0.12242E+04   -0.12131E+04 16456   0.194E+02
DAV:   4    -0.918504592355E+03   -0.69979E+02   -0.69779E+02 22128   0.371E+01
DAV:   5    -0.922613321911E+03   -0.41087E+01   -0.41066E+01 22552   0.834E+00    0.100E+02
DAV:   6    -0.786272224457E+03    0.13634E+03   -0.49448E+02 17744   0.379E+01    0.439E+01
DAV:   7    -0.786617215086E+03   -0.34499E+00   -0.70731E+01 17640   0.136E+01    0.174E+01
DAV:   8    -0.786292481028E+03    0.32473E+00   -0.11362E+01 19640   0.644E+00    0.710E+00
DAV:   9    -0.786203076995E+03    0.89404E-01   -0.27075E+00 17576   0.312E+00    0.211E+00
DAV:  10    -0.786247035315E+03   -0.43958E-01   -0.59856E-01 22176   0.132E+00    0.131E+00
DAV:  11    -0.786251928549E+03   -0.48932E-02   -0.76939E-02 18464   0.513E-01    0.695E-01
DAV:  12    -0.786252227330E+03   -0.29878E-03   -0.28193E-02 17960   0.339E-01    0.161E-01
DAV:  13    -0.786252152785E+03    0.74545E-04   -0.46793E-03 17528   0.132E-01    0.806E-02
DAV:  14    -0.786252227221E+03   -0.74436E-04   -0.95794E-04 22216   0.440E-02    0.563E-02
DAV:  15    -0.786252226621E+03    0.60066E-06   -0.90809E-05 18456   0.173E-02    0.288E-02
DAV:  16    -0.786252225789E+03    0.83169E-06   -0.17416E-05 17944   0.110E-02    0.546E-03
DAV:  17    -0.786252225355E+03    0.43378E-06   -0.83129E-06 16848   0.524E-03
   1 F= -.78625223E+03 E0= -.78625223E+03  d E =-.404501E-13
