 running on   52 total cores
 distrk:  each k-point on   52 cores,    1 groups
 distr:  one band on   13 cores,    4 groups
 using from now: INCAR     
 vasp.5.4.4.18Apr17-6-g9f103f2a35 (build Oct 31 2019 15:01:46) complex          
  
 POSCAR found type information on POSCAR  Ca Si O 
 POSCAR found :  3 types and     135 ions
 scaLAPACK is switched off
 LDA part: xc-table for Pade appr. of Perdew
 generate k-points for:    2    2    2
 POSCAR, INCAR and KPOINTS ok, starting setup
 FFT: planning ...
 WAVECAR not read
 entering main loop
       N       E                     dE             d eps       ncg     rms          rms(c)
DAV:   1     0.920307623002E+04    0.92031E+04   -0.46191E+05  8320   0.174E+03
DAV:   2     0.579384341068E+02   -0.91451E+04   -0.88605E+04 10280   0.452E+02
DAV:   3    -0.987527387181E+03   -0.10455E+04   -0.10369E+04 10336   0.153E+02
DAV:   4    -0.103602616403E+04   -0.48499E+02   -0.48310E+02 11168   0.320E+01
DAV:   5    -0.104238383277E+04   -0.63577E+01   -0.63545E+01 14936   0.707E+00    0.856E+01
DAV:   6    -0.870341061814E+03    0.17204E+03   -0.84076E+02 10136   0.437E+01    0.393E+01
DAV:   7    -0.870829009027E+03   -0.48795E+00   -0.91365E+01 10808   0.166E+01    0.209E+01
DAV:   8    -0.866909829303E+03    0.39192E+01   -0.23172E+01 12432   0.873E+00    0.146E+01
DAV:   9    -0.865801607521E+03    0.11082E+01   -0.98761E+00 11592   0.538E+00    0.701E+00
DAV:  10    -0.866130821753E+03   -0.32921E+00   -0.38053E+00 10832   0.356E+00    0.184E+01
DAV:  11    -0.865269156311E+03    0.86167E+00   -0.18742E+00 10960   0.176E+00    0.410E+00
DAV:  12    -0.865240453933E+03    0.28702E-01   -0.83924E-01 11328   0.143E+00    0.367E+00
DAV:  13    -0.865205422299E+03    0.35032E-01   -0.68600E-01 11488   0.114E+00    0.318E+00
DAV:  14    -0.865155791355E+03    0.49631E-01   -0.39768E-01 11320   0.740E-01    0.190E+00
DAV:  15    -0.865125980841E+03    0.29811E-01   -0.61861E-02 11504   0.395E-01    0.170E+00
DAV:  16    -0.865083251104E+03    0.42730E-01   -0.58624E-02 10976   0.352E-01    0.104E+00
DAV:  17    -0.865075467045E+03    0.77841E-02   -0.24625E-02 10576   0.207E-01    0.964E-01
DAV:  18    -0.865070731634E+03    0.47354E-02   -0.40081E-02 10576   0.115E-01    0.782E-01
DAV:  19    -0.865071531458E+03   -0.79982E-03   -0.19369E-03 10304   0.492E-02    0.105E+00
DAV:  20    -0.865077043460E+03   -0.55120E-02   -0.16818E-02 10280   0.126E-01    0.207E+00
DAV:  21    -0.865068625439E+03    0.84180E-02   -0.10962E-02 10192   0.769E-02    0.101E+00
DAV:  22    -0.865070274615E+03   -0.16492E-02   -0.55686E-03  9368   0.902E-02    0.114E+00
DAV:  23    -0.865067724190E+03    0.25504E-02   -0.62560E-03 11120   0.607E-02    0.448E-01
DAV:  24    -0.865067995146E+03   -0.27096E-03   -0.35524E-04  9600   0.267E-02    0.457E-01
DAV:  25    -0.865067587129E+03    0.40802E-03   -0.77345E-04 10096   0.223E-02    0.224E-01
DAV:  26    -0.865067518697E+03    0.68432E-04   -0.89377E-04  9784   0.191E-02    0.662E-02
DAV:  27    -0.865067530507E+03   -0.11810E-04   -0.25771E-04  9048   0.173E-02    0.510E-02
DAV:  28    -0.865067527450E+03    0.30574E-05   -0.83190E-05  9944   0.653E-03    0.359E-02
DAV:  29    -0.865067525731E+03    0.17189E-05   -0.47658E-05  8536   0.593E-03    0.255E-02
DAV:  30    -0.865067529279E+03   -0.35477E-05   -0.69822E-05  8344   0.453E-03    0.446E-02
DAV:  31    -0.865067524424E+03    0.48552E-05   -0.19541E-05  6200   0.266E-03    0.970E-03
DAV:  32    -0.865067524724E+03   -0.30048E-06   -0.18385E-06  5560   0.122E-03
   1 F= -.86506752E+03 E0= -.86505041E+03  d E =-.342370E-01
