<?xml version="1.0" encoding="ISO-8859-1"?>
<modeling>
 <generator>
  <i name="program" type="string">vasp </i>
  <i name="version" type="string">5.4.4.18Apr17-6-g9f103f2a35  </i>
  <i name="subversion" type="string">(build Oct 31 2019 15:01:46) complex            parallel </i>
  <i name="platform" type="string">LinuxIFC </i>
  <i name="date" type="string">2024 04 29 </i>
  <i name="time" type="string">12:12:59 </i>
 </generator>
 <incar>
  <i type="int" name="ISTART">     0</i>
  <i type="string" name="PREC">a</i>
  <i type="logical" name="ADDGRID"> T  </i>
  <i type="int" name="IBRION">    -1</i>
  <i name="EDIFF">      0.00000100</i>
  <i name="EDIFFG">     -0.01000000</i>
  <i type="int" name="NSW">     1</i>
  <i type="int" name="ISIF">     2</i>
  <i type="int" name="ISYM">     0</i>
  <i name="ENCUT">    600.00000000</i>
  <i name="POTIM">      1.00000000</i>
  <i type="string" name="LREAL">  Auto</i>
  <i type="int" name="ISMEAR">     0</i>
  <i name="SIGMA">      0.05000000</i>
  <i name="KSPACING">      0.30000000</i>
  <i type="logical" name="KGAMMA"> T  </i>
  <i type="logical" name="LWAVE"> F  </i>
  <i type="logical" name="LCHARG"> F  </i>
  <i type="logical" name="LSCALAPACK"> F  </i>
  <v type="int" name="KPOINT_BSE">    -1     0     0     0</v>
 </incar>
 <structure name="primitive_cell" >
  <crystal>
   <varray name="basis" >
    <v>      13.31093562       0.00000000       0.00000000 </v>
    <v>       0.00000000      13.31093562       0.00000000 </v>
    <v>       0.00000000       0.00000000      13.31093562 </v>
   </varray>
   <i name="volume">   2358.44497833 </i>
   <varray name="rec_basis" >
    <v>       0.07512620       0.00000000       0.00000000 </v>
    <v>       0.00000000       0.07512620       0.00000000 </v>
    <v>       0.00000000       0.00000000       0.07512620 </v>
   </varray>
  </crystal>
  <varray name="positions" >
   <v>       0.32765233      -0.29695539       0.03935359 </v>
   <v>       0.20450226      -0.35189619      -0.06558762 </v>
   <v>       0.36323688      -0.43837720       0.13004953 </v>
   <v>       0.49179215      -0.23203370       0.09086706 </v>
   <v>       0.21420143      -0.33506755       0.19113528 </v>
   <v>       0.45671071      -0.39041044      -0.08401485 </v>
   <v>       0.33617653      -0.16887032       0.22800185 </v>
   <v>      -0.46008424      -0.39182016       0.01119942 </v>
   <v>       0.42807127      -0.34262773       0.28342331 </v>
   <v>      -0.43400217      -0.17336133       0.03822986 </v>
   <v>       0.47838841      -0.08339721      -0.04120923 </v>
   <v>       0.20345877      -0.26639244       0.28882747 </v>
   <v>      -0.40219659      -0.27308223      -0.03227685 </v>
   <v>       0.15207464      -0.15495346       0.21143676 </v>
   <v>       0.36060986       0.43450381       0.12700266 </v>
   <v>       0.15686934      -0.47651044       0.18595341 </v>
   <v>       0.31796371      -0.02144701      -0.05245226 </v>
   <v>       0.24527678      -0.07817151       0.21923972 </v>
   <v>       0.08201718      -0.35866736      -0.12535236 </v>
   <v>       0.23378090       0.41990652      -0.01413203 </v>
   <v>       0.21447419      -0.18965552      -0.22407803 </v>
   <v>       0.34842535       0.48260689      -0.17732671 </v>
   <v>       0.39827221      -0.17653696      -0.23752339 </v>
   <v>       0.26236343      -0.00448019       0.12518689 </v>
   <v>      -0.38707014      -0.40501709       0.11586556 </v>
   <v>       0.23246471       0.42437853      -0.13750048 </v>
   <v>       0.12444288      -0.49048610      -0.16528721 </v>
   <v>       0.26634410      -0.28256441       0.38091022 </v>
   <v>       0.27144322       0.39272679       0.19085028 </v>
   <v>       0.42954768       0.01874356      -0.09701906 </v>
   <v>       0.42988719       0.33933764       0.04877193 </v>
   <v>       0.47072342      -0.46323214      -0.26998222 </v>
   <v>       0.22781595      -0.23749927      -0.32371680 </v>
   <v>       0.02324795      -0.29876805      -0.19766615 </v>
   <v>       0.37415918      -0.45535563       0.38875849 </v>
   <v>       0.31771560       0.09161666       0.03865856 </v>
   <v>      -0.04004347      -0.39396190      -0.06456027 </v>
   <v>      -0.32372382      -0.10043125       0.04604724 </v>
   <v>       0.38478673       0.33556054      -0.11370981 </v>
   <v>       0.37595617      -0.00563963      -0.23680635 </v>
   <v>      -0.02576465      -0.31529080       0.23823484 </v>
   <v>      -0.43280569      -0.33485656       0.38305124 </v>
   <v>       0.00517102       0.44911520       0.15945725 </v>
   <v>      -0.08956362      -0.37783455       0.09515456 </v>
   <v>       0.41145743      -0.13840490       0.42906797 </v>
   <v>      -0.42452249       0.44515591       0.27683737 </v>
   <v>      -0.34039128       0.43872315       0.12173354 </v>
   <v>       0.19652333       0.02912325       0.29554352 </v>
   <v>      -0.45722306      -0.47117545       0.37604816 </v>
   <v>      -0.46676292      -0.10682775       0.37744678 </v>
   <v>       0.16800152      -0.02901238      -0.27301132 </v>
   <v>      -0.37083842      -0.14875149      -0.25104165 </v>
   <v>       0.42856646       0.12707665      -0.07089081 </v>
   <v>      -0.10264885      -0.17034508      -0.02428382 </v>
   <v>       0.21924114       0.45205439       0.40616176 </v>
   <v>      -0.08447572      -0.21113234       0.22457574 </v>
   <v>       0.26194632       0.30323386      -0.17856428 </v>
   <v>       0.32808595      -0.22592616      -0.41943058 </v>
   <v>       0.45241732       0.03992904       0.34766180 </v>
   <v>       0.20707494      -0.37103447      -0.41266101 </v>
   <v>       0.44720408      -0.14801793      -0.39521924 </v>
   <v>      -0.08334134      -0.10333270       0.17755039 </v>
   <v>       0.17011424      -0.28508911       0.48938260 </v>
   <v>       0.06022640      -0.45013724      -0.32475042 </v>
   <v>       0.40254869       0.16579088       0.12805024 </v>
   <v>      -0.34751640      -0.32408711      -0.31112328 </v>
   <v>       0.07678694       0.01685963      -0.22242516 </v>
   <v>       0.07704149      -0.34008264       0.44985560 </v>
   <v>       0.24101289       0.18260321      -0.00657175 </v>
   <v>       0.26945854       0.14881048       0.23894459 </v>
   <v>      -0.03134047       0.03698868       0.10528626 </v>
   <v>      -0.29296489      -0.23074576       0.35358570 </v>
   <v>       0.36482121       0.48929238      -0.40840640 </v>
   <v>      -0.26471158      -0.03498695       0.17929398 </v>
   <v>      -0.05581968       0.02840333      -0.00168623 </v>
   <v>      -0.45367043      -0.05537775      -0.35056346 </v>
   <v>       0.39385528       0.44802915       0.47470481 </v>
   <v>      -0.44586880       0.14162557       0.16914060 </v>
   <v>      -0.17333929      -0.25639597       0.14428597 </v>
   <v>       0.03647260       0.10485049       0.16568011 </v>
   <v>      -0.42756736       0.00338326       0.37536752 </v>
   <v>       0.37635446       0.34493880       0.40855016 </v>
   <v>       0.15429741      -0.18484643      -0.43822014 </v>
   <v>       0.48273696      -0.31535435      -0.45907937 </v>
   <v>       0.30230381       0.34360360      -0.34055787 </v>
   <v>      -0.30393111      -0.21261482      -0.32351615 </v>
   <v>       0.08478704       0.23663909      -0.00179770 </v>
   <v>       0.11865194       0.40060239       0.41874045 </v>
   <v>      -0.33581883       0.38639720      -0.21883179 </v>
   <v>       0.29877142       0.05798612      -0.35727559 </v>
   <v>      -0.24758533       0.42566198      -0.13003581 </v>
   <v>      -0.40027076       0.39723185      -0.30910918 </v>
   <v>      -0.07155540      -0.17880968      -0.30090817 </v>
   <v>      -0.08386110      -0.24776260       0.38613837 </v>
   <v>      -0.46332152      -0.46345721      -0.48854426 </v>
   <v>       0.09516341       0.13459116      -0.19489372 </v>
   <v>      -0.02762262      -0.01708936      -0.27748287 </v>
   <v>      -0.07498084      -0.47718571       0.37255038 </v>
   <v>      -0.10692326       0.38609802       0.16866574 </v>
   <v>      -0.17142413       0.47313024       0.13402756 </v>
   <v>      -0.28977397      -0.00413505       0.32282330 </v>
   <v>      -0.02868674      -0.26230080      -0.39779110 </v>
   <v>      -0.39266587       0.13492612      -0.20021718 </v>
   <v>      -0.00000037       0.41196911       0.40534121 </v>
   <v>      -0.33951055       0.27288931      -0.16032598 </v>
   <v>      -0.04913779      -0.28381207       0.48513836 </v>
   <v>       0.05129616       0.11310962       0.35832602 </v>
   <v>      -0.05102512       0.31717738      -0.19400772 </v>
   <v>      -0.09219899       0.47656145      -0.31133204 </v>
   <v>      -0.09769100       0.28325749       0.08264579 </v>
   <v>       0.11109305       0.25206679       0.37085509 </v>
   <v>      -0.13371555       0.07613059       0.13114779 </v>
   <v>      -0.47586130       0.21904618       0.34048169 </v>
   <v>       0.31078987       0.20656706       0.39577943 </v>
   <v>      -0.28593424       0.22659669       0.02509820 </v>
   <v>      -0.14555154       0.40099209      -0.22052069 </v>
   <v>      -0.40822959       0.04472187       0.49274167 </v>
   <v>       0.44505078       0.20966216       0.41160103 </v>
   <v>       0.16031526       0.33483183      -0.47066231 </v>
   <v>      -0.27868273       0.17699565       0.21292213 </v>
   <v>      -0.26840202       0.37177767       0.43201009 </v>
   <v>      -0.12991769      -0.38589121      -0.49662397 </v>
   <v>       0.15587044       0.11889795      -0.47473324 </v>
   <v>       0.19819643       0.21496708       0.46902797 </v>
   <v>      -0.23408052       0.34139304      -0.30913959 </v>
   <v>      -0.19915416      -0.13709489      -0.40711206 </v>
   <v>      -0.10567989       0.27064421       0.32006597 </v>
   <v>      -0.21296995       0.19557052       0.10969968 </v>
   <v>      -0.21989740      -0.49796925      -0.45380373 </v>
   <v>      -0.30642099       0.16455145      -0.34092443 </v>
   <v>       0.47388512       0.21630332      -0.45670800 </v>
   <v>      -0.20386084       0.27385138       0.40831614 </v>
   <v>      -0.12178854       0.13102072      -0.38359431 </v>
   <v>      -0.34751786       0.20877348      -0.46084824 </v>
   <v>      -0.17901778       0.17918823       0.47290398 </v>
  </varray>
 </structure>
 <varray name="primitive_index" >
  <v type="int" >        1 </v>
  <v type="int" >      100 </v>
  <v type="int" >       85 </v>
  <v type="int" >       71 </v>
  <v type="int" >       75 </v>
  <v type="int" >       68 </v>
  <v type="int" >       91 </v>
  <v type="int" >       44 </v>
  <v type="int" >       14 </v>
  <v type="int" >       48 </v>
  <v type="int" >       95 </v>
  <v type="int" >       35 </v>
  <v type="int" >      110 </v>
  <v type="int" >       94 </v>
  <v type="int" >       47 </v>
  <v type="int" >       21 </v>
  <v type="int" >      128 </v>
  <v type="int" >       54 </v>
  <v type="int" >       46 </v>
  <v type="int" >      111 </v>
  <v type="int" >       58 </v>
  <v type="int" >      131 </v>
  <v type="int" >        8 </v>
  <v type="int" >      126 </v>
  <v type="int" >      114 </v>
  <v type="int" >       51 </v>
  <v type="int" >      116 </v>
  <v type="int" >       63 </v>
  <v type="int" >      109 </v>
  <v type="int" >       36 </v>
  <v type="int" >      102 </v>
  <v type="int" >       26 </v>
  <v type="int" >       41 </v>
  <v type="int" >       70 </v>
  <v type="int" >      120 </v>
  <v type="int" >       52 </v>
  <v type="int" >       83 </v>
  <v type="int" >       72 </v>
  <v type="int" >        6 </v>
  <v type="int" >       62 </v>
  <v type="int" >       77 </v>
  <v type="int" >      107 </v>
  <v type="int" >       97 </v>
  <v type="int" >       27 </v>
  <v type="int" >       23 </v>
  <v type="int" >      123 </v>
  <v type="int" >       13 </v>
  <v type="int" >       59 </v>
  <v type="int" >       33 </v>
  <v type="int" >       57 </v>
  <v type="int" >       92 </v>
  <v type="int" >       55 </v>
  <v type="int" >      121 </v>
  <v type="int" >        3 </v>
  <v type="int" >      119 </v>
  <v type="int" >       40 </v>
  <v type="int" >      105 </v>
  <v type="int" >      106 </v>
  <v type="int" >      108 </v>
  <v type="int" >      103 </v>
  <v type="int" >      135 </v>
  <v type="int" >       73 </v>
  <v type="int" >       30 </v>
  <v type="int" >       20 </v>
  <v type="int" >       76 </v>
  <v type="int" >       96 </v>
  <v type="int" >       50 </v>
  <v type="int" >       79 </v>
  <v type="int" >       93 </v>
  <v type="int" >       25 </v>
  <v type="int" >       45 </v>
  <v type="int" >       17 </v>
  <v type="int" >       81 </v>
  <v type="int" >       11 </v>
  <v type="int" >      125 </v>
  <v type="int" >        7 </v>
  <v type="int" >       38 </v>
  <v type="int" >       12 </v>
  <v type="int" >       56 </v>
  <v type="int" >      113 </v>
  <v type="int" >       34 </v>
  <v type="int" >       78 </v>
  <v type="int" >       67 </v>
  <v type="int" >       15 </v>
  <v type="int" >        2 </v>
  <v type="int" >       37 </v>
  <v type="int" >       19 </v>
  <v type="int" >       42 </v>
  <v type="int" >       29 </v>
  <v type="int" >       24 </v>
  <v type="int" >       84 </v>
  <v type="int" >      124 </v>
  <v type="int" >        5 </v>
  <v type="int" >      133 </v>
  <v type="int" >       90 </v>
  <v type="int" >       89 </v>
  <v type="int" >       61 </v>
  <v type="int" >       16 </v>
  <v type="int" >       31 </v>
  <v type="int" >       69 </v>
  <v type="int" >      127 </v>
  <v type="int" >       98 </v>
  <v type="int" >        4 </v>
  <v type="int" >      132 </v>
  <v type="int" >       86 </v>
  <v type="int" >       32 </v>
  <v type="int" >       10 </v>
  <v type="int" >      112 </v>
  <v type="int" >       74 </v>
  <v type="int" >      134 </v>
  <v type="int" >      129 </v>
  <v type="int" >       87 </v>
  <v type="int" >      122 </v>
  <v type="int" >       60 </v>
  <v type="int" >      118 </v>
  <v type="int" >       39 </v>
  <v type="int" >       82 </v>
  <v type="int" >       28 </v>
  <v type="int" >      115 </v>
  <v type="int" >       64 </v>
  <v type="int" >       88 </v>
  <v type="int" >       66 </v>
  <v type="int" >      101 </v>
  <v type="int" >       49 </v>
  <v type="int" >      130 </v>
  <v type="int" >      117 </v>
  <v type="int" >      104 </v>
  <v type="int" >       53 </v>
  <v type="int" >       18 </v>
  <v type="int" >       99 </v>
  <v type="int" >       65 </v>
  <v type="int" >       43 </v>
  <v type="int" >       22 </v>
  <v type="int" >        9 </v>
  <v type="int" >       80 </v>
 </varray>
 <kpoints>
  <generation param="Gamma">
   <v type="int" name="divisions">       2        2        2 </v>
   <v name="usershift">      0.00000000       0.00000000       0.00000000 </v>
   <v name="genvec1">      0.50000000       0.00000000       0.00000000 </v>
   <v name="genvec2">      0.00000000       0.50000000       0.00000000 </v>
   <v name="genvec3">      0.00000000       0.00000000       0.50000000 </v>
   <v name="shift">      0.00000000       0.00000000       0.00000000 </v>
  </generation>
  <varray name="kpointlist" >
   <v>       0.00000000       0.00000000       0.00000000 </v>
   <v>       0.50000000       0.00000000       0.00000000 </v>
   <v>       0.00000000       0.50000000       0.00000000 </v>
   <v>       0.50000000       0.50000000       0.00000000 </v>
   <v>       0.00000000       0.00000000       0.50000000 </v>
   <v>       0.50000000       0.00000000       0.50000000 </v>
   <v>       0.00000000       0.50000000       0.50000000 </v>
   <v>       0.50000000       0.50000000       0.50000000 </v>
  </varray>
  <varray name="weights" >
   <v>       0.12500000 </v>
   <v>       0.12500000 </v>
   <v>       0.12500000 </v>
   <v>       0.12500000 </v>
   <v>       0.12500000 </v>
   <v>       0.12500000 </v>
   <v>       0.12500000 </v>
   <v>       0.12500000 </v>
  </varray>
 </kpoints>
 <parameters>
  <separator name="general" >
   <i type="string" name="SYSTEM">unknown system</i>
   <i type="logical" name="LCOMPAT"> F  </i>
  </separator>
  <separator name="electronic" >
   <i type="string" name="PREC">a</i>
   <i name="ENMAX">    600.00000000</i>
   <i name="ENAUG">    605.39200000</i>
   <i name="EDIFF">      0.00000100</i>
   <i type="int" name="IALGO">    38</i>
   <i type="int" name="IWAVPR">    10</i>
   <i type="int" name="NBANDS">   520</i>
   <i name="NELECT">    864.00000000</i>
   <i type="int" name="TURBO">     0</i>
   <i type="int" name="IRESTART">     0</i>
   <i type="int" name="NREBOOT">     0</i>
   <i type="int" name="NMIN">     0</i>
   <i name="EREF">      0.00000000</i>
   <separator name="electronic smearing" >
    <i type="int" name="ISMEAR">     0</i>
    <i name="SIGMA">      0.05000000</i>
    <i name="KSPACING">      0.30000000</i>
    <i type="logical" name="KGAMMA"> T  </i>
   </separator>
   <separator name="electronic projectors" >
    <i type="logical" name="LREAL"> T  </i>
    <v name="ROPT">     -0.00025000     -0.00025000     -0.00025000</v>
    <i type="int" name="LMAXPAW">  -100</i>
    <i type="int" name="LMAXMIX">     2</i>
    <i type="logical" name="NLSPLINE"> F  </i>
   </separator>
   <separator name="electronic startup" >
    <i type="int" name="ISTART">     0</i>
    <i type="int" name="ICHARG">     2</i>
    <i type="int" name="INIWAV">     1</i>
   </separator>
   <separator name="electronic spin" >
    <i type="int" name="ISPIN">     1</i>
    <i type="logical" name="LNONCOLLINEAR"> F  </i>
    <v name="MAGMOM">      1.00000000      1.00000000      1.00000000      1.00000000      1.00000000      1.00000000      1.00000000      1.00000000      1.00000000      1.00000000      1.00000000      1.00000000      1.00000000      1.00000000      1.00000000      1.00000000      1.00000000      1.00000000      1.00000000      1.00000000
      1.00000000      1.00000000      1.00000000      1.00000000      1.00000000      1.00000000      1.00000000      1.00000000      1.00000000      1.00000000      1.00000000      1.00000000      1.00000000      1.00000000      1.00000000      1.00000000      1.00000000      1.00000000      1.00000000      1.00000000
      1.00000000      1.00000000      1.00000000      1.00000000      1.00000000      1.00000000      1.00000000      1.00000000      1.00000000      1.00000000      1.00000000      1.00000000      1.00000000      1.00000000      1.00000000      1.00000000      1.00000000      1.00000000      1.00000000      1.00000000
      1.00000000      1.00000000      1.00000000      1.00000000      1.00000000      1.00000000      1.00000000      1.00000000      1.00000000      1.00000000      1.00000000      1.00000000      1.00000000      1.00000000      1.00000000      1.00000000      1.00000000      1.00000000      1.00000000      1.00000000
      1.00000000      1.00000000      1.00000000      1.00000000      1.00000000      1.00000000      1.00000000      1.00000000      1.00000000      1.00000000      1.00000000      1.00000000      1.00000000      1.00000000      1.00000000      1.00000000      1.00000000      1.00000000      1.00000000      1.00000000
      1.00000000      1.00000000      1.00000000      1.00000000      1.00000000      1.00000000      1.00000000      1.00000000      1.00000000      1.00000000      1.00000000      1.00000000      1.00000000      1.00000000      1.00000000      1.00000000      1.00000000      1.00000000      1.00000000      1.00000000
      1.00000000      1.00000000      1.00000000      1.00000000      1.00000000      1.00000000      1.00000000      1.00000000      1.00000000      1.00000000      1.00000000      1.00000000      1.00000000      1.00000000      1.00000000</v>
    <i name="NUPDOWN">     -1.00000000</i>
    <i type="logical" name="LSORBIT"> F  </i>
    <v name="SAXIS">      0.00000000      0.00000000      1.00000000</v>
    <i type="logical" name="LSPIRAL"> F  </i>
    <v name="QSPIRAL">      0.00000000      0.00000000      0.00000000</v>
    <i type="logical" name="LZEROZ"> F  </i>
   </separator>
   <separator name="electronic exchange-correlation" >
    <i type="logical" name="LASPH"> F  </i>
    <i type="logical" name="LMETAGGA"> F  </i>
   </separator>
   <separator name="electronic convergence" >
    <i type="int" name="NELM">    60</i>
    <i type="int" name="NELMDL">    -5</i>
    <i type="int" name="NELMIN">     2</i>
    <i name="ENINI">    600.00000000</i>
    <separator name="electronic convergence detail" >
     <i type="logical" name="LDIAG"> T  </i>
     <i type="logical" name="LSUBROT"> F  </i>
     <i name="WEIMIN">      0.00000000</i>
     <i name="EBREAK">      0.00000000</i>
     <i name="DEPER">      0.30000000</i>
     <i type="int" name="NRMM">     4</i>
     <i name="TIME">      0.40000000</i>
    </separator>
   </separator>
   <separator name="electronic mixer" >
    <i name="AMIX">      0.40000000</i>
    <i name="BMIX">      1.00000000</i>
    <i name="AMIN">      0.10000000</i>
    <i name="AMIX_MAG">      1.60000000</i>
    <i name="BMIX_MAG">      1.00000000</i>
    <separator name="electronic mixer details" >
     <i type="int" name="IMIX">     4</i>
     <i type="logical" name="MIXFIRST"> F  </i>
     <i type="int" name="MAXMIX">   -45</i>
     <i name="WC">    100.00000000</i>
     <i type="int" name="INIMIX">     1</i>
     <i type="int" name="MIXPRE">     1</i>
     <i type="int" name="MREMOVE">     5</i>
    </separator>
   </separator>
   <separator name="electronic dipolcorrection" >
    <i type="logical" name="LDIPOL"> F  </i>
    <i type="logical" name="LMONO"> F  </i>
    <i type="int" name="IDIPOL">     0</i>
    <i name="EPSILON">      1.00000000</i>
    <v name="DIPOL">   -100.00000000   -100.00000000   -100.00000000</v>
    <i name="EFIELD">      0.00000000</i>
   </separator>
  </separator>
  <separator name="grids" >
   <i type="int" name="NGX">   108</i>
   <i type="int" name="NGY">   108</i>
   <i type="int" name="NGZ">   108</i>
   <i type="int" name="NGXF">   216</i>
   <i type="int" name="NGYF">   216</i>
   <i type="int" name="NGZF">   216</i>
   <i type="logical" name="ADDGRID"> T  </i>
  </separator>
  <separator name="ionic" >
   <i type="int" name="NSW">     1</i>
   <i type="int" name="IBRION">    -1</i>
   <i type="int" name="MDALGO">     0</i>
   <i type="int" name="ISIF">     2</i>
   <i name="PSTRESS">      0.00000000</i>
   <i name="EDIFFG">     -0.01000000</i>
   <i type="int" name="NFREE">     0</i>
   <i name="POTIM">      1.00000000</i>
   <i name="SMASS">     -3.00000000</i>
   <i name="SCALEE">      1.00000000</i>
  </separator>
  <separator name="ionic md" >
   <i name="TEBEG">      0.00010000</i>
   <i name="TEEND">      0.00010000</i>
   <i type="int" name="NBLOCK">     1</i>
   <i type="int" name="KBLOCK">     1</i>
   <i type="int" name="NPACO">   256</i>
   <i name="APACO">     16.00000000</i>
  </separator>
  <separator name="symmetry" >
   <i type="int" name="ISYM">     0</i>
   <i name="SYMPREC">      0.00001000</i>
  </separator>
  <separator name="dos" >
   <i type="int" name="LORBIT">     0</i>
   <v name="RWIGS">     -1.00000000     -1.00000000     -1.00000000</v>
   <i type="int" name="NEDOS">   301</i>
   <i name="EMIN">     10.00000000</i>
   <i name="EMAX">    -10.00000000</i>
   <i name="EFERMI">      0.00000000</i>
  </separator>
  <separator name="writing" >
   <i type="int" name="NWRITE">     2</i>
   <i type="logical" name="LWAVE"> F  </i>
   <i type="logical" name="LDOWNSAMPLE"> F  </i>
   <i type="logical" name="LCHARG"> F  </i>
   <i type="logical" name="LPARD"> F  </i>
   <i type="logical" name="LVTOT"> F  </i>
   <i type="logical" name="LVHAR"> F  </i>
   <i type="logical" name="LELF"> F  </i>
   <i type="logical" name="LOPTICS"> F  </i>
   <v name="STM">      0.00000000      0.00000000      0.00000000      0.00000000      0.00000000      0.00000000      0.00000000</v>
  </separator>
  <separator name="performance" >
   <i type="int" name="NPAR">     4</i>
   <i type="int" name="NSIM">     4</i>
   <i type="int" name="NBLK">    -1</i>
   <i type="logical" name="LPLANE"> T  </i>
   <i type="logical" name="LSCALAPACK"> F  </i>
   <i type="logical" name="LSCAAWARE"> F  </i>
   <i type="logical" name="LSCALU"> F  </i>
   <i type="logical" name="LASYNC"> F  </i>
   <i type="logical" name="LORBITALREAL"> F  </i>
  </separator>
  <separator name="miscellaneous" >
   <i type="int" name="IDIOT">     3</i>
   <i type="int" name="ISPECIAL">     0</i>
   <i type="logical" name="LMUSIC"> F  </i>
   <v name="POMASS">     40.07800000     28.08500000     16.00000000</v>
   <v name="DARWINR">      0.00000000      0.00000000      0.00000000</v>
   <v name="DARWINV">      1.00000000      1.00000000      1.00000000</v>
   <i type="logical" name="LCORR"> T  </i>
  </separator>
  <i type="logical" name="GGA_COMPAT"> T  </i>
  <i type="logical" name="LBERRY"> F  </i>
  <i type="int" name="ICORELEVEL">     0</i>
  <i type="logical" name="LDAU"> F  </i>
  <i type="int" name="I_CONSTRAINED_M">     0</i>
  <separator name="electronic exchange-correlation" >
   <i type="string" name="GGA">--</i>
   <i type="int" name="VOSKOWN">     0</i>
   <i type="logical" name="LHFCALC"> F  </i>
   <i type="string" name="PRECFOCK"></i>
   <i type="logical" name="LSYMGRAD"> F  </i>
   <i type="logical" name="LHFONE"> F  </i>
   <i type="logical" name="LRHFCALC"> F  </i>
   <i type="logical" name="LTHOMAS"> F  </i>
   <i type="logical" name="LMODELHF"> F  </i>
   <i name="ENCUT4O">     -1.00000000</i>
   <i type="int" name="EXXOEP">     0</i>
   <i type="int" name="FOURORBIT">     0</i>
   <i name="AEXX">      0.00000000</i>
   <i name="HFALPHA">      0.00000000</i>
   <i name="MCALPHA">      0.00000000</i>
   <i name="ALDAX">      1.00000000</i>
   <i name="AGGAX">      1.00000000</i>
   <i name="ALDAC">      1.00000000</i>
   <i name="AGGAC">      1.00000000</i>
   <i type="int" name="NKREDX">     1</i>
   <i type="int" name="NKREDY">     1</i>
   <i type="int" name="NKREDZ">     1</i>
   <i type="logical" name="SHIFTRED"> F  </i>
   <i type="logical" name="ODDONLY"> F  </i>
   <i type="logical" name="EVENONLY"> F  </i>
   <i type="int" name="LMAXFOCK">     0</i>
   <i type="int" name="NMAXFOCKAE">     0</i>
   <i type="logical" name="LFOCKAEDFT"> F  </i>
   <i name="HFSCREEN">      0.00000000</i>
   <i name="HFSCREENC">      0.00000000</i>
   <i type="int" name="NBANDSGWLOW">     0</i>
  </separator>
  <separator name="vdW DFT" >
   <i type="logical" name="LUSE_VDW"> F  </i>
   <i name="Zab_VDW">     -0.84910000</i>
   <i name="PARAM1">      0.12340000</i>
   <i name="PARAM2">      1.00000000</i>
   <i name="PARAM3">      0.00000000</i>
  </separator>
  <separator name="model GW" >
   <i type="int" name="MODEL_GW">     0</i>
   <i name="MODEL_EPS0">     10.48197768</i>
   <i name="MODEL_ALPHA">      1.00000000</i>
  </separator>
  <separator name="linear response parameters" >
   <i type="logical" name="LEPSILON"> F  </i>
   <i type="logical" name="LRPA"> F  </i>
   <i type="logical" name="LNABLA"> F  </i>
   <i type="logical" name="LVEL"> F  </i>
   <i type="int" name="KINTER">     0</i>
   <i name="CSHIFT">      0.10000000</i>
   <i name="OMEGAMAX">     -1.00000000</i>
   <i name="DEG_THRESHOLD">      0.00200000</i>
   <i name="RTIME">     -0.10000000</i>
   <i name="WPLASMAI">      0.00000000</i>
   <v name="DFIELD">      0.00000000      0.00000000      0.00000000</v>
   <v name="WPLASMA">      0.00000000      0.00000000      0.00000000      0.00000000      0.00000000      0.00000000      0.00000000      0.00000000      0.00000000</v>
  </separator>
  <separator name="orbital magnetization" >
   <i type="logical" name="NUCIND"> F  </i>
   <v name="MAGPOS">      0.00000000      0.00000000      0.00000000</v>
   <i type="logical" name="LNICSALL"> T  </i>
   <i type="logical" name="ORBITALMAG"> F  </i>
   <i type="logical" name="LMAGBLOCH"> F  </i>
   <i type="logical" name="LCHIMAG"> F  </i>
   <i type="logical" name="LGAUGE"> T  </i>
   <i type="int" name="MAGATOM">     0</i>
   <v name="MAGDIPOL">      0.00000000      0.00000000      0.00000000</v>
   <v name="AVECCONST">      0.00000000      0.00000000      0.00000000</v>
  </separator>
  <separator name="response functions" >
   <i type="logical" name="LADDER"> F  </i>
   <i type="logical" name="LRPAFORCE"> F  </i>
   <i type="logical" name="LFXC"> F  </i>
   <i type="logical" name="LHARTREE"> T  </i>
   <i type="int" name="IBSE">     0</i>
   <v type="int" name="KPOINT">    -1     0     0     0</v>
   <i type="logical" name="LTCTE"> F  </i>
   <i type="logical" name="LTETE"> F  </i>
   <i type="logical" name="LTRIPLET"> F  </i>
   <i type="logical" name="LFXCEPS"> F  </i>
   <i type="logical" name="LFXHEG"> F  </i>
   <i type="int" name="NATURALO">     2</i>
   <i type="logical" name="L2ORDER"> F  </i>
   <i type="logical" name="LMP2LT"> F  </i>
   <i type="logical" name="LUSEW"> F  </i>
   <i name="ENCUTGW">     -2.00000000</i>
   <i name="ENCUTGWSOFT">     -2.00000000</i>
   <i name="ENCUTLF">     -1.00000000</i>
   <i type="int" name="LMAXMP2">    -1</i>
   <i name="SCISSOR">      0.00000000</i>
   <i type="int" name="NOMEGA">     0</i>
   <i type="int" name="NOMEGAR">     0</i>
   <i type="int" name="NBANDSGW">    -1</i>
   <i type="int" name="NBANDSO">    -1</i>
   <i type="int" name="NBANDSV">    -1</i>
   <i type="int" name="NELM">     1</i>
   <i type="int" name="NELMHF">     1</i>
   <i type="int" name="DIM">     3</i>
   <i type="int" name="ANTIRES">     0</i>
   <i name="OMEGAMAX">    -30.00000000</i>
   <i name="OMEGAMIN">    -30.00000000</i>
   <i name="OMEGATL">   -200.00000000</i>
   <i type="int" name="OMEGAGRID">   140</i>
   <i name="CSHIFT">     -0.10000000</i>
   <i type="logical" name="SELFENERGY"> F  </i>
   <i type="logical" name="LSPECTRAL"> F  </i>
   <i type="logical" name="LSPECTRALGW"> F  </i>
   <i type="logical" name="LSINGLES"> F  </i>
   <i type="logical" name="LFERMIGW"> F  </i>
   <i type="logical" name="ODDONLYGW"> F  </i>
   <i type="logical" name="EVENONLYGW"> F  </i>
   <i type="int" name="NKREDLFX">     1</i>
   <i type="int" name="NKREDLFY">     1</i>
   <i type="int" name="NKREDLFZ">     1</i>
   <i type="int" name="MAXMEM">  2800</i>
   <i type="int" name="TELESCOPE">     0</i>
   <i type="int" name="TAUPAR">     1</i>
   <i type="int" name="OMEGAPAR">    -1</i>
   <i name="LAMBDA">      1.00000000</i>
  </separator>
  <separator name="External order field" >
   <i name="OFIELD_KAPPA">      0.00000000</i>
   <v name="OFIELD_K">      0.00000000      0.00000000      0.00000000</v>
   <i name="OFIELD_Q6_NEAR">      0.00000000</i>
   <i name="OFIELD_Q6_FAR">      0.00000000</i>
   <i name="OFIELD_A">      0.00000000</i>
  </separator>
 </parameters>
 <atominfo>
  <atoms>     135 </atoms>
  <types>       3 </types>
  <array name="atoms" >
   <dimension dim="1">ion</dimension>
   <field type="string">element</field>
   <field type="int">atomtype</field>
   <set>
    <rc><c>Ca</c><c>   1</c></rc>
    <rc><c>Ca</c><c>   1</c></rc>
    <rc><c>Ca</c><c>   1</c></rc>
    <rc><c>Ca</c><c>   1</c></rc>
    <rc><c>Ca</c><c>   1</c></rc>
    <rc><c>Ca</c><c>   1</c></rc>
    <rc><c>Ca</c><c>   1</c></rc>
    <rc><c>Ca</c><c>   1</c></rc>
    <rc><c>Ca</c><c>   1</c></rc>
    <rc><c>Ca</c><c>   1</c></rc>
    <rc><c>Ca</c><c>   1</c></rc>
    <rc><c>Ca</c><c>   1</c></rc>
    <rc><c>Ca</c><c>   1</c></rc>
    <rc><c>Ca</c><c>   1</c></rc>
    <rc><c>Ca</c><c>   1</c></rc>
    <rc><c>Ca</c><c>   1</c></rc>
    <rc><c>Ca</c><c>   1</c></rc>
    <rc><c>Ca</c><c>   1</c></rc>
    <rc><c>Ca</c><c>   1</c></rc>
    <rc><c>Ca</c><c>   1</c></rc>
    <rc><c>Ca</c><c>   1</c></rc>
    <rc><c>Ca</c><c>   1</c></rc>
    <rc><c>Ca</c><c>   1</c></rc>
    <rc><c>Ca</c><c>   1</c></rc>
    <rc><c>Ca</c><c>   1</c></rc>
    <rc><c>Ca</c><c>   1</c></rc>
    <rc><c>Ca</c><c>   1</c></rc>
    <rc><c>Si</c><c>   2</c></rc>
    <rc><c>Si</c><c>   2</c></rc>
    <rc><c>Si</c><c>   2</c></rc>
    <rc><c>Si</c><c>   2</c></rc>
    <rc><c>Si</c><c>   2</c></rc>
    <rc><c>Si</c><c>   2</c></rc>
    <rc><c>Si</c><c>   2</c></rc>
    <rc><c>Si</c><c>   2</c></rc>
    <rc><c>Si</c><c>   2</c></rc>
    <rc><c>Si</c><c>   2</c></rc>
    <rc><c>Si</c><c>   2</c></rc>
    <rc><c>Si</c><c>   2</c></rc>
    <rc><c>Si</c><c>   2</c></rc>
    <rc><c>Si</c><c>   2</c></rc>
    <rc><c>Si</c><c>   2</c></rc>
    <rc><c>Si</c><c>   2</c></rc>
    <rc><c>Si</c><c>   2</c></rc>
    <rc><c>Si</c><c>   2</c></rc>
    <rc><c>Si</c><c>   2</c></rc>
    <rc><c>Si</c><c>   2</c></rc>
    <rc><c>Si</c><c>   2</c></rc>
    <rc><c>Si</c><c>   2</c></rc>
    <rc><c>Si</c><c>   2</c></rc>
    <rc><c>Si</c><c>   2</c></rc>
    <rc><c>Si</c><c>   2</c></rc>
    <rc><c>Si</c><c>   2</c></rc>
    <rc><c>Si</c><c>   2</c></rc>
    <rc><c>O </c><c>   3</c></rc>
    <rc><c>O </c><c>   3</c></rc>
    <rc><c>O </c><c>   3</c></rc>
    <rc><c>O </c><c>   3</c></rc>
    <rc><c>O </c><c>   3</c></rc>
    <rc><c>O </c><c>   3</c></rc>
    <rc><c>O </c><c>   3</c></rc>
    <rc><c>O </c><c>   3</c></rc>
    <rc><c>O </c><c>   3</c></rc>
    <rc><c>O </c><c>   3</c></rc>
    <rc><c>O </c><c>   3</c></rc>
    <rc><c>O </c><c>   3</c></rc>
    <rc><c>O </c><c>   3</c></rc>
    <rc><c>O </c><c>   3</c></rc>
    <rc><c>O </c><c>   3</c></rc>
    <rc><c>O </c><c>   3</c></rc>
    <rc><c>O </c><c>   3</c></rc>
    <rc><c>O </c><c>   3</c></rc>
    <rc><c>O </c><c>   3</c></rc>
    <rc><c>O </c><c>   3</c></rc>
    <rc><c>O </c><c>   3</c></rc>
    <rc><c>O </c><c>   3</c></rc>
    <rc><c>O </c><c>   3</c></rc>
    <rc><c>O </c><c>   3</c></rc>
    <rc><c>O </c><c>   3</c></rc>
    <rc><c>O </c><c>   3</c></rc>
    <rc><c>O </c><c>   3</c></rc>
    <rc><c>O </c><c>   3</c></rc>
    <rc><c>O </c><c>   3</c></rc>
    <rc><c>O </c><c>   3</c></rc>
    <rc><c>O </c><c>   3</c></rc>
    <rc><c>O </c><c>   3</c></rc>
    <rc><c>O </c><c>   3</c></rc>
    <rc><c>O </c><c>   3</c></rc>
    <rc><c>O </c><c>   3</c></rc>
    <rc><c>O </c><c>   3</c></rc>
    <rc><c>O </c><c>   3</c></rc>
    <rc><c>O </c><c>   3</c></rc>
    <rc><c>O </c><c>   3</c></rc>
    <rc><c>O </c><c>   3</c></rc>
    <rc><c>O </c><c>   3</c></rc>
    <rc><c>O </c><c>   3</c></rc>
    <rc><c>O </c><c>   3</c></rc>
    <rc><c>O </c><c>   3</c></rc>
    <rc><c>O </c><c>   3</c></rc>
    <rc><c>O </c><c>   3</c></rc>
    <rc><c>O </c><c>   3</c></rc>
    <rc><c>O </c><c>   3</c></rc>
    <rc><c>O </c><c>   3</c></rc>
    <rc><c>O </c><c>   3</c></rc>
    <rc><c>O </c><c>   3</c></rc>
    <rc><c>O </c><c>   3</c></rc>
    <rc><c>O </c><c>   3</c></rc>
    <rc><c>O </c><c>   3</c></rc>
    <rc><c>O </c><c>   3</c></rc>
    <rc><c>O </c><c>   3</c></rc>
    <rc><c>O </c><c>   3</c></rc>
    <rc><c>O </c><c>   3</c></rc>
    <rc><c>O </c><c>   3</c></rc>
    <rc><c>O </c><c>   3</c></rc>
    <rc><c>O </c><c>   3</c></rc>
    <rc><c>O </c><c>   3</c></rc>
    <rc><c>O </c><c>   3</c></rc>
    <rc><c>O </c><c>   3</c></rc>
    <rc><c>O </c><c>   3</c></rc>
    <rc><c>O </c><c>   3</c></rc>
    <rc><c>O </c><c>   3</c></rc>
    <rc><c>O </c><c>   3</c></rc>
    <rc><c>O </c><c>   3</c></rc>
    <rc><c>O </c><c>   3</c></rc>
    <rc><c>O </c><c>   3</c></rc>
    <rc><c>O </c><c>   3</c></rc>
    <rc><c>O </c><c>   3</c></rc>
    <rc><c>O </c><c>   3</c></rc>
    <rc><c>O </c><c>   3</c></rc>
    <rc><c>O </c><c>   3</c></rc>
    <rc><c>O </c><c>   3</c></rc>
    <rc><c>O </c><c>   3</c></rc>
    <rc><c>O </c><c>   3</c></rc>
    <rc><c>O </c><c>   3</c></rc>
    <rc><c>O </c><c>   3</c></rc>
   </set>
  </array>
  <array name="atomtypes" >
   <dimension dim="1">type</dimension>
   <field type="int">atomspertype</field>
   <field type="string">element</field>
   <field>mass</field>
   <field>valence</field>
   <field type="string">pseudopotential</field>
   <set>
    <rc><c>  27</c><c>Ca</c><c>     40.07800000</c><c>     10.00000000</c><c>  PAW_PBE Ca_sv 06Sep2000               </c></rc>
    <rc><c>  27</c><c>Si</c><c>     28.08500000</c><c>      4.00000000</c><c>  PAW_PBE Si 05Jan2001                  </c></rc>
    <rc><c>  81</c><c>O </c><c>     16.00000000</c><c>      6.00000000</c><c>  PAW_PBE O 08Apr2002                   </c></rc>
   </set>
  </array>
 </atominfo>
 <structure name="initialpos" >
  <crystal>
   <varray name="basis" >
    <v>      13.31093562       0.00000000       0.00000000 </v>
    <v>       0.00000000      13.31093562       0.00000000 </v>
    <v>       0.00000000       0.00000000      13.31093562 </v>
   </varray>
   <i name="volume">   2358.44497833 </i>
   <varray name="rec_basis" >
    <v>       0.07512620       0.00000000       0.00000000 </v>
    <v>       0.00000000       0.07512620       0.00000000 </v>
    <v>       0.00000000       0.00000000       0.07512620 </v>
   </varray>
  </crystal>
  <varray name="positions" >
   <v>       0.32765233       0.70304461       0.03935359 </v>
   <v>       0.30230381       0.34360360       0.65944213 </v>
   <v>       0.89735115       0.82965492       0.97571618 </v>
   <v>       0.60733413       0.13492612       0.79978282 </v>
   <v>       0.92844460       0.82119032       0.69909183 </v>
   <v>       0.38478673       0.33556054       0.88629019 </v>
   <v>       0.54632957       0.94462225       0.64943654 </v>
   <v>       0.39827221       0.82346304       0.76247661 </v>
   <v>       0.65248214       0.20877348       0.53915176 </v>
   <v>       0.05129616       0.11310962       0.35832602 </v>
   <v>       0.73528842       0.96501305       0.17929398 </v>
   <v>       0.55413120       0.14162557       0.16914060 </v>
   <v>       0.65960872       0.43872315       0.12173354 </v>
   <v>       0.42807127       0.65737227       0.28342331 </v>
   <v>       0.48273696       0.68464565       0.54092063 </v>
   <v>       0.92501916       0.52281429       0.37255038 </v>
   <v>       0.70703511       0.76925424       0.35358570 </v>
   <v>       0.78010260       0.50203075       0.54619627 </v>
   <v>       0.08478704       0.23663909       0.99820230 </v>
   <v>       0.06022640       0.54986276       0.67524958 </v>
   <v>       0.15686934       0.52348956       0.18595341 </v>
   <v>       0.87821146       0.13102072       0.61640569 </v>
   <v>       0.41145743       0.86159510       0.42906797 </v>
   <v>       0.29877142       0.05798612       0.64272441 </v>
   <v>       0.26945854       0.14881048       0.23894459 </v>
   <v>       0.47072342       0.53676786       0.73001778 </v>
   <v>       0.91043638       0.62216545       0.09515456 </v>
   <v>       0.44505078       0.20966216       0.41160103 </v>
   <v>       0.66418117       0.38639720       0.78116821 </v>
   <v>       0.17011424       0.71491089       0.48938260 </v>
   <v>       0.89307674       0.38609802       0.16866574 </v>
   <v>       0.95086221       0.71618793       0.48513836 </v>
   <v>       0.54277694       0.52882455       0.37604816 </v>
   <v>       0.57243264       0.00338326       0.37536752 </v>
   <v>       0.20345877       0.73360756       0.28882747 </v>
   <v>       0.42954768       0.01874356       0.90298094 </v>
   <v>       0.69606889       0.78738518       0.67648385 </v>
   <v>       0.39385528       0.44802915       0.47470481 </v>
   <v>       0.85444846       0.40099209       0.77947931 </v>
   <v>       0.91552428       0.78886766       0.22457574 </v>
   <v>       0.22781595       0.76250073       0.67628320 </v>
   <v>       0.11865194       0.40060239       0.41874045 </v>
   <v>       0.79613916       0.27385138       0.40831614 </v>
   <v>       0.53991576       0.60817984       0.01119942 </v>
   <v>       0.96865953       0.03698868       0.10528626 </v>
   <v>       0.08201718       0.64133264       0.87464764 </v>
   <v>       0.36060986       0.43450381       0.12700266 </v>
   <v>       0.56599783       0.82663867       0.03822986 </v>
   <v>       0.19819643       0.21496708       0.46902797 </v>
   <v>       0.07678694       0.01685963       0.77757484 </v>
   <v>       0.23246471       0.42437853       0.86249952 </v>
   <v>       0.31771560       0.09161666       0.03865856 </v>
   <v>       0.78703005       0.19557052       0.10969968 </v>
   <v>       0.24527678       0.92182849       0.21923972 </v>
   <v>       0.62916158       0.85124851       0.74895835 </v>
   <v>       0.82666071       0.74360403       0.14428597 </v>
   <v>       0.53323708       0.89317225       0.37744678 </v>
   <v>       0.21447419       0.81034448       0.77592197 </v>
   <v>       0.19652333       0.02912325       0.29554352 </v>
   <v>       0.31078987       0.20656706       0.39577943 </v>
   <v>       0.97237738       0.98291064       0.72251713 </v>
   <v>       0.37595617       0.99436037       0.76319365 </v>
   <v>       0.26634410       0.71743559       0.38091022 </v>
   <v>       0.72131727       0.17699565       0.21292213 </v>
   <v>       0.47388512       0.21630332       0.54329200 </v>
   <v>       0.87008231       0.61410879       0.50337603 </v>
   <v>       0.15429741       0.81515357       0.56177986 </v>
   <v>       0.45671071       0.60958956       0.91598515 </v>
   <v>       0.82857587       0.47313024       0.13402756 </v>
   <v>       0.02324795       0.70123195       0.80233385 </v>
   <v>       0.49179215       0.76796630       0.09086706 </v>
   <v>       0.67627618       0.89956875       0.04604724 </v>
   <v>       0.91665866       0.89666730       0.17755039 </v>
   <v>       0.90780101       0.47656145       0.68866796 </v>
   <v>       0.21420143       0.66493245       0.19113528 </v>
   <v>       0.40254869       0.16579088       0.12805024 </v>
   <v>       0.97423535       0.68470920       0.23823484 </v>
   <v>       0.37635446       0.34493880       0.40855016 </v>
   <v>       0.07704149       0.65991736       0.44985560 </v>
   <v>       0.82098222       0.17918823       0.47290398 </v>
   <v>       0.36482121       0.48929238       0.59159360 </v>
   <v>       0.59177041       0.04472187       0.49274167 </v>
   <v>       0.95995653       0.60603810       0.93543973 </v>
   <v>       0.75241467       0.42566198       0.86996419 </v>
   <v>       0.36323688       0.56162280       0.13004953 </v>
   <v>       0.66048945       0.27288931       0.83967402 </v>
   <v>       0.86628445       0.07613059       0.13114779 </v>
   <v>       0.73159798       0.37177767       0.43201009 </v>
   <v>       0.09516341       0.13459116       0.80510628 </v>
   <v>       0.53667848       0.53654279       0.51145574 </v>
   <v>       0.33617653       0.83112968       0.22800185 </v>
   <v>       0.16800152       0.97098762       0.72698868 </v>
   <v>       0.24101289       0.18260321       0.99342825 </v>
   <v>       0.15207464       0.84504654       0.21143676 </v>
   <v>       0.47838841       0.91660279       0.95879077 </v>
   <v>       0.65248360       0.67591289       0.68887672 </v>
   <v>       0.00517102       0.44911520       0.15945725 </v>
   <v>       0.97131326       0.73769920       0.60220890 </v>
   <v>       0.69357901       0.16455145       0.65907557 </v>
   <v>       0.20450226       0.64810381       0.93441238 </v>
   <v>       0.15587044       0.11889795       0.52526676 </v>
   <v>       0.42988719       0.33933764       0.04877193 </v>
   <v>       0.20707494       0.62896553       0.58733899 </v>
   <v>       0.89432011       0.27064421       0.32006597 </v>
   <v>       0.26194632       0.30323386       0.82143572 </v>
   <v>       0.32808595       0.77407384       0.58056942 </v>
   <v>       0.56719431       0.66514344       0.38305124 </v>
   <v>       0.45241732       0.03992904       0.34766180 </v>
   <v>       0.27144322       0.39272679       0.19085028 </v>
   <v>       0.59780341       0.72691777       0.96772315 </v>
   <v>       0.23378090       0.41990652       0.98586797 </v>
   <v>       0.94897488       0.31717738       0.80599228 </v>
   <v>       0.03647260       0.10485049       0.16568011 </v>
   <v>       0.61292986       0.59498291       0.11586556 </v>
   <v>       0.16031526       0.33483183       0.52933769 </v>
   <v>       0.12444288       0.50951390       0.83471279 </v>
   <v>       0.80084584       0.86290511       0.59288794 </v>
   <v>       0.71406576       0.22659669       0.02509820 </v>
   <v>       0.21924114       0.45205439       0.40616176 </v>
   <v>       0.37415918       0.54464437       0.38875849 </v>
   <v>       0.42856646       0.12707665       0.92910919 </v>
   <v>       0.52413870       0.21904618       0.34048169 </v>
   <v>       0.57547751       0.44515591       0.27683737 </v>
   <v>       0.59972924       0.39723185       0.69089082 </v>
   <v>       0.94418032       0.02840333       0.99831377 </v>
   <v>       0.26236343       0.99551981       0.12518689 </v>
   <v>       0.71022603       0.99586495       0.32282330 </v>
   <v>       0.31796371       0.97855299       0.94754774 </v>
   <v>       0.11109305       0.25206679       0.37085509 </v>
   <v>       0.76591948       0.34139304       0.69086041 </v>
   <v>       0.34842535       0.48260689       0.82267329 </v>
   <v>       0.99999963       0.41196911       0.40534121 </v>
   <v>       0.91613890       0.75223740       0.38613837 </v>
   <v>       0.90230900       0.28325749       0.08264579 </v>
   <v>       0.44720408       0.85198207       0.60478076 </v>
  </varray>
  <varray name="velocities" >
   <v>       0.00000000       0.00000000       0.00000000 </v>
   <v>       0.00000000       0.00000000       0.00000000 </v>
   <v>       0.00000000       0.00000000       0.00000000 </v>
   <v>       0.00000000       0.00000000       0.00000000 </v>
   <v>       0.00000000       0.00000000       0.00000000 </v>
   <v>       0.00000000       0.00000000       0.00000000 </v>
   <v>       0.00000000       0.00000000       0.00000000 </v>
   <v>       0.00000000       0.00000000       0.00000000 </v>
   <v>       0.00000000       0.00000000       0.00000000 </v>
   <v>       0.00000000       0.00000000       0.00000000 </v>
   <v>       0.00000000       0.00000000       0.00000000 </v>
   <v>       0.00000000       0.00000000       0.00000000 </v>
   <v>       0.00000000       0.00000000       0.00000000 </v>
   <v>       0.00000000       0.00000000       0.00000000 </v>
   <v>       0.00000000       0.00000000       0.00000000 </v>
   <v>       0.00000000       0.00000000       0.00000000 </v>
   <v>       0.00000000       0.00000000       0.00000000 </v>
   <v>       0.00000000       0.00000000       0.00000000 </v>
   <v>       0.00000000       0.00000000       0.00000000 </v>
   <v>       0.00000000       0.00000000       0.00000000 </v>
   <v>       0.00000000       0.00000000       0.00000000 </v>
   <v>       0.00000000       0.00000000       0.00000000 </v>
   <v>       0.00000000       0.00000000       0.00000000 </v>
   <v>       0.00000000       0.00000000       0.00000000 </v>
   <v>       0.00000000       0.00000000       0.00000000 </v>
   <v>       0.00000000       0.00000000       0.00000000 </v>
   <v>       0.00000000       0.00000000       0.00000000 </v>
   <v>       0.00000000       0.00000000       0.00000000 </v>
   <v>       0.00000000       0.00000000       0.00000000 </v>
   <v>       0.00000000       0.00000000       0.00000000 </v>
   <v>       0.00000000       0.00000000       0.00000000 </v>
   <v>       0.00000000       0.00000000       0.00000000 </v>
   <v>       0.00000000       0.00000000       0.00000000 </v>
   <v>       0.00000000       0.00000000       0.00000000 </v>
   <v>       0.00000000       0.00000000       0.00000000 </v>
   <v>       0.00000000       0.00000000       0.00000000 </v>
   <v>       0.00000000       0.00000000       0.00000000 </v>
   <v>       0.00000000       0.00000000       0.00000000 </v>
   <v>       0.00000000       0.00000000       0.00000000 </v>
   <v>       0.00000000       0.00000000       0.00000000 </v>
   <v>       0.00000000       0.00000000       0.00000000 </v>
   <v>       0.00000000       0.00000000       0.00000000 </v>
   <v>       0.00000000       0.00000000       0.00000000 </v>
   <v>       0.00000000       0.00000000       0.00000000 </v>
   <v>       0.00000000       0.00000000       0.00000000 </v>
   <v>       0.00000000       0.00000000       0.00000000 </v>
   <v>       0.00000000       0.00000000       0.00000000 </v>
   <v>       0.00000000       0.00000000       0.00000000 </v>
   <v>       0.00000000       0.00000000       0.00000000 </v>
   <v>       0.00000000       0.00000000       0.00000000 </v>
   <v>       0.00000000       0.00000000       0.00000000 </v>
   <v>       0.00000000       0.00000000       0.00000000 </v>
   <v>       0.00000000       0.00000000       0.00000000 </v>
   <v>       0.00000000       0.00000000       0.00000000 </v>
   <v>       0.00000000       0.00000000       0.00000000 </v>
   <v>       0.00000000       0.00000000       0.00000000 </v>
   <v>       0.00000000       0.00000000       0.00000000 </v>
   <v>       0.00000000       0.00000000       0.00000000 </v>
   <v>       0.00000000       0.00000000       0.00000000 </v>
   <v>       0.00000000       0.00000000       0.00000000 </v>
   <v>       0.00000000       0.00000000       0.00000000 </v>
   <v>       0.00000000       0.00000000       0.00000000 </v>
   <v>       0.00000000       0.00000000       0.00000000 </v>
   <v>       0.00000000       0.00000000       0.00000000 </v>
   <v>       0.00000000       0.00000000       0.00000000 </v>
   <v>       0.00000000       0.00000000       0.00000000 </v>
   <v>       0.00000000       0.00000000       0.00000000 </v>
   <v>       0.00000000       0.00000000       0.00000000 </v>
   <v>       0.00000000       0.00000000       0.00000000 </v>
   <v>       0.00000000       0.00000000       0.00000000 </v>
   <v>       0.00000000       0.00000000       0.00000000 </v>
   <v>       0.00000000       0.00000000       0.00000000 </v>
   <v>       0.00000000       0.00000000       0.00000000 </v>
   <v>       0.00000000       0.00000000       0.00000000 </v>
   <v>       0.00000000       0.00000000       0.00000000 </v>
   <v>       0.00000000       0.00000000       0.00000000 </v>
   <v>       0.00000000       0.00000000       0.00000000 </v>
   <v>       0.00000000       0.00000000       0.00000000 </v>
   <v>       0.00000000       0.00000000       0.00000000 </v>
   <v>       0.00000000       0.00000000       0.00000000 </v>
   <v>       0.00000000       0.00000000       0.00000000 </v>
   <v>       0.00000000       0.00000000       0.00000000 </v>
   <v>       0.00000000       0.00000000       0.00000000 </v>
   <v>       0.00000000       0.00000000       0.00000000 </v>
   <v>       0.00000000       0.00000000       0.00000000 </v>
   <v>       0.00000000       0.00000000       0.00000000 </v>
   <v>       0.00000000       0.00000000       0.00000000 </v>
   <v>       0.00000000       0.00000000       0.00000000 </v>
   <v>       0.00000000       0.00000000       0.00000000 </v>
   <v>       0.00000000       0.00000000       0.00000000 </v>
   <v>       0.00000000       0.00000000       0.00000000 </v>
   <v>       0.00000000       0.00000000       0.00000000 </v>
   <v>       0.00000000       0.00000000       0.00000000 </v>
   <v>       0.00000000       0.00000000       0.00000000 </v>
   <v>       0.00000000       0.00000000       0.00000000 </v>
   <v>       0.00000000       0.00000000       0.00000000 </v>
   <v>       0.00000000       0.00000000       0.00000000 </v>
   <v>       0.00000000       0.00000000       0.00000000 </v>
   <v>       0.00000000       0.00000000       0.00000000 </v>
   <v>       0.00000000       0.00000000       0.00000000 </v>
   <v>       0.00000000       0.00000000       0.00000000 </v>
   <v>       0.00000000       0.00000000       0.00000000 </v>
   <v>       0.00000000       0.00000000       0.00000000 </v>
   <v>       0.00000000       0.00000000       0.00000000 </v>
   <v>       0.00000000       0.00000000       0.00000000 </v>
   <v>       0.00000000       0.00000000       0.00000000 </v>
   <v>       0.00000000       0.00000000       0.00000000 </v>
   <v>       0.00000000       0.00000000       0.00000000 </v>
   <v>       0.00000000       0.00000000       0.00000000 </v>
   <v>       0.00000000       0.00000000       0.00000000 </v>
   <v>       0.00000000       0.00000000       0.00000000 </v>
   <v>       0.00000000       0.00000000       0.00000000 </v>
   <v>       0.00000000       0.00000000       0.00000000 </v>
   <v>       0.00000000       0.00000000       0.00000000 </v>
   <v>       0.00000000       0.00000000       0.00000000 </v>
   <v>       0.00000000       0.00000000       0.00000000 </v>
   <v>       0.00000000       0.00000000       0.00000000 </v>
   <v>       0.00000000       0.00000000       0.00000000 </v>
   <v>       0.00000000       0.00000000       0.00000000 </v>
   <v>       0.00000000       0.00000000       0.00000000 </v>
   <v>       0.00000000       0.00000000       0.00000000 </v>
   <v>       0.00000000       0.00000000       0.00000000 </v>
   <v>       0.00000000       0.00000000       0.00000000 </v>
   <v>       0.00000000       0.00000000       0.00000000 </v>
   <v>       0.00000000       0.00000000       0.00000000 </v>
   <v>       0.00000000       0.00000000       0.00000000 </v>
   <v>       0.00000000       0.00000000       0.00000000 </v>
   <v>       0.00000000       0.00000000       0.00000000 </v>
   <v>       0.00000000       0.00000000       0.00000000 </v>
   <v>       0.00000000       0.00000000       0.00000000 </v>
   <v>       0.00000000       0.00000000       0.00000000 </v>
   <v>       0.00000000       0.00000000       0.00000000 </v>
   <v>       0.00000000       0.00000000       0.00000000 </v>
   <v>       0.00000000       0.00000000       0.00000000 </v>
   <v>       0.00000000       0.00000000       0.00000000 </v>
  </varray>
 </structure>
 <calculation>
  <scstep>
   <time name="dav">   48.11   48.10</time>
   <time name="total">   48.71   48.72</time>
   <energy>
    <i name="alphaZ">   2026.14881195 </i>
    <i name="ewald"> -36474.69115708 </i>
    <i name="hartreedc"> -24306.20028448 </i>
    <i name="XCdc">   3122.02546213 </i>
    <i name="pawpsdc">  50594.51003143 </i>
    <i name="pawaedc"> -49994.65612350 </i>
    <i name="eentropy">     -0.02843663 </i>
    <i name="bandstr">   -732.57230763 </i>
    <i name="atom">  64968.54023382 </i>
    <i name="e_fr_energy">   9203.07623002 </i>
    <i name="e_wo_entrp">   9203.10466666 </i>
    <i name="e_0_energy">   9203.09044834 </i>
   </energy>
  </scstep>
  <scstep>
   <time name="dav">   56.66   56.68</time>
   <time name="total">   56.66   56.68</time>
   <energy>
    <i name="e_fr_energy">     57.93843411 </i>
    <i name="e_wo_entrp">     57.93843411 </i>
    <i name="e_0_energy">     57.93843411 </i>
   </energy>
  </scstep>
  <scstep>
   <time name="dav">   56.79   56.79</time>
   <time name="total">   56.79   56.79</time>
   <energy>
    <i name="e_fr_energy">   -987.52738718 </i>
    <i name="e_wo_entrp">   -987.52738718 </i>
    <i name="e_0_energy">   -987.52738718 </i>
   </energy>
  </scstep>
  <scstep>
   <time name="dav">   60.57   60.58</time>
   <time name="total">   60.57   60.58</time>
   <energy>
    <i name="e_fr_energy">  -1036.02616403 </i>
    <i name="e_wo_entrp">  -1036.02616403 </i>
    <i name="e_0_energy">  -1036.02616403 </i>
   </energy>
  </scstep>
  <scstep>
   <time name="dav">   76.68   76.70</time>
   <time name="total">   78.83   78.85</time>
   <energy>
    <i name="e_fr_energy">  -1042.38383277 </i>
    <i name="e_wo_entrp">  -1042.38383277 </i>
    <i name="e_0_energy">  -1042.38383277 </i>
   </energy>
  </scstep>
  <scstep>
   <time name="dav">   55.86   55.86</time>
   <time name="total">   58.53   58.55</time>
   <energy>
    <i name="e_fr_energy">   -870.34106181 </i>
    <i name="e_wo_entrp">   -870.33753679 </i>
    <i name="e_0_energy">   -870.33929930 </i>
   </energy>
  </scstep>
  <scstep>
   <time name="dav">   58.90   58.90</time>
   <time name="total">   61.63   61.64</time>
   <energy>
    <i name="e_fr_energy">   -870.82900903 </i>
    <i name="e_wo_entrp">   -870.79229680 </i>
    <i name="e_0_energy">   -870.81065291 </i>
   </energy>
  </scstep>
  <scstep>
   <time name="dav">   65.76   65.76</time>
   <time name="total">   68.50   68.51</time>
   <energy>
    <i name="e_fr_energy">   -866.90982930 </i>
    <i name="e_wo_entrp">   -866.88727813 </i>
    <i name="e_0_energy">   -866.89855372 </i>
   </energy>
  </scstep>
  <scstep>
   <time name="dav">   62.17   62.17</time>
   <time name="total">   64.90   64.91</time>
   <energy>
    <i name="e_fr_energy">   -865.80160752 </i>
    <i name="e_wo_entrp">   -865.78738067 </i>
    <i name="e_0_energy">   -865.79449410 </i>
   </energy>
  </scstep>
  <scstep>
   <time name="dav">   58.99   58.99</time>
   <time name="total">   61.74   61.76</time>
   <energy>
    <i name="e_fr_energy">   -866.13082175 </i>
    <i name="e_wo_entrp">   -866.09567190 </i>
    <i name="e_0_energy">   -866.11324682 </i>
   </energy>
  </scstep>
  <scstep>
   <time name="dav">   59.52   59.52</time>
   <time name="total">   62.22   62.23</time>
   <energy>
    <i name="e_fr_energy">   -865.26915631 </i>
    <i name="e_wo_entrp">   -865.25871256 </i>
    <i name="e_0_energy">   -865.26393443 </i>
   </energy>
  </scstep>
  <scstep>
   <time name="dav">   61.22   61.23</time>
   <time name="total">   63.98   64.00</time>
   <energy>
    <i name="e_fr_energy">   -865.24045393 </i>
    <i name="e_wo_entrp">   -865.20957435 </i>
    <i name="e_0_energy">   -865.22501414 </i>
   </energy>
  </scstep>
  <scstep>
   <time name="dav">   61.77   61.78</time>
   <time name="total">   64.43   64.45</time>
   <energy>
    <i name="e_fr_energy">   -865.20542230 </i>
    <i name="e_wo_entrp">   -865.19135197 </i>
    <i name="e_0_energy">   -865.19838714 </i>
   </energy>
  </scstep>
  <scstep>
   <time name="dav">   61.21   61.21</time>
   <time name="total">   63.99   64.01</time>
   <energy>
    <i name="e_fr_energy">   -865.15579135 </i>
    <i name="e_wo_entrp">   -865.13495813 </i>
    <i name="e_0_energy">   -865.14537474 </i>
   </energy>
  </scstep>
  <scstep>
   <time name="dav">   62.22   62.22</time>
   <time name="total">   64.97   64.98</time>
   <energy>
    <i name="e_fr_energy">   -865.12598084 </i>
    <i name="e_wo_entrp">   -865.10162176 </i>
    <i name="e_0_energy">   -865.11380130 </i>
   </energy>
  </scstep>
  <scstep>
   <time name="dav">   59.65   59.65</time>
   <time name="total">   62.37   62.38</time>
   <energy>
    <i name="e_fr_energy">   -865.08325110 </i>
    <i name="e_wo_entrp">   -865.05896634 </i>
    <i name="e_0_energy">   -865.07110872 </i>
   </energy>
  </scstep>
  <scstep>
   <time name="dav">   58.02   58.02</time>
   <time name="total">   60.78   60.79</time>
   <energy>
    <i name="e_fr_energy">   -865.07546705 </i>
    <i name="e_wo_entrp">   -865.04490291 </i>
    <i name="e_0_energy">   -865.06018498 </i>
   </energy>
  </scstep>
  <scstep>
   <time name="dav">   57.85   57.85</time>
   <time name="total">   60.61   60.63</time>
   <energy>
    <i name="e_fr_energy">   -865.07073163 </i>
    <i name="e_wo_entrp">   -865.03689916 </i>
    <i name="e_0_energy">   -865.05381540 </i>
   </energy>
  </scstep>
  <scstep>
   <time name="dav">   56.73   56.73</time>
   <time name="total">   59.50   59.51</time>
   <energy>
    <i name="e_fr_energy">   -865.07153146 </i>
    <i name="e_wo_entrp">   -865.03721495 </i>
    <i name="e_0_energy">   -865.05437320 </i>
   </energy>
  </scstep>
  <scstep>
   <time name="dav">   56.57   56.57</time>
   <time name="total">   59.27   59.28</time>
   <energy>
    <i name="e_fr_energy">   -865.07704346 </i>
    <i name="e_wo_entrp">   -865.04065877 </i>
    <i name="e_0_energy">   -865.05885112 </i>
   </energy>
  </scstep>
  <scstep>
   <time name="dav">   56.21   56.21</time>
   <time name="total">   58.91   58.93</time>
   <energy>
    <i name="e_fr_energy">   -865.06862544 </i>
    <i name="e_wo_entrp">   -865.03274729 </i>
    <i name="e_0_energy">   -865.05068636 </i>
   </energy>
  </scstep>
  <scstep>
   <time name="dav">   52.67   52.67</time>
   <time name="total">   55.38   55.38</time>
   <energy>
    <i name="e_fr_energy">   -865.07027462 </i>
    <i name="e_wo_entrp">   -865.03511575 </i>
    <i name="e_0_energy">   -865.05269518 </i>
   </energy>
  </scstep>
  <scstep>
   <time name="dav">   60.19   60.19</time>
   <time name="total">   62.93   62.94</time>
   <energy>
    <i name="e_fr_energy">   -865.06772419 </i>
    <i name="e_wo_entrp">   -865.03130281 </i>
    <i name="e_0_energy">   -865.04951350 </i>
   </energy>
  </scstep>
  <scstep>
   <time name="dav">   53.62   53.62</time>
   <time name="total">   56.30   56.31</time>
   <energy>
    <i name="e_fr_energy">   -865.06799515 </i>
    <i name="e_wo_entrp">   -865.03210883 </i>
    <i name="e_0_energy">   -865.05005199 </i>
   </energy>
  </scstep>
  <scstep>
   <time name="dav">   55.73   55.73</time>
   <time name="total">   58.40   58.40</time>
   <energy>
    <i name="e_fr_energy">   -865.06758713 </i>
    <i name="e_wo_entrp">   -865.03282998 </i>
    <i name="e_0_energy">   -865.05020856 </i>
   </energy>
  </scstep>
  <scstep>
   <time name="dav">   54.35   54.34</time>
   <time name="total">   57.02   57.04</time>
   <energy>
    <i name="e_fr_energy">   -865.06751870 </i>
    <i name="e_wo_entrp">   -865.03318720 </i>
    <i name="e_0_energy">   -865.05035295 </i>
   </energy>
  </scstep>
  <scstep>
   <time name="dav">   51.23   51.23</time>
   <time name="total">   53.90   53.90</time>
   <energy>
    <i name="e_fr_energy">   -865.06753051 </i>
    <i name="e_wo_entrp">   -865.03303433 </i>
    <i name="e_0_energy">   -865.05028242 </i>
   </energy>
  </scstep>
  <scstep>
   <time name="dav">   55.08   55.08</time>
   <time name="total">   57.80   57.81</time>
   <energy>
    <i name="e_fr_energy">   -865.06752745 </i>
    <i name="e_wo_entrp">   -865.03320412 </i>
    <i name="e_0_energy">   -865.05036578 </i>
   </energy>
  </scstep>
  <scstep>
   <time name="dav">   49.03   49.03</time>
   <time name="total">   51.71   51.71</time>
   <energy>
    <i name="e_fr_energy">   -865.06752573 </i>
    <i name="e_wo_entrp">   -865.03320498 </i>
    <i name="e_0_energy">   -865.05036536 </i>
   </energy>
  </scstep>
  <scstep>
   <time name="dav">   48.22   48.22</time>
   <time name="total">   50.93   50.95</time>
   <energy>
    <i name="e_fr_energy">   -865.06752928 </i>
    <i name="e_wo_entrp">   -865.03336810 </i>
    <i name="e_0_energy">   -865.05044869 </i>
   </energy>
  </scstep>
  <scstep>
   <time name="dav">   39.32   39.32</time>
   <time name="total">   42.05   42.05</time>
   <energy>
    <i name="e_fr_energy">   -865.06752442 </i>
    <i name="e_wo_entrp">   -865.03331249 </i>
    <i name="e_0_energy">   -865.05041846 </i>
   </energy>
  </scstep>
  <scstep>
   <time name="dav">   36.74   36.74</time>
   <time name="total">   37.36   37.38</time>
   <energy>
    <i name="alphaZ">   2026.14881195 </i>
    <i name="ewald"> -36474.69115708 </i>
    <i name="hartreedc"> -26174.68932815 </i>
    <i name="XCdc">   3227.40408136 </i>
    <i name="pawpsdc">  85156.17799248 </i>
    <i name="pawaedc"> -84812.42444755 </i>
    <i name="eentropy">     -0.03423696 </i>
    <i name="bandstr">  -8781.49947461 </i>
    <i name="atom">  64968.54023382 </i>
    <i name="e_fr_energy">   -865.06752472 </i>
    <i name="e_wo_entrp">   -865.03328776 </i>
    <i name="e_0_energy">   -865.05040624 </i>
   </energy>
  </scstep>
  <structure>
   <crystal>
    <varray name="basis" >
     <v>      13.31093562       0.00000000       0.00000000 </v>
     <v>       0.00000000      13.31093562       0.00000000 </v>
     <v>       0.00000000       0.00000000      13.31093562 </v>
    </varray>
    <i name="volume">   2358.44497833 </i>
    <varray name="rec_basis" >
     <v>       0.07512620       0.00000000       0.00000000 </v>
     <v>       0.00000000       0.07512620       0.00000000 </v>
     <v>       0.00000000       0.00000000       0.07512620 </v>
    </varray>
   </crystal>
   <varray name="positions" >
    <v>       0.32765233       0.70304461       0.03935359 </v>
    <v>       0.30230381       0.34360360       0.65944213 </v>
    <v>       0.89735115       0.82965492       0.97571618 </v>
    <v>       0.60733413       0.13492612       0.79978282 </v>
    <v>       0.92844460       0.82119032       0.69909183 </v>
    <v>       0.38478673       0.33556054       0.88629019 </v>
    <v>       0.54632957       0.94462225       0.64943654 </v>
    <v>       0.39827221       0.82346304       0.76247661 </v>
    <v>       0.65248214       0.20877348       0.53915176 </v>
    <v>       0.05129616       0.11310962       0.35832602 </v>
    <v>       0.73528842       0.96501305       0.17929398 </v>
    <v>       0.55413120       0.14162557       0.16914060 </v>
    <v>       0.65960872       0.43872315       0.12173354 </v>
    <v>       0.42807127       0.65737227       0.28342331 </v>
    <v>       0.48273696       0.68464565       0.54092063 </v>
    <v>       0.92501916       0.52281429       0.37255038 </v>
    <v>       0.70703511       0.76925424       0.35358570 </v>
    <v>       0.78010260       0.50203075       0.54619627 </v>
    <v>       0.08478704       0.23663909       0.99820230 </v>
    <v>       0.06022640       0.54986276       0.67524958 </v>
    <v>       0.15686934       0.52348956       0.18595341 </v>
    <v>       0.87821146       0.13102072       0.61640569 </v>
    <v>       0.41145743       0.86159510       0.42906797 </v>
    <v>       0.29877142       0.05798612       0.64272441 </v>
    <v>       0.26945854       0.14881048       0.23894459 </v>
    <v>       0.47072342       0.53676786       0.73001778 </v>
    <v>       0.91043638       0.62216545       0.09515456 </v>
    <v>       0.44505078       0.20966216       0.41160103 </v>
    <v>       0.66418117       0.38639720       0.78116821 </v>
    <v>       0.17011424       0.71491089       0.48938260 </v>
    <v>       0.89307674       0.38609802       0.16866574 </v>
    <v>       0.95086221       0.71618793       0.48513836 </v>
    <v>       0.54277694       0.52882455       0.37604816 </v>
    <v>       0.57243264       0.00338326       0.37536752 </v>
    <v>       0.20345877       0.73360756       0.28882747 </v>
    <v>       0.42954768       0.01874356       0.90298094 </v>
    <v>       0.69606889       0.78738518       0.67648385 </v>
    <v>       0.39385528       0.44802915       0.47470481 </v>
    <v>       0.85444846       0.40099209       0.77947931 </v>
    <v>       0.91552428       0.78886766       0.22457574 </v>
    <v>       0.22781595       0.76250073       0.67628320 </v>
    <v>       0.11865194       0.40060239       0.41874045 </v>
    <v>       0.79613916       0.27385138       0.40831614 </v>
    <v>       0.53991576       0.60817984       0.01119942 </v>
    <v>       0.96865953       0.03698868       0.10528626 </v>
    <v>       0.08201718       0.64133264       0.87464764 </v>
    <v>       0.36060986       0.43450381       0.12700266 </v>
    <v>       0.56599783       0.82663867       0.03822986 </v>
    <v>       0.19819643       0.21496708       0.46902797 </v>
    <v>       0.07678694       0.01685963       0.77757484 </v>
    <v>       0.23246471       0.42437853       0.86249952 </v>
    <v>       0.31771560       0.09161666       0.03865856 </v>
    <v>       0.78703005       0.19557052       0.10969968 </v>
    <v>       0.24527678       0.92182849       0.21923972 </v>
    <v>       0.62916158       0.85124851       0.74895835 </v>
    <v>       0.82666071       0.74360403       0.14428597 </v>
    <v>       0.53323708       0.89317225       0.37744678 </v>
    <v>       0.21447419       0.81034448       0.77592197 </v>
    <v>       0.19652333       0.02912325       0.29554352 </v>
    <v>       0.31078987       0.20656706       0.39577943 </v>
    <v>       0.97237738       0.98291064       0.72251713 </v>
    <v>       0.37595617       0.99436037       0.76319365 </v>
    <v>       0.26634410       0.71743559       0.38091022 </v>
    <v>       0.72131727       0.17699565       0.21292213 </v>
    <v>       0.47388512       0.21630332       0.54329200 </v>
    <v>       0.87008231       0.61410879       0.50337603 </v>
    <v>       0.15429741       0.81515357       0.56177986 </v>
    <v>       0.45671071       0.60958956       0.91598515 </v>
    <v>       0.82857587       0.47313024       0.13402756 </v>
    <v>       0.02324795       0.70123195       0.80233385 </v>
    <v>       0.49179215       0.76796630       0.09086706 </v>
    <v>       0.67627618       0.89956875       0.04604724 </v>
    <v>       0.91665866       0.89666730       0.17755039 </v>
    <v>       0.90780101       0.47656145       0.68866796 </v>
    <v>       0.21420143       0.66493245       0.19113528 </v>
    <v>       0.40254869       0.16579088       0.12805024 </v>
    <v>       0.97423535       0.68470920       0.23823484 </v>
    <v>       0.37635446       0.34493880       0.40855016 </v>
    <v>       0.07704149       0.65991736       0.44985560 </v>
    <v>       0.82098222       0.17918823       0.47290398 </v>
    <v>       0.36482121       0.48929238       0.59159360 </v>
    <v>       0.59177041       0.04472187       0.49274167 </v>
    <v>       0.95995653       0.60603810       0.93543973 </v>
    <v>       0.75241467       0.42566198       0.86996419 </v>
    <v>       0.36323688       0.56162280       0.13004953 </v>
    <v>       0.66048945       0.27288931       0.83967402 </v>
    <v>       0.86628445       0.07613059       0.13114779 </v>
    <v>       0.73159798       0.37177767       0.43201009 </v>
    <v>       0.09516341       0.13459116       0.80510628 </v>
    <v>       0.53667848       0.53654279       0.51145574 </v>
    <v>       0.33617653       0.83112968       0.22800185 </v>
    <v>       0.16800152       0.97098762       0.72698868 </v>
    <v>       0.24101289       0.18260321       0.99342825 </v>
    <v>       0.15207464       0.84504654       0.21143676 </v>
    <v>       0.47838841       0.91660279       0.95879077 </v>
    <v>       0.65248360       0.67591289       0.68887672 </v>
    <v>       0.00517102       0.44911520       0.15945725 </v>
    <v>       0.97131326       0.73769920       0.60220890 </v>
    <v>       0.69357901       0.16455145       0.65907557 </v>
    <v>       0.20450226       0.64810381       0.93441238 </v>
    <v>       0.15587044       0.11889795       0.52526676 </v>
    <v>       0.42988719       0.33933764       0.04877193 </v>
    <v>       0.20707494       0.62896553       0.58733899 </v>
    <v>       0.89432011       0.27064421       0.32006597 </v>
    <v>       0.26194632       0.30323386       0.82143572 </v>
    <v>       0.32808595       0.77407384       0.58056942 </v>
    <v>       0.56719431       0.66514344       0.38305124 </v>
    <v>       0.45241732       0.03992904       0.34766180 </v>
    <v>       0.27144322       0.39272679       0.19085028 </v>
    <v>       0.59780341       0.72691777       0.96772315 </v>
    <v>       0.23378090       0.41990652       0.98586797 </v>
    <v>       0.94897488       0.31717738       0.80599228 </v>
    <v>       0.03647260       0.10485049       0.16568011 </v>
    <v>       0.61292986       0.59498291       0.11586556 </v>
    <v>       0.16031526       0.33483183       0.52933769 </v>
    <v>       0.12444288       0.50951390       0.83471279 </v>
    <v>       0.80084584       0.86290511       0.59288794 </v>
    <v>       0.71406576       0.22659669       0.02509820 </v>
    <v>       0.21924114       0.45205439       0.40616176 </v>
    <v>       0.37415918       0.54464437       0.38875849 </v>
    <v>       0.42856646       0.12707665       0.92910919 </v>
    <v>       0.52413870       0.21904618       0.34048169 </v>
    <v>       0.57547751       0.44515591       0.27683737 </v>
    <v>       0.59972924       0.39723185       0.69089082 </v>
    <v>       0.94418032       0.02840333       0.99831377 </v>
    <v>       0.26236343       0.99551981       0.12518689 </v>
    <v>       0.71022603       0.99586495       0.32282330 </v>
    <v>       0.31796371       0.97855299       0.94754774 </v>
    <v>       0.11109305       0.25206679       0.37085509 </v>
    <v>       0.76591948       0.34139304       0.69086041 </v>
    <v>       0.34842535       0.48260689       0.82267329 </v>
    <v>       0.99999963       0.41196911       0.40534121 </v>
    <v>       0.91613890       0.75223740       0.38613837 </v>
    <v>       0.90230900       0.28325749       0.08264579 </v>
    <v>       0.44720408       0.85198207       0.60478076 </v>
   </varray>
  </structure>
  <varray name="forces" >
   <v>      -0.99336071      -0.03075056      -0.39944607 </v>
   <v>      -0.51233701       0.48761731      -0.89925617 </v>
   <v>      -0.52022144       0.97160424       0.82657889 </v>
   <v>       1.41570190       1.26898941      -0.02007423 </v>
   <v>      -1.00442723       3.67442784       4.57447115 </v>
   <v>       6.79607197      -2.14683312       5.14763921 </v>
   <v>       2.45545015       4.92697633      -0.98772041 </v>
   <v>       0.03285754       0.96485195       1.58275768 </v>
   <v>      -3.40434927       1.40529057      -4.26549216 </v>
   <v>      -1.06533660      -1.90996177      -1.84753900 </v>
   <v>       2.57966197       1.00757653      -1.94694448 </v>
   <v>      -0.06827222       1.42620813       0.76631254 </v>
   <v>      -0.23814413      -1.09145009       0.11064437 </v>
   <v>      -1.74599760       1.25023501      -3.41115718 </v>
   <v>      -0.28250816       0.49445479       0.57333908 </v>
   <v>      -2.00909065       4.19988555      -3.15213077 </v>
   <v>      -0.61489773       0.88968384       0.68730845 </v>
   <v>      -1.80543109      -2.32440646       3.56312739 </v>
   <v>       0.19003765      -0.39117900      -1.05816055 </v>
   <v>      -0.85560514       0.05120035       0.27004291 </v>
   <v>      -0.14725319      -3.17661259      -0.78668950 </v>
   <v>      -0.96313016      -0.00854765       2.35383160 </v>
   <v>      -5.94697288       0.91514127       1.17734864 </v>
   <v>      -2.14021394      -0.64378217       0.31672376 </v>
   <v>       0.98278086       2.10805206      -0.98094910 </v>
   <v>       0.34924107      -0.83751843       0.49014007 </v>
   <v>       0.76632668      -3.92435051      -1.17122698 </v>
   <v>      -7.84716565       0.73836510       9.36794613 </v>
   <v>       7.18954338      -7.07448802       3.98100096 </v>
   <v>       4.91820046      -0.11893292       5.51822475 </v>
   <v>       7.06989937      -4.52527673      -2.03810283 </v>
   <v>       1.21266946      -4.57499126       6.16142585 </v>
   <v>       1.08630039      -1.37377684       0.96920056 </v>
   <v>       2.38681652       3.49874347       2.91231445 </v>
   <v>      -2.88351877       4.37470515     -10.13917394 </v>
   <v>      -4.74456322      -8.99091238      -1.77904014 </v>
   <v>       1.99859121       0.30773245      -1.69362211 </v>
   <v>      -2.10662234       1.70395041      -0.95301090 </v>
   <v>       1.61997773      -3.07077191      -2.54391119 </v>
   <v>      -0.07352683      -3.16340331      -0.11407644 </v>
   <v>      -1.08566651      -2.38760792     -11.17543267 </v>
   <v>      -0.32683267      -5.55291513       1.77310861 </v>
   <v>       4.45229816       0.99245442      -5.18732220 </v>
   <v>       1.52542279       6.04513045      -0.82938012 </v>
   <v>       1.93855666      -1.41454920       3.76392577 </v>
   <v>       4.32891436      -6.55259112       8.16612356 </v>
   <v>       0.62559014      -2.21508849      -3.93466168 </v>
   <v>       7.53841387       5.15853454      -8.01394435 </v>
   <v>      -0.70308390       3.39476846      -2.93898316 </v>
   <v>      -1.53799007       4.69199714      -0.78034999 </v>
   <v>      -2.37244133       4.42137877       1.69295811 </v>
   <v>      -1.00038633       0.32535394      -0.88695519 </v>
   <v>       3.24004327      -1.53762068       1.88586346 </v>
   <v>       0.29702797       2.75694339       0.79449518 </v>
   <v>      -0.02358743       1.72191718       0.87761113 </v>
   <v>      -1.29009221       1.72647215       1.20188977 </v>
   <v>       5.77859047      -5.11833177      -1.96559831 </v>
   <v>       1.42639676       0.04681377       3.37596897 </v>
   <v>       0.11991539      -3.99650907       1.06861463 </v>
   <v>      -2.19681344      -3.15428160       1.91127432 </v>
   <v>      -0.73498760       0.17018162       0.69014281 </v>
   <v>       4.11941209      -0.04007097       1.55944029 </v>
   <v>       1.07654523      -0.39910366       6.91842763 </v>
   <v>       0.06333106       0.57674905      -0.23722870 </v>
   <v>      -2.07122093      -0.43412025      -1.96051061 </v>
   <v>       1.50032015       1.21984469      -1.72072461 </v>
   <v>       0.01078039      -0.49932209      -0.10879600 </v>
   <v>       1.48549786      -1.04316797       2.21166192 </v>
   <v>      -5.09688392       2.38553383       0.23551164 </v>
   <v>      -1.69498216       4.44391043      -5.97576113 </v>
   <v>      -7.68440828      -3.93606283       7.09734459 </v>
   <v>      -3.35751939      -1.70222885       0.20191077 </v>
   <v>       1.62656669       2.55443945      -0.16197373 </v>
   <v>      -0.75216904       0.63691415       0.86479152 </v>
   <v>       0.29197548       0.80984382       1.38710801 </v>
   <v>      -2.61371299      -3.48705651      -1.58601120 </v>
   <v>       1.98018518      -0.46193883      -0.83933772 </v>
   <v>       3.61192173       2.98696121       2.56778096 </v>
   <v>      -4.66273797      -0.82708048      -2.33799974 </v>
   <v>      -0.36890620      -0.58181693       1.09066224 </v>
   <v>       0.60929990      -1.95799986      -1.13633410 </v>
   <v>       0.03179997      -0.91624655      -0.76197925 </v>
   <v>       2.34245123       1.55362551       1.49015144 </v>
   <v>       0.84488322       1.86367845      -2.48649692 </v>
   <v>       1.79026718      -1.71655837       0.02155988 </v>
   <v>      -2.75111360       1.50954517      -0.40987396 </v>
   <v>      -9.84052389       4.31913597       2.98291819 </v>
   <v>       0.76135979      -0.33230961       0.39043377 </v>
   <v>      -0.96644924      -1.29305603       0.89609790 </v>
   <v>       0.70289859      -3.06498150      -3.05994343 </v>
   <v>      -0.90279177       0.56613206       2.04791985 </v>
   <v>       3.10526074      -0.93664018      -1.87635073 </v>
   <v>       0.61909198      -2.24152053       2.08671368 </v>
   <v>      -1.60158179      -2.40501266       2.38353417 </v>
   <v>       3.23209918      -0.53655894      -0.54491936 </v>
   <v>       0.27597326      -0.82505313      -1.92532016 </v>
   <v>      -0.95745191      -0.99187095       1.74674738 </v>
   <v>       2.30732586      -3.47023277      -5.62860164 </v>
   <v>       2.16724975      -4.04389048       5.65644433 </v>
   <v>      -3.49481504       1.55406712      -0.61265948 </v>
   <v>       0.82541305      -0.11944382       0.30008678 </v>
   <v>      -0.51993861       4.73513894       2.89186247 </v>
   <v>      -1.17211173       2.11775304       0.54512376 </v>
   <v>      -2.92243635       1.90131845       0.24113531 </v>
   <v>      -4.66212241       1.67213638      -3.21354376 </v>
   <v>      -2.85627515      -2.66402699       2.49799079 </v>
   <v>       0.09290896      -1.27433942      -1.50593534 </v>
   <v>       0.35918751       1.40437300      -0.42168830 </v>
[...]
       <r>     1.1699    46.2043   835.2187 </r>
       <r>     1.3456    36.2127   841.5814 </r>
       <r>     1.5213    41.5724   848.8857 </r>
       <r>     1.6970    23.6688   853.0444 </r>
       <r>     1.8727    42.1636   860.4526 </r>
       <r>     2.0484    26.4685   865.1032 </r>
       <r>     2.2241     9.8425   866.8325 </r>
       <r>     2.3998    10.9465   868.7559 </r>
       <r>     2.5755    19.1999   872.1293 </r>
       <r>     2.7512    16.3738   875.0062 </r>
       <r>     2.9269    15.3386   877.7013 </r>
       <r>     3.1026    16.0251   880.5169 </r>
       <r>     3.2784    18.5288   883.7725 </r>
       <r>     3.4541    19.2498   887.1547 </r>
       <r>     3.6298    21.0378   890.8511 </r>
       <r>     3.8055    40.3551   897.9416 </r>
       <r>     3.9812    37.5459   904.5385 </r>
       <r>     4.1569    34.1944   910.5465 </r>
       <r>     4.3326    40.2981   917.6270 </r>
       <r>     4.5083    39.6930   924.6011 </r>
       <r>     4.6840    42.5571   932.0785 </r>
       <r>     4.8597    36.2836   938.4536 </r>
       <r>     5.0354    38.7418   945.2606 </r>
       <r>     5.2111    44.8307   953.1375 </r>
       <r>     5.3868    49.4050   961.8180 </r>
       <r>     5.5625    63.8910   973.0438 </r>
       <r>     5.7382    67.0019   984.8162 </r>
       <r>     5.9139    65.2043   996.2727 </r>
       <r>     6.0896    69.9048  1008.5552 </r>
       <r>     6.2653    80.0625  1022.6223 </r>
       <r>     6.4410    80.6939  1036.8004 </r>
       <r>     6.6167    18.2090  1039.9998 </r>
       <r>     6.7924     0.0013  1040.0000 </r>
       <r>     6.9681     0.0000  1040.0000 </r>
       <r>     7.1438     0.0000  1040.0000 </r>
       <r>     7.3195     0.0000  1040.0000 </r>
       <r>     7.4952     0.0000  1040.0000 </r>
       <r>     7.6709     0.0000  1040.0000 </r>
       <r>     7.8466     0.0000  1040.0000 </r>
       <r>     8.0223     0.0000  1040.0000 </r>
       <r>     8.1980     0.0000  1040.0000 </r>
       <r>     8.3737     0.0000  1040.0000 </r>
       <r>     8.5494     0.0000  1040.0000 </r>
       <r>     8.7251     0.0000  1040.0000 </r>
       <r>     8.9008     0.0000  1040.0000 </r>
      </set>
     </set>
    </array>
   </total>
  </dos>
 </calculation>
 <structure name="finalpos" >
  <crystal>
   <varray name="basis" >
    <v>      13.31093562       0.00000000       0.00000000 </v>
    <v>       0.00000000      13.31093562       0.00000000 </v>
    <v>       0.00000000       0.00000000      13.31093562 </v>
   </varray>
   <i name="volume">   2358.44497833 </i>
   <varray name="rec_basis" >
    <v>       0.07512620       0.00000000       0.00000000 </v>
    <v>       0.00000000       0.07512620       0.00000000 </v>
    <v>       0.00000000       0.00000000       0.07512620 </v>
   </varray>
  </crystal>
  <varray name="positions" >
   <v>       0.32765233       0.70304461       0.03935359 </v>
   <v>       0.30230381       0.34360360       0.65944213 </v>
   <v>       0.89735115       0.82965492       0.97571618 </v>
   <v>       0.60733413       0.13492612       0.79978282 </v>
   <v>       0.92844460       0.82119032       0.69909183 </v>
   <v>       0.38478673       0.33556054       0.88629019 </v>
   <v>       0.54632957       0.94462225       0.64943654 </v>
   <v>       0.39827221       0.82346304       0.76247661 </v>
   <v>       0.65248214       0.20877348       0.53915176 </v>
   <v>       0.05129616       0.11310962       0.35832602 </v>
   <v>       0.73528842       0.96501305       0.17929398 </v>
   <v>       0.55413120       0.14162557       0.16914060 </v>
   <v>       0.65960872       0.43872315       0.12173354 </v>
   <v>       0.42807127       0.65737227       0.28342331 </v>
   <v>       0.48273696       0.68464565       0.54092063 </v>
   <v>       0.92501916       0.52281429       0.37255038 </v>
   <v>       0.70703511       0.76925424       0.35358570 </v>
   <v>       0.78010260       0.50203075       0.54619627 </v>
   <v>       0.08478704       0.23663909       0.99820230 </v>
   <v>       0.06022640       0.54986276       0.67524958 </v>
   <v>       0.15686934       0.52348956       0.18595341 </v>
   <v>       0.87821146       0.13102072       0.61640569 </v>
   <v>       0.41145743       0.86159510       0.42906797 </v>
   <v>       0.29877142       0.05798612       0.64272441 </v>
   <v>       0.26945854       0.14881048       0.23894459 </v>
   <v>       0.47072342       0.53676786       0.73001778 </v>
   <v>       0.91043638       0.62216545       0.09515456 </v>
   <v>       0.44505078       0.20966216       0.41160103 </v>
   <v>       0.66418117       0.38639720       0.78116821 </v>
   <v>       0.17011424       0.71491089       0.48938260 </v>
   <v>       0.89307674       0.38609802       0.16866574 </v>
   <v>       0.95086221       0.71618793       0.48513836 </v>
   <v>       0.54277694       0.52882455       0.37604816 </v>
   <v>       0.57243264       0.00338326       0.37536752 </v>
   <v>       0.20345877       0.73360756       0.28882747 </v>
   <v>       0.42954768       0.01874356       0.90298094 </v>
   <v>       0.69606889       0.78738518       0.67648385 </v>
   <v>       0.39385528       0.44802915       0.47470481 </v>
   <v>       0.85444846       0.40099209       0.77947931 </v>
   <v>       0.91552428       0.78886766       0.22457574 </v>
   <v>       0.22781595       0.76250073       0.67628320 </v>
   <v>       0.11865194       0.40060239       0.41874045 </v>
   <v>       0.79613916       0.27385138       0.40831614 </v>
   <v>       0.53991576       0.60817984       0.01119942 </v>
   <v>       0.96865953       0.03698868       0.10528626 </v>
   <v>       0.08201718       0.64133264       0.87464764 </v>
   <v>       0.36060986       0.43450381       0.12700266 </v>
   <v>       0.56599783       0.82663867       0.03822986 </v>
   <v>       0.19819643       0.21496708       0.46902797 </v>
   <v>       0.07678694       0.01685963       0.77757484 </v>
   <v>       0.23246471       0.42437853       0.86249952 </v>
   <v>       0.31771560       0.09161666       0.03865856 </v>
   <v>       0.78703005       0.19557052       0.10969968 </v>
   <v>       0.24527678       0.92182849       0.21923972 </v>
   <v>       0.62916158       0.85124851       0.74895835 </v>
   <v>       0.82666071       0.74360403       0.14428597 </v>
   <v>       0.53323708       0.89317225       0.37744678 </v>
   <v>       0.21447419       0.81034448       0.77592197 </v>
   <v>       0.19652333       0.02912325       0.29554352 </v>
   <v>       0.31078987       0.20656706       0.39577943 </v>
   <v>       0.97237738       0.98291064       0.72251713 </v>
   <v>       0.37595617       0.99436037       0.76319365 </v>
   <v>       0.26634410       0.71743559       0.38091022 </v>
   <v>       0.72131727       0.17699565       0.21292213 </v>
   <v>       0.47388512       0.21630332       0.54329200 </v>
   <v>       0.87008231       0.61410879       0.50337603 </v>
   <v>       0.15429741       0.81515357       0.56177986 </v>
   <v>       0.45671071       0.60958956       0.91598515 </v>
   <v>       0.82857587       0.47313024       0.13402756 </v>
   <v>       0.02324795       0.70123195       0.80233385 </v>
   <v>       0.49179215       0.76796630       0.09086706 </v>
   <v>       0.67627618       0.89956875       0.04604724 </v>
   <v>       0.91665866       0.89666730       0.17755039 </v>
   <v>       0.90780101       0.47656145       0.68866796 </v>
   <v>       0.21420143       0.66493245       0.19113528 </v>
   <v>       0.40254869       0.16579088       0.12805024 </v>
   <v>       0.97423535       0.68470920       0.23823484 </v>
   <v>       0.37635446       0.34493880       0.40855016 </v>
   <v>       0.07704149       0.65991736       0.44985560 </v>
   <v>       0.82098222       0.17918823       0.47290398 </v>
   <v>       0.36482121       0.48929238       0.59159360 </v>
   <v>       0.59177041       0.04472187       0.49274167 </v>
   <v>       0.95995653       0.60603810       0.93543973 </v>
   <v>       0.75241467       0.42566198       0.86996419 </v>
   <v>       0.36323688       0.56162280       0.13004953 </v>
   <v>       0.66048945       0.27288931       0.83967402 </v>
   <v>       0.86628445       0.07613059       0.13114779 </v>
   <v>       0.73159798       0.37177767       0.43201009 </v>
   <v>       0.09516341       0.13459116       0.80510628 </v>
   <v>       0.53667848       0.53654279       0.51145574 </v>
   <v>       0.33617653       0.83112968       0.22800185 </v>
   <v>       0.16800152       0.97098762       0.72698868 </v>
   <v>       0.24101289       0.18260321       0.99342825 </v>
   <v>       0.15207464       0.84504654       0.21143676 </v>
   <v>       0.47838841       0.91660279       0.95879077 </v>
   <v>       0.65248360       0.67591289       0.68887672 </v>
   <v>       0.00517102       0.44911520       0.15945725 </v>
   <v>       0.97131326       0.73769920       0.60220890 </v>
   <v>       0.69357901       0.16455145       0.65907557 </v>
   <v>       0.20450226       0.64810381       0.93441238 </v>
   <v>       0.15587044       0.11889795       0.52526676 </v>
   <v>       0.42988719       0.33933764       0.04877193 </v>
   <v>       0.20707494       0.62896553       0.58733899 </v>
   <v>       0.89432011       0.27064421       0.32006597 </v>
   <v>       0.26194632       0.30323386       0.82143572 </v>
   <v>       0.32808595       0.77407384       0.58056942 </v>
   <v>       0.56719431       0.66514344       0.38305124 </v>
   <v>       0.45241732       0.03992904       0.34766180 </v>
   <v>       0.27144322       0.39272679       0.19085028 </v>
   <v>       0.59780341       0.72691777       0.96772315 </v>
   <v>       0.23378090       0.41990652       0.98586797 </v>
   <v>       0.94897488       0.31717738       0.80599228 </v>
   <v>       0.03647260       0.10485049       0.16568011 </v>
   <v>       0.61292986       0.59498291       0.11586556 </v>
   <v>       0.16031526       0.33483183       0.52933769 </v>
   <v>       0.12444288       0.50951390       0.83471279 </v>
   <v>       0.80084584       0.86290511       0.59288794 </v>
   <v>       0.71406576       0.22659669       0.02509820 </v>
   <v>       0.21924114       0.45205439       0.40616176 </v>
   <v>       0.37415918       0.54464437       0.38875849 </v>
   <v>       0.42856646       0.12707665       0.92910919 </v>
   <v>       0.52413870       0.21904618       0.34048169 </v>
   <v>       0.57547751       0.44515591       0.27683737 </v>
   <v>       0.59972924       0.39723185       0.69089082 </v>
   <v>       0.94418032       0.02840333       0.99831377 </v>
   <v>       0.26236343       0.99551981       0.12518689 </v>
   <v>       0.71022603       0.99586495       0.32282330 </v>
   <v>       0.31796371       0.97855299       0.94754774 </v>
   <v>       0.11109305       0.25206679       0.37085509 </v>
   <v>       0.76591948       0.34139304       0.69086041 </v>
   <v>       0.34842535       0.48260689       0.82267329 </v>
   <v>       0.99999963       0.41196911       0.40534121 </v>
   <v>       0.91613890       0.75223740       0.38613837 </v>
   <v>       0.90230900       0.28325749       0.08264579 </v>
   <v>       0.44720408       0.85198207       0.60478076 </v>
  </varray>
  <varray name="velocities" >
   <v>       0.00000000       0.00000000       0.00000000 </v>
   <v>       0.00000000       0.00000000       0.00000000 </v>
   <v>       0.00000000       0.00000000       0.00000000 </v>
   <v>       0.00000000       0.00000000       0.00000000 </v>
   <v>       0.00000000       0.00000000       0.00000000 </v>
   <v>       0.00000000       0.00000000       0.00000000 </v>
   <v>       0.00000000       0.00000000       0.00000000 </v>
   <v>       0.00000000       0.00000000       0.00000000 </v>
   <v>       0.00000000       0.00000000       0.00000000 </v>
   <v>       0.00000000       0.00000000       0.00000000 </v>
   <v>       0.00000000       0.00000000       0.00000000 </v>
   <v>       0.00000000       0.00000000       0.00000000 </v>
   <v>       0.00000000       0.00000000       0.00000000 </v>
   <v>       0.00000000       0.00000000       0.00000000 </v>
   <v>       0.00000000       0.00000000       0.00000000 </v>
   <v>       0.00000000       0.00000000       0.00000000 </v>
   <v>       0.00000000       0.00000000       0.00000000 </v>
   <v>       0.00000000       0.00000000       0.00000000 </v>
   <v>       0.00000000       0.00000000       0.00000000 </v>
   <v>       0.00000000       0.00000000       0.00000000 </v>
   <v>       0.00000000       0.00000000       0.00000000 </v>
   <v>       0.00000000       0.00000000       0.00000000 </v>
   <v>       0.00000000       0.00000000       0.00000000 </v>
   <v>       0.00000000       0.00000000       0.00000000 </v>
   <v>       0.00000000       0.00000000       0.00000000 </v>
   <v>       0.00000000       0.00000000       0.00000000 </v>
   <v>       0.00000000       0.00000000       0.00000000 </v>
   <v>       0.00000000       0.00000000       0.00000000 </v>
   <v>       0.00000000       0.00000000       0.00000000 </v>
   <v>       0.00000000       0.00000000       0.00000000 </v>
   <v>       0.00000000       0.00000000       0.00000000 </v>
   <v>       0.00000000       0.00000000       0.00000000 </v>
   <v>       0.00000000       0.00000000       0.00000000 </v>
   <v>       0.00000000       0.00000000       0.00000000 </v>
   <v>       0.00000000       0.00000000       0.00000000 </v>
   <v>       0.00000000       0.00000000       0.00000000 </v>
   <v>       0.00000000       0.00000000       0.00000000 </v>
   <v>       0.00000000       0.00000000       0.00000000 </v>
   <v>       0.00000000       0.00000000       0.00000000 </v>
   <v>       0.00000000       0.00000000       0.00000000 </v>
   <v>       0.00000000       0.00000000       0.00000000 </v>
   <v>       0.00000000       0.00000000       0.00000000 </v>
   <v>       0.00000000       0.00000000       0.00000000 </v>
   <v>       0.00000000       0.00000000       0.00000000 </v>
   <v>       0.00000000       0.00000000       0.00000000 </v>
   <v>       0.00000000       0.00000000       0.00000000 </v>
   <v>       0.00000000       0.00000000       0.00000000 </v>
   <v>       0.00000000       0.00000000       0.00000000 </v>
   <v>       0.00000000       0.00000000       0.00000000 </v>
   <v>       0.00000000       0.00000000       0.00000000 </v>
   <v>       0.00000000       0.00000000       0.00000000 </v>
   <v>       0.00000000       0.00000000       0.00000000 </v>
   <v>       0.00000000       0.00000000       0.00000000 </v>
   <v>       0.00000000       0.00000000       0.00000000 </v>
   <v>       0.00000000       0.00000000       0.00000000 </v>
   <v>       0.00000000       0.00000000       0.00000000 </v>
   <v>       0.00000000       0.00000000       0.00000000 </v>
   <v>       0.00000000       0.00000000       0.00000000 </v>
   <v>       0.00000000       0.00000000       0.00000000 </v>
   <v>       0.00000000       0.00000000       0.00000000 </v>
   <v>       0.00000000       0.00000000       0.00000000 </v>
   <v>       0.00000000       0.00000000       0.00000000 </v>
   <v>       0.00000000       0.00000000       0.00000000 </v>
   <v>       0.00000000       0.00000000       0.00000000 </v>
   <v>       0.00000000       0.00000000       0.00000000 </v>
   <v>       0.00000000       0.00000000       0.00000000 </v>
   <v>       0.00000000       0.00000000       0.00000000 </v>
   <v>       0.00000000       0.00000000       0.00000000 </v>
   <v>       0.00000000       0.00000000       0.00000000 </v>
   <v>       0.00000000       0.00000000       0.00000000 </v>
   <v>       0.00000000       0.00000000       0.00000000 </v>
   <v>       0.00000000       0.00000000       0.00000000 </v>
   <v>       0.00000000       0.00000000       0.00000000 </v>
   <v>       0.00000000       0.00000000       0.00000000 </v>
   <v>       0.00000000       0.00000000       0.00000000 </v>
   <v>       0.00000000       0.00000000       0.00000000 </v>
   <v>       0.00000000       0.00000000       0.00000000 </v>
   <v>       0.00000000       0.00000000       0.00000000 </v>
   <v>       0.00000000       0.00000000       0.00000000 </v>
   <v>       0.00000000       0.00000000       0.00000000 </v>
   <v>       0.00000000       0.00000000       0.00000000 </v>
   <v>       0.00000000       0.00000000       0.00000000 </v>
   <v>       0.00000000       0.00000000       0.00000000 </v>
   <v>       0.00000000       0.00000000       0.00000000 </v>
   <v>       0.00000000       0.00000000       0.00000000 </v>
   <v>       0.00000000       0.00000000       0.00000000 </v>
   <v>       0.00000000       0.00000000       0.00000000 </v>
   <v>       0.00000000       0.00000000       0.00000000 </v>
   <v>       0.00000000       0.00000000       0.00000000 </v>
   <v>       0.00000000       0.00000000       0.00000000 </v>
   <v>       0.00000000       0.00000000       0.00000000 </v>
   <v>       0.00000000       0.00000000       0.00000000 </v>
   <v>       0.00000000       0.00000000       0.00000000 </v>
   <v>       0.00000000       0.00000000       0.00000000 </v>
   <v>       0.00000000       0.00000000       0.00000000 </v>
   <v>       0.00000000       0.00000000       0.00000000 </v>
   <v>       0.00000000       0.00000000       0.00000000 </v>
   <v>       0.00000000       0.00000000       0.00000000 </v>
   <v>       0.00000000       0.00000000       0.00000000 </v>
   <v>       0.00000000       0.00000000       0.00000000 </v>
   <v>       0.00000000       0.00000000       0.00000000 </v>
   <v>       0.00000000       0.00000000       0.00000000 </v>
   <v>       0.00000000       0.00000000       0.00000000 </v>
   <v>       0.00000000       0.00000000       0.00000000 </v>
   <v>       0.00000000       0.00000000       0.00000000 </v>
   <v>       0.00000000       0.00000000       0.00000000 </v>
   <v>       0.00000000       0.00000000       0.00000000 </v>
   <v>       0.00000000       0.00000000       0.00000000 </v>
   <v>       0.00000000       0.00000000       0.00000000 </v>
   <v>       0.00000000       0.00000000       0.00000000 </v>
   <v>       0.00000000       0.00000000       0.00000000 </v>
   <v>       0.00000000       0.00000000       0.00000000 </v>
   <v>       0.00000000       0.00000000       0.00000000 </v>
   <v>       0.00000000       0.00000000       0.00000000 </v>
   <v>       0.00000000       0.00000000       0.00000000 </v>
   <v>       0.00000000       0.00000000       0.00000000 </v>
   <v>       0.00000000       0.00000000       0.00000000 </v>
   <v>       0.00000000       0.00000000       0.00000000 </v>
   <v>       0.00000000       0.00000000       0.00000000 </v>
   <v>       0.00000000       0.00000000       0.00000000 </v>
   <v>       0.00000000       0.00000000       0.00000000 </v>
   <v>       0.00000000       0.00000000       0.00000000 </v>
   <v>       0.00000000       0.00000000       0.00000000 </v>
   <v>       0.00000000       0.00000000       0.00000000 </v>
   <v>       0.00000000       0.00000000       0.00000000 </v>
   <v>       0.00000000       0.00000000       0.00000000 </v>
   <v>       0.00000000       0.00000000       0.00000000 </v>
   <v>       0.00000000       0.00000000       0.00000000 </v>
   <v>       0.00000000       0.00000000       0.00000000 </v>
   <v>       0.00000000       0.00000000       0.00000000 </v>
   <v>       0.00000000       0.00000000       0.00000000 </v>
   <v>       0.00000000       0.00000000       0.00000000 </v>
   <v>       0.00000000       0.00000000       0.00000000 </v>
   <v>       0.00000000       0.00000000       0.00000000 </v>
   <v>       0.00000000       0.00000000       0.00000000 </v>
  </varray>
 </structure>
</modeling>
