 running on   52 total cores
 distrk:  each k-point on   52 cores,    1 groups
 distr:  one band on   13 cores,    4 groups
 using from now: INCAR     
 vasp.5.4.4.18Apr17-6-g9f103f2a35 (build Oct 31 2019 15:01:46) complex          
  
 POSCAR found type information on POSCAR  Ca Si O 
 POSCAR found :  3 types and     135 ions
 scaLAPACK is switched off
 LDA part: xc-table for Pade appr. of Perdew
 generate k-points for:    3    3    3
 POSCAR, INCAR and KPOINTS ok, starting setup
 FFT: planning ...
 WAVECAR not read
 entering main loop
       N       E                     dE             d eps       ncg     rms          rms(c)
DAV:   1     0.110282764828E+05    0.11028E+05   -0.50121E+05 14560   0.197E+03
DAV:   2     0.394602971507E+03   -0.10634E+05   -0.10190E+05 16200   0.562E+02
DAV:   3    -0.836144711832E+03   -0.12307E+04   -0.12192E+04 16608   0.194E+02
DAV:   4    -0.905389523737E+03   -0.69245E+02   -0.69032E+02 21792   0.370E+01
DAV:   5    -0.909622183427E+03   -0.42327E+01   -0.42305E+01 22840   0.848E+00    0.102E+02
DAV:   6    -0.769182365632E+03    0.14044E+03   -0.49837E+02 17536   0.393E+01    0.449E+01
DAV:   7    -0.770322176121E+03   -0.11398E+01   -0.78823E+01 17528   0.145E+01    0.179E+01
DAV:   8    -0.769931705494E+03    0.39047E+00   -0.13565E+01 19224   0.692E+00    0.824E+00
DAV:   9    -0.769801409190E+03    0.13030E+00   -0.29077E+00 17352   0.334E+00    0.225E+00
DAV:  10    -0.769857720655E+03   -0.56311E-01   -0.73802E-01 22360   0.144E+00    0.147E+00
DAV:  11    -0.769862241985E+03   -0.45213E-02   -0.77382E-02 17592   0.529E-01    0.751E-01
DAV:  12    -0.769862257088E+03   -0.15104E-04   -0.23194E-02 17904   0.315E-01    0.143E-01
DAV:  13    -0.769862532504E+03   -0.27542E-03   -0.37601E-03 17736   0.117E-01    0.834E-02
DAV:  14    -0.769862584855E+03   -0.52351E-04   -0.77018E-04 21520   0.431E-02    0.521E-02
DAV:  15    -0.769862583528E+03    0.13276E-05   -0.13117E-04 17688   0.213E-02    0.232E-02
DAV:  16    -0.769862586503E+03   -0.29755E-05   -0.19499E-05 18912   0.102E-02    0.621E-03
DAV:  17    -0.769862585395E+03    0.11081E-05   -0.89417E-06 16376   0.548E-03    0.438E-03
DAV:  18    -0.769862585135E+03    0.26001E-06   -0.10517E-06  9048   0.202E-03
   1 F= -.76986259E+03 E0= -.76986259E+03  d E =-.422637E-24
