135
Time=99999.99999996 pbc="T T T" Lattice="10.56489661 0.00000000 0.00000000 0.00000000 10.56489661 0.00000000 0.00000000 0.00000000 10.56489661" energy=-860.41523887 virial="370.94715713 -7.39177282 5.06882392 -7.39177282 392.85515921 -26.43177776 5.06882392 -26.43177776 415.90603004" stress="0.35403057 -0.00626834 0.00429845 -0.00626834 0.37260891 -0.02241458 0.00429845 -0.02241458 0.39215643" Properties=species:S:1:pos:R:3
Ca 4.23185427 2.68724952 5.14867617
Ca 7.16970405 10.30239975 6.30059132
Ca 5.98997444 1.23558947 3.34806613
Ca 0.35313884 1.61470353 1.85215136
Ca 9.01474902 9.33003230 10.00586560
Ca 5.14600615 2.40806364 0.67469822
Ca 7.19130756 6.08868824 5.32609081
Ca 1.74910377 4.83089297 6.77230550
Ca 5.14262737 1.51045679 7.56973838
Ca 5.74927490 7.12692584 1.88771056
Ca 2.48139714 9.64318505 7.89864316
Ca 2.99380311 3.75923333 2.18933064
Ca 0.60972355 6.08581918 3.81173432
Ca 9.77261500 8.16419369 5.03538181
Ca 0.05740195 1.77022235 9.68131450
Ca 3.69903183 8.76680177 3.67138751
Ca 8.60082417 3.61667067 3.27689260
Ca 9.60217210 2.77018421 6.93574607
Ca 8.20258832 9.42968852 1.96757429
Ca 7.01460568 3.86903205 8.74676241
Ca 7.48413750 1.04929845 9.29576630
Ca 7.98189611 4.61451493 0.77184135
Ca 1.48529349 0.39736766 4.90371966
Ca 0.10797390 7.58313190 7.83867232
Ca 4.78136882 7.71857507 6.66817440
Ca 0.53489967 7.20308852 0.07248655
Ca 2.33819884 7.55329246 5.62163137
Si 8.06230406 7.56932849 8.04299949
Si 3.02559575 6.93951928 9.00228335
Si 1.00112004 3.07284459 4.29503683
Si 5.61913454 9.43735778 8.85866627
Si 0.27004736 4.37538712 1.29765540
Si 2.94211272 6.77702972 1.62279178
Si 2.17354229 3.81646587 9.32489555
Si 9.77779985 5.15108150 9.10302829
Si 2.25794836 2.11243650 7.02057672
Si 3.08312677 1.08683221 2.52523535
Si 3.75765120 5.34413349 4.07265214
Si 10.52293089 10.42167523 7.28386701
Si 4.48527126 10.48451246 5.81917691
Si 6.07219457 4.14812237 3.34687057
Si 9.68436372 5.49014173 6.26903540
Si 6.60855903 7.17064888 10.22936581
Si 4.85362764 4.82192377 9.86445387
Si 4.67470259 4.65115866 6.76838882
Si 0.93642407 9.11230032 2.58837803
Si 8.95676738 0.92527365 4.30967449
Si 1.53787821 9.41273820 10.38712111
Si 8.01836758 1.59913106 1.25438538
Si 6.83421420 8.89171926 4.45255669
Si 7.07663251 2.82880911 6.02129755
Si 8.66270574 6.79750143 2.94811076
Si 5.12769079 9.75456514 1.28570693
Si 3.15794750 0.93312566 9.93044509
O 5.16936571 10.01012613 7.20930659
O 3.52359136 0.49329793 4.28209634
O 0.64608168 3.63854557 2.52149619
O 1.52561104 2.42729094 5.69803026
O 0.97266217 9.42315310 6.28548191
O 7.55803030 5.89333369 9.47244103
O 2.29969271 8.29549422 9.51360871
O 1.54558958 0.89972895 7.67602392
O 3.56568249 5.60190752 5.72049121
O 2.99727703 6.72285980 0.00432133
O 5.63214245 8.00830562 4.85133059
O 5.58259193 3.28420962 6.76057276
O 7.75314816 7.69053304 0.64551876
O 8.86587644 6.30326491 4.38994592
O 0.20283075 6.86063200 6.02611839
O 9.18395525 3.00623709 1.51163813
O 3.35035480 9.12432211 5.95104589
O 0.42241399 9.54729738 8.92562821
O 0.25755902 9.70467856 1.04989261
O 9.02708478 0.54432180 0.52743883
O 4.15859294 8.30372566 8.46510464
O 3.15998503 6.90372427 3.87998056
O 6.10899658 4.66457254 0.23459925
O 4.63643754 0.63018916 2.18137729
O 3.20396146 3.45070249 6.87224512
O 7.55142786 8.11274844 6.13947665
O 9.57684217 5.41994911 2.33270885
O 1.66921046 5.48035821 9.24641385
O 3.18237803 9.95823647 0.19615253
O 7.49205881 2.18018043 7.41148817
O 7.02458744 9.80988417 9.01755116
O 2.88410371 2.06293565 8.84913050
O 8.65372514 6.43619067 7.09001220
O 7.40888940 2.84036001 10.32905801
O 2.10777565 10.26632179 2.62104765
O 5.24687683 6.68452296 0.04000308
O 4.89885892 3.39276729 9.00938970
O 8.32181703 4.03969837 6.38222274
O 10.35221255 4.97117337 7.52306148
O 2.19564881 2.22895366 3.43942278
O 1.16291771 3.57911913 10.54493186
O 4.00200293 5.49996903 2.22653186
O 9.86926011 5.40826299 0.25926398
O 6.51927675 7.83986745 8.64836051
O 3.48272542 4.38199201 0.18201489
O 1.59144017 0.37021881 9.70340573
O 2.40179522 4.37617545 4.40817195
O 2.65898454 1.89896476 0.92809253
O 2.09454668 6.93129472 7.49143968
O 9.95597959 2.17993290 4.14058955
O 10.16212770 7.49693166 2.38109943
O 4.52826226 2.99240447 3.24769682
O 5.93348991 9.06880541 10.48798011
O 6.29818601 9.26943746 2.30339173
O 9.29186279 6.96280460 9.07103131
O 1.29836202 8.31045837 3.89179582
O 3.37958696 0.88066963 6.56214366
O 7.98515502 10.05176697 4.38075925
O 9.41558341 0.84254259 8.08196312
O 7.48209785 1.65942652 5.07002565
O 6.64395770 3.29894487 2.02909354
O 5.91453207 1.24088158 5.79186582
O 8.81917171 8.91096543 7.81092288
O 8.12257987 1.20531210 2.77450166
O 1.58653652 5.72596173 1.72137603
O 5.35940303 5.10080761 4.40558001
O 9.43434149 3.61398935 9.02800853
O 4.18198823 5.55197349 8.53292164
O 4.07562177 8.25232957 1.54066806
O 10.40547921 10.37468544 3.18041276
O 4.83638436 0.58225314 9.63732584
O 0.08760364 4.39626735 5.35356137
O 9.85694430 0.26158298 5.48719338
O 6.67541091 5.40240539 2.73255208
O 6.06668888 5.53942805 7.07161566
O 1.31717357 3.23808570 8.14887856
O 6.45890784 0.43560513 0.96941575
O 7.65120755 8.11218398 3.28486166
O 5.49534505 9.94235341 4.37834525
O 7.16607023 3.87015750 4.72220967
O 1.73032404 7.99530598 1.55867161
135
Time=199999.99999918 pbc="T T T" Lattice="10.56489661 0.00000000 0.00000000 0.00000000 10.56489661 0.00000000 0.00000000 0.00000000 10.56489661" energy=-868.21873421 virial="424.85163487 -57.32692462 41.32315161 -57.32692462 376.18297807 4.43540498 41.32315161 4.43540498 373.99520294" stress="0.39974245 -0.04861417 0.03504271 -0.04861417 0.35847063 0.00376130 0.03504271 0.00376130 0.35661536" Properties=species:S:1:pos:R:3
Ca 3.66860815 3.25218907 5.03036936
Ca 7.26618415 0.39638063 6.48331523
Ca 6.47765632 1.44996551 3.48795209
Ca 0.61489186 1.27563589 1.47168658
Ca 8.01113672 0.84415031 8.83619365
Ca 5.69358717 2.26382030 0.77943638
Ca 6.78959169 6.14473814 4.96805606
Ca 1.91074014 5.29706412 6.18674648
Ca 4.85232927 2.00317568 7.96091421
Ca 6.44116993 6.80530609 1.70953068
Ca 2.71401709 10.07119656 8.05623513
Ca 2.74959256 4.04347930 1.74929056
Ca 0.92251632 6.18786233 3.19751704
Ca 9.76793564 8.63927679 4.90673233
Ca 2.55979845 10.03184434 0.36372598
Ca 3.60034184 8.93102617 3.61951317
Ca 8.72362418 3.91246709 3.36460496
Ca 10.01353106 2.73639541 6.17860649
Ca 8.76792733 9.63238121 1.53314121
Ca 7.37882328 4.62256100 8.25921036
Ca 0.09143612 1.85461465 9.26235942
Ca 7.97280680 4.93708890 0.82794575
Ca 1.41977086 0.56626882 5.13728019
Ca 0.00313567 7.36909112 8.35796939
Ca 5.21489097 8.43751448 6.67485748
Ca 0.72688039 7.56431567 0.41152301
Ca 2.14022774 7.98884109 6.05776958
Si 7.80815604 8.07131080 7.29523292
Si 3.17226655 2.09346345 10.30266373
Si 0.88945667 3.40438133 4.17418446
Si 5.60325741 9.87823013 9.22683284
Si 0.24225885 4.68749988 0.87266182
Si 2.09011669 5.01115778 9.78989264
Si 4.02447125 7.41733148 8.93568277
Si 10.28130354 4.39873467 8.65135657
Si 2.25433503 2.55518309 7.35323031
Si 3.04356736 1.27407971 2.85067182
Si 3.83097828 5.78852625 4.20671280
Si 10.21903418 10.12644599 7.23761587
Si 4.22661759 0.41820173 5.63337449
Si 5.89960082 4.21141149 2.81773785
Si 9.57123713 5.95935760 5.85335313
Si 7.38433864 7.60856505 9.91138626
Si 5.09808065 5.04792019 10.27049500
Si 4.68516389 4.96282496 7.36831230
Si 0.85602429 9.00980177 2.76721633
Si 9.44516958 0.80285715 3.89073328
Si 0.09851709 10.05435836 9.89639003
Si 8.36297928 1.97642909 0.81622692
Si 6.65348014 9.06179913 4.31007320
Si 7.05576534 2.95337733 5.70441941
Si 8.99326975 7.00198023 2.67614198
Si 5.53454401 9.80761635 1.63383286
Si 3.45924267 7.31334248 1.43956660
O 1.21083594 3.69370070 8.20137826
O 3.48400601 1.25935586 4.35169415
O 0.59620447 4.03280391 2.22889153
O 1.49344792 2.97372326 5.83803754
O 9.69281959 8.88466082 9.66195154
O 7.48241104 2.92916640 10.40406681
O 4.93021342 10.46383382 7.15468914
O 0.93820958 9.49678751 6.94270494
O 4.43847736 5.66152743 5.80755011
O 8.06381271 6.93165125 8.46981382
O 5.40821259 7.62622830 4.61389992
O 5.55466484 3.84535800 6.50206095
O 8.08186374 7.51933518 0.84761267
O 9.74431566 6.45772707 4.22788113
O 0.41106549 6.70475361 6.20864203
O 3.03935001 7.72882086 7.87185752
O 3.13568129 9.68154341 5.55782168
O 6.98797684 2.22276975 7.46724960
O 0.28568173 9.82854974 1.22806802
O 9.35253556 0.74555915 0.15994948
O 2.60515429 1.99415723 8.82275191
O 2.86349295 6.96012285 4.37769547
O 5.83363242 4.61556628 1.11402926
O 4.50561763 0.44491538 1.88570050
O 3.30810132 4.03356124 10.10556430
O 7.20735090 8.58122277 5.86458185
O 1.55298552 5.80774395 0.81736259
O 9.81512070 5.65571368 1.86603013
O 3.63982972 5.78677931 9.20316218
O 1.29700029 8.81978345 9.53464474
O 4.01694724 9.40178368 9.61358460
O 3.31415275 4.03197792 7.23846830
O 8.61683583 7.09258305 6.14716490
O 4.04895724 0.89109486 10.16065237
O 1.28879583 8.91317896 4.31137240
O 1.31206691 0.54847572 9.92612459
O 4.11843485 5.88195155 0.69900816
O 8.15784167 4.58564830 5.83226449
O 1.28524886 3.40820902 0.06071308
O 2.39218184 2.62967506 3.38157218
O 1.57282744 5.86221639 8.47469092
O 3.25878705 6.02676779 2.57459181
O 9.33144347 3.21253564 1.07054396
O 5.80218810 8.05746527 9.11316841
O 6.53343136 5.98623994 9.96705985
O 6.12229333 0.89783447 9.29821694
O 2.10881529 4.56051471 4.23453652
O 2.13056398 10.49525183 2.53399723
O 10.15275076 5.34767631 7.27862963
O 0.20359336 2.00557468 3.92548309
O 9.83877906 8.11501364 2.75161026
O 4.71919882 2.85733151 2.76347022
O 6.68609259 9.16613966 0.40556419
O 6.19043240 9.73048898 2.94354437
O 9.21037911 9.10909185 6.93868691
O 10.37732049 10.47607834 2.96426550
O 2.99673452 1.34936097 6.76957299
O 8.13623332 10.23266336 4.15513871
O 5.35036635 3.74557487 9.34770394
O 8.18076191 2.06944907 5.04343169
O 7.07932447 3.14408863 2.16277574
O 5.76518950 1.65557377 5.48912542
O 1.02996121 1.11574104 7.20001714
O 8.87701881 1.20901260 2.36807812
O 2.74525935 7.44495331 0.02750006
O 5.19062579 5.47333694 3.13812758
O 10.11067569 5.32448125 10.02152055
O 9.91413027 0.48341708 8.35016434
O 2.76175856 1.92906929 1.40949077
O 9.78928820 0.46017449 5.66745602
O 4.73915640 8.19438215 1.73161519
O 10.24300839 4.19394771 4.85275736
O 7.31240368 9.25577783 8.20048889
O 7.79356208 5.77095314 2.96897713
O 5.75357080 6.28337092 7.61017906
O 9.32491048 3.29724089 8.34918427
O 7.00288547 0.61022137 0.97991004
O 7.81234487 8.05346998 3.52830874
O 5.27375858 10.04900621 4.96898531
O 6.52079236 3.84497249 4.36019158
O 1.77354721 8.19120401 1.98339076
135
Time=299999.99999840 pbc="T T T" Lattice="10.56489661 0.00000000 0.00000000 0.00000000 10.56489661 0.00000000 0.00000000 0.00000000 10.56489661" energy=-864.45139112 virial="385.51956579 -73.50775593 -25.13374823 -73.50775593 382.71193134 1.61539757 -25.13374823 1.61539757 388.93882031" stress="0.36638821 -0.06233578 -0.02131383 -0.06233578 0.36400729 0.00136988 -0.02131383 0.00136988 0.36928779" Properties=species:S:1:pos:R:3
Ca 4.20834908 3.08876038 5.03105735
Ca 7.29602881 10.28920181 6.45307942
Ca 6.58613150 1.04584946 3.52025995
Ca 0.23001299 1.06752296 1.73851320
Ca 10.33579674 2.11384896 9.91881847
Ca 5.11260430 2.23953725 0.45612146
Ca 6.78133186 5.42061179 5.06072470
Ca 2.54859721 5.46341674 6.68936172
Ca 5.26105532 1.70533026 8.40544588
Ca 5.66461138 7.23093277 1.78676087
Ca 2.81465183 10.11768937 7.84704209
Ca 3.04814161 3.72079632 2.05751827
Ca 1.07762953 6.12474527 3.77610264
Ca 9.49100076 8.25490411 4.82376381
Ca 2.81105206 9.84002922 0.11128954
Ca 3.49012408 8.84460886 3.26117453
Ca 8.95967982 3.78868525 3.63123647
Ca 10.05870395 2.33223403 6.55143649
Ca 8.54586646 9.22435966 1.47352523
Ca 8.14703110 4.46186310 7.79171314
Ca 10.13399385 10.08755150 9.52701880
Ca 7.97676780 4.76290415 0.25686561
Ca 1.36329938 0.44373774 4.79299482
Ca 0.48903327 7.61587534 8.26317827
Ca 4.92868166 8.15428453 6.68120627
Ca 0.12210732 6.93456851 0.61861685
Ca 2.40552683 8.01060809 5.67586341
Si 7.58876179 7.62226681 7.43473629
Si 2.16823499 2.38304083 10.22825350
Si 1.36079094 3.37681453 4.32483329
Si 5.81764826 9.39420688 9.25275534
Si 0.05288910 4.19586287 1.33996143
Si 5.11662536 5.26663979 10.24033814
Si 2.73599133 4.22013987 8.86427569
Si 0.33378830 4.62594486 8.31487639
Si 2.58163585 2.07052348 6.93976572
Si 3.14704048 1.09554387 2.76866012
Si 4.21132919 6.07573774 4.05597644
Si 10.24885833 9.92276542 7.04893894
Si 4.62888732 0.06615797 5.51903387
Si 6.32619018 3.68259981 2.72414605
Si 9.46155677 5.60139116 5.69174287
Si 7.64423399 7.50541584 10.00640724
Si 3.39095921 7.36652189 9.18726488
Si 5.07431341 5.12652918 7.23409042
Si 0.45440981 8.88733177 2.47462515
Si 9.13505347 0.86343136 4.02991505
Si 7.96914506 1.43721033 8.68541463
Si 7.72579700 1.51597091 0.80171881
Si 6.71582745 8.52743045 4.13983560
Si 6.82480644 2.48397163 5.89799393
Si 8.41982112 6.65485070 2.69011567
Si 5.38591418 9.73397018 1.16314077
Si 2.85855538 6.83509279 1.20818256
O 3.76607303 3.98759012 7.26848116
O 3.73814732 0.47660072 4.46896876
O 3.09317940 2.22755968 8.62990604
O 1.74443258 2.39736715 5.56161701
O 1.22890467 8.54712423 3.66387433
O 5.16699362 10.16722030 7.23409112
O 7.75671792 2.56358187 7.44641433
O 0.75124039 9.19165568 6.05796705
O 4.63199897 5.96038837 5.82415091
O 8.02802202 6.58195200 8.81239467
O 5.35007083 7.38632227 3.76291166
O 6.50450497 6.01575476 7.15693176
O 9.74930259 5.45402237 1.88251703
O 9.06711856 5.92735463 4.10808362
O 0.51216260 6.60026581 5.62137319
O 2.85711718 7.25022266 7.56476530
O 3.15225246 9.78985706 5.73226768
O 5.66905289 3.41017837 6.62052994
O 5.95958963 6.74248020 10.09955955
O 9.11784642 0.68380026 0.50239110
O 9.13612163 8.70264559 7.61151898
O 2.88687948 7.09347783 4.28120884
O 5.96942543 4.59529251 0.80180097
O 4.48979870 10.43448677 1.98408851
O 5.82003838 4.43452426 9.19588541
O 6.69862212 8.10138252 5.95867988
O 9.15434716 0.84869610 7.87544290
O 0.85166050 4.24335576 2.98255856
O 4.37154327 6.16663000 8.16567132
O 7.50818897 2.32223843 9.94941759
O 1.21418623 2.78861110 1.05261241
O 4.33947856 8.81386787 8.99261007
O 8.48986307 6.74502329 6.12600917
O 1.25431067 0.74713147 10.09917509
O 9.58280126 0.44394620 5.90919005
O 1.28013640 3.97947711 9.64335236
O 9.88275771 3.54917589 8.17207396
O 8.49074510 4.11293396 5.76825991
O 2.14315847 5.69890789 8.53832970
O 2.33958297 2.14493984 3.32215092
O 6.42275356 8.78660618 0.12703219
O 3.91049022 5.97825202 2.23351889
O 9.69240008 2.89301344 1.13169241
O 4.18457766 8.18271947 0.91900257
O 1.61899918 5.79490640 1.16791876
O 3.64822278 3.72288332 10.41618531
O 2.75829992 4.54295674 4.39193752
O 2.20586032 10.46527537 2.37522993
O 4.76976797 0.19419887 10.15723179
O 10.48301938 1.97063197 4.03434170
O 9.71547292 7.55056846 2.75195144
O 5.05181982 2.17466726 2.78917355
O 1.38601759 3.72253911 7.26676475
O 6.45674416 9.14015574 2.50992669
O 9.45793897 8.31795041 9.82738588
O 10.02949610 10.03931706 3.34772519
O 3.80258372 1.40326348 6.63880441
O 7.83193991 10.03314200 4.06098764
O 10.02611240 5.28731028 10.07995954
O 8.08948829 1.66869322 5.12949631
O 7.30323754 2.88491373 1.59800028
O 5.92550999 1.06111913 5.50333519
O 6.42217878 8.47944914 8.27537364
O 8.27276406 1.41215416 2.45319457
O 7.02195468 0.18428679 8.93292585
O 4.84585929 4.53828534 3.82014405
O 1.04240689 9.62541017 8.33938230
O 2.14086721 8.17427372 9.72987028
O 3.35391520 1.38758332 0.91387472
O 3.54786208 5.96539525 10.44988050
O 10.03673238 5.51668944 7.43371688
O 10.54993176 4.23877977 5.18103403
O 7.74734466 6.84047520 0.89994210
O 6.99208850 5.61344383 2.63787305
O 1.99043135 8.00422541 1.64471776
O 1.29429304 1.10632405 7.37387682
O 6.87129515 0.35257620 1.19005777
O 7.55191417 7.25946060 3.80914447
O 5.38632715 9.43457678 4.78988364
O 6.89073276 3.32232664 4.30242079
O 0.20167892 9.46625356 1.13684152
135
Time=400000.00000008 pbc="T T T" Lattice="10.56489661 0.00000000 0.00000000 0.00000000 10.56489661 0.00000000 0.00000000 0.00000000 10.56489661" energy=-873.90313353 virial="373.90253224 -70.92604851 52.12601945 -70.92604851 382.65853151 -45.14106007 52.12601945 -45.14106007 345.46947506" stress="0.35653678 -0.06014645 0.04420372 -0.06014645 0.36396201 -0.03828036 0.04420372 -0.03828036 0.33242508" Properties=species:S:1:pos:R:3
Ca 5.00118699 3.27160000 4.69793174
Ca 7.79427521 0.30649774 6.47661111
Ca 6.80155164 1.20138276 3.41828927
Ca 1.32677744 1.61976878 1.74022640
Ca 0.65024508 1.87119017 9.12017513
Ca 6.25927828 2.11123667 0.57723335
Ca 7.53460169 5.56522050 4.85315629
Ca 2.30311415 5.30028267 6.44005955
Ca 5.30602307 2.16753373 7.89062055
Ca 6.60636241 6.79664864 2.30257150
Ca 2.70025626 10.03315451 7.50368261
Ca 3.30341012 4.04581577 1.47306866
Ca 1.39353391 6.14596295 3.41694669
Ca 9.74515364 8.55122611 5.24630013
Ca 3.19277190 9.72168908 0.63524095
Ca 4.44631572 9.06533704 3.51825554
Ca 9.50496545 3.36309534 2.96666050
Ca 10.15227194 2.88555358 6.22803044
Ca 8.83658275 9.10627631 1.60413677
Ca 8.12512237 5.24827792 8.29196663
Ca 8.10978225 9.96798693 9.35058237
Ca 8.31288277 5.09494878 0.42436358
Ca 1.72310758 0.56125589 5.18576123
Ca 0.40455138 7.99327504 8.21517717
Ca 4.91867557 7.54013212 6.38124553
Ca 0.40036583 7.09233703 0.19955392
Ca 2.32407797 8.21843847 5.16878581
Si 7.83877268 7.93826042 7.38358619
Si 3.43557336 1.91797372 9.97786765
Si 1.73614300 3.16731240 4.27436721
Si 5.68194992 10.48303431 8.91975321
Si 6.56428364 7.63149607 9.69151853
Si 5.00238605 4.91366455 9.80625934
Si 0.71681438 4.14898749 0.96923965
Si 0.85277153 5.03006642 8.92021232
Si 2.56878550 2.27849636 6.96606632
Si 4.17293388 1.43706285 2.76592756
Si 4.02275703 5.61139741 3.87917337
Si 10.41842561 10.53190060 7.44354361
Si 4.88756311 0.38999488 5.72461046
Si 6.63388679 3.74454495 2.68271597
Si 10.13217573 5.61104420 5.69998224
Si 3.62258424 7.08309196 8.63610603
Si 0.43942604 9.90806547 10.35403236
Si 5.30108131 4.90134584 7.23317713
Si 1.13452754 8.90734629 2.66476672
Si 9.45111969 0.58114000 4.12768456
Si 8.71666947 2.10231788 8.82738569
Si 8.73195295 1.64786527 0.94845130
Si 7.01950473 8.83701609 4.25344997
Si 7.53380500 3.14550527 5.93622041
Si 9.24902926 6.46109942 2.64612806
Si 6.24059091 9.34401160 1.20755828
Si 3.47219038 7.26741551 1.01170827
O 3.88276332 3.81807914 6.96132842
O 4.86277670 0.60888638 4.10023530
O 5.83635018 0.44647324 7.22909427
O 1.61214635 2.95781668 6.01526448
O 2.21660517 7.89849972 2.08643132
O 6.87098741 9.18998665 7.81392772
O 7.80849493 2.08858184 7.35690574
O 9.15739137 9.27216500 7.46415938
O 4.27184131 5.51286967 8.42125903
O 6.31740716 6.21270889 7.34337800
O 5.92609068 7.19461236 4.08753619
O 0.04766080 5.16562920 7.07305393
O 9.13628715 6.92626269 1.02534377
O 9.24157495 5.98323159 4.53151441
O 0.99175927 6.75899533 5.44843330
O 9.81479816 8.72808779 10.25536495
O 3.59030754 10.03471779 5.63663246
O 6.28370917 4.02507556 6.45312040
O 6.08452995 3.78546884 9.16730440
O 9.98026602 0.55702083 0.04618614
O 1.02743566 9.93539488 8.86040556
O 3.56707785 5.91982251 2.09196819
O 5.62612883 4.96518947 3.24292781
O 5.20044265 0.16734568 1.95481296
O 8.47236249 2.70373300 10.24942882
O 7.38191909 8.07442335 5.82682410
O 9.35029799 0.83235363 8.16071361
O 1.53895907 3.71329280 2.51956967
O 7.47167913 8.17490909 0.62861061
O 3.00323514 7.56065878 7.28797405
O 1.90851053 2.75195737 0.01497009
O 10.19021781 2.75517366 0.69686805
O 9.13313860 6.84817752 6.68061090
O 1.87241768 6.26847686 8.77427072
O 9.83703761 0.56831463 5.86410160
O 5.86680287 4.17221884 1.09397230
O 9.32289642 3.46306112 8.56975690
O 8.56140805 4.44086208 6.15835177
O 3.34874530 1.46279128 8.22001883
O 2.68262967 2.20451650 3.47813294
O 6.01741509 9.42268480 10.23750070
O 3.40591666 6.84965928 4.13957185
O 4.36089623 9.79301804 8.92698187
O 0.88326945 9.42697659 6.45095959
O 9.91322991 5.45705022 9.45888129
O 5.23339093 7.76389871 8.69364133
O 2.80859008 4.54181293 4.60851193
O 2.36921711 9.74570889 3.46822054
O 4.06505887 3.29819623 9.88880779
O 0.54775710 2.03341069 3.92805584
O 0.07506526 7.43039370 2.96010218
O 5.14470984 2.67944543 2.46877455
O 4.39377513 6.25527160 0.04577009
O 6.93284811 9.46005192 2.76505700
O 6.50425107 6.01410167 10.29281146
O 10.43463651 9.97078270 3.54275074
O 3.73215439 1.81220236 5.66756616
O 8.21091796 9.87540371 4.27031603
O 10.19698975 5.10315412 2.09317882
O 8.41156975 2.20304071 4.83155202
O 7.76991636 2.98939109 1.76794228
O 6.09438168 1.91328070 5.41738557
O 2.83000279 7.87557534 10.01044012
O 9.33054533 0.89087304 2.35207701
O 4.84486806 1.00457957 10.01928855
O 4.51884283 5.36789185 5.51576698
O 1.84364350 0.45563728 10.53298006
O 1.57730874 3.75742612 8.43172862
O 3.33135785 1.47726664 1.33157302
O 4.83708036 8.17393090 1.38579919
O 8.01426659 7.54085660 8.91577474
O 0.31428877 4.28406888 4.49462886
O 7.00396410 0.95779708 9.07024231
O 7.79891854 5.14804784 2.64705736
O 1.73983311 5.15923405 0.08957193
O 1.27038250 1.03087032 7.46208844
O 7.59845972 0.33478981 0.68400194
O 8.25338358 7.81684126 3.07901913
O 5.80554772 9.66112426 5.20714744
O 7.21960135 3.52467077 4.28557771
O 0.78769634 9.50692726 1.32425208
135
Time=500000.00000301 pbc="T T T" Lattice="10.56489661 0.00000000 0.00000000 0.00000000 10.56489661 0.00000000 0.00000000 0.00000000 10.56489661" energy=-864.50390875 virial="385.58455629 -49.40317344 78.56979811 -49.40317344 422.89672134 -74.00822092 78.56979811 -74.00822092 395.28612578" stress="0.36644332 -0.04189470 0.06662848 -0.04189470 0.39808465 -0.06276018 0.06662848 -0.06276018 0.37467041" Properties=species:S:1:pos:R:3
Ca 3.94974280 2.68223136 4.70582154
Ca 7.48186515 0.11453275 6.24750918
Ca 6.84785502 0.84210032 3.12895560
Ca 1.00385029 1.52600115 1.94764353
Ca 0.39167123 2.09474417 9.15496163
Ca 5.97822950 2.01727600 0.28896775
Ca 7.17358241 5.71399240 4.59784213
Ca 2.29862272 4.80742615 6.35367581
Ca 5.20756197 2.28928894 7.90122067
Ca 5.40685698 7.50694407 9.03112776
Ca 2.49921543 10.35538839 7.65304794
Ca 3.42209404 4.36445840 1.81887709
Ca 1.18098008 6.09514771 3.14911594
Ca 10.03807719 8.31766393 5.02331343
Ca 2.80963297 9.41153744 0.20204759
Ca 4.03900265 8.71663362 3.42840667
Ca 9.32195259 3.59851774 3.51951350
Ca 10.20786081 2.85618129 6.18141948
Ca 8.83425604 9.08583661 1.72663872
Ca 7.73492314 5.36434008 8.30983192
Ca 8.30088397 10.32161120 9.54939744
Ca 8.24835656 4.32352012 0.35981604
Ca 1.13592741 0.44754028 4.90416401
Ca 0.51270186 7.90232351 7.81663332
Ca 5.04809790 8.11894198 6.54242915
Ca 0.18400826 6.86546482 10.33336781
Ca 2.11371343 7.98421838 5.69443588
Si 7.90520671 7.64098269 7.26125553
Si 3.09746456 2.11537114 10.19761101
Si 1.47099096 3.38425366 3.87883793
Si 5.32782592 10.37992775 8.50871718
Si 7.87014753 7.35807428 9.84777272
Si 5.32916941 4.52807780 9.90425686
Si 0.79428807 3.92194672 0.79023595
Si 0.27233113 4.70512193 8.24763845
Si 2.39726616 2.58654729 7.00611672
Si 3.90235850 0.84908744 1.89061618
Si 4.28562348 5.91533047 4.05800856
Si 10.30440856 10.44655151 7.23635086
Si 4.66299987 0.17512060 5.37521613
Si 6.35746964 3.88448108 2.63755444
Si 9.87110497 5.60922400 5.56939340
Si 2.81096056 6.44089268 9.76971914
Si 0.10317023 10.22116679 10.24423202
Si 5.08982343 4.93551440 7.07187580
Si 1.10171962 8.89775012 2.69658830
Si 9.18846336 0.40739473 4.04033118
Si 8.35888165 2.45556588 8.71020803
Si 8.60717456 1.54662750 1.25752997
Si 6.91422730 8.40908091 4.19570201
Si 7.39198706 2.88168610 5.83391088
Si 9.08581375 6.43462978 2.41852484
Si 5.89292037 8.93992551 1.05784812
Si 4.77090764 6.94977104 1.12437823
O 6.09062469 4.14625447 0.68586285
O 2.48299773 2.25921560 3.23576976
O 6.70277562 8.89863787 10.24945113
O 5.02751753 10.43836598 7.07994709
O 4.13863829 9.49765473 8.46324637
O 0.06764852 7.59616366 2.49879585
O 9.27216768 3.78091404 8.21740427
O 9.36869757 8.90480664 6.91285997
O 4.51071458 1.08194940 9.43711755
O 5.24290344 5.13768829 2.89828438
O 7.56885952 4.97376820 2.80376231
O 1.00580974 3.64369976 7.59460883
O 1.99139920 2.83738748 0.44148434
O 8.72067361 6.78607597 6.10688650
O 0.35929899 4.48817649 4.90453803
O 4.13590320 6.02480798 10.45856595
O 3.47446814 1.22580814 6.44714729
O 6.10592215 3.94373766 6.34061960
O 6.86358681 0.76756118 8.55624404
O 9.70543736 0.82129543 10.50981336
O 1.81916452 0.63823474 10.25856405
O 3.23032493 4.39264861 4.13283924
O 2.83697373 6.63118708 4.32706753
O 4.30939385 0.57555116 3.49980283
O 7.32195801 0.40481681 0.83245732
O 6.75240781 8.95158953 7.69111658
O 8.15993077 2.42337105 7.01799422
O 8.61234647 4.25432680 6.06605120
O 8.34821253 7.09039749 0.79631182
O 6.14588974 7.36041708 1.75727396
O 2.00586087 8.84277598 3.86298160
O 10.20011311 2.72313269 1.07654916
O 7.38002988 8.24986682 5.74168193
O 6.21984830 6.45128582 6.98429815
O 9.57781689 0.28074743 5.68595766
O 1.61232887 5.50989803 8.57303570
O 8.29375017 2.31132202 10.23374975
O 0.64465659 6.64721048 5.85964449
O 0.61097796 1.28010562 6.86669128
O 1.11327411 3.83439078 2.49755561
O 3.84614588 3.63556836 7.25009821
O 5.72331239 7.25752424 4.38794868
O 10.00233673 5.58947511 7.26306293
O 2.22969605 8.20503409 1.79502365
O 5.46617229 5.17768922 8.56445242
O 3.91700001 2.17334989 1.05988904
O 4.24495088 5.86429871 5.82547711
O 2.37952719 0.10690680 1.89041114
O 6.59669250 6.34432263 9.89875613
O 9.27689742 0.78453866 2.37862464
O 0.65754083 9.75582750 1.37585418
O 5.37051618 2.55971444 2.54941262
O 3.32298041 7.23587888 8.23976676
O 6.73955110 9.29304839 2.32998979
O 0.00778463 4.32919423 9.88063546
O 1.77976285 4.96931466 0.32208280
O 2.13887473 2.85166815 5.38031831
O 7.93159388 7.48314814 3.11789390
O 9.46880482 8.83219991 10.18183348
O 8.25996080 1.72798615 4.44616950
O 3.50005532 6.35729044 2.26720657
O 5.58775229 1.51386165 5.34627227
O 10.39117893 10.02615755 3.47309994
O 7.52775693 2.95850048 1.83939033
O 5.18516904 10.55933416 1.14018805
O 9.17995314 1.00899909 8.04378554
O 3.38946365 9.52842635 5.47633702
O 2.51296748 2.14247060 8.53267936
O 4.14327424 3.64871972 9.63202727
O 8.76369665 6.97275832 8.65417198
O 0.49537356 9.96846039 8.65034708
O 0.08487446 2.18727076 4.02331146
O 6.97338092 3.32975802 9.14404776
O 9.92338148 5.36226559 1.54834241
O 1.64621457 7.88434895 9.76470092
O 1.06479304 9.37915398 6.61847914
O 8.22381068 9.57478841 4.02840677
O 9.31732065 5.97525890 3.95347863
O 6.03419339 9.81628365 4.66347513
O 6.96478086 3.45482549 4.33738722
O 4.50689875 8.30226521 0.17390988
135
Time=600000.00000594 pbc="T T T" Lattice="10.56489661 0.00000000 0.00000000 0.00000000 10.56489661 0.00000000 0.00000000 0.00000000 10.56489661" energy=-869.37772759 virial="430.83329397 -60.42274215 126.56836340 -60.42274215 357.65396066 -95.62590747 126.56836340 -95.62590747 417.18767613" stress="0.40481499 -0.05123948 0.10733205 -0.05123948 0.34275772 -0.08109234 0.10733205 -0.08109234 0.39324329" Properties=species:S:1:pos:R:3
Ca 4.39376214 3.61650582 5.09015133
Ca 7.12638941 0.08082289 6.22976718
Ca 6.79282426 1.08308002 3.31597818
Ca 1.18094978 1.24395850 2.06168402
Ca 0.01914290 1.68661668 9.30172338
Ca 5.66700839 1.58337082 0.55501951
Ca 6.70428671 6.03036004 4.75717871
Ca 3.39786474 4.89406262 9.62506669
Ca 5.48577958 2.61066649 8.17885205
Ca 5.55828501 7.46017963 10.10768603
Ca 2.27998390 10.37074233 7.60172526
Ca 3.72208584 3.99512336 2.10220553
Ca 0.98494848 6.24617810 3.36964875
Ca 9.99558604 8.23861062 5.06039718
Ca 3.31067412 9.69656894 0.78157292
Ca 3.99794842 8.79618213 3.92219512
Ca 9.60096131 3.82428519 3.41413330
Ca 9.71100391 2.75097792 6.23031636
Ca 8.91679734 9.38430324 2.07469544
Ca 7.78726742 4.79331098 8.07922926
Ca 7.80027569 9.62123742 9.46848579
Ca 8.52189706 4.52490002 0.68512941
Ca 1.51005460 0.65193810 5.37266232
Ca 0.11620931 7.23307326 7.61640089
Ca 4.73287351 8.26603493 6.65101750
Ca 0.62641702 6.86825315 0.37943908
Ca 2.36631181 5.87412022 5.97892276
Si 7.63373617 8.19589093 7.22784464
Si 2.90960330 1.80081508 10.13043196
Si 1.80754804 3.51316317 4.05443519
Si 5.26608290 10.21377865 8.85603695
Si 8.29730482 7.33387687 10.25680248
Si 5.91532729 4.41023058 10.53441459
Si 0.95459784 4.14023734 0.97844880
Si 10.53626999 4.65603825 8.57509191
Si 2.48478996 3.04839879 7.29656711
Si 3.70118817 0.99769034 2.77202219
Si 5.08092829 6.72411257 2.33987726
Si 10.21806006 0.15272214 6.93711903
Si 4.47842165 0.58231412 5.89696647
Si 6.80636049 4.41624367 2.69897019
Si 9.69375920 5.74459149 5.68909185
Si 2.88294443 7.87395938 8.88387937
Si 0.60289167 9.69172267 10.35186789
Si 5.09219633 5.64527781 7.35384945
Si 1.23380824 9.01685086 3.02375679
Si 9.64628637 0.51994113 4.14264455
Si 7.93559653 1.70984182 8.72141396
Si 8.87760259 1.49433074 1.11482138
Si 7.24099557 8.88209895 4.14611130
Si 7.10928367 3.46393225 5.62884949
Si 9.18649584 6.59980595 2.68827121
Si 6.10075741 9.42782532 1.34063517
Si 3.08886278 6.35429762 1.10381105
O 9.06937867 1.17372206 2.61152475
O 2.54611602 2.09009104 3.81975039
O 4.85263619 8.25080052 1.76066439
O 6.43263123 9.22779020 7.89322018
O 1.52974222 8.81954424 9.22103182
O 10.44472273 8.00817960 2.48068458
O 9.58986141 3.50751279 8.63833293
O 7.46842591 7.58675668 8.73451170
O 4.18115642 9.03838449 8.69935721
O 5.42664256 7.54970781 3.79700653
O 6.36605008 3.73942754 4.08979509
O 2.64496985 2.00279082 8.60391970
O 0.00537309 4.90391023 10.45533352
O 9.98966515 5.12282545 7.19508684
O 0.47948738 4.57191164 4.72526186
O 4.77328220 5.65170695 0.64093349
O 0.73409895 1.10678534 7.31110216
O 4.46001812 6.16125941 5.89983656
O 6.48425607 0.89344214 8.98296929
O 2.13102784 5.21885921 0.62047836
O 1.50319901 0.55659371 9.81278009
O 1.36106745 3.46482063 2.47973033
O 2.05360288 7.71940749 1.72006135
O 4.77681178 2.21071761 3.10935697
O 10.47255554 9.98770781 3.49267355
O 3.56029129 4.21455448 7.55649306
O 7.41074797 2.23524433 7.33790619
O 8.37139888 4.73126137 5.73491625
O 7.53072239 8.30855146 0.90675126
O 4.24728106 0.59375110 10.04412839
O 6.88505075 5.78925801 10.26798480
O 10.07825467 2.83077349 1.00933624
O 8.68176435 7.08232078 6.20810378
O 1.65855628 8.36762230 4.31451681
O 8.37398660 2.31317163 4.53975802
O 1.43658304 6.19918997 8.43062141
O 2.62992482 8.07151562 7.23249378
O 1.32096446 3.72159855 8.62635664
O 9.48170725 0.30525477 5.62406272
O 10.52766589 5.45559998 2.22431003