135
Time=99999.99999996 pbc="T T T" Lattice="12.09378762 0.00000000 0.00000000 0.00000000 12.09378762 0.00000000 0.00000000 0.00000000 12.09378762" energy=-929.93791750 virial="96.76893023 3.70710526 0.59724750 3.70710526 56.43162633 19.78207911 0.59724750 19.78207911 82.69530757" stress="0.07443841 0.00209579 0.00033765 0.00209579 0.05163395 0.01118368 0.00033765 0.01118368 0.06648197" Properties=species:S:1:pos:R:3
Ca 3.29504916 5.48315065 2.84819697
Ca 6.49398749 5.40048700 4.27021486
Ca 4.52987546 11.74819513 5.58457442
Ca 8.37820800 1.50821347 8.94320441
Ca 6.89722830 9.67963817 5.95381118
Ca 7.15068220 7.57692505 9.68397452
Ca 2.85225717 11.46065663 0.37257522
Ca 9.25860480 2.49911584 0.24370588
Ca 10.87237812 9.31454132 1.41002721
Ca 2.44573778 4.98977412 11.50048300
Ca 11.59271485 5.54430276 2.09785687
Ca 4.55169448 8.75114577 11.49620927
Ca 9.64594926 4.36528183 6.47737155
Ca 11.39402876 9.59542909 5.03033634
Ca 4.15663598 2.05331701 1.26615223
Ca 11.22661457 7.83258069 9.00104344
Ca 2.25947543 9.16330402 3.92894930
Ca 6.73024708 4.72349018 7.84865971
Ca 3.32328872 3.98772104 6.73836220
Ca 12.07750399 6.36376915 4.98139164
Ca 10.94044206 0.55213514 10.04505319
Ca 1.48504024 1.23755478 6.30123460
Ca 0.69463348 4.89428050 9.44283843
Ca 11.34743605 0.49088422 2.03025938
Ca 6.88264510 0.98665024 3.20364496
Ca 1.95640334 10.87906035 8.93566919
Ca 4.88176198 1.51845021 9.23330479
Si 0.35537297 2.36416979 0.19279092
Si 7.61804972 7.74500840 2.01557329
Si 3.69403427 7.06640035 8.64723283
Si 8.82285529 7.08375931 6.63563412
Si 3.93766335 9.25363922 7.42708720
Si 2.21607778 2.03213673 10.00276145
Si 0.03198314 2.64197476 8.01169839
Si 9.39890317 9.73257550 8.26468438
Si 10.76195526 0.23327223 7.17107102
Si 6.19489926 4.09014100 10.83241407
Si 6.26121165 10.98641331 11.35176266
Si 9.25533397 7.67726579 3.79544632
Si 6.90147086 3.80462671 1.92907989
Si 9.67465208 3.76985186 3.53824400
Si 1.11383522 7.74805177 6.97672815
Si 9.48422232 0.74325304 5.10466152
Si 1.12175563 9.09309544 11.17489397
Si 9.64256828 4.50738911 9.73423454
Si 1.73105761 7.26728563 1.24131880
Si 5.61597201 2.00543465 6.19214806
Si 8.65752853 11.99448538 0.42245180
Si 8.57304291 5.72551708 11.99797287
Si 1.78633097 0.16256768 3.49377250
Si 1.17041352 3.20160607 3.01002111
Si 4.79348836 7.56898700 5.14432229
Si 5.05754574 9.64267509 2.64546910
Si 6.37337732 10.96649399 8.33101787
O 10.82515787 7.51522314 3.87315154
O 5.57961521 9.65626394 7.81088899
O 4.20706895 8.19566528 3.52611262
O 11.00888256 3.94589060 8.24142499
O 6.26363323 8.65213079 2.09196642
O 0.36313952 10.49801506 10.76418458
O 7.25763953 4.11320939 0.14988489
O 9.25106830 5.20793640 1.20141978
O 6.11737560 5.20764691 2.27144418
O 6.91716167 5.54553184 10.19826976
O 9.53234411 2.95512168 10.36742561
O 1.05191849 3.36242023 6.77367631
O 9.29877254 11.59521407 4.27049391
O 8.34109047 0.85627456 1.62432563
O 4.25608218 10.21661641 1.30639266
O 0.75586988 11.23516571 2.73068182
O 2.67759868 9.54336133 11.05018037
O 8.04861768 3.95864454 3.06916280
O 10.31513913 9.94055808 6.90594284
O 10.20091328 11.28173751 0.81341632
O 6.33067963 9.54562557 10.65174332
O 0.84912113 8.66302748 8.17272005
O 4.12128125 9.09142901 5.70002425
O 9.79330903 6.06800996 10.96540131
O 5.83764129 3.63089051 5.77777619
O 10.69748706 3.30905407 2.25362923
O 0.80966184 7.73502739 10.43638009
O 7.65629860 7.00031190 0.59978796
O 4.48182390 5.76693786 7.95080852
O 6.09962346 2.37114178 1.87920341
O 0.83365548 4.58171197 3.72706398
O 4.08647700 8.47172541 9.28903424
O 8.16276296 7.72846065 7.93507254
O 3.06466924 7.82191279 7.14554577
O 0.47589196 3.80655453 11.59031556
O 7.83246559 6.84379918 3.24208712
O 3.90212796 1.81287440 6.55467206
O 10.96423013 1.77135687 0.02073677
O 5.06975708 11.91921260 11.95631297
O 3.21958027 10.68896118 7.59558524
O 7.25686221 10.89453519 0.61925938
O 10.29733080 4.99955367 4.43189099
O 0.56750804 1.97453288 1.81389039
O 10.33171543 6.69633346 6.33112720
O 0.48550934 2.37280235 9.60046960
O 6.69573577 3.12593376 9.51122284
O 9.06245412 8.53987961 2.28520688
O 7.95019212 5.84192762 6.30876734
O 1.94078588 7.38735550 2.98430083
O 1.91141309 1.49592200 11.58044252
O 5.28536567 10.39274260 4.06228054
O 1.04064172 8.32136711 5.56208157
O 1.38170606 6.05424281 7.26085897
O 4.27366543 6.02105619 4.89390177
O 3.08845191 0.48492317 2.62066660
O 0.84692634 8.78738067 0.92518220
O 3.29743164 6.67405937 0.81720559
O 1.10553364 1.56993214 4.20181446
O 9.12868007 0.59132518 6.71967908
O 2.75655769 3.24216629 2.60375939
O 7.73516206 10.49487859 7.96866498
O 9.45085427 2.57945475 4.69174763
O 9.77528772 9.23723771 9.72595229
O 6.27552631 11.91788106 9.86747883
O 8.82201684 0.37921501 11.05490840
O 8.90981976 5.23650545 8.63146332
O 5.00482411 3.76513165 12.06549179
O 6.16856701 7.62241073 5.42234598
O 6.11973467 1.18371623 4.95160771
O 3.12915182 6.20141346 9.81494245
O 0.23109285 11.58848309 7.80293113
O 2.73502605 0.80827594 9.22487457
O 10.14770047 11.32123940 8.72970402
O 10.88148193 1.77586450 7.52692673
O 0.91191492 6.09301873 0.55799721
O 11.29928493 0.56443093 5.62085138
O 8.58614316 8.40817789 5.18107639
O 5.40272505 12.01791072 7.44181306
O 3.13452865 3.33866445 9.69959792
O 2.25898131 11.62988131 5.08200009
O 6.51579785 1.98940765 7.46860239
135
Time=199999.99999918 pbc="T T T" Lattice="12.09378762 0.00000000 0.00000000 0.00000000 12.09378762 0.00000000 0.00000000 0.00000000 12.09378762" energy=-929.17881515 virial="58.35272730 -5.55428330 7.19303640 -5.55428330 64.70740228 0.76213862 7.19303640 0.76213862 94.17528177" stress="0.05272003 -0.00314008 0.00406654 -0.00314008 0.05631261 0.00043087 0.00406654 0.00043087 0.07297210" Properties=species:S:1:pos:R:3
Ca 1.66546479 9.48216742 11.66387372
Ca 5.86865720 4.87235092 0.64059703
Ca 8.77454251 8.29974682 3.13260961
Ca 4.39202166 2.39512648 8.90665187
Ca 4.50422336 4.14962316 3.99599168
Ca 1.73204643 12.05070987 4.71547278
Ca 10.55385543 10.87123376 0.92855122
Ca 1.93888281 7.36105555 4.53694881
Ca 6.54621564 9.62842673 10.82914360
Ca 1.67657439 5.26282253 10.23933342
Ca 7.06054970 12.01341324 8.35593523
Ca 11.47963753 1.28036789 8.55796661
Ca 11.16687912 9.01385274 6.07919424
Ca 9.28509953 11.40613004 6.92286107
Ca 1.08418788 3.57925061 4.02362545
Ca 4.26872412 10.43395588 3.21050151
Ca 3.68841581 7.54364096 9.22687983
Ca 5.11836337 7.38357298 5.62297811
Ca 2.86716727 2.50442310 6.50476002
Ca 6.92589674 10.69262997 4.59522783
Ca 0.15066387 4.88799311 7.06965651
Ca 9.67561991 5.69247766 9.06964401
Ca 0.79954626 1.89287202 0.29068242
Ca 1.50359126 10.28220465 8.04624157
Ca 7.33286823 1.06406169 11.30992033
Ca 6.98940077 4.91570894 6.43042092
Ca 8.46604858 4.65601534 3.22392281
Si 3.80668350 2.63171432 0.16471410
Si 7.33579697 11.43663071 1.57837395
Si 8.86458022 5.75845825 0.17988045
Si 4.44185674 11.91988484 0.19204449
Si 3.41495415 5.19314456 6.64909794
Si 10.44217269 8.19389912 10.96950002
Si 7.03836521 8.40109702 7.91611053
Si 10.44502145 10.67218975 4.11864798
Si 10.35874941 3.45659983 10.87379956
Si 9.56739831 10.60647973 9.44472485
Si 0.39547123 7.57601914 9.05520775
Si 2.28862798 0.26623607 10.69188685
Si 0.66346342 9.41588728 2.63314287
Si 5.39788900 7.50225054 3.18558441
Si 11.34286456 2.29680518 6.17456102
Si 7.95409643 3.07789243 9.25404194
Si 3.71582253 11.02582082 6.34868676
Si 6.84556477 5.99870008 9.47549807
Si 4.38001809 11.17044004 9.13019001
Si 3.97013042 7.75148045 0.53618620
Si 11.66790961 6.25236274 2.58762193
Si 10.42954450 1.86130974 3.10031198
Si 10.54617137 5.88554512 5.45608134
Si 3.33266836 1.37442100 2.81549814
Si 7.32206081 2.36374967 2.08554111
Si 7.00429853 1.92602332 6.19707946
Si 2.38840679 5.22996465 1.30512138
O 3.78749936 1.42450730 4.33302585
O 3.53192554 9.49203382 6.48299716
O 8.68515049 2.35722325 3.08644641
O 9.75308369 7.39188605 4.88688504
O 6.73311699 0.82117139 2.30586684
O 0.60838619 10.63074631 1.71792599
O 2.56438926 6.47463317 0.17811939
O 7.47096445 5.29139409 10.83489724
O 9.59002044 9.86168086 11.16493137
O 1.47598808 9.73272904 3.92527293
O 11.56318523 2.49385571 1.92688218
O 5.16029014 7.32974940 1.59300144
O 5.78836030 10.65752529 1.16680285
O 2.60827599 0.07188460 6.63748555
O 10.90545365 7.77322095 9.40178816
O 3.64615516 4.52487784 2.03820905
O 8.08286293 10.42457974 9.23330031
O 6.04104369 9.06524973 3.53758330
O 3.58274782 9.85203374 9.32127707
O 11.63695693 11.20076721 5.30516437
O 3.83799403 0.17925856 1.81914108
O 7.76056033 2.65799563 0.50448347
O 2.26009557 3.88943063 0.16165044
O 10.86020431 3.14607969 7.52203354
O 10.03663012 0.15448669 3.02756600
O 4.79131174 11.59346622 5.29398398
O 3.69390428 2.52844139 1.68812865
O 5.65660044 8.65885266 8.57713607
O 11.00188377 0.77069138 6.70934977
O 5.09299797 1.35616897 0.23936505
O 1.13867987 5.43927261 2.33848076
O 7.92632362 4.59809004 8.53791895
O 2.59546504 1.59796881 11.40017382
O 9.62242595 0.26611491 9.07535406
O 7.96011724 7.22701739 9.03144851
O 9.49839076 5.72626354 6.70430543
O 4.32439566 3.77714397 11.17527330
O 8.17436380 2.07656647 7.58890336
O 12.06164280 6.61456547 6.07747831
O 6.13341147 6.26536156 3.75013056
O 7.15970235 3.21378306 5.21140271
O 9.34422218 7.08591361 11.37512733
O 8.33872441 10.37219418 2.41259362
O 9.31037494 10.07935057 4.76091207
O 5.13043966 6.09754020 9.19320473
O 9.01663899 2.82252705 10.08863749
O 1.56123288 1.71230835 2.95554594
O 10.66556106 2.39504591 4.57704864
O 0.77380031 2.71294498 6.13920725
O 5.03709694 11.45344156 7.81095371
O 11.37033097 4.20803742 9.74035885
O 7.71361191 0.49746573 5.66642867
O 10.00094032 4.40855319 0.23312595
O 7.81173601 6.11917746 1.32092201
O 3.15714041 11.26946137 11.74399564
O 10.38861033 6.10963461 1.88427409
O 5.04201345 8.22224093 11.27347446
O 6.99235389 7.09419487 6.95538887
O 3.32237475 9.01608579 1.20490153
O 0.79588302 0.22901052 10.39535323
O 11.16117932 5.01303300 4.27857236
O 11.00739923 1.98930148 11.26608161
O 0.51213342 8.53083298 7.75801945
O 3.14400672 6.63165016 6.92083663
O 7.44568277 9.75765541 7.01010032
O 11.85678539 8.76246712 11.75280550
O 4.91844012 4.84837266 6.16143441
O 6.52084354 3.72970805 2.39922215
O 3.91358033 7.74230810 3.87812201
O 0.33199196 6.05310853 8.82578567
O 11.15242024 9.47569861 3.41985609
O 10.75709677 10.38480856 8.42545990
O 2.51423677 4.84315223 5.12049336
O 5.40859136 1.98777733 7.03178242
O 5.88352013 11.40502392 10.28532371
O 1.57831383 7.62958762 10.00724551
O 6.55238599 2.38160614 9.51581162
O 2.84275191 4.02628495 7.88113619
O 3.06205323 0.20102164 9.30962157
O 0.33430614 7.59510433 2.71721051
O 8.06229370 11.51702423 0.32378683
135
Time=299999.99999840 pbc="T T T" Lattice="12.09378762 0.00000000 0.00000000 0.00000000 12.09378762 0.00000000 0.00000000 0.00000000 12.09378762" energy=-934.72838071 virial="29.44534244 -9.55046314 -7.85713859 -9.55046314 56.10986794 3.03910730 -7.85713859 3.03910730 54.58380565" stress="0.03637741 -0.00539930 -0.00444199 -0.00539930 0.05145204 0.00171814 -0.00444199 0.00171814 0.05058929" Properties=species:S:1:pos:R:3
Ca 9.35122835 4.25505786 1.75712979
Ca 4.67633542 7.18800284 9.13606309
Ca 5.58894200 3.39278034 8.00178863
Ca 5.00524423 8.93982659 4.93453145
Ca 1.19623879 10.57419592 5.18056703
Ca 7.10734711 4.03818850 4.47880553
Ca 7.99064311 6.58114476 8.46800481
Ca 5.58418578 0.04504974 4.22611616
Ca 2.42884269 9.05814762 2.77678075
Ca 2.89796466 0.14291007 9.26379336
Ca 4.61968458 2.93621568 2.07607357
Ca 8.47441350 1.68980321 9.43555060
Ca 2.09725916 7.10461263 0.27423494
Ca 5.80793857 9.21259628 0.42674879
Ca 0.15798171 10.95400809 0.59255880
Ca 1.78712449 3.99257410 7.68440086
Ca 7.44161098 5.02062301 11.05713968
Ca 10.23168316 4.28190334 6.43971120
Ca 9.75061012 7.51561544 0.55291513
Ca 10.85496883 8.33581187 5.92126032
Ca 0.78107327 1.97685531 3.93125308
Ca 11.33891097 1.33626644 7.77119084
Ca 10.17912382 1.76555820 1.11896383
Ca 8.76273915 9.94687008 7.05730552
Ca 5.83610398 10.72062463 8.87096303
Ca 0.82622846 9.32517374 9.34197588
Ca 2.22080814 5.66047413 4.36486083
Si 4.65031310 4.83214029 10.35859479
Si 11.97726148 5.23779141 2.72614588
Si 7.28028890 8.84380984 3.44440970
Si 8.01915451 0.76449973 6.47562917
Si 10.52055848 10.88876466 10.11418334
Si 3.18073869 1.25635523 6.08728070
Si 0.30513284 5.96289995 10.33605841
Si 6.81504170 0.92194309 0.96562847
Si 0.86104525 4.15053491 0.65693255
Si 0.40294811 1.79575275 10.58785172
Si 7.17802668 6.68928488 1.93360522
Si 8.37744209 8.59696194 10.14170314
Si 9.51285647 1.71442959 4.53682097
Si 1.07885778 6.66367473 7.49926523
Si 3.30963513 9.23184515 7.20528276
Si 4.17702497 3.47898070 5.18914939
Si 9.86478773 10.97324005 3.64114485
Si 1.92979096 1.68056492 0.98666684
Si 9.86392814 4.07750154 9.81511251
Si 5.30350785 1.66625260 10.50866180
Si 11.78771434 8.38318433 2.85207974
Si 8.40527070 6.67872308 5.39844665
Si 3.03202591 9.67857261 11.31463555
Si 4.25171598 6.11728926 6.50579425
Si 8.66574417 11.08823286 11.88732311
Si 4.78279883 6.03797064 0.72608332
Si 2.94715891 11.82299001 2.88382954
O 7.52994965 5.58613937 6.26113721
O 10.58779708 10.02801670 11.45112770
O 4.18362325 10.77411703 3.24143160
O 6.67417106 9.03108947 9.90217598
O 6.45714840 2.92592512 10.22688441
O 3.56593440 9.71406657 0.81898822
O 2.92880599 9.05514131 5.47516788
O 1.67105417 1.10614271 11.67270014
O 9.49027527 9.55524815 9.25899755
O 7.13446454 11.62097017 0.27476945
O 8.04958839 10.43855886 3.59804705
O 8.18552198 0.78593124 4.80123579
O 9.02598627 11.75221514 10.26464348
O 9.20794994 2.96460684 3.51995185
O 2.71382329 5.88413836 6.56717247
O 7.04259649 11.53904494 6.52897576
O 1.39750000 0.66905679 6.43260870
O 1.22619257 4.99383180 11.41218975
O 11.56521258 4.04057471 1.61111254
O 9.15197809 0.11650133 7.62206568
O 4.22001155 10.07477425 10.04947515
O 11.74507387 11.19569296 9.19046611
O 3.76790880 4.06913535 3.83677499
O 10.72755813 3.17577810 8.76816568
O 10.80776718 5.44059599 10.20922536
O 11.09158689 6.72465516 2.77761101
O 2.36212061 10.69305897 7.94361485
O 3.94451072 2.21682411 9.44559243
O 4.27805166 6.61284483 5.13159536
O 6.67855310 5.80936542 3.11215020
O 9.43669476 3.69215352 11.52936261
O 11.91844750 5.63404389 6.90214873
O 1.42724787 5.53455791 2.00967532
O 7.56671634 2.28632899 6.92679757
O 4.71913296 4.37032832 6.24641927
O 6.03362768 5.70281395 9.69434750
O 1.34458229 5.88203560 8.73172079
O 0.90099263 1.81023360 9.08095349
O 10.31303303 1.86539677 5.94775339
O 7.39625988 7.70174550 4.60177911
O 10.35166346 0.60174203 3.45900256
O 0.38441269 8.25677493 7.30454994
O 6.05715469 0.22224465 10.24202547
O 8.77448784 7.25746343 10.68001791
O 11.32416210 0.74234825 10.83959027
O 2.50372881 2.97775800 5.83344985
O 0.20466413 7.50739835 10.56562956
O 1.94781300 10.98573994 11.13200625
O 5.20457327 1.60328755 12.03089151
O 3.12368558 0.78712518 1.70897491
O 8.54719145 4.52296103 8.81509231
O 10.48763709 10.28098658 4.99439542
O 0.59259839 8.24081577 1.65085244
O 7.78377038 2.14068643 0.94873022
O 5.69484867 6.67533258 7.33476166
O 5.36157229 4.68747544 0.47429765
O 6.19923927 0.87380638 2.55109653
O 9.67862899 11.68071081 0.78936798
O 8.25086159 9.36859590 12.09295886
O 3.79888359 6.97594664 1.43666601
O 2.27678558 3.26908671 1.13989211
O 2.61251339 7.81113322 8.13957605
O 1.55199946 11.24382518 2.88278889
O 8.66914851 7.75593793 6.62640865
O 4.82794826 9.06468316 7.19829409
O 3.66629430 4.57713291 8.96981407
O 0.24005489 4.60203419 4.29251176
O 5.79543327 8.65661269 2.64069852
O 10.94421290 9.83085118 2.36493332
O 8.34673005 5.97479460 1.13931719
O 4.65259388 1.14417749 6.78114726
O 4.07144263 6.11934334 11.23352292
O 9.77927994 5.93011520 5.00059427
O 0.56724433 1.64288513 1.77209767
O 6.20088946 7.01626795 0.54065826
O 2.79831234 8.20167385 10.87890619
O 3.35099313 0.80262466 4.41975947
O 11.93120889 3.19704883 11.59312739
O 0.52449379 9.14912625 3.90597285
O 5.38015660 2.64164891 4.50503004
O 8.12080200 8.03890880 2.31962058
135
Time=400000.00000008 pbc="T T T" Lattice="12.09378762 0.00000000 0.00000000 0.00000000 12.09378762 0.00000000 0.00000000 0.00000000 12.09378762" energy=-931.10984848 virial="35.72998253 -24.80208106 -14.04877175 -24.80208106 41.88464858 4.79228071 -14.04877175 4.79228071 61.26091159" stress="0.03993039 -0.01402171 -0.00794239 -0.01402171 0.04340990 0.00270929 -0.00794239 0.00270929 0.05436415" Properties=species:S:1:pos:R:3
Ca 3.86007437 10.50435366 4.41615770
Ca 10.35668150 5.02316748 4.62486620
Ca 10.09768883 3.05743014 7.69505045
Ca 0.16441987 8.05360799 9.71551255
Ca 7.27883390 7.71573257 4.22318349
Ca 6.91153602 7.43947051 8.08142494
Ca 10.52595320 9.76811708 1.16686469
Ca 4.18349041 2.50786111 4.97561620
Ca 1.91573162 10.75383778 7.72015950
Ca 2.24713372 0.70604654 10.39223292
Ca 2.22111342 1.65243030 1.86156963
Ca 10.41056328 5.30798057 0.73769302
Ca 0.58331676 11.75831422 4.23330213
Ca 3.08885126 4.69671216 8.91260150
Ca 3.68823845 6.89906998 11.45007089
Ca 5.21647276 1.46263694 11.10248505
Ca 8.85897811 2.13889932 2.41208541
Ca 5.32256547 9.82728247 10.51118285
Ca 10.57054711 1.26741901 11.62781144
Ca 0.43526120 8.79184768 5.90100579
Ca 11.69868091 4.52416468 9.54986875
Ca 7.12459121 4.88890450 6.08564759
Ca 8.16453280 0.05780121 8.98880177
Ca 9.26012925 10.31703176 4.70423985
Ca 0.95249230 6.89359877 1.91133620
Ca 5.97258551 4.85185045 11.21606499
Ca 3.86785595 5.92400683 2.91435053
Si 6.29065365 2.82662406 8.29541480
Si 10.20140614 6.48416266 7.40548094
Si 0.81132641 3.15155638 4.64791119
Si 7.75278774 11.34358332 0.05809791
Si 5.14940767 11.66484411 7.82239874
Si 6.18019525 11.83149532 2.60876328
Si 5.14291936 2.58068325 2.10210440
Si 10.79300487 11.01912858 7.29590945
Si 3.09931993 7.74423230 7.72358212
Si 8.08941045 3.46775749 9.82032393
Si 1.00645619 11.26072138 1.25964703
Si 9.41524200 1.39934726 5.67056206
Si 1.75259361 4.47836928 0.19776610
Si 9.19362323 9.09925828 10.76033483
Si 8.99091156 6.44242114 10.35598961
Si 7.53585503 10.13165623 7.01810115
Si 4.05753262 9.15881934 1.42927013
Si 1.87764485 9.58621188 11.49928540
Si 9.86377080 8.15938149 2.96559210
Si 6.45134971 0.16677736 4.86317152
Si 11.97204635 3.58328474 1.99151814
Si 1.52095365 2.28842895 7.36748166
Si 4.48301607 6.50801443 5.71743619
Si 2.03267801 5.39006793 5.78323621
Si 7.38251622 4.77961883 2.63032643
Si 6.21831751 7.01023138 0.76283234
Si 11.52056253 10.88202134 10.02270379
O 0.06184963 0.44986113 9.99169491
O 11.58565110 10.32681872 8.55737245
O 11.79757821 2.58505686 3.23548182
O 11.46220239 10.50546651 5.78816828
O 11.23667833 8.52410589 4.17868219
O 1.06814861 10.03557247 10.29249900
O 1.73334532 7.96691012 11.35680940
O 4.02073042 11.16673925 9.08993002
O 9.32233713 6.02781701 6.11284092
O 5.20391445 11.70985620 6.14336739
O 6.46294831 1.39225588 2.43605638
O 10.27101768 0.90784501 7.01556148
O 9.78046749 3.12677734 9.71053704
O 7.58777611 1.10287235 5.84437101
O 10.60026896 6.34135442 10.47965550
O 6.85028608 5.41454664 3.99106283
O 11.14664705 5.21411530 7.60521665
O 7.38623161 2.37318715 10.90426905
O 3.70685679 5.02466061 5.43669392
O 0.64841377 2.71125114 8.66915966
O 1.82002154 11.73719529 2.71540479
O 0.83621400 9.72996756 0.78580056
O 5.49439241 3.37958245 6.93914770
O 6.05606736 6.55298014 6.17898279
O 8.67368921 8.80805853 9.29021696
O 5.58051577 8.50017656 0.94338479
O 1.43217833 3.47984639 1.54230056
O 8.42685824 9.76005647 11.97586334
O 2.42793952 5.65183790 1.22063135
O 11.57032449 11.84967766 1.17742446
O 9.28535825 10.81586355 6.85861727
O 2.34410775 0.80061210 7.58647277
O 5.32927435 3.23523139 9.68256185
O 10.87461655 8.11127064 7.59929798
O 2.17283412 10.92005948 5.47316471
O 8.94376745 4.19773885 2.60674045
O 6.46599490 11.17378036 1.29567556
O 3.34715299 10.04029879 11.94392716
O 7.34140164 9.38898749 5.58722350
O 11.05101612 7.53107701 1.75696110
O 3.99874616 7.17648902 9.11755032
O 2.52365595 6.30706830 7.21981056
O 5.03201593 5.89171226 0.99274332
O 8.86857564 6.63760212 8.62116843
O 1.69732664 0.35201689 0.27732974
O 7.38602624 6.19409769 1.73491826
O 4.45450969 10.48905438 2.42158727
O 1.75291484 8.57223132 7.96926763
O 4.32705833 3.27567527 3.15166582
O 7.81542272 2.20077285 8.28941509
O 9.53509110 0.43732040 4.26815418
O 0.37806403 1.93415740 5.79748212
O 2.42312404 3.39710607 11.23379151
O 5.82659683 0.58638203 9.01393480
O 7.10154355 11.24420335 3.82547863
O 8.79919436 7.64418809 11.40902147
O 2.99823804 7.99871003 2.08873139
O 6.12395529 7.22513249 11.06998819
O 5.10475190 0.46638837 4.18616426
O 8.83567424 9.23320942 2.64898168
O 6.34725780 9.49435046 7.85844618
O 0.63623264 4.61089644 5.08258121
O 6.74755477 11.38044962 10.85371239
O 3.89877059 8.17239535 6.45815028
O 10.76103481 3.23708804 0.92795677
O 11.44943972 5.14975276 2.46946678
O 10.00986903 2.89989856 5.45564518
O 9.79070553 11.23628493 10.55738104
O 0.39777048 5.33713374 11.64890318
O 9.07337707 6.80352163 3.75495599
O 7.36414485 4.41647388 8.56774721
O 2.24547830 3.68489978 6.98649448
O 6.50919764 3.50505471 1.62965945
O 2.15314894 2.45216606 4.10238653
O 8.67007842 4.90509322 10.81767649
O 2.10341136 6.59956456 4.75105313
O 10.83724776 8.96559127 11.12024712
O 8.78626659 0.47391912 0.78610980
O 4.72524022 7.45975750 4.33954255
O 4.21683555 1.68815476 1.01318066
O 7.21780591 11.68659887 7.18313953
135
Time=500000.00000301 pbc="T T T" Lattice="12.09378762 0.00000000 0.00000000 0.00000000 12.09378762 0.00000000 0.00000000 0.00000000 12.09378762" energy=-926.11806822 virial="85.95835954 -0.33027059 -12.15427816 -0.33027059 73.53483170 -1.10788725 -12.15427816 -1.10788725 106.70176405" stress="0.06832672 -0.00018672 -0.00687135 -0.00018672 0.06130314 -0.00062634 -0.00687135 -0.00062634 0.08005388" Properties=species:S:1:pos:R:3
Ca 1.94518861 6.45775310 5.28309926
Ca 8.05865295 7.63863487 9.74105740
Ca 11.58034973 6.99245114 11.02613313
Ca 6.78100193 0.74983439 11.34818756
Ca 11.35254880 4.23163052 10.36326946
Ca 6.75587810 9.09896849 0.83078888
Ca 1.51567332 3.12198959 6.47131197
Ca 1.64287746 11.37968424 11.48785585
Ca 6.30723045 5.40255121 0.31263443
Ca 9.24316274 2.93511942 6.48655185
Ca 10.88607888 9.68910096 11.84610919
Ca 3.90179559 8.20580600 11.00755574
Ca 3.69567354 0.69507869 1.90194114
Ca 8.65285461 5.71861394 3.79960841
Ca 2.84641079 3.72604951 3.39473180
Ca 3.69617729 1.34430570 8.59477389
Ca 10.33658966 9.05111404 4.66580105
Ca 9.36154541 3.17504391 1.63609472
Ca 6.08803719 2.79393614 4.78819319
Ca 0.52723320 6.28349433 1.70627046
Ca 6.72331887 0.15369581 7.46340071
Ca 7.40987989 8.36896263 6.77728323
Ca 11.11800758 11.76672460 3.08221033
Ca 1.53120429 9.88222271 8.68023903
Ca 5.37531853 10.62079205 4.57277422
Ca 2.40301057 6.91676447 8.93778701
Ca 4.03999041 7.20657210 2.74989305
Si 3.86189120 8.74624257 6.29860746
Si 3.95737641 4.11784350 9.28847227
Si 5.21793734 10.62345115 9.84668500
Si 6.44426193 2.56502219 1.41122529
Si 1.86989558 2.39097264 12.00219093
Si 12.00207266 6.06880686 7.93710212
Si 0.42641910 8.72728531 2.92832552
Si 10.82563302 0.64332866 11.84050887
Si 8.91392429 1.60938096 9.70419275
Si 5.53130566 5.60617496 5.93052282
Si 6.65964352 7.44208736 3.58046105
Si 11.41033771 11.59415377 7.02805115
Si 3.58087553 0.88661219 5.46264029
Si 9.10546189 6.63350026 0.06892416
Si 2.76728253 9.68188393 1.48580793
Si 5.76003486 6.22637333 8.95568199
Si 0.10600979 1.18921311 9.04506219
Si 0.20097195 2.72473060 1.59030555
Si 9.30127220 6.10475748 7.03082117
Si 10.70517398 8.62494316 8.24114759
Si 8.66458951 0.04914825 5.27648146
Si 7.78435223 12.07496838 2.60123817
Si 2.97710489 5.47922064 0.26805525
Si 8.21369258 10.57303504 9.64723432
Si 1.41943568 10.80879171 5.24135947
Si 11.55312432 2.91664997 4.37317949
Si 6.41020322 3.35440603 9.37249646
O 3.05404230 11.19784789 5.11192310
O 7.02053385 2.89929384 11.86161197
O 5.04514803 3.44466003 10.38892045
O 4.85811342 1.00655118 6.44817760
O 5.17570685 6.27188918 7.32272953
O 7.40346171 2.32917998 9.99604551
O 0.77897873 5.30104580 6.80240720
O 1.09876216 11.93375858 9.16503174
O 2.72431771 3.86904747 11.58091902
O 0.26273898 7.78980428 7.97093813
O 1.81461887 8.52491206 2.25106604
O 11.36121272 1.24143993 10.45258146
O 7.86876999 10.99701816 1.42035869
O 2.68564010 1.30299653 10.95695703
O 0.42460848 2.75229424 9.20583817
O 5.36664376 1.11553310 0.65567219
O 10.97552154 1.52106098 1.25122615
O 4.22715279 5.74753993 9.69366165
O 0.10133845 11.47579157 5.81780879
O 7.97309156 1.67951421 2.09203730
O 11.04376295 0.61720466 7.93901820
O 8.91694635 10.01859605 11.02980647
O 9.05053962 11.79036463 3.49311718
O 7.64379615 7.33813614 12.08047840
O 5.72740554 8.77988948 3.31496523
O 7.53307606 11.07005379 5.75655198
O 0.35693891 7.41115377 4.00812863
O 1.81379380 2.36572792 1.66390587
O 6.61860917 10.18364253 8.99810708
O 8.14721693 7.92316657 3.73179764
O 8.71383255 11.99134968 8.96873975
O 4.15136571 5.12397416 5.40029046
O 0.15994023 1.70251680 3.17289637
O 6.53137828 4.43792118 6.03968578
O 3.43065329 10.28022085 9.90811949
O 4.44175428 6.04322064 0.27532960
O 9.52504388 2.71387144 8.86398274
O 10.42131458 7.44905799 0.66832449
O 2.98756222 5.33218067 2.14290747
O 0.47121768 5.51430174 9.18599218
O 11.43659710 10.06656114 7.97403198
O 11.22324871 9.11132108 2.25361181
O 9.95882970 11.97251014 6.11744677
O 6.45355893 0.11241428 3.53936394
O 2.74658370 3.95934171 8.35239186
O 0.42693315 2.97108109 12.08232622
O 3.89961248 8.14291931 4.83524146
O 11.30375685 2.64425906 5.84098247
O 7.75875382 6.56434591 7.24334150
O 10.09228485 7.90668030 6.70428871
O 7.75921536 1.35237754 5.31598064
O 1.95008138 6.45546146 11.59226985
O 11.60447846 4.31653996 1.44637718
O 4.01531340 8.80438805 1.03442014
O 6.03036044 7.69310909 9.32511632
O 5.25524705 9.69469307 6.45690978
O 10.20293515 3.12070760 3.75058903
O 9.31509876 1.23564821 11.25689463
O 2.52372295 10.97415344 2.28996148
O 6.31241348 6.37119296 2.46171273
O 3.48353493 8.18217598 7.72011442
O 5.98984187 2.63464783 7.95592862
O 0.83298475 9.13814416 10.40501083
O 11.50418383 11.45605054 0.44175983
O 2.48948561 0.77470739 6.64696328
O 10.86654029 8.42052663 9.91713118
O 0.80860731 4.28172067 4.20495729
O 6.97083437 4.88809584 9.27407522
O 5.55024063 10.13962064 11.34534180
O 0.65258527 10.04580695 3.93335905
O 10.01770945 5.52603690 8.22078789
O 8.88153148 9.46149900 8.51942342
O 3.65687846 2.18440431 4.46041579
O 5.42063755 0.09371895 9.85352685
O 5.50441507 3.56081741 2.03746285
O 1.79186197 9.58065064 0.07234301
O 8.73046924 5.41216443 1.01200717
O 9.70281691 5.91405205 10.97084865
O 6.08514535 6.32325765 4.60830556
O 2.10081088 9.35419364 6.12844702
O 9.59571112 5.35871560 5.64119277
135
Time=600000.00000594 pbc="T T T" Lattice="12.09378762 0.00000000 0.00000000 0.00000000 12.09378762 0.00000000 0.00000000 0.00000000 12.09378762" energy=-923.66151753 virial="74.71727909 12.62079278 -12.68411413 12.62079278 45.70907434 5.84894950 -12.68411413 5.84894950 53.57882856" stress="0.06197163 0.00713509 -0.00717089 0.00713509 0.04557201 0.00330667 -0.00717089 0.00330667 0.05002113" Properties=species:S:1:pos:R:3
Ca 7.41674666 2.94312744 10.80060310
Ca 0.41864308 8.28919385 2.46176137
Ca 4.57338562 5.64155841 11.09165370
Ca 10.22175742 1.90082661 2.04043585
Ca 7.04320918 7.41511142 7.88000573
Ca 0.09944685 2.26894975 10.16417730
Ca 4.28154117 1.62705513 11.12312899
Ca 11.64701048 10.42235904 6.35357835
Ca 7.39852518 3.87794821 7.11883218
Ca 8.07846832 10.84136341 1.24474148
Ca 10.77436713 4.48957947 0.95189055
Ca 3.01398146 11.92535266 8.48798937
Ca 1.56561502 0.07348901 1.94760302
Ca 1.86135256 3.55106623 6.87153594
Ca 6.62638447 10.50552607 7.05348589
Ca 9.61655850 6.85889523 6.29071295
Ca 3.62223528 10.03096252 0.07052962
Ca 0.95468357 5.16467665 10.16008278
Ca 8.71218018 0.14284891 4.61278635
Ca 11.61758412 1.58178036 6.21494598
Ca 7.02423422 5.06852830 2.46045629
Ca 6.25210663 0.97101566 7.80231775
Ca 3.48272112 5.67934428 3.31532965
Ca 3.65222778 8.41121770 8.90459956
Ca 1.07050567 7.02142117 5.31792986
Ca 5.59149358 11.36172527 3.69650246
Ca 8.83084537 9.66197095 9.46523506
Si 10.26395611 7.83164048 0.52451149
Si 11.25992719 4.73639132 8.30260406
Si 0.71445936 2.88344939 3.58121680
Si 10.99418744 10.56361337 2.57290277
Si 9.08396617 5.90902237 9.95672700
Si 10.16930903 0.36274118 10.99645200
Si 5.27219636 7.72206639 1.13992063
Si 5.72924100 10.48232355 9.92653058
Si 6.14436952 6.70506854 5.13237139
Si 4.32124789 2.24692181 2.56110532
Si 10.02100066 6.86040664 3.42015678
Si 4.08425658 3.43757188 5.43463291
Si 0.16736790 7.49572038 7.86850924
Si 1.80930697 6.89019682 0.50605276
Si 7.82702486 9.14224895 4.55097526
Si 3.87217395 3.43881929 9.34783392
Si 0.27528724 8.72359880 10.53728090
Si 1.01031593 11.21761645 10.62644137
Si 1.93322536 3.40501634 0.84837229
Si 3.81361940 5.86936241 7.28294029
Si 9.70159175 3.75616377 3.89783730
Si 7.42513386 8.04806074 11.69166532
Si 9.41494742 0.65349248 8.14547711
Si 2.81864866 8.81704712 2.88054647
Si 6.99178979 1.83227266 1.34863109
Si 3.03755127 9.84521374 5.79424069
Si 2.42199927 0.84989901 5.86752384
O 0.08872219 10.51854599 1.79419765
O 9.61855003 0.84192934 6.57656142
O 5.66254910 5.91898568 3.95741511
O 7.75692512 4.78356477 9.34248628
O 2.14660783 11.74413638 11.55255485
O 7.74285362 0.77155518 2.41591179
O 5.55793817 3.77789124 10.01875578
O 0.39931602 6.39451870 0.76248421
O 0.19583811 3.44148354 7.99334981
O 2.74841886 4.89184997 1.09377277
O 2.63138927 3.43519006 10.24465375
O 2.88215891 11.54718196 5.34181891
O 11.54078605 9.49601064 9.52856380
O 3.92310413 1.65158346 8.89007203
O 7.80702519 10.18511223 3.28199686
O 0.16161438 5.84175612 7.77840552
O 2.59956386 6.65304516 7.66795780
O 9.16948817 3.88317199 2.36483686
O 10.87244122 0.68529177 9.34769108
O 2.65127794 10.41510613 2.54718168
O 10.07179572 5.14739554 4.53822880
O 1.48699763 9.69155626 10.66662079
O 10.98727775 10.40465910 4.35967022
O 8.15275519 9.74903104 5.97317891
O 9.95819405 4.60143371 7.43215066
O 11.49810943 8.17471206 11.74412292
O 2.65317931 6.42420778 10.82880987
O 8.95556749 8.72856812 11.81631207
O 6.63644137 9.86836075 11.18488332
O 3.94775961 10.42339478 9.82141758
O 1.00660418 3.46407466 5.06034023
O 3.34817451 2.49846822 1.01817753
O 5.91561278 2.54925220 2.26880921
O 8.95790050 11.12283476 7.78388903