80
Time=50000.00000004 pbc="T T F" Lattice="13.79398668 0.00000000 0.00000000 -6.89699334 11.94594288 0.00000000 0.00000000 0.00000000 27.81022107" energy=-526.90617514 virial="8.92005651 0.19612718 1.55801014 0.19612718 11.53997008 8.12212443 1.55801014 8.12212443 7.62271946" stress="0.00239780 0.00004280 0.00033998 0.00004280 0.00296950 0.00177237 0.00033998 0.00177237 0.00211470" Properties=species:S:1:pos:R:3
Sc -0.08143923 2.03389037 15.20754652
Sc -1.72798884 5.04237632 15.08589193
Sc -3.43688080 7.86891548 15.11986918
Sc -5.10053504 10.82602242 15.18364703
Sc 3.40842322 2.00765380 15.08922510
Sc 1.63632833 4.89482814 15.19582065
Sc -0.06245770 7.96250309 15.11107041
Sc -1.60187135 10.89798594 15.07096891
Sc 6.92527940 1.94508804 15.14162803
Sc 5.14793137 5.02460502 15.20931777
Sc 3.39278646 7.90242811 15.17260677
Sc 1.69428037 11.04398318 15.06028211
Sc 10.38168227 1.92838436 15.09690348
Sc 8.61856599 5.01165306 15.22835679
Sc 6.87056817 7.91130429 15.12724174
Sc 5.14401948 10.97623213 15.12449219
Sc 1.64105297 1.02386159 12.74460573
Sc -0.02695048 3.95916743 12.65154861
Sc -1.64351547 6.95392814 12.63185376
Sc -3.41257337 9.94890776 12.57901245
Sc 5.10030839 0.95451750 12.70714530
Sc 3.43163074 4.04132347 12.69321854
Sc 1.74899774 7.04161578 12.74106323
Sc 0.08976052 9.92230475 12.64153929
Sc 8.74319470 0.97858826 12.64058199
Sc 6.87299075 3.92074406 12.68615922
Sc 5.09822847 7.05910189 12.62144379
Sc 3.47528571 9.86152755 12.64734606
Sc 12.14946156 0.99880005 12.58516579
Sc 10.24973353 3.94543717 12.70062435
Sc 8.54393593 6.95979214 12.62171223
Sc 6.91108564 9.99485794 12.64058143
Cl 0.14846205 2.28910269 10.86325959
Cl -1.91510462 5.15973942 10.98238492
Cl -3.38214836 8.01093833 10.92105815
Cl -5.31005758 11.02712708 10.99655167
Cl 3.48536347 2.05174814 11.20267219
Cl 1.72680044 5.08113102 11.01846216
Cl 0.10084723 7.93482041 11.09453642
Cl -1.69029850 11.00402485 11.06394470
Cl 6.94478209 1.90696841 10.98194905
Cl 5.22665605 5.08654532 11.11641491
Cl 3.50032641 7.95193459 10.99006560
Cl 1.70521901 10.97480252 10.98361105
Cl 10.36103220 1.95829767 10.98947453
Cl 8.58993541 5.06857813 11.06229603
Cl 6.94625658 7.94138774 10.98014546
Cl 5.11546691 10.87163923 11.02773713
Cl 1.68343410 0.93081837 16.75641944
Cl -0.14855075 4.05902208 16.93517898
Cl -1.70675156 6.99251917 16.80952313
Cl -3.27522387 9.95208947 16.70408892
Cl 5.23816496 0.88694842 16.77774740
Cl 3.42167498 3.81119792 16.91657853
Cl 1.67876573 6.94009072 16.75096812
Cl 0.04184682 9.97855622 16.85089491
Cl 8.80414049 1.05367428 16.71473297
Cl 6.80048282 3.95962648 16.90507429
Cl 5.08756168 6.98377899 16.78021363
Cl 3.43119464 10.02525711 16.85680643
Cl 12.10210167 0.91442790 16.82057487
Cl 10.52685254 3.67811388 16.88147819
Cl 8.68365592 6.94947871 16.71480558
Cl 6.87601888 9.77866557 16.82180929
C 13.74064606 0.08877622 13.96647164
C 11.96359505 3.04791463 13.89290047
C 10.29474499 5.97558319 14.02199116
C 8.55610101 9.04148480 13.84336923
C -3.48589036 11.94498222 13.86737907
C 1.62260288 3.13198923 13.91068190
C -0.00010787 6.06374540 13.88169018
C -1.81816729 8.92054159 13.84108107
C 7.00987447 0.05424154 13.92549365
C 5.08335301 3.06781401 13.95307655
C 3.40220163 6.06895736 13.94993700
C 1.69345042 9.04053974 13.81517537
C 3.45020739 11.93194420 13.86965636
C 8.66024757 3.02085555 13.91774786
C 6.86567852 6.06718630 13.81240480
C 5.04446630 8.96663556 13.87143838
80
Time=99999.99999996 pbc="T T F" Lattice="13.79398668 0.00000000 0.00000000 -6.89699334 11.94594288 0.00000000 0.00000000 0.00000000 27.81022107" energy=-526.56375027 virial="5.12176869 -1.50320723 -3.21099483 -1.50320723 3.02633928 -0.73465469 -3.21099483 -0.73465469 -15.24899022" stress="0.00156895 -0.00032802 -0.00070069 -0.00032802 0.00111170 -0.00016031 -0.00070069 -0.00016031 -0.00287626" Properties=species:S:1:pos:R:3
Sc 0.02900154 2.10024518 15.05474101
Sc -1.76549523 4.88682450 15.21327810
Sc -3.37380446 8.00089653 15.18677388
Sc -5.23864154 10.97277903 15.08115496
Sc 3.52837011 1.91959579 15.04194865
Sc 1.75976837 5.02959396 15.24628978
Sc 0.01813409 8.14142915 15.22697047
Sc -1.63372762 10.92878180 15.07479037
Sc 6.87408970 1.88879632 15.12502595
Sc 5.28430347 5.02213550 15.20692407
Sc 3.51960227 7.96692919 15.22234152
Sc 1.72661506 10.86982092 15.19727049
Sc 10.35009554 1.87340069 15.20110650
Sc 8.55125811 4.88322556 15.27885705
Sc 6.92954643 7.94337491 15.14079686
Sc 5.27101889 10.96443542 15.14963756
Sc 1.70424690 1.05266123 12.56744265
Sc -0.06092480 4.09881657 12.56976492
Sc -1.71931904 6.96481549 12.81131649
Sc -3.48234288 9.97293569 12.56760526
Sc 5.13333792 1.00076474 12.51105195
Sc 3.52774494 4.11847540 12.70705568
Sc 1.60606327 6.95074239 12.65484343
Sc -0.04433948 9.94288195 12.58654043
Sc 8.65083098 1.05371060 12.66696887
Sc 6.93630684 3.99222426 12.72738443
Sc 5.16197662 6.96891262 12.67098847
Sc 3.36246399 9.91266053 12.67698764
Sc 12.11788304 0.97215161 12.63435033
Sc 10.23676032 4.00362734 12.77716719
Sc 8.61314848 6.92577930 12.68286347
Sc 6.90465428 9.86576271 12.65951685
Cl 0.01443687 1.91883617 10.95295034
Cl -1.72603302 5.03062484 11.01167955
Cl -3.44894799 7.93443427 11.04739999
Cl -5.10485494 10.86466960 10.67599526
Cl 3.34126881 2.24787913 10.99139518
Cl 1.60326430 4.86325969 10.97110192
Cl -0.11567286 7.94946647 10.92331447
Cl -1.49344518 10.94030213 10.86299843
Cl 6.90930495 2.02329839 10.99479259
Cl 5.12224809 5.04667836 10.94798889
Cl 3.35848614 7.95091806 10.92919138
Cl 1.63248649 10.93033320 10.83437431
Cl 10.28940073 1.83750862 10.94995036
Cl 8.71203989 4.77323491 10.98358453
Cl 6.79345367 8.03495848 11.07227706
Cl 5.16601750 10.82411434 11.13701677
Cl 1.84259276 0.97702204 16.82237173
Cl -0.05049448 4.05276857 16.85002197
Cl -1.69121255 7.03622298 16.85254971
Cl -3.45992061 10.03230394 16.77354948
Cl 5.09116488 1.22126075 16.88895272
Cl 3.42891759 4.10393879 16.85096156
Cl 1.61836528 7.03578669 16.77330747
Cl 0.00939153 10.06518679 16.85910324
Cl 8.51372564 0.93758638 16.90245676
Cl 6.87989508 4.00410069 16.88741192
Cl 5.24954139 6.89442081 16.75776969
Cl 3.37783556 10.03319731 16.95135707
Cl 12.28812052 0.82988945 16.83525517
Cl 10.32012674 3.79010539 16.96550789
Cl 8.72925485 6.96931369 16.80274462
Cl 6.99135174 9.97190233 16.73115450
C -0.01620057 0.08023613 13.82663878
C -1.71115960 3.05637371 13.95470680
C 10.30705465 5.93155890 13.96470805
C 8.63051848 8.87141208 13.80408696
C -3.52854544 11.87824742 13.76290105
C 1.75881571 3.01777887 13.92532805
C -0.07429325 6.04145883 13.90483483
C -1.66952200 9.04445416 13.89026902
C 0.01953020 11.86286314 13.80665824
C 5.13181045 3.06320384 13.86493280
C 3.52535568 6.06532279 14.02054996
C 1.64947999 9.00888743 13.93795309
C 3.50287410 11.88272201 13.96801700
C 8.55941182 2.86734505 13.92055587
C 6.96128176 5.85296732 13.97933495
C 5.22977968 8.81438526 13.87633720
80
Time=149999.99999957 pbc="T T F" Lattice="13.79398668 0.00000000 0.00000000 -6.89699334 11.94594288 0.00000000 0.00000000 0.00000000 27.81022107" energy=-526.89988232 virial="8.55248718 -2.70111054 4.90312182 -2.70111054 8.13860679 -11.03578711 4.90312182 -11.03578711 4.22448551" stress="0.00231759 -0.00058942 0.00106994 -0.00058942 0.00222727 -0.00240818 0.00106994 -0.00240818 0.00137315" Properties=species:S:1:pos:R:3
Sc -0.01149372 2.05459652 15.07641252
Sc -1.66003679 4.94205430 15.12161016
Sc -3.33486224 7.97077663 15.22291849
Sc -5.25283705 10.95232109 15.19846364
Sc 3.39255840 2.11140458 15.18596723
Sc 1.77140355 4.94645482 15.13674408
Sc -0.02562766 7.88483130 15.11570051
Sc -1.67338039 10.94167658 15.16439370
Sc 6.85380191 2.06837944 15.16698179
Sc 5.13449945 5.07054963 15.15304931
Sc 3.44053755 8.07422342 15.11173053
Sc 1.76446833 10.92264335 15.15139843
Sc 10.34917057 1.99903039 15.14497720
Sc 8.62822145 4.94458623 15.10780647
Sc 6.87271985 8.10056064 15.11752355
Sc 5.14116981 11.03056037 15.09202100
Sc 1.70743713 0.97900793 12.73804820
Sc -0.04322246 3.94818497 12.53231256
Sc -1.73334989 6.94315977 12.66073530
Sc -3.45592710 9.90037937 12.65537565
Sc 5.08566240 0.92717057 12.76385318
Sc 3.33884774 3.98614483 12.62718940
Sc 1.76897909 6.96505718 12.73740313
Sc -0.04026606 9.95245486 12.65517812
Sc 8.46066864 1.00885553 12.71283457
Sc 6.77889667 3.86464259 12.60078225
Sc 5.21925194 6.95730164 12.72740243
Sc 3.48231154 9.98143177 12.64872261
Sc 12.07821508 0.99310665 12.70654273
Sc 10.33217864 3.99383158 12.64878846
Sc 8.64920438 6.89661127 12.72254760
Sc 6.90058033 9.94595982 12.62795562
Cl -0.07288750 1.95356176 11.04073271
Cl -1.56008762 5.07695483 10.89417509
Cl -3.35136203 7.88626854 11.00633681
Cl -5.30464464 10.83660942 11.06544332
Cl 3.50843818 1.96649552 11.05388785
Cl 1.94832049 4.96990066 10.97023313
Cl 0.04802747 7.80671385 11.06984419
Cl -1.75632158 10.80100275 10.95240318
Cl 6.95453948 1.99498326 10.86671014
Cl 5.21893680 4.89546003 11.00811968
Cl 3.57770671 7.91413659 10.97268192
Cl 1.67160631 10.92973475 11.00221762
Cl 10.51462739 1.98285925 10.97634122
Cl 8.62118776 4.88355009 11.04141441
Cl 7.04921216 7.94622551 10.98019111
Cl 5.11661027 10.96590834 10.94400957
Cl 1.82570878 1.10694568 16.91026899
Cl -0.12383342 3.98222131 16.72064138
Cl -1.63588954 6.88265186 16.83096986
Cl -3.63164114 9.96361181 16.83750454
Cl 5.06575174 1.03905089 16.63613604
Cl 3.40476940 3.94855135 16.85081986
Cl 1.87146238 6.88843527 16.85996402
Cl -0.00991971 9.86852606 16.78015726
Cl 8.64984592 1.03642321 16.79955718
Cl 6.87687785 4.11894219 16.89645034
Cl 5.04023899 7.06724550 16.70806970
Cl 3.62380686 9.92375010 16.77887702
Cl 12.03033207 1.01806335 16.82036573
Cl 10.17792667 4.14247957 16.85272727
Cl 8.71682778 7.06002645 16.84657917
Cl 6.81452112 10.10513960 16.92148445
C 13.75910284 0.00721252 13.97365995
C -1.70373901 3.01428401 13.97836851
C -3.31948955 6.02126262 13.90706636
C 8.56424506 9.01683861 13.90341093
C -3.53702547 11.89812554 13.96658392
C 1.67438354 3.02056204 13.91138661
C 0.07164414 5.82347751 13.89785580
C -1.62720929 8.93604123 13.86483097
C -0.10115071 11.90616287 13.84839485
C 5.30470453 2.88389055 13.94101410
C 3.46416237 5.93595480 13.93588571
C 1.68682716 8.94986658 13.91661732
C 3.41649840 11.90190916 13.87174118
C 8.60257576 3.07326867 13.81909924
C 6.96071246 6.13662734 13.84792605
C 5.11931254 9.03772656 13.83790404
80
Time=199999.99999918 pbc="T T F" Lattice="13.79398668 0.00000000 0.00000000 -6.89699334 11.94594288 0.00000000 0.00000000 0.00000000 27.81022107" energy=-526.76937342 virial="6.50051835 1.53946995 3.84436960 1.53946995 8.83112569 -3.93673932 3.84436960 -3.93673932 0.91179616" stress="0.00186982 0.00033594 0.00083890 0.00033594 0.00237839 -0.00085906 0.00083890 -0.00085906 0.00065027" Properties=species:S:1:pos:R:3
Sc -0.13208750 2.08773695 14.99823705
Sc -1.80233791 4.94873394 15.02305233
Sc -3.53708238 7.86978652 15.13337760
Sc -4.97183032 10.92699596 15.17635079
Sc 3.50464476 2.05008611 15.13005658
Sc 1.70141648 4.98728305 15.07510227
Sc -0.04953675 7.92628770 15.10111051
Sc -1.78977415 11.02855869 15.10174874
Sc 6.80230072 2.00920964 15.20039015
Sc 5.21133367 4.92838708 15.10128609
Sc 3.34604183 8.06888084 15.13324678
Sc 1.70278767 11.01161805 15.33845536
Sc 10.25707225 2.04132088 15.23261087
Sc 8.63611782 4.96728457 15.10154006
Sc 6.90482516 7.95968260 15.14169717
Sc 5.29388455 11.00374986 15.35987805
Sc 1.79861322 0.98264427 12.64409973
Sc -0.02666092 4.03246355 12.57457348
Sc -1.74794224 7.00415147 12.68566187
Sc -3.43633251 10.01135331 12.67130080
Sc 5.33683029 0.92229246 12.56831688
Sc 3.45055830 3.88254134 12.63600450
Sc 1.83668329 7.08082431 12.58226538
Sc -0.01101998 9.90605224 12.75050911
Sc 8.69614978 0.89546459 12.80154036
Sc 6.91451931 3.89553078 12.65645408
Sc 5.17592081 6.88135279 12.71288005
Sc 3.55494756 10.04836146 12.76627862
Sc 12.22932700 0.95979104 12.71447197
Sc 10.26812004 3.81905456 12.55710404
Sc 8.53994433 6.87991319 12.58839855
Sc 6.91567948 10.06085128 12.73862260
Cl 0.01862140 2.00929530 10.97208343
Cl -1.80967701 5.12981126 10.93626718
Cl -3.47627682 8.04338988 10.97652581
Cl -5.10753708 10.97149124 10.99227106
Cl 3.44489804 2.02513840 10.92032610
Cl 1.83976310 4.94978382 11.10486135
Cl -0.03601072 7.89514286 10.94989633
Cl -1.71799788 10.91335904 10.96935253
Cl 6.73024669 2.00836704 10.89715486
Cl 5.21612251 4.96699348 11.05728141
Cl 3.59604862 8.05527444 11.04728896
Cl 1.77583404 10.85658157 11.10509426
Cl 10.21621027 1.81455990 11.04670924
Cl 8.59384071 4.91697209 10.80536360
Cl 6.81342704 7.95897909 11.01849981
Cl 5.19222674 10.87901921 11.13695301
Cl 1.62660971 1.02975943 16.69873130
Cl -0.02731520 4.01176896 16.70821800
Cl -1.89403950 6.88902954 16.78771748
Cl -3.20690378 9.80456257 16.88964275
Cl 5.06249737 1.01277971 16.95261017
Cl 3.34692451 4.01162754 16.86555140
Cl 1.74446102 6.92694548 16.73457953
Cl -0.11154885 10.01868241 16.88962215
Cl 8.62329360 1.11902413 16.93396393
Cl 6.82774279 3.95388732 16.82003831
Cl 5.18730105 6.99844328 16.61625938
Cl 3.54639355 10.13589186 16.91202240
Cl 11.94987831 1.13306256 16.78895338
Cl 10.40901275 4.01103430 16.84761610
Cl 8.52692784 6.89322712 16.78812163
Cl 7.05380467 9.89760229 16.81930156
C -6.82771099 11.88575588 14.04237820
C 11.97641112 2.97102017 13.81231644
C -3.43071145 6.04719401 13.88551160
C -5.09480871 8.97533608 13.95676143
C 3.51606380 0.02988438 13.80310417
C 1.70176046 2.92562897 13.83318408
C -0.00259453 5.89963657 13.81342577
C -1.71826269 8.97328521 13.95663373
C -0.01353852 11.90491300 13.95605853
C 5.19846417 2.96753825 13.91742732
C 3.42556028 5.97045032 13.73465308
C 1.75942303 8.96493621 13.90531933
C 10.31866122 0.07362414 14.03694703
C 8.70029782 2.94722078 13.85244095
C 6.94323986 5.87384283 13.79416964
C 5.27375629 9.05598800 13.98280871
80
Time=249999.99999879 pbc="T T F" Lattice="13.79398668 0.00000000 0.00000000 -6.89699334 11.94594288 0.00000000 0.00000000 0.00000000 27.81022107" energy=-527.33520842 virial="4.41169257 1.52074091 -4.72517605 1.52074091 3.51631230 -0.20339850 -4.72517605 -0.20339850 -9.45881831" stress="0.00141400 0.00033185 -0.00103111 0.00033185 0.00121862 -0.00004438 -0.00103111 -0.00004438 -0.00161275" Properties=species:S:1:pos:R:3
Sc 0.02297292 1.92105788 15.18423939
Sc -1.74285604 4.95992147 15.23205985
Sc -3.48896007 7.86581069 15.07319093
Sc -5.17639672 10.84137348 15.06919426
Sc 3.43374337 2.07308976 15.16643500
Sc 1.65887892 4.99574004 15.13431286
Sc -0.00046169 8.00851872 15.29063925
Sc -1.69806018 10.94676229 15.14505559
Sc 6.84581627 1.96218966 15.06299078
Sc 5.18523179 4.92957125 15.17887982
Sc 3.47174451 7.86024906 15.30984164
Sc 1.73088835 10.94318337 15.22740803
Sc 10.39372241 1.99897907 15.10498189
Sc 8.53921405 4.98599300 15.08500323
Sc 6.84071906 8.05351681 15.20393900
Sc 5.20758280 11.03198326 15.04047714
Sc 1.75896577 0.92930291 12.70424144
Sc -0.09496693 3.98181728 12.64794537
Sc -1.67419697 6.99334695 12.59438793
Sc -3.34138285 9.93417214 12.60347901
Sc 5.13674749 1.02295308 12.62023747
Sc 3.34123261 3.97568162 12.66485455
Sc 1.72763401 6.97609436 12.76298823
Sc 0.09115047 9.91227203 12.74380461
Sc 8.64152824 0.93644638 12.58838886
Sc 6.79023158 4.05531452 12.64873124
Sc 5.21139748 7.02279830 12.70766583
Sc 3.40855130 9.93264188 12.71506224
Sc 12.03472425 1.02696018 12.70351993
Sc 10.28057399 3.96214623 12.69963284
Sc 8.55032982 6.97065402 12.62591940
Sc 6.92864271 9.91028540 12.55731334
Cl 0.02084912 1.87817521 10.99386749
Cl -1.64912759 4.84546395 10.99111799
Cl -3.41907102 8.04494411 10.92105197
Cl -5.09893109 10.87684672 10.85221776
Cl 3.34208656 2.03040769 11.00357664
Cl 1.64734217 4.94597266 11.25786217
Cl -0.01230911 8.09776579 10.94576648
Cl -1.69020818 11.10109526 10.98718240
Cl 6.87649038 2.02902414 10.86429512
Cl 5.17721100 4.95723436 10.96210276
Cl 3.33804244 7.97479081 11.05826189
Cl 1.60039468 11.04014317 10.91437568
Cl 10.35730941 1.99320746 10.97782708
Cl 8.82209396 5.13468969 10.89822045
Cl 6.75228032 7.85927255 10.85231881
Cl 5.01553944 10.99294694 11.00537868
Cl 1.68080202 0.89889979 16.92593023
Cl 0.17040870 4.00168990 16.87147582
Cl -1.80475502 6.97567459 16.81681369
Cl -3.31054682 9.75879426 16.72096512
Cl 5.06588713 1.08193851 16.77343555
Cl 3.42976252 4.08967051 16.91125770
Cl 1.77338120 7.08420394 17.01259320
Cl 0.02879086 9.93625086 16.89160082
Cl 8.68983538 1.05344871 16.82167144
Cl 7.00759454 4.01203516 16.79293710
Cl 5.35520048 6.92871936 16.84899947
Cl 3.52476669 9.99663375 16.70204917
Cl 12.11337293 0.93287369 16.75335441
Cl 10.45630497 3.97563287 16.78597218
Cl 8.58084631 6.92509402 16.78252532
Cl 6.88832902 9.98764091 16.89741796
C 6.90267277 11.92711194 13.87536853
C -1.66238399 2.99487445 13.97264620
C -3.37450292 6.01101059 13.82073038
C 8.52612449 8.90483369 13.86207585
C -3.32903225 11.91079210 13.88788961
C 1.78066685 2.89206177 13.99661291
C -0.00697775 5.92535551 13.91337441
C -1.64145686 8.85857105 13.91785819
C 6.86422215 0.02118572 13.87257046
C 5.11728247 3.00007015 13.83544695
C 3.36268542 5.99630270 13.96513491
C 1.65275765 9.02232062 14.03461640
C 10.37160231 0.07547770 13.87453880
C 8.71180866 2.99744943 13.84276915
C 6.89843372 6.00952171 13.93970349
C 5.14731548 8.91912481 13.87070008
80
Time=299999.99999840 pbc="T T F" Lattice="13.79398668 0.00000000 0.00000000 -6.89699334 11.94594288 0.00000000 0.00000000 0.00000000 27.81022107" energy=-527.18774462 virial="5.80368632 1.14692842 3.09345901 1.14692842 6.41951687 -4.73452004 3.09345901 -4.73452004 -1.24542369" stress="0.00171776 0.00025028 0.00067504 0.00025028 0.00185214 -0.00103315 0.00067504 -0.00103315 0.00017953" Properties=species:S:1:pos:R:3
Sc 0.02221515 2.02139236 15.17674133
Sc -1.76475011 4.98065028 15.13084099
Sc -3.49581044 8.10547595 15.14755937
Sc -5.21626214 10.95762870 15.08406129
Sc 3.32543511 2.01543504 15.18869138
Sc 1.67391365 5.02439456 15.18702431
Sc 0.02604271 8.00973712 15.33199038
Sc -1.68732801 11.03211924 15.13184426
Sc 6.85573227 1.99167466 15.08623552
Sc 5.11641906 5.04891214 15.10880491
Sc 3.52654831 7.94979909 15.16869679
Sc 1.69221826 10.93342598 15.09295423
Sc 10.20081458 1.87944708 15.11760707
Sc 8.57107833 4.94387138 15.14918209
Sc 6.89405338 7.97660699 15.11005021
Sc 5.12550434 10.88607167 15.13899256
Sc 1.71179473 1.08656739 12.68946017
Sc -0.04176647 3.98731333 12.60670711
Sc -1.80012708 6.93022437 12.76942430
Sc -3.43465342 10.07236910 12.68040661
Sc 5.19754900 1.02604782 12.68769647
Sc 3.43984317 3.97248335 12.59807971
Sc 1.73188607 6.93297020 12.69631208
Sc 0.06091589 9.80137936 12.71178441
Sc 8.60374395 0.92536442 12.61197991
Sc 6.86369132 3.91305828 12.56732625
Sc 5.19385587 6.84261109 12.58928403
Sc 3.46445927 9.84214018 12.66393699
Sc 12.08972443 1.06519771 12.61597712
Sc 10.35042983 3.96248169 12.72775562
Sc 8.64316162 6.92775228 12.77514576
Sc 6.90510907 9.99440677 12.66733818
Cl 0.10816643 1.90126395 10.98624385
Cl -1.78193229 4.93772235 11.03575938
Cl -3.44159232 8.04268688 11.15135193
Cl -5.13540720 11.04290905 11.11351229
Cl 3.53469541 2.02246275 10.96679024
Cl 1.78417525 4.98968644 11.06167865
Cl -0.13890561 7.78137562 11.06717951
Cl -1.56411871 11.04440815 10.89959097
Cl 7.06762150 2.04925954 10.88245016
Cl 5.04966158 4.89911495 10.91824726
Cl 3.46386161 7.93538142 10.88181601
Cl 1.85553782 10.76638429 10.92400479
Cl 10.41199311 1.91160528 10.90032075
Cl 8.69797803 5.07646335 11.05626529
Cl 6.78622232 8.01476691 11.06686351
Cl 5.16910414 10.92061942 10.89329378
Cl 1.62043877 0.95139783 16.84007905
Cl 0.02962680 4.03116921 16.91289097
Cl -1.82179225 7.03269188 16.88123527
Cl -3.37233867 9.93229698 16.84157218
Cl 5.22800942 0.94191182 16.74639293
Cl 3.47227699 4.00861038 16.89777360
Cl 1.81904896 7.06578249 16.83597685
Cl 0.15644117 9.93617112 16.93099908
Cl 8.49175408 1.02862685 16.87312490
Cl 6.81714638 3.98603928 16.65883622
Cl 5.26729342 7.18649002 16.83228094
Cl 3.57206486 10.02221971 16.83717185
Cl 12.00302022 0.95313157 16.76148090
Cl 10.35019585 3.88545037 16.82693882
Cl 8.50186472 6.92224858 16.66203692
Cl 7.00526105 10.02905293 16.80673518
C -6.77811595 11.93733422 13.78727426
C -1.69406712 2.93553922 13.81151105
C -3.44177207 5.98633779 13.99479300
C -5.16763364 8.95646121 14.00410803
C 3.41369091 0.05817077 13.96994433
C 1.66547559 3.02305505 13.92032314
C 0.02475546 5.90132153 13.96068849
C -1.67464431 8.98719721 13.92467894
C 6.89905832 0.08445686 13.73799331
C 4.98259673 3.02172049 13.87301966
C 3.53962567 6.08389866 13.89552317
C 1.72794306 8.93378921 13.97164244
C 3.43850813 11.85856401 13.88080447
C 8.56401050 2.93662096 13.81042984
C 6.81823861 5.88220735 13.98203252
C 5.23126582 9.00307586 13.82081835
80
Time=349999.99999862 pbc="T T F" Lattice="13.79398668 0.00000000 0.00000000 -6.89699334 11.94594288 0.00000000 0.00000000 0.00000000 27.81022107" energy=-527.24463892 virial="5.39033129 2.34237450 -8.83499410 2.34237450 8.01676418 -0.20577475 -8.83499410 -0.20577475 -1.89711844" stress="0.00162756 0.00051114 -0.00192793 0.00051114 0.00220069 -0.00004490 -0.00192793 -0.00004490 0.00003732" Properties=species:S:1:pos:R:3
Sc 0.04939159 1.99567836 15.14843432
Sc -1.79764293 4.98596666 15.09842282
Sc -3.49997706 7.89819749 15.23024336
Sc -5.13714122 10.86462413 15.13117221
Sc 3.40621090 2.05804340 15.27855974
Sc 1.70937625 5.03888596 15.16043583
Sc -0.00279375 8.05082845 15.16287164
Sc -1.74670460 11.05266508 15.17586286
Sc 7.02094796 2.07581027 15.20216682
Sc 5.20079989 4.92798937 15.14961856
Sc 3.35891771 7.93762991 15.17299132
Sc 1.74069136 10.96747551 15.13798753
Sc 10.34205578 1.91637809 15.01501818
Sc 8.69818249 4.91672939 15.10733127
Sc 6.93750214 7.96273367 15.17656664
Sc 5.15941990 11.03307361 14.99466579
Sc 1.72753965 0.91472063 12.60420407
Sc -0.04104890 4.04220012 12.67577884
Sc -1.72127770 6.85441436 12.74797581
Sc -3.38869035 9.98180610 12.65472529
Sc 5.11930554 1.00543985 12.64683305
Sc 3.37310355 3.97275867 12.69333697
Sc 1.75747469 6.97866123 12.58800812
Sc -0.08502560 9.95835435 12.73725863
Sc 8.60817888 0.90479798 12.60653775
Sc 6.86028226 4.04053598 12.62571653
Sc 5.25806221 6.95794029 12.65533941
Sc 3.52259476 9.96521417 12.63091155
Sc 12.03872588 0.98072192 12.68387972
Sc 10.30790148 3.94130407 12.63127975
Sc 8.64845969 6.96040793 12.68981324
Sc 6.90866884 9.90956904 12.61519905
Cl -0.14432496 2.03934641 11.01413760
Cl -1.87126964 4.97133611 11.00864794
Cl -3.52369675 8.02498876 11.08941784
Cl -5.21677160 11.09489200 10.99368751
Cl 3.39270982 2.03015241 10.95305147
Cl 1.63637212 4.95155220 10.90173772
Cl -0.08930463 8.01417373 11.03047812
Cl -1.83698440 10.94640211 10.98593233
Cl 6.84802016 1.89787602 11.00969666
Cl 5.01452177 4.75419057 11.04559491
Cl 3.55036295 8.01185764 11.01456875
Cl 1.74579050 10.84589483 11.00243509
Cl 10.31879810 2.03489859 10.93840071
Cl 8.54293674 4.95948479 10.91742223
Cl 7.04083020 7.95351027 10.89191693
Cl 5.24331659 11.03836058 11.04713409
Cl 1.76965567 0.86394697 16.89114298
Cl -0.07111767 4.00285173 16.77375102
Cl -1.61771581 7.03281593 16.73891515
Cl -3.40900319 9.84385423 16.82424917
Cl 5.33274190 1.21222801 17.01709392
Cl 3.28462568 4.00307273 16.80494512
Cl 1.78594887 6.79958288 16.80018385
Cl 0.03773133 10.02925748 17.00810558
Cl 8.58750364 0.92630866 16.77806066
Cl 7.02696681 3.99848037 16.78385013
Cl 5.25082357 7.01613977 16.78981842
Cl 3.47825325 10.02814450 16.79925897
Cl 12.13288838 0.90875494 16.70851684
Cl 10.34137811 3.92463365 16.77643897
Cl 8.67820798 6.98447411 16.89132888
Cl 7.04040099 9.94558471 16.86170971
C 6.89348879 11.91583042 13.84822653
C 12.03491474 2.92952449 13.90352733
C -3.41461975 5.98315822 13.85711453
C -5.11868590 8.95632122 13.92000983
C 3.49635242 0.09159152 14.07844700
C 1.71010664 3.10635786 13.94290621
C -0.09560375 5.98216797 13.93069236
C -1.63370194 9.06893348 13.94523175
C 6.94252656 0.05654122 13.93644198
C 5.07985870 3.04879315 13.89940195
C 3.42731008 5.94302540 13.95064191
C 1.75977375 8.95766777 13.96044432
C 10.37025737 0.04565199 13.84590853
C 8.59298790 3.03324737 13.89596056
C 6.91498441 5.96406876 13.88411525
C 5.33325709 8.98724429 13.80764887
80
Time=400000.00000008 pbc="T T F" Lattice="13.79398668 0.00000000 0.00000000 -6.89699334 11.94594288 0.00000000 0.00000000 0.00000000 27.81022107" energy=-526.92488718 virial="6.61016206 -1.41360924 7.78799400 -1.41360924 7.93041421 -1.66341043 7.78799400 -1.66341043 -2.06170359" stress="0.00189374 -0.00030847 0.00169946 -0.00030847 0.00218184 -0.00036298 0.00169946 -0.00036298 0.00000141" Properties=species:S:1:pos:R:3
Sc -0.12195268 1.94667978 15.17253593
Sc -1.76938859 4.93021122 15.21065303
Sc -3.38737957 8.00664310 15.11211670
Sc -5.18589990 10.82886297 15.18173915
Sc 3.39625729 1.99030179 15.10761452
Sc 1.66078779 5.00645898 15.18783372
Sc 0.01288305 7.95350647 15.21823772
Sc -1.76501614 11.02966130 15.08703433
Sc 6.92431076 2.00135361 15.14938259
Sc 5.18445024 4.95160773 15.14705976
Sc 3.40794645 8.11522288 15.08849377
Sc 1.69835976 11.07557150 15.05013618
Sc 10.35901263 1.95045796 15.12133735
Sc 8.60639141 4.98957604 15.17323734
Sc 6.93359897 7.97415025 15.23991215
Sc 5.19431974 11.03382538 15.10840304
Sc 1.70277107 0.89799893 12.77910205
Sc 0.08714974 4.01329830 12.71352717
Sc -1.71352706 6.97900551 12.69014873
Sc -3.52301432 9.94532892 12.72924880
Sc 5.16847280 1.02385470 12.57946777
Sc 3.49022147 4.00949558 12.71652444
Sc 1.74687339 7.00437314 12.70096962
Sc 0.02822019 9.94450291 12.47245083
Sc 8.64221133 1.04791889 12.61361486
Sc 6.84795798 3.95339297 12.64368837
Sc 5.12566776 6.91574375 12.67474783
Sc 3.56167015 10.04354466 12.64271489
Sc 12.03285455 1.06728417 12.60149016
Sc 10.24012262 3.94384821 12.64111401
Sc 8.57394098 6.94543672 12.76550766
Sc 6.92037264 9.79699270 12.65887053
Cl 0.11973444 1.91841533 11.04856297
Cl -1.67587230 5.01491881 11.01409269
Cl -3.35829153 7.99469284 10.94384860
Cl -5.27746383 10.96528380 11.01298547
Cl 3.48512930 2.08758115 10.94764814
Cl 1.73856146 4.87871191 11.07236072
Cl 0.01861809 7.75299651 10.92765831
Cl -1.64660713 10.92779616 10.99878486
Cl 6.94984597 2.01933424 11.03483889
Cl 5.29050621 4.94830731 10.90563432
Cl 3.61008561 8.07804873 10.92618138
Cl 1.85147864 10.79576698 10.94822307
Cl 10.38907547 1.97053155 10.93967480
Cl 8.55698446 5.04864101 11.05001221
Cl 7.05347188 7.94116915 10.99016283
Cl 5.17336716 11.10219120 11.00812173
Cl 1.73747907 0.90451549 16.82372540
Cl -0.21740668 4.01103043 16.83094187
Cl -1.87054713 6.96619526 16.86321101
Cl -3.48007133 9.74868508 16.81254276
Cl 5.18266832 0.96287658 16.76909590
Cl 3.43755862 3.98779261 16.70952453
Cl 1.70615698 7.05481851 16.95409590
Cl -0.13047242 9.86579431 16.67758298
Cl 8.63307836 1.01143581 16.68982245
Cl 6.91233351 3.97934845 16.85368669
Cl 5.19758527 6.94092061 16.91918185
Cl 3.38213083 10.03219751 16.84178696
Cl 12.04152589 1.06754551 16.88469998
Cl 10.18375341 3.98134085 16.94321026
Cl 8.88394106 6.95747498 16.75874979
Cl 6.72785041 10.00582410 16.91327332
C 6.81368484 11.93549677 13.91664547
C -1.68140568 3.05629020 13.94139262
C 10.28076239 5.88048277 13.87136831
C 8.60341932 8.97445525 13.85086025
C -3.38453171 11.89641885 13.89553954
C 1.75591325 2.98645225 13.94291431
C 0.19522859 6.00313696 14.01438315
C -1.77361302 8.87097855 13.82160611
C 6.96033899 0.05698405 13.85094787
C 5.13688999 2.95020210 13.81517102
C 3.58053024 5.99527075 13.91483780
C 1.66888613 9.08259873 13.88249567
C 10.36376644 0.03247491 13.83253052
C 8.62881499 2.86915327 13.85993173
C 6.90357218 5.99935640 13.92291710
C 5.18237335 8.92861019 13.94195842
80
Time=450000.00000155 pbc="T T F" Lattice="13.79398668 0.00000000 0.00000000 -6.89699334 11.94594288 0.00000000 0.00000000 0.00000000 27.81022107" energy=-527.01773977 virial="3.75933578 -0.11687161 2.23925427 -0.11687161 4.77226196 8.68109061 2.23925427 8.68109061 -10.11119047" stress="0.00127165 -0.00002550 0.00048864 -0.00002550 0.00149269 0.00189435 0.00048864 0.00189435 -0.00175511" Properties=species:S:1:pos:R:3
Sc -0.07890876 2.01088595 15.22228386
Sc -1.66173497 4.98568675 15.17099681
Sc -3.52659021 8.09963185 15.16906269
Sc -5.21892210 11.02482410 15.17565220
Sc 3.45774787 1.94977433 15.21838451
Sc 1.83633065 4.95414092 15.16389503
Sc 0.06669654 7.82564984 15.01901160
Sc -1.60132372 10.90570661 15.22748285
Sc 6.78608942 1.95385637 15.16458514
Sc 5.27411223 4.90075123 15.06755072
Sc 3.36543163 7.91337870 15.03361202
Sc 1.73206144 10.97459504 15.15016729
Sc 10.29623024 2.05375464 15.12545147
Sc 8.68491055 4.99633130 15.09333123
Sc 6.89004353 7.96704453 15.17660315
Sc 5.22768115 10.88319826 15.24226599
Sc 1.73285739 1.04711737 12.67339971
Sc 0.02768608 3.99494790 12.60186021
Sc -1.75106457 7.05161548 12.68790820
Sc -3.37801380 10.04503160 12.67711120
Sc 5.20708024 1.04237023 12.63608991
Sc 3.49516655 4.04485045 12.61351538
Sc 1.63108124 6.97279515 12.51111278
Sc 0.13007685 9.90882370 12.69618816
Sc 8.64293944 0.93755667 12.74873607
Sc 7.01522899 3.94981445 12.68913739
Sc 5.13789350 6.98874976 12.57550193
Sc 3.48223123 9.91314399 12.70400067
Sc 12.01456040 1.06097902 12.71886632
Sc 10.45349066 3.99296862 12.71118089
Sc 8.57759847 7.04003258 12.73734903
Sc 6.90608111 10.02091116 12.65628233
Cl -0.09877535 1.92911761 10.93524065
Cl -1.80498629 5.10108936 10.82831896
Cl -3.37829499 8.04110897 11.02127583
Cl -5.07872590 10.95374304 10.95940750
Cl 3.41953439 1.96838050 11.04468100
Cl 1.59069071 4.97392770 10.92275012
Cl -0.07343508 8.05832014 10.82682183
Cl -1.70087137 11.08121467 10.99358339
Cl 6.89444346 2.03935217 10.97961732
Cl 5.05543760 5.12814649 10.90047266
Cl 3.38114601 8.05015088 10.90992907
Cl 1.72515604 11.00934678 11.09407251
Cl 10.38770042 1.90169471 11.01691313
Cl 8.64401937 4.88713545 11.01436785
Cl 6.94466330 8.08167246 11.02486380
Cl 5.29617332 11.01440858 10.86828247
Cl 1.47487137 0.92892178 17.02564580
Cl -0.06213880 3.96613097 16.84321639
Cl -1.74236617 7.00299352 16.69979779
Cl -3.40824140 10.04352654 16.98239024
Cl 5.15282207 1.02902986 16.89422409
Cl 3.57164020 3.84233286 16.94080409
Cl 1.75506241 6.96889372 16.84920273
Cl 0.07330862 9.77604660 16.74807932
Cl 8.60130971 1.02334868 16.79708007
Cl 6.78732418 3.97258672 16.80490278
Cl 5.14472784 6.79346270 16.85749699
Cl 3.35342487 9.82280100 16.72839774
Cl 12.01120464 0.90643163 16.97582143