 vasp.5.4.4.18Apr17-6-g9f103f2a35 (build Oct 31 2019 15:01:46) complex          
  
 executed on             LinuxIFC date 2024.04.19  21:13:22
 running on   52 total cores
 distrk:  each k-point on   52 cores,    1 groups
 distr:  one band on NCORES_PER_BAND=  13 cores,    4 groups


--------------------------------------------------------------------------------------------------------


 INCAR:
 POTCAR:    PAW_PBE Sc_sv 07Sep2000               
 POTCAR:    PAW_PBE F 08Apr2002                   
 POTCAR:    PAW_PBE C 08Apr2002                   
 POTCAR:    PAW_PBE Sc_sv 07Sep2000               
   VRHFIN =Sc: 3p4s3d                                                           
   LEXCH  = PE                                                                  
   EATOM  =  1273.2868 eV,   93.5839 Ry                                         
                                                                                
   TITEL  = PAW_PBE Sc_sv 07Sep2000                                             
   LULTRA =        F    use ultrasoft PP ?                                      
   IUNSCR =        1    unscreen: 0-lin 1-nonlin 2-no                           
   RPACOR =    2.200    partial core radius                                     
   POMASS =   44.956; ZVAL   =   11.000    mass and valenz                      
   RCORE  =    2.500    outmost cutoff radius                                   
   RWIGS  =    2.700; RWIGS  =    1.429    wigner-seitz radius (au A)           
   ENMAX  =  222.660; ENMIN  =  166.995 eV                                      
   RCLOC  =    1.805    cutoff for local pot                                    
   LCOR   =        T    correct aug charges                                     
   LPAW   =        T    paw PP                                                  
   EAUG   =  443.063                                                            
   RMAX   =    2.551    core radius for proj-oper                               
   RAUG   =    1.300    factor for augmentation sphere                          
   RDEP   =    2.650    radius for radial grids                                 
   RDEPT  =    2.038    core radius for aug-charge                              
                                                                                
   Atomic configuration                                                         
    8 entries                                                                   
     n  l   j            E        occ.                                          
     1  0  0.50     -4394.2533   2.0000                                         
     2  0  0.50      -471.0040   2.0000                                         
     2  1  1.50      -384.9788   6.0000                                         
     3  0  0.50       -52.1410   2.0000                                         
     4  0  0.50        -3.5584   1.0000                                         
     3  1  1.50       -30.8841   6.0000                                         
     3  2  2.50        -1.3655   2.0000                                         
     4  3  2.50        -1.3606   0.0000                                         
   Description                                                                  
     l       E           TYP  RCUT    TYP  RCUT                                 
     0    -52.1409870     23  1.800                                             
     0     -3.5583698     23  2.500                                             
     1    -30.8840697     23  2.300                                             
     1      4.0817478     23  2.300                                             
     2     -1.3655397     23  2.500                                             
     2      0.3564476     23  2.500                                             
  local pseudopotential read in
  partial core-charges read in
  partial kinetic energy density read in
  atomic valenz-charges read in
  non local Contribution for L=           0  read in
    real space projection operators read in
  non local Contribution for L=           0  read in
    real space projection operators read in
  non local Contribution for L=           1  read in
    real space projection operators read in
  non local Contribution for L=           1  read in
    real space projection operators read in
  non local Contribution for L=           2  read in
    real space projection operators read in
  non local Contribution for L=           2  read in
    real space projection operators read in
    PAW grid and wavefunctions read in
 
   number of l-projection  operators is LMAX  =           6
   number of lm-projection operators is LMMAX =          18
 
 POTCAR:    PAW_PBE F 08Apr2002                   
   VRHFIN =F: s2p5                                                              
   LEXCH  = PE                                                                  
   EATOM  =   659.6475 eV,   48.4827 Ry                                         
                                                                                
   TITEL  = PAW_PBE F 08Apr2002                                                 
   LULTRA =        F    use ultrasoft PP ?                                      
   IUNSCR =        1    unscreen: 0-lin 1-nonlin 2-no                           
   RPACOR =    1.200    partial core radius                                     
   POMASS =   18.998; ZVAL   =    7.000    mass and valenz                      
   RCORE  =    1.520    outmost cutoff radius                                   
   RWIGS  =    1.500; RWIGS  =    0.794    wigner-seitz radius (au A)           
   ENMAX  =  400.000; ENMIN  =  300.000 eV                                      
   ICORE  =        2    local potential                                         
   LCOR   =        T    correct aug charges                                     
   LPAW   =        T    paw PP                                                  
   EAUG   =  613.614                                                            
   RMAX   =    1.555    core radius for proj-oper                               
   RAUG   =    1.300    factor for augmentation sphere                          
   RDEP   =    1.539    radius for radial grids                                 
   RDEPT  =    1.299    core radius for aug-charge                              
                                                                                
   Atomic configuration                                                         
    4 entries                                                                   
     n  l   j            E        occ.                                          
     1  0  0.50      -663.3661   2.0000                                         
     2  0  0.50       -29.8995   2.0000                                         
     2  1  0.50       -11.1114   5.0000                                         
     3  2  1.50       -10.8847   0.0000                                         
   Description                                                                  
     l       E           TYP  RCUT    TYP  RCUT                                 
     0    -29.8995018     23  1.200                                             
     0     -9.5240782     23  1.200                                             
     1    -11.1113914     23  1.520                                             
     1      1.3605826     23  1.520                                             
     2    -10.8846608      7  1.500                                             
  local pseudopotential read in
  partial core-charges read in
  partial kinetic energy density read in
  atomic valenz-charges read in
  non local Contribution for L=           0  read in
    real space projection operators read in
  non local Contribution for L=           0  read in
    real space projection operators read in
  non local Contribution for L=           1  read in
    real space projection operators read in
  non local Contribution for L=           1  read in
    real space projection operators read in
    PAW grid and wavefunctions read in
 
   number of l-projection  operators is LMAX  =           4
   number of lm-projection operators is LMMAX =           8
 
 POTCAR:    PAW_PBE C 08Apr2002                   
   VRHFIN =C: s2p2                                                              
   LEXCH  = PE                                                                  
   EATOM  =   147.1560 eV,   10.8157 Ry                                         
                                                                                
   TITEL  = PAW_PBE C 08Apr2002                                                 
   LULTRA =        F    use ultrasoft PP ?                                      
   IUNSCR =        1    unscreen: 0-lin 1-nonlin 2-no                           
   RPACOR =    1.200    partial core radius                                     
   POMASS =   12.011; ZVAL   =    4.000    mass and valenz                      
   RCORE  =    1.500    outmost cutoff radius                                   
   RWIGS  =    1.630; RWIGS  =    0.863    wigner-seitz radius (au A)           
   ENMAX  =  400.000; ENMIN  =  300.000 eV                                      
   ICORE  =        2    local potential                                         
   LCOR   =        T    correct aug charges                                     
   LPAW   =        T    paw PP                                                  
   EAUG   =  644.873                                                            
   DEXC   =    0.000                                                            
   RMAX   =    1.529    core radius for proj-oper                               
   RAUG   =    1.300    factor for augmentation sphere                          
   RDEP   =    1.501    radius for radial grids                                 
   RDEPT  =    1.300    core radius for aug-charge                              
                                                                                
   Atomic configuration                                                         
    4 entries                                                                   
     n  l   j            E        occ.                                          
     1  0  0.50      -273.3789   2.0000                                         
     2  0  0.50       -13.7508   2.0000                                         
     2  1  0.50        -5.2854   2.0000                                         
     3  2  1.50        -5.4423   0.0000                                         
   Description                                                                  
     l       E           TYP  RCUT    TYP  RCUT                                 
     0    -13.7508458     23  1.200                                             
     0     -8.2022199     23  1.200                                             
     1     -5.2854383     23  1.500                                             
     1     34.0145650     23  1.500                                             
     2     -5.4423304      7  1.500                                             
  local pseudopotential read in
  partial core-charges read in
  partial kinetic energy density read in
  atomic valenz-charges read in
  non local Contribution for L=           0  read in
    real space projection operators read in
  non local Contribution for L=           0  read in
    real space projection operators read in
  non local Contribution for L=           1  read in
    real space projection operators read in
  non local Contribution for L=           1  read in
    real space projection operators read in
    PAW grid and wavefunctions read in
 
   number of l-projection  operators is LMAX  =           4
   number of lm-projection operators is LMMAX =           8
 
 Optimization of the real space projectors (new method)

 maximal supplied QI-value         = 15.12
 optimisation between [QCUT,QGAM] = [ 12.55, 25.10] = [ 44.09,176.36] Ry 
 Optimized for a Real-space Cutoff    1.56 Angstroem

   l    n(q)    QCUT    max X(q) W(low)/X(q) W(high)/X(q)  e(spline) 
   0     12    12.548     2.962    0.12E-05    0.11E-06    0.46E-07
   0     12    12.548    26.414    0.30E-04    0.15E-05    0.76E-07
   1     11    12.548     3.969    0.45E-05    0.12E-05    0.60E-07
   1     11    12.548     5.137    0.15E-04    0.18E-04    0.36E-06
   2     11    12.548   143.970    0.20E-03    0.19E-03    0.76E-06
   2     11    12.548   121.201    0.20E-03    0.19E-03    0.76E-06
 Optimization of the real space projectors (new method)

 maximal supplied QI-value         = 24.76
 optimisation between [QCUT,QGAM] = [ 12.38, 25.00] = [ 42.90,175.06] Ry 
 Optimized for a Real-space Cutoff    1.16 Angstroem

   l    n(q)    QCUT    max X(q) W(low)/X(q) W(high)/X(q)  e(spline) 
   0      9    12.378    14.049    0.11E-03    0.38E-05    0.23E-06
   0      9    12.378     8.945    0.15E-03    0.56E-05    0.30E-06
   1      8    12.378     7.086    0.18E-03    0.14E-03    0.29E-06
   1      8    12.378     6.747    0.16E-03    0.13E-03    0.26E-06
 Optimization of the real space projectors (new method)

 maximal supplied QI-value         = 25.13
 optimisation between [QCUT,QGAM] = [ 12.32, 24.88] = [ 42.47,173.37] Ry 
 Optimized for a Real-space Cutoff    1.16 Angstroem

   l    n(q)    QCUT    max X(q) W(low)/X(q) W(high)/X(q)  e(spline) 
   0      9    12.315   115.676    0.19E-03    0.80E-05    0.34E-06
   0      9    12.315    87.132    0.19E-03    0.82E-05    0.34E-06
   1      8    12.315     4.429    0.18E-03    0.13E-03    0.22E-06
   1      8    12.315     2.733    0.14E-03    0.10E-03    0.18E-06
  PAW_PBE Sc_sv 07Sep2000               :
 energy of atom  1       EATOM=-1273.2868
 kinetic energy error for atom=    0.0014 (will be added to EATOM!!)
  PAW_PBE F 08Apr2002                   :
 energy of atom  2       EATOM= -659.6475
 kinetic energy error for atom=    0.0256 (will be added to EATOM!!)
  PAW_PBE C 08Apr2002                   :
 energy of atom  3       EATOM= -147.1560
 kinetic energy error for atom=    0.0057 (will be added to EATOM!!)
 
 
 POSCAR: Sc  F  C                                
  positions in cartesian coordinates
  No initial velocities read in
 exchange correlation table for  LEXCH =        8
   RHO(1)=    0.500       N(1)  =     2000
   RHO(2)=  100.500       N(2)  =     4000
 


--------------------------------------------------------------------------------------------------------


 ion  position               nearest neighbor table
   1  0.096  0.175  0.454-  50 2.07  70 2.22  65 2.32  66 2.33  49 2.34  61 2.45   6 3.03   2 3.17
                            29 3.17  18 3.17  16 3.26   5 3.26  17 3.27  13 3.33
   2  0.075  0.406  0.448-  62 2.07  66 2.16  50 2.20  51 2.30  71 2.38  67 2.39  13 3.13   1 3.17
                            30 3.21   6 3.24   3 3.26  14 3.27  18 3.31  19 3.36
   3  0.077  0.655  0.455-  51 2.05  67 2.11  52 2.20  63 2.25  72 2.30  68 2.36  31 3.01  19 3.07
                            20 3.12  14 3.20   4 3.26   2 3.26  15 3.27   7 3.30
   4  0.085  0.907  0.452-  68 2.18  52 2.19  64 2.28  69 2.32  49 2.35  65 2.39  20 3.06  16 3.17
                             8 3.19  32 3.24   3 3.26  15 3.28  17 3.34   5 3.36
   5  0.339  0.165  0.452-  49 2.02  53 2.04  54 2.18  74 2.25  69 2.33  70 2.42  10 3.12   9 3.14
                             8 3.18   1 3.26  22 3.27   6 3.31  21 3.32   4 3.36  17 3.40
   6  0.323  0.409  0.455-  75 2.14  50 2.22  71 2.26  70 2.33  54 2.41  55 2.47   1 3.03  22 3.13
                            23 3.18  18 3.21  10 3.23   2 3.24   5 3.31   7 3.40
   7  0.338  0.675  0.451-  56 2.15  55 2.17  51 2.26  72 2.30  76 2.33  71 2.44  23 3.12  24 3.16
                            19 3.22  11 3.24   8 3.25  12 3.28   3 3.30   6 3.40
   8  0.335  0.921  0.450-  69 2.24  53 2.25  73 2.27  56 2.31  52 2.31  72 2.35   5 3.18   4 3.19
                            20 3.20   9 3.22   7 3.25  24 3.30  12 3.31  21 3.32
   9  0.579  0.167  0.452-  53 2.13  58 2.19  57 2.19  73 2.23  74 2.43  78 2.49   5 3.14  26 3.16
                            25 3.19   8 3.22  10 3.25  12 3.26  14 3.28  21 3.35  13 3.40
  10  0.569  0.409  0.450-  54 2.12  58 2.30  75 2.32  59 2.32  79 2.36  74 2.38   5 3.12  26 3.20
                            22 3.22   6 3.23  27 3.23   9 3.25  11 3.36  15 3.38  14 3.40
  11  0.583  0.672  0.452-  59 2.10  60 2.15  55 2.19  76 2.26  80 2.32  75 2.33  23 3.17  28 3.17
                            27 3.21   7 3.24  12 3.27  15 3.34  10 3.36  16 3.42
  12  0.588  0.924  0.457-  56 2.15  60 2.16  73 2.22  77 2.29  57 2.33  76 2.34  25 3.03  28 3.12
                            24 3.12  13 3.24   9 3.26  11 3.27   7 3.28   8 3.31
  13  0.838  0.167  0.449-  57 2.15  61 2.16  66 2.21  77 2.23  62 2.31  78 2.42   2 3.13  29 3.21
                            25 3.23  12 3.24  14 3.30  30 3.31  16 3.31   1 3.33   9 3.40
  14  0.831  0.415  0.447-  62 2.15  58 2.15  78 2.23  79 2.31  63 2.34  67 2.35  31 3.16   3 3.20
                            15 3.22  26 3.25   2 3.27   9 3.28  13 3.30  30 3.31  10 3.40
  15  0.832  0.661  0.449-  63 2.10  59 2.13  64 2.22  79 2.29  68 2.36  80 2.38  27 3.07  14 3.22
                            31 3.23   3 3.27   4 3.28  32 3.31  16 3.32  11 3.34  10 3.38
  16  0.852  0.922  0.457-  64 2.14  65 2.20  80 2.24  77 2.31  61 2.41  60 2.59  29 3.04  32 3.12
                            28 3.13   4 3.17   1 3.26  13 3.31  15 3.32  11 3.42
  17  0.161  0.077  0.553-  37 2.15  65 2.17  36 2.21  70 2.27  33 2.28  69 2.43  29 3.21  32 3.24
                             1 3.27  20 3.28  21 3.29  22 3.34   4 3.34  18 3.35   5 3.40
  18  0.157  0.330  0.552-  34 2.14  38 2.15  33 2.15  71 2.33  66 2.35  70 2.36  29 3.14  30 3.16
                             1 3.17   6 3.21  19 3.29  22 3.31   2 3.31  17 3.35  23 3.39
  19  0.169  0.586  0.547-  34 2.09  39 2.19  35 2.25  71 2.25  72 2.28  67 2.34   3 3.07  23 3.17
                             7 3.22  20 3.23  31 3.23  24 3.25  30 3.25  18 3.29   2 3.36
  20  0.165  0.830  0.545-  72 2.20  36 2.22  69 2.23  68 2.24  35 2.29  40 2.35   4 3.06   3 3.12
                            32 3.20   8 3.20  19 3.23  21 3.23  17 3.28  24 3.33  31 3.33
  21  0.411  0.075  0.555-  40 2.06  37 2.15  41 2.20  69 2.30  74 2.35  73 2.38  20 3.23  24 3.27
                            17 3.29   8 3.32   5 3.32  25 3.34   9 3.35  26 3.39  22 3.42
  22  0.411  0.335  0.550-  42 2.05  38 2.08  74 2.21  70 2.22  75 2.31  37 2.38   6 3.13  10 3.22
                             5 3.27  18 3.31  26 3.33  17 3.34  23 3.34  21 3.42
  23  0.412  0.590  0.546-  76 2.15  71 2.27  75 2.31  39 2.32  43 2.34  38 2.46  24 3.12   7 3.12
                            11 3.17  19 3.17   6 3.18  22 3.34  28 3.38  18 3.39
  24  0.419  0.831  0.548-  44 2.10  76 2.22  72 2.32  39 2.34  40 2.36  73 2.38  23 3.12  12 3.12
                             7 3.16  19 3.25  21 3.27   8 3.30  20 3.33  25 3.33  28 3.33
  25  0.670  0.086  0.546-  45 2.15  44 2.19  77 2.30  41 2.32  73 2.33  78 2.38  12 3.03   9 3.19
                            13 3.23  28 3.29  30 3.31  29 3.31  26 3.31  24 3.33  21 3.34
  26  0.665  0.336  0.546-  46 2.11  41 2.19  79 2.22  74 2.26  78 2.27  42 2.40   9 3.16  27 3.19
                            31 3.20  10 3.20  14 3.25  25 3.31  22 3.33  30 3.34  21 3.39
  27  0.681  0.587  0.543-  47 2.12  79 2.18  80 2.23  42 2.24  43 2.42  75 2.57  15 3.07  32 3.14
                            31 3.19  26 3.19  11 3.21  10 3.23  28 3.34
  28  0.677  0.839  0.547-  43 2.25  80 2.25  44 2.31  76 2.31  77 2.33  48 2.35  12 3.12  16 3.13
                            11 3.17  29 3.24  32 3.28  25 3.29  24 3.33  27 3.34  23 3.38
  29  0.922  0.087  0.546-  48 2.15  33 2.17  77 2.20  65 2.27  45 2.31  66 2.32  16 3.04  18 3.14
                             1 3.17  13 3.21  17 3.21  28 3.24  25 3.31  30 3.32  32 3.41
  30  0.921  0.339  0.548-  34 2.14  78 2.17  46 2.24  67 2.26  66 2.30  45 2.34  31 3.09  18 3.16
                             2 3.21  19 3.25  25 3.31  14 3.31  13 3.31  29 3.32  26 3.34
  31  0.916  0.572  0.544-  67 2.13  46 2.15  47 2.18  35 2.24  79 2.32  68 2.38   3 3.01  30 3.09
                            14 3.16  27 3.19  26 3.20  19 3.23  15 3.23  32 3.32  20 3.33
  32  0.920  0.826  0.550-  68 2.17  36 2.21  47 2.21  48 2.25  80 2.32  65 2.43  16 3.12  27 3.14
                            20 3.20   4 3.24  17 3.24  28 3.28  15 3.31  31 3.32  29 3.41
  33  0.077  0.169  0.594-  18 2.15  29 2.17  17 2.28
  34  0.085  0.427  0.587-  19 2.09  30 2.14  18 2.14
  35  0.078  0.662  0.592-  31 2.24  19 2.25  20 2.29
  36  0.085  0.908  0.593-  32 2.21  17 2.21  20 2.22
  37  0.324  0.154  0.594-  17 2.15  21 2.15  22 2.38
  38  0.322  0.401  0.591-  22 2.08  18 2.15  23 2.46
  39  0.321  0.662  0.598-  19 2.19  23 2.32  24 2.34
  40  0.334  0.921  0.595-  21 2.06  20 2.35  24 2.36
  41  0.584  0.175  0.591-  26 2.19  21 2.20  25 2.32
  42  0.567  0.424  0.588-  22 2.05  27 2.24  26 2.40
  43  0.586  0.672  0.592-  28 2.25  23 2.34  27 2.42
  44  0.578  0.920  0.587-  24 2.10  25 2.19  28 2.31
  45  0.825  0.161  0.592-  25 2.15  29 2.31  30 2.34
  46  0.822  0.414  0.587-  26 2.11  31 2.15  30 2.24
  47  0.835  0.653  0.588-  27 2.12  31 2.18  32 2.21
  48  0.855  0.932  0.592-  29 2.15  32 2.25  28 2.35
  49  0.190  0.090  0.411-   5 2.02   1 2.34   4 2.35
  50  0.162  0.323  0.409-   1 2.07   2 2.20   6 2.22
  51  0.162  0.590  0.412-   3 2.05   7 2.26   2 2.30
  52  0.157  0.815  0.409-   4 2.19   3 2.20   8 2.31
  53  0.420  0.096  0.410-   5 2.04   9 2.13   8 2.25
  54  0.415  0.324  0.406-  10 2.12   5 2.18   6 2.41
  55  0.422  0.596  0.408-   7 2.17  11 2.19   6 2.47
  56  0.433  0.838  0.411-   7 2.15  12 2.15   8 2.31
  57  0.673  0.096  0.410-  13 2.15   9 2.19  12 2.33
  58  0.665  0.329  0.408-  14 2.15   9 2.19  10 2.30
  59  0.665  0.594  0.413-  11 2.10  15 2.13  10 2.32
  60  0.652  0.833  0.411-  11 2.15  12 2.16  16 2.59
  61  0.916  0.089  0.403-  13 2.16  16 2.41   1 2.45
  62  0.922  0.344  0.407-   2 2.07  14 2.15  13 2.31
  63  0.920  0.596  0.405-  15 2.10   3 2.25  14 2.34
  64  0.912  0.833  0.410-  16 2.14  15 2.22   4 2.28
  65  0.013  0.007  0.502-  17 2.17  16 2.20  29 2.27   1 2.32   4 2.39  32 2.43
  66  0.997  0.254  0.496-   2 2.16  13 2.21  30 2.30  29 2.32   1 2.33  18 2.35
  67  0.998  0.500  0.499-   3 2.11  31 2.13  30 2.26  19 2.34  14 2.35   2 2.39
  68  0.998  0.754  0.501-  32 2.17   4 2.18  20 2.24  15 2.36   3 2.36  31 2.38
  69  0.254  0.996  0.501-  20 2.23   8 2.24  21 2.30   4 2.32   5 2.33  17 2.43
  70  0.246  0.243  0.506-   1 2.22  22 2.22  17 2.27   6 2.33  18 2.36   5 2.42
  71  0.243  0.496  0.501-  19 2.25   6 2.26  23 2.27  18 2.33   2 2.38   7 2.44
  72  0.250  0.752  0.500-  20 2.20  19 2.28   3 2.30   7 2.30  24 2.32   8 2.35
  73  0.499  0.003  0.498-  12 2.22   9 2.23   8 2.27  25 2.33  21 2.38  24 2.38
  74  0.488  0.247  0.507-  22 2.21   5 2.25  26 2.26  21 2.35  10 2.38   9 2.43
  75  0.484  0.496  0.497-   6 2.14  23 2.31  22 2.31  10 2.32  11 2.33  27 2.57
  76  0.502  0.750  0.503-  23 2.15  24 2.22  11 2.26  28 2.31   7 2.33  12 2.34
  77  0.763  0.011  0.500-  29 2.20  13 2.23  12 2.29  25 2.30  16 2.31  28 2.33
  78  0.765  0.267  0.501-  30 2.17  14 2.23  26 2.27  25 2.38  13 2.42   9 2.49
  79  0.745  0.495  0.497-  27 2.18  26 2.22  15 2.29  14 2.31  31 2.32  10 2.36
  80  0.754  0.753  0.500-  27 2.23  16 2.24  28 2.25  11 2.32  32 2.32  15 2.38
 
  LATTYP: Found a hexagonal cell.
 ALAT       =    13.1286233990
 C/A-ratio  =     2.0434811347
  
  Lattice vectors:
  
 A1 = (  13.1286234000,   0.0000000000,   0.0000000000)
 A2 = (  -6.5643117000,  11.3697213800,   0.0000000000)
 A3 = (   0.0000000000,   0.0000000000,  26.8280942400)


Analysis of symmetry for initial positions (statically):
=====================================================================
 Subroutine PRICEL returns:
 Original cell was already a primitive cell.
 

 Routine SETGRP: Setting up the symmetry group for a 
 hexagonal supercell.


 Subroutine GETGRP returns: Found  1 space group operations
 (whereof  1 operations were pure point group operations)
 out of a pool of 24 trial point group operations.


The static configuration has the point symmetry C_1 .


Analysis of symmetry for dynamics (positions and initial velocities):
=====================================================================
 Subroutine PRICEL returns:
 Original cell was already a primitive cell.
 

 Routine SETGRP: Setting up the symmetry group for a 
 hexagonal supercell.


 Subroutine GETGRP returns: Found  1 space group operations
 (whereof  1 operations were pure point group operations)
 out of a pool of 24 trial point group operations.


The dynamic configuration has the point symmetry C_1 .


 Subroutine INISYM returns: Found  1 space group operations
 (whereof  1 operations are pure point group operations),
 and found     1 'primitive' translations

 
 

Automatic generation of k-mesh.
 generate k-points for:    3    3    1
Space group operators:
 irot       det(A)        alpha          n_x          n_y          n_z        tau_x        tau_y        tau_z
    1     1.000000     0.000000     1.000000     0.000000     0.000000     0.000000     0.000000     0.000000
 
 Subroutine IBZKPT returns following result:
 ===========================================
 
 Found      5 irreducible k-points:
 
 Following reciprocal coordinates:
            Coordinates               Weight
  0.000000  0.000000  0.000000      1.000000
  0.333333 -0.000000  0.000000      2.000000
  0.000000  0.333333  0.000000      2.000000
  0.333333  0.333333  0.000000      2.000000
 -0.333333  0.333333  0.000000      2.000000
 
 Following cartesian coordinates:
            Coordinates               Weight
  0.000000  0.000000  0.000000      1.000000
  0.025390  0.014659  0.000000      2.000000
  0.000000  0.029318  0.000000      2.000000
  0.025390  0.043976  0.000000      2.000000
 -0.025390  0.014659  0.000000      2.000000
 


--------------------------------------------------------------------------------------------------------




 Dimension of arrays:
   k-points           NKPTS =      5   k-points in BZ     NKDIM =      5   number of bands    NBANDS=    384
   number of dos      NEDOS =    301   number of ions     NIONS =     80
   non local maximal  LDIM  =      6   non local SUM 2l+1 LMDIM =     18
   total plane-waves  NPLWV = ******
   max r-space proj   IRMAX =  10060   max aug-charges    IRDMAX= 222480
   dimension x,y,z NGX =   108 NGY =  108 NGZ =  216
   dimension x,y,z NGXF=   216 NGYF=  216 NGZF=  432
   support grid    NGXF=   432 NGYF=  432 NGZF=  864
   ions per type =              32  32  16
   NGX,Y,Z   is equivalent  to a cutoff of  13.68, 13.68, 13.38 a.u.
   NGXF,Y,Z  is equivalent  to a cutoff of  27.35, 27.35, 26.77 a.u.

 SYSTEM =  unknown system                          
 POSCAR =  Sc  F  C                                

 Startparameter for this run:
   NWRITE =      2    write-flag & timer
   PREC   = anorma    normal or accurate (medium, high low for compatibility)
   ISTART =      0    job   : 0-new  1-cont  2-samecut
   ICHARG =      2    charge: 1-file 2-atom 10-const
   ISPIN  =      1    spin polarized calculation?
   LNONCOLLINEAR =      F non collinear calculations
   LSORBIT =      F    spin-orbit coupling
   INIWAV =      1    electr: 0-lowe 1-rand  2-diag
   LASPH  =      F    aspherical Exc in radial PAW
   METAGGA=      F    non-selfconsistent MetaGGA calc.

 Electronic Relaxation 1
   ENCUT  =  600.0 eV  44.10 Ry    6.64 a.u.  26.22 26.22 53.58*2*pi/ulx,y,z
   ENINI  =  600.0     initial cutoff
   ENAUG  =  644.9 eV  augmentation charge cutoff
   NELM   =     60;   NELMIN=  2; NELMDL= -5     # of ELM steps 
   EDIFF  = 0.1E-05   stopping-criterion for ELM
   LREAL  =      T    real-space projection
   NLSPLINE    = F    spline interpolate recip. space projectors
   LCOMPAT=      F    compatible to vasp.4.4
   GGA_COMPAT  = T    GGA compatible to vasp.4.4-vasp.4.6
   LMAXPAW     = -100 max onsite density
   LMAXMIX     =    2 max onsite mixed and CHGCAR
   VOSKOWN=      0    Vosko Wilk Nusair interpolation
   ROPT   =   -0.00025  -0.00025  -0.00025
 Ionic relaxation
   EDIFFG = -.1E-01   stopping-criterion for IOM
   NSW    =      1    number of steps for IOM
   NBLOCK =      1;   KBLOCK =      1    inner block; outer block 
   IBRION =     -1    ionic relax: 0-MD 1-quasi-New 2-CG
   NFREE  =      0    steps in history (QN), initial steepest desc. (CG)
   ISIF   =      2    stress and relaxation
   IWAVPR =     10    prediction:  0-non 1-charg 2-wave 3-comb
   ISYM   =      2    0-nonsym 1-usesym 2-fastsym
   LCORR  =      T    Harris-Foulkes like correction to forces

   POTIM  = 1.0000    time-step for ionic-motion
   TEIN   =    0.0    initial temperature
   TEBEG  =    0.0;   TEEND  =   0.0 temperature during run
   SMASS  =  -3.00    Nose mass-parameter (am)
   estimated Nose-frequenzy (Omega)   =  0.10E-29 period in steps =****** mass=  -0.394E-26a.u.
   SCALEE = 1.0000    scale energy and forces
   NPACO  =    256;   APACO  = 16.0  distance and # of slots for P.C.
   PSTRESS=    0.0 pullay stress

  Mass of Ions in am
   POMASS =  44.96 19.00 12.01
  Ionic Valenz
   ZVAL   =  11.00  7.00  4.00
  Atomic Wigner-Seitz radii
   RWIGS  =  -1.00 -1.00 -1.00
  virtual crystal weights 
   VCA    =   1.00  1.00  1.00
   NELECT =     640.0000    total number of electrons
   NUPDOWN=      -1.0000    fix difference up-down

 DOS related values:
   EMIN   =  10.00;   EMAX   =-10.00  energy-range for DOS
   EFERMI =   0.00
   ISMEAR =     0;   SIGMA  =   0.05  broadening in eV -4-tet -1-fermi 0-gaus

 Electronic relaxation 2 (details)
   IALGO  =     38    algorithm
   LDIAG  =      T    sub-space diagonalisation (order eigenvalues)
   LSUBROT=      F    optimize rotation matrix (better conditioning)
   TURBO    =      0    0=normal 1=particle mesh
   IRESTART =      0    0=no restart 2=restart with 2 vectors
   NREBOOT  =      0    no. of reboots
   NMIN     =      0    reboot dimension
   EREF     =   0.00    reference energy to select bands
   IMIX   =      4    mixing-type and parameters
     AMIX     =   0.40;   BMIX     =  1.00
     AMIX_MAG =   1.60;   BMIX_MAG =  1.00
     AMIN     =   0.10
     WC   =   100.;   INIMIX=   1;  MIXPRE=   1;  MAXMIX= -45

 Intra band minimization:
   WEIMIN = 0.0000     energy-eigenvalue tresh-hold
   EBREAK =  0.65E-09  absolut break condition
   DEPER  =   0.30     relativ break condition  

   TIME   =   0.40     timestep for ELM

  volume/ion in A,a.u.               =      50.06       337.80
  Fermi-wavevector in a.u.,A,eV,Ry     =   0.888414  1.678858 10.738790  0.789279
  Thomas-Fermi vector in A             =   2.009840
 
 Write flags
   LWAVE        =      F    write WAVECAR
   LDOWNSAMPLE  =      F    k-point downsampling of WAVECAR
   LCHARG       =      F    write CHGCAR
   LVTOT        =      F    write LOCPOT, total local potential
   LVHAR        =      F    write LOCPOT, Hartree potential only
   LELF         =      F    write electronic localiz. function (ELF)
   LORBIT       =      0    0 simple, 1 ext, 2 COOP (PROOUT), +10 PAW based schemes


 Dipole corrections
   LMONO  =      F    monopole corrections only (constant potential shift)
   LDIPOL =      F    correct potential (dipole corrections)
   IDIPOL =      0    1-x, 2-y, 3-z, 4-all directions 
   EPSILON=  1.0000000 bulk dielectric constant

 Exchange correlation treatment:
   GGA     =    --    GGA type
   LEXCH   =     8    internal setting for exchange type
   VOSKOWN=      0    Vosko Wilk Nusair interpolation
   LHFCALC =     F    Hartree Fock is set to
   LHFONE  =     F    Hartree Fock one center treatment
   AEXX    =    0.0000 exact exchange contribution

 Linear response parameters
   LEPSILON=     F    determine dielectric tensor
   LRPA    =     F    only Hartree local field effects (RPA)
   LNABLA  =     F    use nabla operator in PAW spheres
   LVEL    =     F    velocity operator in full k-point grid
   LINTERFAST=   F  fast interpolation
   KINTER  =     0    interpolate to denser k-point grid
   CSHIFT  =0.1000    complex shift for real part using Kramers Kronig
   OMEGAMAX=  -1.0    maximum frequency
   DEG_THRESHOLD= 0.2000000E-02 threshold for treating states as degnerate
   RTIME   =   -0.100 relaxation time in fs
  (WPLASMAI=    0.000 imaginary part of plasma frequency in eV, 0.658/RTIME)
   DFIELD  = 0.0000000 0.0000000 0.0000000 field for delta impulse in time
 
 Orbital magnetization related:
   ORBITALMAG=     F  switch on orbital magnetization
   LCHIMAG   =     F  perturbation theory with respect to B field
   DQ        =  0.001000  dq finite difference perturbation B field
   LLRAUG    =     F  two centre corrections for induced B field



--------------------------------------------------------------------------------------------------------


 Static calculation
 charge density and potential will be updated during run
 non-spin polarized calculation
 Variant of blocked Davidson
 Davidson routine will perform the subspace rotation
 perform sub-space diagonalisation
    after iterative eigenvector-optimisation
 modified Broyden-mixing scheme, WC =      100.0
 initial mixing is a Kerker type mixing with AMIX =  0.4000 and BMIX =      1.0000
 Hartree-type preconditioning will be used
 using additional bands           64
 real space projection scheme for non local part
 use partial core corrections
 calculate Harris-corrections to forces 
   (improved forces if not selfconsistent)
 use gradient corrections 
 use of overlap-Matrix (Vanderbilt PP)
 Gauss-broadening in eV      SIGMA  =   0.05


--------------------------------------------------------------------------------------------------------


  energy-cutoff  :      600.00
  volume of cell :     4004.60
      direct lattice vectors                 reciprocal lattice vectors
    13.128623400  0.000000000  0.000000000     0.076169448  0.043976451  0.000000000
    -6.564311700 11.369721380  0.000000000     0.000000000  0.087952903  0.000000000
     0.000000000  0.000000000 26.828094240     0.000000000  0.000000000  0.037274358

  length of vectors
    13.128623400 13.128623399 26.828094240     0.087952903  0.087952903  0.037274358


 
 k-points in units of 2pi/SCALE and weight: read from INCAR                         
   0.00000000  0.00000000  0.00000000       0.111
   0.02538982  0.01465882  0.00000000       0.222
   0.00000000  0.02931763  0.00000000       0.222
   0.02538982  0.04397645  0.00000000       0.222
  -0.02538982  0.01465882  0.00000000       0.222
 
 k-points in reciprocal lattice and weights: read from INCAR                         
   0.00000000  0.00000000  0.00000000       0.111
   0.33333333 -0.00000000  0.00000000       0.222
   0.00000000  0.33333333  0.00000000       0.222
   0.33333333  0.33333333  0.00000000       0.222
  -0.33333333  0.33333333  0.00000000       0.222
 
 position of ions in fractional coordinates (direct lattice) 
   0.09559684  0.17535733  0.45354074
   0.07524849  0.40581993  0.44800951
   0.07719836  0.65489343  0.45532990
   0.08518266  0.90697468  0.45199086
   0.33904580  0.16532324  0.45170621
   0.32309725  0.40902661  0.45525472
   0.33783656  0.67458570  0.45098173
   0.33511561  0.92093207  0.44980980
   0.57906312  0.16679971  0.45225233
   0.56917091  0.40938457  0.45009222
   0.58301089  0.67178406  0.45245007
   0.58843771  0.92370386  0.45674752
   0.83752891  0.16659089  0.44892098
   0.83078843  0.41484836  0.44700408
   0.83178282  0.66058414  0.44853902
   0.85188520  0.92245098  0.45712549
   0.16132277  0.07747385  0.55341336
   0.15662442  0.32992595  0.55177284
   0.16870916  0.58597338  0.54742410
   0.16518688  0.83016637  0.54487866
   0.41068707  0.07515460  0.55482977
   0.41118232  0.33532049  0.54965999
   0.41209046  0.58984794  0.54578377
   0.41878083  0.83057364  0.54825019
   0.66983925  0.08638485  0.54624845
   0.66493906  0.33626837  0.54555344
   0.68121168  0.58721318  0.54343494
   0.67666174  0.83905394  0.54694369
   0.92212509  0.08717540  0.54622577
   0.92070827  0.33909333  0.54822970
   0.91592358  0.57189808  0.54419238
   0.91962336  0.82599876  0.55016067
   0.07657490  0.16876664  0.59386075
   0.08507078  0.42727174  0.58680576
   0.07761212  0.66222688  0.59184036
   0.08487227  0.90792668  0.59326317
   0.32412884  0.15350114  0.59393375
   0.32155048  0.40065550  0.59059400
   0.32101265  0.66189476  0.59753980
   0.33394833  0.92082675  0.59535161
   0.58399543  0.17543119  0.59063114
   0.56679028  0.42449306  0.58761527
   0.58644115  0.67243600  0.59173150
   0.57838577  0.91994174  0.58720872
   0.82480249  0.16103719  0.59198078
   0.82246332  0.41384588  0.58739733
   0.83494780  0.65281630  0.58767344
   0.85490773  0.93160223  0.59161476
   0.18960850  0.08967184  0.41132179
   0.16176480  0.32280247  0.40857833
   0.16155096  0.59014425  0.41240172
   0.15687076  0.81516879  0.40908560
   0.42044569  0.09599986  0.41047095
   0.41491785  0.32389065  0.40575632
   0.42159840  0.59612359  0.40829774
   0.43294735  0.83798110  0.41101722
   0.67284183  0.09619230  0.40994592
   0.66511011  0.32920755  0.40834409
   0.66539877  0.59449476  0.41342457
   0.65206773  0.83283487  0.41066726
   0.91621090  0.08937395  0.40272864
   0.92229458  0.34353184  0.40666491
   0.92047151  0.59572183  0.40516420
   0.91232881  0.83296992  0.40967340
   0.01305371  0.00714869  0.50245311
   0.99652438  0.25418960  0.49645763
   0.99766215  0.50015562  0.49895887
   0.99839036  0.75389782  0.50056653
   0.25397229  0.99620723  0.50077521
   0.24628977  0.24263396  0.50574967
   0.24298960  0.49568957  0.50097052
   0.24951532  0.75226363  0.50020544
   0.49884138  0.00290871  0.49811736
   0.48846211  0.24747658  0.50652349
   0.48408076  0.49564067  0.49676374
   0.50151988  0.74964218  0.50295505
   0.76303793  0.01055380  0.49952988
   0.76512478  0.26696559  0.50141109
   0.74526667  0.49462376  0.49694535
   0.75390760  0.75314601  0.49966525
 
 position of ions in cartesian coordinates  (Angst):
   0.10395474  1.99376400 12.16763381
  -1.67601947  4.61405954 12.01924141
  -3.28541647  7.44595584 12.21563348
  -4.83533341 10.31204937 12.12605352
   3.36597137  1.87967915 12.11841686
   1.55684395  4.65051860 12.21361652
   0.00713821  7.66985146 12.09898034
  -1.64567852 10.47074107 12.06753960
   6.50737639  1.89646625 12.13306825
   4.78510258  4.65458850 12.07511658
   3.24433045  7.63799755 12.13837306
   1.66189702 10.50225555 12.25366549
   9.90204712  1.89409204 12.04369432
   8.18391457  4.71671022 11.99226766
   6.58388322  7.51065764 12.03344715
   5.12882412 10.48801068 12.26380577
   1.60938333  0.88085612 14.84702584
  -0.10947369  3.75116612 14.80301382
  -1.63159283  6.66235401 14.68634544
  -3.28079438  9.43876027 14.61805609
   4.89841769  0.85448682 14.88502532
   3.19710958  3.81250054 14.74633009
   1.53823476  6.70640673 14.64233836
   0.04587156  9.44339083 14.70850783
   8.22701016  0.98217166 14.65480502
   6.52236418  3.82327765 14.63615918
   5.08872124  6.67645020 14.57932390
   3.37582557  9.53980954 14.67345693
  11.53398657  0.99115996 14.65419652
   9.86171778  3.85539671 14.70795804
   8.27069851  6.50232184 14.59964446
   6.65127544  9.39137574 14.75976238
  -0.10251382  1.91882969 15.93215210
  -1.68788270  4.85796063 15.74288034
  -3.32812341  7.52933513 15.87794883
  -4.84565774 10.32287344 15.91612028
   3.24773623  1.74526515 15.93411065
   1.59148758  4.55534146 15.84451136
  -0.13042931  7.52555906 16.03085413
  -1.66031203 10.46954363 15.97214898
   6.51547103  1.99460373 15.84550792
   4.65467136  4.82636783 15.76459783
   3.28508553  7.64541001 15.87502853
   1.55462466 10.45948122 15.75369096
   9.77142299  1.83094797 15.88171628
   8.08119787  4.70531230 15.75875093
   6.67642554  7.42233940 15.76615851
   5.10843426 10.59205782 15.87189653
   1.90066466  1.01954388 11.03497973
   0.00477312  3.67017417 10.96137801
  -1.75294902  6.70977564 11.06395210
  -3.29152487  9.26824204 10.97498711
   4.88970015  1.09149163 11.01215328
   3.32118109  3.68254641 10.88566867
   1.62186561  6.77775908 10.95385025
   0.18323358  9.52761161 11.02680865
   8.20205072  1.09367969 10.99806776
   6.57095912  3.74299814 10.95509374
   4.83332094  6.75923976 11.09139344
   3.09376399  9.46910048 11.01741991
  11.44190939  1.01615695 10.80444187
   9.85340815  3.90586130 10.91004450
   8.17401998  6.77319124 10.86978336
   6.50974722  9.47063586 10.99075648
   0.12445092  0.08127867 13.47985934
  11.41441356  2.89006491 13.31901219
   9.81475326  5.68663003 13.38611571
   8.15867082  8.57160814 13.42924617
  -3.20510821 11.32659861 13.43484449
   1.64072070  2.75868047 13.56829971
  -0.06374191  5.63585226 13.44008426
  -1.66230033  8.55302786 13.41955875
   6.53000702  0.03307117 13.36353949
   4.78832166  2.81373973 13.58905980
   3.10177411  5.63529637 13.32722434
   1.66338066  8.52322271 13.49332551
   9.94835922  0.11999379 13.40143476
   8.29258974  3.03532436 13.45190406
   6.53746096  5.62373432 13.33209669
   4.95388378  8.56306031 13.40506637
 


--------------------------------------------------------------------------------------------------------


 k-point  1 :   0.0000 0.0000 0.0000  plane waves:  133769
 k-point  2 :   0.3333-0.0000 0.0000  plane waves:  133588
 k-point  3 :   0.0000 0.3333 0.0000  plane waves:  133588
 k-point  4 :   0.3333 0.3333 0.0000  plane waves:  133608
 k-point  5 :  -0.3333 0.3333 0.0000  plane waves:  133588

 maximum and minimum number of plane-waves per node :     10323    10242

 maximum number of plane-waves:    133769
 maximum index in each direction: 
   IXMAX=   26   IYMAX=   26   IZMAX=   53
   IXMIN=  -26   IYMIN=  -26   IZMIN=  -53


 real space projection operators:
  total allocation   :      55711.28 KBytes
  max/ min on nodes  :       4729.92       4039.75


 parallel 3D FFT for wavefunctions:
    minimum data exchange during FFTs selected (reduces bandwidth)
 parallel 3D FFT for charge:
    minimum data exchange during FFTs selected (reduces bandwidth)


 total amount of memory used by VASP MPI-rank0   234726. kBytes
=======================================================================

   base      :      30000. kBytes
   nonlr-proj:      19458. kBytes
   fftplans  :      66973. kBytes
   grid      :      38377. kBytes
   one-center:        108. kBytes
   wavefun   :      79810. kBytes
 
     INWAV:  cpu time    0.0000: real time    0.0000
 Broyden mixing: mesh for mixing (old mesh)
   NGX = 53   NGY = 53   NGZ =107
  (NGX  =216   NGY  =216   NGZ  =432)
  gives a total of 300563 points

 initial charge density was supplied:
 charge density of overlapping atoms calculated
 number of electron     640.0000000 magnetization 
 keeping initial charge density in first step


--------------------------------------------------------------------------------------------------------


 Maximum index for non-local projection operator         1114
 Maximum index for augmentation-charges         5724 (set IRDMAX)


--------------------------------------------------------------------------------------------------------


 First call to EWALD:  gamma=   0.112
 Maximum number of real-space cells 4x 4x 2
 Maximum number of reciprocal cells 2x 2x 4

    FEWALD:  cpu time    0.0032: real time    0.0035


--------------------------------------- Iteration      1(   1)  ---------------------------------------


    POTLOK:  cpu time    0.4499: real time    0.4566
    SETDIJ:  cpu time    0.4178: real time    0.4222
     EDDAV:  cpu time   46.3329: real time   46.3426
       DOS:  cpu time    0.0012: real time    0.0012
    --------------------------------------------
      LOOP:  cpu time   47.2019: real time   47.2226

 eigenvalue-minimisations  :  4248
 total energy-change (2. order) : 0.1368718E+05  (-0.2785464E+05)
 number of electron     640.0000000 magnetization 
 augmentation part      640.0000000 magnetization 

 Free energy of the ion-electron system (eV)
  ---------------------------------------------------
  alpha Z        PSCENC =       871.83850952
  Ewald energy   TEWEN  =    285731.68452420
  -Hartree energ DENC   =   -340091.85174308
  -exchange      EXHF   =         0.00000000
  -V(xc)+E(xc)   XCENC  =      3042.49371863
  PAW double counting   =     50525.51240023   -50422.77561733
  entropy T*S    EENTRO =        -0.06646816
  eigenvalues    EBANDS =      -177.08739823
  atomic energy  EATOM  =     64207.43592568
  Solvation  Ediel_sol  =         0.00000000
  ---------------------------------------------------
  free energy    TOTEN  =     13687.18385145 eV

  energy without entropy =    13687.25031961  energy(sigma->0) =    13687.21708553


--------------------------------------------------------------------------------------------------------




--------------------------------------- Iteration      1(   2)  ---------------------------------------


     EDDAV:  cpu time   49.3169: real time   49.3312
       DOS:  cpu time    0.0012: real time    0.0012
    --------------------------------------------
      LOOP:  cpu time   49.3181: real time   49.3324

 eigenvalue-minimisations  :  4616
 total energy-change (2. order) :-0.1118023E+05  (-0.1087863E+05)
 number of electron     640.0000000 magnetization 
 augmentation part      640.0000000 magnetization 

 Free energy of the ion-electron system (eV)
  ---------------------------------------------------
  alpha Z        PSCENC =       871.83850952
  Ewald energy   TEWEN  =    285731.68452420
  -Hartree energ DENC   =   -340091.85174308
  -exchange      EXHF   =         0.00000000
  -V(xc)+E(xc)   XCENC  =      3042.49371863
  PAW double counting   =     50525.51240023   -50422.77561733
  entropy T*S    EENTRO =        -0.04919487
  eigenvalues    EBANDS =    -11357.33247953
  atomic energy  EATOM  =     64207.43592568
  Solvation  Ediel_sol  =         0.00000000
  ---------------------------------------------------
  free energy    TOTEN  =      2506.95604344 eV

  energy without entropy =     2507.00523831  energy(sigma->0) =     2506.98064087


--------------------------------------------------------------------------------------------------------




--------------------------------------- Iteration      1(   3)  ---------------------------------------


     EDDAV:  cpu time   68.0318: real time   68.0343
       DOS:  cpu time    0.0005: real time    0.0005
    --------------------------------------------
      LOOP:  cpu time   68.0323: real time   68.0348

 eigenvalue-minimisations  :  6792
 total energy-change (2. order) :-0.2886486E+04  (-0.2771993E+04)
 number of electron     640.0000000 magnetization 
 augmentation part      640.0000000 magnetization 

 Free energy of the ion-electron system (eV)
  ---------------------------------------------------
  alpha Z        PSCENC =       871.83850952
  Ewald energy   TEWEN  =    285731.68452420
  -Hartree energ DENC   =   -340091.85174308
  -exchange      EXHF   =         0.00000000
  -V(xc)+E(xc)   XCENC  =      3042.49371863
  PAW double counting   =     50525.51240023   -50422.77561733
  entropy T*S    EENTRO =        -0.00000000
  eigenvalues    EBANDS =    -14243.86812121
  atomic energy  EATOM  =     64207.43592568
  Solvation  Ediel_sol  =         0.00000000
  ---------------------------------------------------
  free energy    TOTEN  =      -379.53040336 eV

  energy without entropy =     -379.53040336  energy(sigma->0) =     -379.53040336


--------------------------------------------------------------------------------------------------------




--------------------------------------- Iteration      1(   4)  ---------------------------------------


     EDDAV:  cpu time   61.5473: real time   61.5581
       DOS:  cpu time    0.0005: real time    0.0005
    --------------------------------------------
      LOOP:  cpu time   61.5478: real time   61.5587

 eigenvalue-minimisations  :  6072
 total energy-change (2. order) :-0.3595782E+03  (-0.3552977E+03)
 number of electron     640.0000000 magnetization 
 augmentation part      640.0000000 magnetization 

 Free energy of the ion-electron system (eV)
  ---------------------------------------------------
  alpha Z        PSCENC =       871.83850952
  Ewald energy   TEWEN  =    285731.68452420
  -Hartree energ DENC   =   -340091.85174308
  -exchange      EXHF   =         0.00000000
  -V(xc)+E(xc)   XCENC  =      3042.49371863
  PAW double counting   =     50525.51240023   -50422.77561733
  entropy T*S    EENTRO =        -0.00000000
  eigenvalues    EBANDS =    -14603.44629293
  atomic energy  EATOM  =     64207.43592568
  Solvation  Ediel_sol  =         0.00000000
  ---------------------------------------------------
  free energy    TOTEN  =      -739.10857508 eV

  energy without entropy =     -739.10857508  energy(sigma->0) =     -739.10857508


--------------------------------------------------------------------------------------------------------




--------------------------------------- Iteration      1(   5)  ---------------------------------------


     EDDAV:  cpu time   61.6671: real time   61.6773
       DOS:  cpu time    0.0005: real time    0.0005
    CHARGE:  cpu time    3.5686: real time    3.5686
    MIXING:  cpu time    0.0235: real time    0.0237
    --------------------------------------------
      LOOP:  cpu time   65.2596: real time   65.2700

 eigenvalue-minimisations  :  6080
 total energy-change (2. order) :-0.1453568E+02  (-0.1447596E+02)
 number of electron     640.0000007 magnetization 
 augmentation part      134.5074157 magnetization 

 Broyden mixing:
  rms(total) = 0.76126E+01    rms(broyden)= 0.76124E+01
  rms(prec ) = 0.80226E+01
  weight for this iteration     100.00

 Free energy of the ion-electron system (eV)
  ---------------------------------------------------
  alpha Z        PSCENC =       871.83850952
  Ewald energy   TEWEN  =    285731.68452420
  -Hartree energ DENC   =   -340091.85174308
  -exchange      EXHF   =         0.00000000
  -V(xc)+E(xc)   XCENC  =      3042.49371863
  PAW double counting   =     50525.51240023   -50422.77561733
  entropy T*S    EENTRO =        -0.00000000
  eigenvalues    EBANDS =    -14617.98197655
  atomic energy  EATOM  =     64207.43592568
  Solvation  Ediel_sol  =         0.00000000
  ---------------------------------------------------
  free energy    TOTEN  =      -753.64425870 eV

  energy without entropy =     -753.64425870  energy(sigma->0) =     -753.64425870


--------------------------------------------------------------------------------------------------------




--------------------------------------- Iteration      1(   6)  ---------------------------------------


    POTLOK:  cpu time    0.4029: real time    0.4118
    SETDIJ:  cpu time    0.4288: real time    0.4288
     EDDAV:  cpu time   58.8533: real time   58.8549
       DOS:  cpu time    0.0006: real time    0.0006
    CHARGE:  cpu time    3.5736: real time    3.5737
    MIXING:  cpu time    0.0234: real time    0.0234
    --------------------------------------------
      LOOP:  cpu time   63.2826: real time   63.2933

 eigenvalue-minimisations  :  5744
 total energy-change (2. order) : 0.1554752E+03  (-0.8462007E+02)
 number of electron     640.0000007 magnetization 
 augmentation part      140.6100906 magnetization 

 Broyden mixing:
  rms(total) = 0.25009E+01    rms(broyden)= 0.25001E+01
  rms(prec ) = 0.25553E+01
  weight for this iteration     100.00

 eigenvalues of (default mixing * dielectric matrix)
  average eigenvalue GAMMA=   0.9707
  0.9707

 Free energy of the ion-electron system (eV)
  ---------------------------------------------------
  alpha Z        PSCENC =       871.83850952
  Ewald energy   TEWEN  =    285731.68452420
  -Hartree energ DENC   =   -340264.34343624
  -exchange      EXHF   =         0.00000000
  -V(xc)+E(xc)   XCENC  =      3054.81513233
  PAW double counting   =     56292.83852692   -56259.26962113
  entropy T*S    EENTRO =        -0.00000000
  eigenvalues    EBANDS =    -14233.16866748
  atomic energy  EATOM  =     64207.43592568
  Solvation  Ediel_sol  =         0.00000000
  ---------------------------------------------------
  free energy    TOTEN  =      -598.16910620 eV

  energy without entropy =     -598.16910620  energy(sigma->0) =     -598.16910620


--------------------------------------------------------------------------------------------------------




--------------------------------------- Iteration      1(   7)  ---------------------------------------


    POTLOK:  cpu time    0.4358: real time    0.4479
    SETDIJ:  cpu time    0.4366: real time    0.4402
     EDDAV:  cpu time   60.6089: real time   60.6185
       DOS:  cpu time    0.0006: real time    0.0006
    CHARGE:  cpu time    3.6024: real time    3.6029
    MIXING:  cpu time    0.0223: real time    0.0223
    --------------------------------------------
      LOOP:  cpu time   65.1066: real time   65.1324

 eigenvalue-minimisations  :  5952
 total energy-change (2. order) : 0.2295825E+00  (-0.5450125E+01)
 number of electron     640.0000007 magnetization 
 augmentation part      141.0004639 magnetization 

 Broyden mixing:
  rms(total) = 0.16459E+01    rms(broyden)= 0.16459E+01
  rms(prec ) = 0.16760E+01
  weight for this iteration     100.00

 eigenvalues of (default mixing * dielectric matrix)
  average eigenvalue GAMMA=   1.6044
  0.9535  2.2552

 Free energy of the ion-electron system (eV)
  ---------------------------------------------------
  alpha Z        PSCENC =       871.83850952
  Ewald energy   TEWEN  =    285731.68452420
  -Hartree energ DENC   =   -340410.75941797
  -exchange      EXHF   =         0.00000000
  -V(xc)+E(xc)   XCENC  =      3052.00589926
  PAW double counting   =     59926.25637825   -59899.27343453
  entropy T*S    EENTRO =        -0.00000000
  eigenvalues    EBANDS =    -14077.12790812
  atomic energy  EATOM  =     64207.43592568
  Solvation  Ediel_sol  =         0.00000000
  ---------------------------------------------------
  free energy    TOTEN  =      -597.93952371 eV

  energy without entropy =     -597.93952371  energy(sigma->0) =     -597.93952371


--------------------------------------------------------------------------------------------------------




--------------------------------------- Iteration      1(   8)  ---------------------------------------


    POTLOK:  cpu time    0.4075: real time    0.4168
    SETDIJ:  cpu time    0.4316: real time    0.4316
     EDDAV:  cpu time   57.0413: real time   57.0426
       DOS:  cpu time    0.0006: real time    0.0006
    CHARGE:  cpu time    3.5357: real time    3.5357
    MIXING:  cpu time    0.0247: real time    0.0247
    --------------------------------------------
      LOOP:  cpu time   61.4414: real time   61.4521

 eigenvalue-minimisations  :  5520
 total energy-change (2. order) : 0.1613575E+01  (-0.1028113E+01)
 number of electron     640.0000007 magnetization 
 augmentation part      141.1561231 magnetization 

 Broyden mixing:
  rms(total) = 0.45693E+00    rms(broyden)= 0.45684E+00
  rms(prec ) = 0.49088E+00
  weight for this iteration     100.00

 eigenvalues of (default mixing * dielectric matrix)
  average eigenvalue GAMMA=   1.4009
  2.4617  0.8705  0.8705

 Free energy of the ion-electron system (eV)
  ---------------------------------------------------
  alpha Z        PSCENC =       871.83850952
  Ewald energy   TEWEN  =    285731.68452420
  -Hartree energ DENC   =   -340660.70735137
  -exchange      EXHF   =         0.00000000
  -V(xc)+E(xc)   XCENC  =      3048.19040664
  PAW double counting   =     66029.09627059   -66018.63010579
  entropy T*S    EENTRO =        -0.00000000
  eigenvalues    EBANDS =    -13805.23412824
  atomic energy  EATOM  =     64207.43592568
  Solvation  Ediel_sol  =         0.00000000
  ---------------------------------------------------
  free energy    TOTEN  =      -596.32594876 eV

  energy without entropy =     -596.32594876  energy(sigma->0) =     -596.32594876


--------------------------------------------------------------------------------------------------------




--------------------------------------- Iteration      1(   9)  ---------------------------------------


    POTLOK:  cpu time    0.4043: real time    0.4173
    SETDIJ:  cpu time    0.4153: real time    0.4185
     EDDAV:  cpu time   56.4531: real time   56.4559
       DOS:  cpu time    0.0006: real time    0.0005
    CHARGE:  cpu time    3.5872: real time    3.5872
    MIXING:  cpu time    0.0247: real time    0.0246
    --------------------------------------------
      LOOP:  cpu time   60.8852: real time   60.9041

 eigenvalue-minimisations  :  5464
 total energy-change (2. order) : 0.5013040E+00  (-0.2296470E+00)
 number of electron     640.0000007 magnetization 
 augmentation part      141.4927939 magnetization 

 Broyden mixing:
  rms(total) = 0.22071E+00    rms(broyden)= 0.22071E+00
  rms(prec ) = 0.23987E+00
  weight for this iteration     100.00

 eigenvalues of (default mixing * dielectric matrix)
  average eigenvalue GAMMA=   1.2481
  2.1123  1.1049  0.8877  0.8877

 Free energy of the ion-electron system (eV)
  ---------------------------------------------------
  alpha Z        PSCENC =       871.83850952
  Ewald energy   TEWEN  =    285731.68452420
  -Hartree energ DENC   =   -340775.30572114
  -exchange      EXHF   =         0.00000000
  -V(xc)+E(xc)   XCENC  =      3050.03293614
  PAW double counting   =     66641.50274562   -66634.70956727
  entropy T*S    EENTRO =        -0.00000000
  eigenvalues    EBANDS =    -13688.30399750
  atomic energy  EATOM  =     64207.43592568
  Solvation  Ediel_sol  =         0.00000000
  ---------------------------------------------------
  free energy    TOTEN  =      -595.82464476 eV

  energy without entropy =     -595.82464476  energy(sigma->0) =     -595.82464476


--------------------------------------------------------------------------------------------------------




--------------------------------------- Iteration      1(  10)  ---------------------------------------


    POTLOK:  cpu time    0.4344: real time    0.4468
    SETDIJ:  cpu time    0.4487: real time    0.4508
     EDDAV:  cpu time   60.7210: real time   60.7218
       DOS:  cpu time    0.0006: real time    0.0006
    CHARGE:  cpu time    3.5913: real time    3.5912
    MIXING:  cpu time    0.0247: real time    0.0247
    --------------------------------------------
      LOOP:  cpu time   65.2206: real time   65.2360

 eigenvalue-minimisations  :  5952
 total energy-change (2. order) : 0.4559180E-01  (-0.3321295E-01)
 number of electron     640.0000007 magnetization 
 augmentation part      141.3464417 magnetization 

 Broyden mixing:
  rms(total) = 0.12499E+00    rms(broyden)= 0.12499E+00
  rms(prec ) = 0.14886E+00
  weight for this iteration     100.00

 eigenvalues of (default mixing * dielectric matrix)
  average eigenvalue GAMMA=   1.3893
  2.2527  2.2527  0.9016  0.9016  0.6377

 Free energy of the ion-electron system (eV)
  ---------------------------------------------------
  alpha Z        PSCENC =       871.83850952
  Ewald energy   TEWEN  =    285731.68452420
  -Hartree energ DENC   =   -340842.44839115
  -exchange      EXHF   =         0.00000000
  -V(xc)+E(xc)   XCENC  =      3051.51107998
  PAW double counting   =     66049.62817969   -66041.85227544
  entropy T*S    EENTRO =        -0.00000000
  eigenvalues    EBANDS =    -13623.57660544
  atomic energy  EATOM  =     64207.43592568
  Solvation  Ediel_sol  =         0.00000000
  ---------------------------------------------------
  free energy    TOTEN  =      -595.77905296 eV

  energy without entropy =     -595.77905296  energy(sigma->0) =     -595.77905296


--------------------------------------------------------------------------------------------------------




--------------------------------------- Iteration      1(  11)  ---------------------------------------


    POTLOK:  cpu time    0.3767: real time    0.3922
    SETDIJ:  cpu time    0.4150: real time    0.4150
     EDDAV:  cpu time   56.9175: real time   56.9221
       DOS:  cpu time    0.0007: real time    0.0007
    CHARGE:  cpu time    3.5794: real time    3.5794
    MIXING:  cpu time    0.0226: real time    0.0226
    --------------------------------------------
      LOOP:  cpu time   61.3118: real time   61.3321

 eigenvalue-minimisations  :  5520
 total energy-change (2. order) : 0.1167555E+00  (-0.1390744E-01)
 number of electron     640.0000007 magnetization 
 augmentation part      141.2516551 magnetization 

 Broyden mixing:
  rms(total) = 0.79870E-01    rms(broyden)= 0.79868E-01
  rms(prec ) = 0.95972E-01
  weight for this iteration     100.00

 eigenvalues of (default mixing * dielectric matrix)
  average eigenvalue GAMMA=   1.3747
  2.6523  2.1751  0.8914  0.8914  0.9551  0.6833

 Free energy of the ion-electron system (eV)
  ---------------------------------------------------
  alpha Z        PSCENC =       871.83850952
  Ewald energy   TEWEN  =    285731.68452420
  -Hartree energ DENC   =   -340993.36246822
  -exchange      EXHF   =         0.00000000
  -V(xc)+E(xc)   XCENC  =      3053.00335479
  PAW double counting   =     65961.64348199   -65953.91011214
  entropy T*S    EENTRO =        -0.00000000
  eigenvalues    EBANDS =    -13473.99551331
  atomic energy  EATOM  =     64207.43592568
  Solvation  Ediel_sol  =         0.00000000
  ---------------------------------------------------
  free energy    TOTEN  =      -595.66229749 eV

  energy without entropy =     -595.66229749  energy(sigma->0) =     -595.66229749


--------------------------------------------------------------------------------------------------------




--------------------------------------- Iteration      1(  12)  ---------------------------------------


    POTLOK:  cpu time    0.3892: real time    0.3990
    SETDIJ:  cpu time    0.4140: real time    0.4160
     EDDAV:  cpu time   59.9564: real time   59.9575
       DOS:  cpu time    0.0007: real time    0.0007
    CHARGE:  cpu time    3.5622: real time    3.5622
    MIXING:  cpu time    0.0231: real time    0.0231
    --------------------------------------------
      LOOP:  cpu time   64.3457: real time   64.3585

 eigenvalue-minimisations  :  5880
 total energy-change (2. order) : 0.4181546E-01  (-0.5621805E-02)
 number of electron     640.0000007 magnetization 
 augmentation part      141.2981894 magnetization 

 Broyden mixing:
  rms(total) = 0.34283E-01    rms(broyden)= 0.34281E-01
  rms(prec ) = 0.51146E-01
  weight for this iteration     100.00

 eigenvalues of (default mixing * dielectric matrix)
  average eigenvalue GAMMA=   1.3764
  2.4768  2.4768  1.1187  1.1187  0.9027  0.9027  0.6382

 Free energy of the ion-electron system (eV)
  ---------------------------------------------------
  alpha Z        PSCENC =       871.83850952
  Ewald energy   TEWEN  =    285731.68452420
  -Hartree energ DENC   =   -341070.03606449
  -exchange      EXHF   =         0.00000000
  -V(xc)+E(xc)   XCENC  =      3053.28050690
  PAW double counting   =     66150.68280984   -66143.42229369
  entropy T*S    EENTRO =        -0.00000000
  eigenvalues    EBANDS =    -13397.08439999
  atomic energy  EATOM  =     64207.43592568
  Solvation  Ediel_sol  =         0.00000000
  ---------------------------------------------------
  free energy    TOTEN  =      -595.62048203 eV

  energy without entropy =     -595.62048203  energy(sigma->0) =     -595.62048203


--------------------------------------------------------------------------------------------------------




--------------------------------------- Iteration      1(  13)  ---------------------------------------


    POTLOK:  cpu time    0.3631: real time    0.3734
    SETDIJ:  cpu time    0.4134: real time    0.4134
     EDDAV:  cpu time   61.1514: real time   61.1549
       DOS:  cpu time    0.0007: real time    0.0006
    CHARGE:  cpu time    3.6007: real time    3.6006
    MIXING:  cpu time    0.0247: real time    0.0247
    --------------------------------------------
      LOOP:  cpu time   65.5539: real time   65.5677

 eigenvalue-minimisations  :  6024
 total energy-change (2. order) : 0.7057155E-02  (-0.2029407E-02)
 number of electron     640.0000007 magnetization 
 augmentation part      141.2694234 magnetization 

 Broyden mixing:
  rms(total) = 0.23189E-01    rms(broyden)= 0.23187E-01
  rms(prec ) = 0.37372E-01
  weight for this iteration     100.00

 eigenvalues of (default mixing * dielectric matrix)
  average eigenvalue GAMMA=   1.4147
  2.8675  2.5326  1.6372  1.0061  0.9224  0.9224  0.7964  0.6330

 Free energy of the ion-electron system (eV)
  ---------------------------------------------------
  alpha Z        PSCENC =       871.83850952
  Ewald energy   TEWEN  =    285731.68452420
  -Hartree energ DENC   =   -341123.93203478
  -exchange      EXHF   =         0.00000000
  -V(xc)+E(xc)   XCENC  =      3053.38350434
  PAW double counting   =     66110.86766161   -66103.28760632
  entropy T*S    EENTRO =        -0.00000000
  eigenvalues    EBANDS =    -13343.60390912
  atomic energy  EATOM  =     64207.43592568
  Solvation  Ediel_sol  =         0.00000000
  ---------------------------------------------------
  free energy    TOTEN  =      -595.61342488 eV

  energy without entropy =     -595.61342488  energy(sigma->0) =     -595.61342488


--------------------------------------------------------------------------------------------------------




--------------------------------------- Iteration      1(  14)  ---------------------------------------


    POTLOK:  cpu time    0.3635: real time    0.3730
    SETDIJ:  cpu time    0.4141: real time    0.4161
     EDDAV:  cpu time   55.7006: real time   55.7020
       DOS:  cpu time    0.0007: real time    0.0007
    CHARGE:  cpu time    3.5932: real time    3.5932
    MIXING:  cpu time    0.0238: real time    0.0238
    --------------------------------------------
      LOOP:  cpu time   60.0958: real time   60.1087

 eigenvalue-minimisations  :  5368
 total energy-change (2. order) : 0.3343786E-02  (-0.1387640E-02)
 number of electron     640.0000007 magnetization 
 augmentation part      141.2869247 magnetization 

 Broyden mixing:
  rms(total) = 0.14023E-01    rms(broyden)= 0.14022E-01
  rms(prec ) = 0.22664E-01
  weight for this iteration     100.00

 eigenvalues of (default mixing * dielectric matrix)
  average eigenvalue GAMMA=   1.4832
  3.3052  2.7155  1.8683  1.1353  1.1353  0.9195  0.9195  0.7306  0.6200

 Free energy of the ion-electron system (eV)
  ---------------------------------------------------
  alpha Z        PSCENC =       871.83850952
  Ewald energy   TEWEN  =    285731.68452420
  -Hartree energ DENC   =   -341195.61262220
  -exchange      EXHF   =         0.00000000
  -V(xc)+E(xc)   XCENC  =      3053.53881687
  PAW double counting   =     66125.07786021   -66117.51166204
  entropy T*S    EENTRO =        -0.00000000
  eigenvalues    EBANDS =    -13272.06143333
  atomic energy  EATOM  =     64207.43592568
  Solvation  Ediel_sol  =         0.00000000
  ---------------------------------------------------
  free energy    TOTEN  =      -595.61008109 eV

  energy without entropy =     -595.61008109  energy(sigma->0) =     -595.61008109


--------------------------------------------------------------------------------------------------------




--------------------------------------- Iteration      1(  15)  ---------------------------------------


    POTLOK:  cpu time    0.3960: real time    0.4078
    SETDIJ:  cpu time    0.4136: real time    0.4159
     EDDAV:  cpu time   60.9322: real time   60.9497
       DOS:  cpu time    0.0007: real time    0.0007
    CHARGE:  cpu time    3.6200: real time    3.6206
    MIXING:  cpu time    0.0217: real time    0.0217
    --------------------------------------------
      LOOP:  cpu time   65.3842: real time   65.4163

 eigenvalue-minimisations  :  5992
 total energy-change (2. order) :-0.5459278E-02  (-0.8876068E-03)
 number of electron     640.0000007 magnetization 
 augmentation part      141.3036048 magnetization 

 Broyden mixing:
  rms(total) = 0.14143E-01    rms(broyden)= 0.14142E-01
  rms(prec ) = 0.17784E-01
  weight for this iteration     100.00

 eigenvalues of (default mixing * dielectric matrix)
  average eigenvalue GAMMA=   1.4945
  4.0043  2.7444  1.8780  1.1650  1.0826  1.0826  0.8267  0.8267  0.7290  0.6062

 Free energy of the ion-electron system (eV)
  ---------------------------------------------------
  alpha Z        PSCENC =       871.83850952
  Ewald energy   TEWEN  =    285731.68452420
  -Hartree energ DENC   =   -341244.81789496
  -exchange      EXHF   =         0.00000000
  -V(xc)+E(xc)   XCENC  =      3053.65928541
  PAW double counting   =     66105.12615419   -66097.59224870
  entropy T*S    EENTRO =        -0.00000000
  eigenvalues    EBANDS =    -13222.94979571
  atomic energy  EATOM  =     64207.43592568
  Solvation  Ediel_sol  =         0.00000000
  ---------------------------------------------------
  free energy    TOTEN  =      -595.61554037 eV

  energy without entropy =     -595.61554037  energy(sigma->0) =     -595.61554037


--------------------------------------------------------------------------------------------------------




--------------------------------------- Iteration      1(  16)  ---------------------------------------


    POTLOK:  cpu time    0.4132: real time    0.4253
    SETDIJ:  cpu time    0.4303: real time    0.4323
     EDDAV:  cpu time   61.9807: real time   61.9953
       DOS:  cpu time    0.0006: real time    0.0006
    CHARGE:  cpu time    3.6100: real time    3.6110
    MIXING:  cpu time    0.0278: real time    0.0278
    --------------------------------------------
      LOOP:  cpu time   66.4626: real time   66.4923

 eigenvalue-minimisations  :  6112
 total energy-change (2. order) :-0.4012333E-02  (-0.2860053E-03)
 number of electron     640.0000007 magnetization 
 augmentation part      141.2823672 magnetization 

 Broyden mixing:
  rms(total) = 0.72674E-02    rms(broyden)= 0.72670E-02
  rms(prec ) = 0.10469E-01
  weight for this iteration     100.00

 eigenvalues of (default mixing * dielectric matrix)
  average eigenvalue GAMMA=   1.5725
  4.6754  2.7119  2.2004  1.3637  1.3637  0.9765  0.9765  0.8588  0.8588  0.6991
  0.6131

 Free energy of the ion-electron system (eV)
  ---------------------------------------------------
  alpha Z        PSCENC =       871.83850952
  Ewald energy   TEWEN  =    285731.68452420
  -Hartree energ DENC   =   -341269.22170195
  -exchange      EXHF   =         0.00000000
  -V(xc)+E(xc)   XCENC  =      3053.73716451
  PAW double counting   =     66088.00462071   -66080.43091210
  entropy T*S    EENTRO =        -0.00000000
  eigenvalues    EBANDS =    -13198.66768327
  atomic energy  EATOM  =     64207.43592568
  Solvation  Ediel_sol  =         0.00000000
  ---------------------------------------------------
  free energy    TOTEN  =      -595.61955270 eV

  energy without entropy =     -595.61955270  energy(sigma->0) =     -595.61955270


--------------------------------------------------------------------------------------------------------




--------------------------------------- Iteration      1(  17)  ---------------------------------------


    POTLOK:  cpu time    0.4089: real time    0.4223
    SETDIJ:  cpu time    0.4148: real time    0.4148
     EDDAV:  cpu time   60.9189: real time   60.9335
       DOS:  cpu time    0.0005: real time    0.0005
    CHARGE:  cpu time    3.5580: real time    3.5588
    MIXING:  cpu time    0.0221: real time    0.0221
    --------------------------------------------
      LOOP:  cpu time   65.3232: real time   65.3521

 eigenvalue-minimisations  :  5992
 total energy-change (2. order) :-0.5878927E-02  (-0.1572815E-03)
 number of electron     640.0000007 magnetization 
 augmentation part      141.2857680 magnetization 

 Broyden mixing:
  rms(total) = 0.52294E-02    rms(broyden)= 0.52285E-02
  rms(prec ) = 0.68490E-02
  weight for this iteration     100.00

 eigenvalues of (default mixing * dielectric matrix)
  average eigenvalue GAMMA=   1.6866
  6.0321  2.9745  2.1185  2.1185  1.0582  1.0582  0.9406  0.9406  0.8445  0.8445
  0.6984  0.6103

 Free energy of the ion-electron system (eV)
  ---------------------------------------------------
  alpha Z        PSCENC =       871.83850952
  Ewald energy   TEWEN  =    285731.68452420
  -Hartree energ DENC   =   -341292.58196530
  -exchange      EXHF   =         0.00000000
  -V(xc)+E(xc)   XCENC  =      3053.78727022
  PAW double counting   =     66091.09375283   -66083.62001213
  entropy T*S    EENTRO =        -0.00000000
  eigenvalues    EBANDS =    -13175.26343666
  atomic energy  EATOM  =     64207.43592568
  Solvation  Ediel_sol  =         0.00000000
  ---------------------------------------------------
  free energy    TOTEN  =      -595.62543163 eV

  energy without entropy =     -595.62543163  energy(sigma->0) =     -595.62543163


--------------------------------------------------------------------------------------------------------




--------------------------------------- Iteration      1(  18)  ---------------------------------------


    POTLOK:  cpu time    0.4097: real time    0.4187
    SETDIJ:  cpu time    0.4136: real time    0.4139
     EDDAV:  cpu time   55.2656: real time   55.2784
       DOS:  cpu time    0.0006: real time    0.0006
    CHARGE:  cpu time    3.5643: real time    3.5650
    MIXING:  cpu time    0.0228: real time    0.0228
    --------------------------------------------
      LOOP:  cpu time   59.6765: real time   59.6992

 eigenvalue-minimisations  :  5320
 total energy-change (2. order) :-0.2521028E-02  (-0.5529795E-04)
 number of electron     640.0000007 magnetization 
 augmentation part      141.2790646 magnetization 

 Broyden mixing:
  rms(total) = 0.36586E-02    rms(broyden)= 0.36582E-02
  rms(prec ) = 0.46260E-02
  weight for this iteration     100.00

 eigenvalues of (default mixing * dielectric matrix)
  average eigenvalue GAMMA=   1.6509
  6.2883  2.8454  2.5091  1.7760  1.0491  1.0491  0.9655  0.9655  0.8997  0.8997
  0.9015  0.6149  0.6977

 Free energy of the ion-electron system (eV)
  ---------------------------------------------------
  alpha Z        PSCENC =       871.83850952
  Ewald energy   TEWEN  =    285731.68452420
  -Hartree energ DENC   =   -341304.35638707
  -exchange      EXHF   =         0.00000000
  -V(xc)+E(xc)   XCENC  =      3053.81496673
  PAW double counting   =     66078.44497070   -66070.96088702
  entropy T*S    EENTRO =        -0.00000000
  eigenvalues    EBANDS =    -13163.52957540
  atomic energy  EATOM  =     64207.43592568
  Solvation  Ediel_sol  =         0.00000000
  ---------------------------------------------------
  free energy    TOTEN  =      -595.62795266 eV

  energy without entropy =     -595.62795266  energy(sigma->0) =     -595.62795266


--------------------------------------------------------------------------------------------------------




--------------------------------------- Iteration      1(  19)  ---------------------------------------


    POTLOK:  cpu time    0.4174: real time    0.4213
    SETDIJ:  cpu time    0.4432: real time    0.4434
     EDDAV:  cpu time   56.9313: real time   56.9469
       DOS:  cpu time    0.0006: real time    0.0006
    CHARGE:  cpu time    3.5882: real time    3.5888
    MIXING:  cpu time    0.0230: real time    0.0230
    --------------------------------------------
      LOOP:  cpu time   61.4037: real time   61.4240

 eigenvalue-minimisations  :  5512
 total energy-change (2. order) :-0.2230860E-02  (-0.2087870E-04)
 number of electron     640.0000007 magnetization 
 augmentation part      141.2816267 magnetization 

 Broyden mixing:
  rms(total) = 0.21422E-02    rms(broyden)= 0.21412E-02
  rms(prec ) = 0.30868E-02
  weight for this iteration     100.00

 eigenvalues of (default mixing * dielectric matrix)
  average eigenvalue GAMMA=   1.7266
  6.8560  3.3448  2.2779  2.1970  1.7556  0.9551  0.9551  1.0198  0.9411  0.9411
  0.7966  0.7966  0.6159  0.7200

 Free energy of the ion-electron system (eV)
  ---------------------------------------------------
  alpha Z        PSCENC =       871.83850952
  Ewald energy   TEWEN  =    285731.68452420
  -Hartree energ DENC   =   -341307.47707144
  -exchange      EXHF   =         0.00000000
  -V(xc)+E(xc)   XCENC  =      3053.80668564
  PAW double counting   =     66085.98886874   -66078.52003399
  entropy T*S    EENTRO =        -0.00000000
  eigenvalues    EBANDS =    -13160.38759186
  atomic energy  EATOM  =     64207.43592568
  Solvation  Ediel_sol  =         0.00000000
  ---------------------------------------------------
  free energy    TOTEN  =      -595.63018352 eV

  energy without entropy =     -595.63018352  energy(sigma->0) =     -595.63018352


--------------------------------------------------------------------------------------------------------




--------------------------------------- Iteration      1(  20)  ---------------------------------------


    POTLOK:  cpu time    0.3633: real time    0.3740
    SETDIJ:  cpu time    0.4142: real time    0.4142
     EDDAV:  cpu time   48.2228: real time   48.2359
       DOS:  cpu time    0.0005: real time    0.0005
    CHARGE:  cpu time    3.6220: real time    3.6227
    MIXING:  cpu time    0.0237: real time    0.0237
    --------------------------------------------
      LOOP:  cpu time   52.6466: real time   52.6710

 eigenvalue-minimisations  :  4472
 total energy-change (2. order) :-0.3690282E-02  (-0.1467411E-04)
 number of electron     640.0000007 magnetization 
 augmentation part      141.2821671 magnetization 

 Broyden mixing:
  rms(total) = 0.16737E-02    rms(broyden)= 0.16729E-02
  rms(prec ) = 0.20404E-02
  weight for this iteration     100.00

 eigenvalues of (default mixing * dielectric matrix)
  average eigenvalue GAMMA=   1.7979
  7.3417  3.9817  2.6976  2.3802  1.7855  0.9965  0.9965  0.9872  0.9872  0.9441
  0.9441  0.8003  0.8003  0.6144  0.7108

 Free energy of the ion-electron system (eV)
  ---------------------------------------------------
  alpha Z        PSCENC =       871.83850952
  Ewald energy   TEWEN  =    285731.68452420
  -Hartree energ DENC   =   -341311.92815030
  -exchange      EXHF   =         0.00000000
  -V(xc)+E(xc)   XCENC  =      3053.79342675
  PAW double counting   =     66083.60118648   -66076.11502212
  entropy T*S    EENTRO =        -0.00000000
  eigenvalues    EBANDS =    -13155.94427401
  atomic energy  EATOM  =     64207.43592568
  Solvation  Ediel_sol  =         0.00000000
  ---------------------------------------------------
  free energy    TOTEN  =      -595.63387380 eV

  energy without entropy =     -595.63387380  energy(sigma->0) =     -595.63387380


--------------------------------------------------------------------------------------------------------




--------------------------------------- Iteration      1(  21)  ---------------------------------------


    POTLOK:  cpu time    0.3909: real time    0.3952
    SETDIJ:  cpu time    0.4147: real time    0.4168
     EDDAV:  cpu time   47.3173: real time   47.3170
       DOS:  cpu time    0.0006: real time    0.0006
    CHARGE:  cpu time    3.5780: real time    3.5779
    MIXING:  cpu time    0.0287: real time    0.0287
    --------------------------------------------
      LOOP:  cpu time   51.7303: real time   51.7363

 eigenvalue-minimisations  :  4360
 total energy-change (2. order) :-0.1670967E-02  (-0.1317359E-04)
 number of electron     640.0000007 magnetization 
 augmentation part      141.2821998 magnetization 

 Broyden mixing:
[...]
    -6.564311700 11.369721380  0.000000000     0.000000000  0.087952903  0.000000000
     0.000000000  0.000000000 26.828094240     0.000000000  0.000000000  0.037274358

  length of vectors
    13.128623400 13.128623399 26.828094240     0.087952903  0.087952903  0.037274358


 FORCES acting on ions
    electron-ion (+dipol)            ewald-force                    non-local-force                 convergence-correction
 -----------------------------------------------------------------------------------------------
   0.284E+01 0.982E+02 0.124E+04   -.257E+01 -.992E+02 -.123E+04   -.228E+00 -.655E+00 -.632E+01   -.543E-04 0.868E-05 -.845E-04
   -.677E+02 -.560E+02 0.136E+04   0.677E+02 0.570E+02 -.136E+04   0.674E+00 0.525E+00 -.635E+01   0.689E-04 -.102E-03 -.114E-03
   0.595E+01 -.311E+02 0.116E+04   -.501E+01 0.325E+02 -.116E+04   -.920E+00 0.208E-01 -.481E+01   -.579E-04 0.721E-05 -.163E-03
   0.368E+02 -.671E+02 0.130E+04   -.363E+02 0.673E+02 -.130E+04   -.694E+00 0.675E+00 -.655E+01   -.450E-04 0.581E-04 -.146E-03
   0.293E+02 -.180E+02 0.118E+04   -.306E+02 0.175E+02 -.117E+04   0.312E+00 0.710E+00 -.461E+01   0.127E-04 0.132E-04 -.197E-03
   -.190E+02 -.538E+02 0.122E+04   0.198E+02 0.556E+02 -.122E+04   -.356E+00 -.959E+00 -.761E+01   -.242E-04 -.325E-04 -.178E-03
   0.104E+02 0.429E+02 0.129E+04   -.102E+02 -.435E+02 -.128E+04   -.393E+00 -.142E+00 -.539E+01   0.155E-03 0.476E-04 -.735E-04
   -.105E+02 0.207E+02 0.136E+04   0.105E+02 -.216E+02 -.135E+04   0.432E-01 0.229E+00 -.757E+01   0.142E-03 0.106E-03 -.809E-04
   -.255E+02 -.108E+01 0.120E+04   0.265E+02 0.860E+00 -.119E+04   -.259E+00 0.508E+00 -.531E+01   0.131E-04 -.110E-03 -.450E-04
   -.658E+01 -.504E+02 0.130E+04   0.562E+01 0.510E+02 -.129E+04   0.110E+01 0.116E+00 -.637E+01   0.102E-03 0.223E-04 -.107E-03
   -.998E+01 0.147E+02 0.121E+04   0.936E+01 -.151E+02 -.121E+04   0.433E+00 0.134E+00 -.447E+01   -.722E-04 0.819E-04 -.603E-04
   -.302E+02 -.300E+02 0.113E+04   0.307E+02 0.290E+02 -.113E+04   -.714E-01 0.725E+00 -.477E+01   -.586E-04 0.124E-04 0.983E-04
   0.935E+01 0.252E+02 0.132E+04   -.873E+01 -.262E+02 -.132E+04   -.783E+00 0.103E+01 -.549E+01   0.242E-04 -.818E-04 -.123E-04
   0.318E+02 -.976E+01 0.140E+04   -.323E+02 0.858E+01 -.139E+04   0.428E+00 0.936E+00 -.649E+01   -.143E-03 0.297E-04 -.998E-04
   0.357E+02 -.150E+02 0.134E+04   -.359E+02 0.155E+02 -.133E+04   0.129E-01 0.260E+00 -.526E+01   -.401E-04 -.105E-03 -.791E-04
   0.524E+02 -.126E+02 0.118E+04   -.527E+02 0.123E+02 -.118E+04   -.771E+00 0.229E+00 -.627E+01   -.462E-04 0.539E-04 -.172E-04
   0.387E+01 -.484E+01 -.136E+04   -.286E+01 0.582E+01 0.136E+04   -.305E+00 -.440E+00 0.623E+01   -.678E-04 -.707E-04 0.130E-03
   -.106E+02 -.140E+02 -.133E+04   0.131E+02 0.149E+02 0.132E+04   -.136E+01 -.299E+00 0.552E+01   -.720E-04 -.269E-04 0.837E-04
   -.329E+02 -.345E+02 -.122E+04   0.334E+02 0.348E+02 0.121E+04   -.584E+00 -.112E+00 0.498E+01   0.396E-04 0.154E-04 0.172E-03
   -.341E+02 -.408E+01 -.119E+04   0.343E+02 0.425E+01 0.118E+04   0.260E-01 -.939E-01 0.604E+01   0.203E-05 0.231E-04 0.178E-03
   -.414E+02 -.314E+02 -.138E+04   0.406E+02 0.324E+02 0.138E+04   0.723E+00 0.524E-01 0.478E+01   0.166E-03 -.110E-03 0.614E-04
   -.200E+02 0.560E+01 -.128E+04   0.199E+02 -.537E+01 0.128E+04   0.120E+00 -.638E+00 0.530E+01   -.169E-04 0.476E-04 0.102E-03
   -.522E+02 0.207E+02 -.125E+04   0.536E+02 -.214E+02 0.125E+04   -.364E+00 -.383E+00 0.672E+01   -.327E-04 0.145E-03 0.307E-04
   0.209E+02 0.123E+02 -.127E+04   -.211E+02 -.120E+02 0.127E+04   -.715E+00 0.162E-01 0.579E+01   0.125E-03 0.850E-04 -.173E-04
   0.224E+02 -.127E+02 -.121E+04   -.216E+02 0.138E+02 0.121E+04   -.852E+00 -.377E+00 0.511E+01   -.416E-04 -.117E-03 -.309E-04
   0.587E+02 0.165E+02 -.121E+04   -.586E+02 -.180E+02 0.120E+04   -.379E+00 0.765E+00 0.587E+01   0.532E-04 0.111E-03 0.616E-05
   0.105E+03 -.214E+01 -.116E+04   -.107E+03 0.169E+01 0.115E+04   -.429E+00 -.195E+00 0.540E+01   0.110E-03 -.319E-04 0.122E-05
   -.112E+02 0.993E+01 -.128E+04   0.111E+02 -.120E+02 0.127E+04   -.806E-01 0.129E+01 0.605E+01   -.721E-04 0.518E-04 -.327E-04
   0.404E+02 -.389E+01 -.119E+04   -.406E+02 0.288E+01 0.119E+04   -.581E-02 0.100E+01 0.528E+01   -.527E-04 -.187E-04 -.202E-04
   0.621E+01 0.613E+02 -.130E+04   -.774E+01 -.622E+02 0.130E+04   0.723E+00 -.139E+00 0.686E+01   0.478E-04 -.950E-04 0.143E-03
   0.181E+02 -.239E+02 -.117E+04   -.183E+02 0.250E+02 0.117E+04   -.346E+00 -.929E-01 0.507E+01   -.129E-03 -.577E-04 0.867E-04
   0.582E+02 0.163E+00 -.133E+04   -.578E+02 0.594E+00 0.132E+04   -.481E+00 -.204E+00 0.600E+01   -.920E-04 0.578E-04 0.110E-03
   -.146E+01 0.520E+01 -.162E+04   0.247E+01 -.675E+01 0.164E+04   -.916E+00 0.151E+01 -.176E+02   -.270E-04 -.112E-04 0.253E-06
   0.140E+01 0.103E+02 -.156E+04   -.141E+01 -.876E+01 0.158E+04   0.820E-02 -.208E+01 -.158E+02   -.683E-05 -.131E-04 -.541E-06
   0.663E+01 -.110E+02 -.160E+04   -.738E+01 0.122E+02 0.162E+04   0.768E+00 -.136E+01 -.172E+02   0.989E-05 -.480E-05 -.398E-05
   0.345E+01 0.121E+02 -.161E+04   -.163E+01 -.132E+02 0.163E+04   -.208E+01 0.117E+01 -.173E+02   -.102E-04 0.941E-05 -.126E-04
   -.852E+01 -.475E+02 -.160E+04   0.853E+01 0.512E+02 0.162E+04   0.612E-01 -.339E+01 -.152E+02   -.996E-05 -.189E-04 0.491E-04
   -.534E+01 -.662E+02 -.158E+04   0.524E+01 0.699E+02 0.159E+04   -.390E+00 -.298E+01 -.150E+02   -.145E-04 0.661E-05 0.179E-04
   -.384E+02 -.107E+02 -.165E+04   0.388E+02 0.110E+02 0.167E+04   -.100E+00 -.888E-01 -.193E+02   -.566E-06 0.912E-05 -.188E-04
   -.192E+02 0.513E+02 -.162E+04   0.184E+02 -.568E+02 0.164E+04   0.928E+00 0.491E+01 -.175E+02   0.240E-04 -.505E-06 -.162E-04
   -.209E+02 -.606E+01 -.157E+04   0.223E+02 0.706E+01 0.158E+04   -.109E+01 -.141E+01 -.153E+02   0.302E-04 -.353E-04 -.893E-05
   -.270E+02 -.297E+02 -.155E+04   0.288E+02 0.315E+02 0.156E+04   -.597E+00 -.127E+01 -.151E+02   0.813E-05 0.159E-04 -.515E-05
   -.782E+01 0.202E+02 -.157E+04   0.834E+01 -.231E+02 0.158E+04   -.441E+00 0.301E+01 -.148E+02   -.127E-04 0.276E-04 -.266E-05
   -.347E+02 0.499E+01 -.155E+04   0.368E+02 -.498E+01 0.156E+04   -.152E+01 0.251E+00 -.156E+02   -.551E-05 0.619E-05 -.467E-04
   -.253E+01 -.474E+01 -.159E+04   0.383E+01 0.515E+01 0.161E+04   -.961E+00 -.826E-01 -.163E+02   0.933E-05 -.727E-05 -.186E-04
   0.653E+01 0.197E+02 -.158E+04   -.659E+01 -.211E+02 0.160E+04   0.586E+00 0.178E+01 -.164E+02   0.199E-05 0.443E-05 -.260E-04
   0.249E+02 -.389E+01 -.158E+04   -.225E+02 0.317E+01 0.159E+04   -.271E+01 0.112E+01 -.175E+02   -.604E-05 -.263E-05 -.337E-04
   0.325E+02 0.407E+02 -.159E+04   -.321E+02 -.410E+02 0.160E+04   -.860E+00 -.221E+00 -.161E+02   0.319E-05 0.725E-05 -.268E-04
   0.703E+02 0.490E+02 0.156E+04   -.741E+02 -.517E+02 -.157E+04   0.254E+01 0.210E+01 0.150E+02   0.287E-06 0.207E-04 0.915E-05
   -.228E+02 -.359E+02 0.162E+04   0.234E+02 0.375E+02 -.164E+04   -.607E+00 -.104E+01 0.184E+02   0.241E-04 -.125E-04 0.830E-04
   -.632E+02 0.115E+02 0.156E+04   0.654E+02 -.123E+02 -.157E+04   -.139E+01 0.414E+00 0.148E+02   0.322E-05 -.388E-05 -.283E-04
   -.228E+02 -.272E+02 0.159E+04   0.243E+02 0.246E+02 -.161E+04   -.142E+01 0.336E+01 0.156E+02   -.213E-04 0.229E-04 -.708E-05
   -.249E+02 0.447E+02 0.159E+04   0.258E+02 -.461E+02 -.161E+04   -.255E+00 0.804E+00 0.178E+02   0.865E-05 0.129E-04 0.133E-04
   0.440E+02 -.452E+02 0.163E+04   -.482E+02 0.455E+02 -.164E+04   0.402E+01 -.184E+00 0.180E+02   -.881E-05 -.560E-05 0.233E-04
   0.385E+00 0.595E+02 0.158E+04   0.781E+00 -.629E+02 -.160E+04   -.142E+01 0.321E+01 0.156E+02   0.612E-05 0.610E-05 0.707E-05
   0.217E+02 -.165E+02 0.157E+04   -.206E+02 0.179E+02 -.159E+04   -.183E+01 -.144E+01 0.164E+02   0.151E-04 0.283E-05 0.133E-04
   0.425E+01 0.325E+02 0.157E+04   -.480E+01 -.342E+02 -.159E+04   0.339E+00 0.138E+01 0.163E+02   -.172E-04 0.391E-05 0.237E-04
   0.220E+02 -.163E+02 0.159E+04   -.234E+02 0.163E+02 -.160E+04   0.114E+01 0.886E-01 0.156E+02   -.166E-04 -.458E-05 0.210E-04
   0.144E+02 0.255E+02 0.153E+04   -.152E+02 -.273E+02 -.155E+04   0.115E+01 0.121E+01 0.140E+02   0.407E-05 -.892E-05 0.293E-05
   -.584E+02 -.367E+02 0.156E+04   0.612E+02 0.393E+02 -.157E+04   -.246E+01 -.257E+01 0.163E+02   -.922E-05 -.156E-04 0.182E-04
   -.365E+02 0.499E+02 0.163E+04   0.392E+02 -.517E+02 -.165E+04   -.243E+01 0.176E+01 0.171E+02   0.646E-05 -.467E-05 0.332E-04
   0.126E+02 0.207E+02 0.163E+04   -.142E+02 -.227E+02 -.165E+04   0.138E+01 0.162E+01 0.168E+02   -.335E-06 -.194E-04 -.485E-04
   -.137E+01 0.944E+01 0.164E+04   0.466E+01 -.898E+01 -.166E+04   -.317E+01 -.986E+00 0.179E+02   -.229E-04 -.106E-04 0.762E-06
   0.156E+02 -.293E+02 0.159E+04   -.157E+02 0.290E+02 -.160E+04   0.461E+00 0.392E+00 0.169E+02   -.814E-05 0.589E-05 0.136E-04
   -.864E+01 0.626E+01 -.200E+01   0.888E+01 -.597E+01 0.203E+01   -.111E+01 -.113E+01 -.683E+00   -.282E-04 0.784E-05 -.592E-05
   -.456E+01 0.150E+02 0.213E+02   0.433E+01 -.151E+02 -.214E+02   0.109E+01 -.217E+00 0.940E+00   0.114E-04 -.269E-04 0.341E-05
   -.190E+02 0.250E+02 0.173E+02   0.191E+02 -.250E+02 -.172E+02   0.134E+00 -.497E+00 -.837E-01   -.183E-04 0.106E-04 0.133E-04
   0.111E+02 0.102E+02 -.334E+00   -.110E+02 -.102E+02 0.428E+00   0.375E+00 -.102E+01 -.472E+00   0.681E-05 -.450E-05 0.265E-05
   0.959E+01 -.181E+02 -.527E+01   -.946E+01 0.180E+02 0.531E+01   -.443E+00 -.189E+00 -.349E+00   0.319E-05 -.120E-04 -.346E-06
   -.988E+01 0.451E+01 -.508E+02   0.101E+02 -.473E+01 0.512E+02   -.112E+01 0.615E+00 -.165E+01   -.196E-04 0.190E-04 -.378E-04
   -.662E+01 -.573E+01 0.101E+02   0.660E+01 0.555E+01 -.997E+01   0.165E+00 0.577E+00 -.534E+00   0.241E-04 -.930E-05 -.686E-05
   -.192E+02 -.125E+02 0.514E+01   0.192E+02 0.126E+02 -.508E+01   0.798E+00 -.255E+00 -.221E+00   0.142E-04 0.422E-05 0.276E-04
   0.103E+02 -.111E+01 0.148E+01   -.103E+02 0.122E+01 -.160E+01   0.532E+00 -.968E-01 0.722E+00   0.192E-04 -.704E-07 0.899E-05
   -.111E+02 0.345E+01 -.693E+02   0.108E+02 -.354E+01 0.701E+02   0.158E+01 0.361E+00 -.269E+01   0.168E-04 0.863E-05 -.291E-04
   -.194E+02 -.225E+02 0.152E+02   0.189E+02 0.225E+02 -.153E+02   0.158E+01 0.424E+00 0.270E+00   -.147E-04 -.120E-04 -.219E-04
   -.126E+02 -.216E+01 -.314E+02   0.128E+02 0.205E+01 0.315E+02   -.679E+00 0.923E+00 -.311E+00   0.159E-05 0.122E-04 0.521E-05
   0.270E+01 0.139E+02 0.117E+02   -.246E+01 -.138E+02 -.119E+02   -.929E+00 -.879E+00 0.321E+00   0.855E-05 -.353E-06 0.420E-05
   0.968E+01 0.310E+02 -.726E+01   -.938E+01 -.307E+02 0.762E+01   -.145E+01 -.194E+01 -.134E+01   -.114E-04 -.159E-04 0.105E-04
   0.142E+02 0.803E+01 0.455E+02   -.144E+02 -.827E+01 -.455E+02   0.127E+00 0.959E+00 -.534E+00   0.115E-05 -.112E-04 0.541E-05
   0.101E+02 -.591E+00 0.646E+01   -.102E+02 0.561E+00 -.661E+01   0.219E+00 0.174E+00 0.680E+00   -.120E-04 0.177E-04 0.229E-05
 -----------------------------------------------------------------------------------------------
   0.182E+02 -.133E+02 0.796E+01   -.213E-13 -.585E-13 0.739E-11   -.182E+02 0.133E+02 -.796E+01   -.978E-04 -.110E-04 -.348E-03
 
 
 POSITION                                       TOTAL-FORCE (eV/Angst)
 -----------------------------------------------------------------------------------
      0.10395      1.99376     12.16763         0.048243     -1.652838      0.626511
     -1.67602      4.61406     12.01924         0.629975      1.504411      1.226316
     -3.28542      7.44596     12.21563         0.023415      1.494450     -0.899790
     -4.83533     10.31205     12.12605        -0.109604      0.924503      0.376951
      3.36597      1.87968     12.11842        -0.990587      0.203236      2.274736
      1.55684      4.65052     12.21362         0.389899      0.888540      0.169653
      0.00714      7.66985     12.09898        -0.245999     -0.763623      0.395258
     -1.64568     10.47074     12.06754         0.010171     -0.659493      1.186116
      6.50738      1.89647     12.13307         0.671789      0.286704      1.071679
      4.78510      4.65459     12.07512         0.129923      0.709609      1.140371
      3.24433      7.63800     12.13837        -0.193518     -0.291233      0.073501
      1.66190     10.50226     12.25367         0.349003     -0.320389     -1.100575
      9.90205      1.89409     12.04369        -0.165902      0.054200      0.433680
      8.18391      4.71671     11.99227        -0.095885     -0.242046      1.218287
      6.58388      7.51066     12.03345        -0.236652      0.751724      0.747171
      5.12882     10.48801     12.26381        -1.016063     -0.002575     -1.113987
      1.60938      0.88086     14.84703         0.702562      0.537556     -0.818526
     -0.10947      3.75117     14.80301         1.161314      0.587216     -1.197957
     -1.63159      6.66235     14.68635        -0.047786      0.236231     -0.312439
     -3.28079      9.43876     14.61806         0.224945      0.084312      0.880641
      4.89842      0.85449     14.88503        -0.131801      1.074678     -1.395637
      3.19711      3.81250     14.74633         0.059401     -0.407771     -0.388926
      1.53823      6.70641     14.64234         1.124668     -1.124091      0.689260
      0.04587      9.44339     14.70851        -0.884751      0.304085     -0.087038
      8.22701      0.98217     14.65481        -0.101960      0.761317      0.191385
      6.52236      3.82328     14.63616        -0.315335     -0.723305      0.027232
      5.08872      6.67645     14.57932        -2.067993     -0.647806      0.566099
      3.37583      9.53981     14.67346        -0.141059     -0.766030      0.520861
     11.53399      0.99116     14.65420        -0.257101     -0.012720      0.319896
      9.86172      3.85540     14.70796        -0.803826     -0.953704     -0.867530
      8.27070      6.50232     14.59964        -0.550618      0.933248      0.471306
      6.65128      9.39138     14.75976        -0.045622      0.552857     -0.357950
     -0.10251      1.91883     15.93215         0.096814     -0.040297     -0.038348
     -1.68788      4.85796     15.74288        -0.005273     -0.571840      0.997975
     -3.32812      7.52934     15.87795         0.019952     -0.065153     -0.510661
     -4.84566     10.32287     15.91612        -0.260972      0.102019     -0.150058
      3.24774      1.74527     15.93411         0.068674      0.242316      0.179711
      1.59149      4.55534     15.84451        -0.489174      0.650595      0.522701
     -0.13043      7.52556     16.03085         0.325169      0.223755     -1.056393
     -1.66031     10.46954     15.97215         0.176453     -0.533430     -0.320445
      6.51547      1.99460     15.84551         0.335935     -0.404637     -0.035635
      4.65467      4.82637     15.76460         1.205007      0.499479      0.416643
      3.28509      7.64541     15.87503         0.081494      0.111547     -0.616649
      1.55462     10.45948     15.75369         0.516391      0.252921      0.379317
      9.77142      1.83095     15.88172         0.331533      0.325813     -0.307420
      8.08120      4.70531     15.75875         0.525894      0.347853      0.624068
      6.67643      7.42234     15.76616        -0.346043      0.391484      0.244787
      5.10843     10.59206     15.87190        -0.468965     -0.517906     -0.124069
      1.90066      1.01954     11.03498        -1.228283     -0.556298     -0.561128
      0.00477      3.67017     10.96138        -0.001962      0.570240     -0.299985
     -1.75295      6.70978     11.06395         0.757665     -0.407433     -0.582535
     -3.29152      9.26824     10.97499         0.062382      0.767768     -0.006520
      4.88970      1.09149     11.01215         0.571757     -0.603470     -0.656061
      3.32118      3.68255     10.88567        -0.160954      0.127046      0.299307
      1.62187      6.77776     10.95385        -0.252919     -0.219445      0.152444
      0.18323      9.52761     11.02681        -0.634235     -0.046210     -0.141222
      8.20205      1.09368     10.99807        -0.210259     -0.321460      0.071822
      6.57096      3.74300     10.95509        -0.331853      0.046705     -0.133294
      4.83332      6.75924     11.09139         0.273135     -0.629958     -0.782818
      3.09376      9.46910     11.01742         0.372115      0.068027      0.205886
     11.44191      1.01616     10.80444         0.262796     -0.138842      0.905786
      9.85341      3.90586     10.91004        -0.231408     -0.416685     -0.456267
      8.17402      6.77319     10.86978         0.116557     -0.522506      0.276990
      6.50975      9.47064     10.99076         0.375084      0.098244      0.032801
      0.12445      0.08128     13.47986        -0.865112     -0.844305     -0.659195
     11.41441      2.89006     13.31901         0.857357     -0.247085      0.870784
      9.81475      5.68663     13.38612         0.255064     -0.517308     -0.029662
      8.15867      8.57161     13.42925         0.397610     -0.932610     -0.378039
     -3.20511     11.32660     13.43484        -0.316458     -0.271460     -0.304813
      1.64072      2.75868     13.56830        -0.926157      0.391141     -1.252565
     -0.06374      5.63585     13.44008         0.137950      0.394967     -0.438456
     -1.66230      8.55303     13.41956         0.759255     -0.185882     -0.160609
      6.53001      0.03307     13.36354         0.479939      0.018308      0.604153
      4.78832      2.81374     13.58906         1.275247      0.265262     -1.917364
      3.10177      5.63530     13.32722         1.145955      0.461261      0.171781
      1.66338      8.52322     13.49333        -0.441657      0.814585     -0.247706
      9.94836      0.11999     13.40143        -0.695287     -0.798838      0.162113
      8.29259      3.03532     13.45190        -1.149198     -1.563561     -0.981441
      6.53746      5.62373     13.33210        -0.006348      0.719890     -0.568298
      4.95388      8.56306     13.40507         0.116087      0.144137      0.532036
 -----------------------------------------------------------------------------------
    total drift:                               -0.000590      0.002478     -0.001920


--------------------------------------------------------------------------------------------------------



  FREE ENERGIE OF THE ION-ELECTRON SYSTEM (eV)
  ---------------------------------------------------
  free  energy   TOTEN  =      -595.63714698 eV

  energy  without entropy=     -595.63714698  energy(sigma->0) =     -595.63714698
 


--------------------------------------------------------------------------------------------------------


    POTLOK:  cpu time    0.7803: real time    0.7822


--------------------------------------------------------------------------------------------------------


     LOOP+:  cpu time 1775.2037: real time 1775.6951
    4ORBIT:  cpu time    0.0000: real time    0.0000

 total amount of memory used by VASP MPI-rank0   234726. kBytes
=======================================================================

   base      :      30000. kBytes
   nonlr-proj:      19458. kBytes
   fftplans  :      66973. kBytes
   grid      :      38377. kBytes
   one-center:        108. kBytes
   wavefun   :      79810. kBytes
 
  
  
 General timing and accounting informations for this job:
 ========================================================
  
                  Total CPU time used (sec):     1807.440
                            User time (sec):     1801.099
                          System time (sec):        6.341
                         Elapsed time (sec):     1808.098
  
                   Maximum memory used (kb):      438896.
                   Average memory used (kb):           0.
  
                          Minor page faults:       144055
                          Major page faults:            0
                 Voluntary context switches:         2294
