 running on   52 total cores
 distrk:  each k-point on   52 cores,    1 groups
 distr:  one band on   13 cores,    4 groups
 using from now: INCAR     
 vasp.5.4.4.18Apr17-6-g9f103f2a35 (build Oct 31 2019 15:01:46) complex          
  
 POSCAR found type information on POSCAR  Sc F  C 
 POSCAR found :  3 types and      80 ions
 scaLAPACK is switched off
 LDA part: xc-table for Pade appr. of Perdew
 generate k-points for:    3    3    1
 POSCAR, INCAR and KPOINTS ok, starting setup
 FFT: planning ...
 WAVECAR not read
 entering main loop
       N       E                     dE             d eps       ncg     rms          rms(c)
DAV:   1     0.136598555494E+05    0.13660E+05   -0.27890E+05  4240   0.156E+03
DAV:   2     0.249344751216E+04   -0.11166E+05   -0.10867E+05  4632   0.532E+02
DAV:   3    -0.379924561652E+03   -0.28734E+04   -0.27578E+04  6800   0.295E+02
DAV:   4    -0.737497858311E+03   -0.35757E+03   -0.35335E+03  6056   0.139E+02
DAV:   5    -0.751962102394E+03   -0.14464E+02   -0.14401E+02  6080   0.352E+01    0.777E+01
DAV:   6    -0.596089298008E+03    0.15587E+03   -0.84313E+02  5792   0.646E+01    0.256E+01
DAV:   7    -0.595983246706E+03    0.10605E+00   -0.55294E+01  5920   0.217E+01    0.168E+01
DAV:   8    -0.594360649443E+03    0.16226E+01   -0.10353E+01  5504   0.825E+00    0.445E+00
DAV:   9    -0.593859277818E+03    0.50137E+00   -0.26556E+00  5552   0.514E+00    0.221E+00
DAV:  10    -0.593820076440E+03    0.39201E-01   -0.28854E-01  5952   0.173E+00    0.119E+00
DAV:  11    -0.593696526538E+03    0.12355E+00   -0.15393E-01  5488   0.105E+00    0.752E-01
DAV:  12    -0.593664041700E+03    0.32485E-01   -0.52825E-02  5920   0.580E-01    0.332E-01
DAV:  13    -0.593654465626E+03    0.95761E-02   -0.33506E-02  6032   0.433E-01    0.286E-01
DAV:  14    -0.593651101224E+03    0.33644E-02   -0.12386E-02  5808   0.262E-01    0.145E-01
DAV:  15    -0.593657234853E+03   -0.61336E-02   -0.89279E-03  5680   0.193E-01    0.107E-01
DAV:  16    -0.593660612696E+03   -0.33778E-02   -0.18788E-03  5744   0.127E-01    0.779E-02
DAV:  17    -0.593666562567E+03   -0.59499E-02   -0.23253E-03  5864   0.104E-01    0.848E-02
DAV:  18    -0.593669247890E+03   -0.26853E-02   -0.75281E-04  5320   0.740E-02    0.522E-02
DAV:  19    -0.593670874371E+03   -0.16265E-02   -0.48558E-04  5536   0.487E-02    0.228E-02
DAV:  20    -0.593673766141E+03   -0.28918E-02   -0.13189E-04  5240   0.238E-02    0.232E-02
DAV:  21    -0.593676469627E+03   -0.27035E-02   -0.13109E-04  4544   0.184E-02    0.139E-02
DAV:  22    -0.593677724899E+03   -0.12553E-02   -0.11551E-04  4680   0.151E-02    0.823E-03
DAV:  23    -0.593678237416E+03   -0.51252E-03   -0.18621E-05  4680   0.106E-02    0.410E-03
DAV:  24    -0.593678592855E+03   -0.35544E-03   -0.14489E-05  4440   0.583E-03    0.363E-03
DAV:  25    -0.593678780572E+03   -0.18772E-03   -0.68652E-06  4248   0.490E-03    0.179E-03
DAV:  26    -0.593678854414E+03   -0.73842E-04   -0.12149E-06  3096   0.250E-03    0.188E-03
DAV:  27    -0.593678885080E+03   -0.30666E-04   -0.46533E-07  2664   0.230E-03    0.136E-03
DAV:  28    -0.593678910524E+03   -0.25444E-04   -0.65553E-07  2896   0.189E-03    0.759E-04
DAV:  29    -0.593678919060E+03   -0.85351E-05   -0.44340E-07  2640   0.198E-03    0.693E-04
DAV:  30    -0.593678922243E+03   -0.31838E-05   -0.29811E-07  2544   0.149E-03    0.772E-04
DAV:  31    -0.593678924262E+03   -0.20182E-05   -0.16550E-07  2616   0.125E-03    0.599E-04
DAV:  32    -0.593678925581E+03   -0.13193E-05   -0.10897E-07  2536   0.859E-04    0.538E-04
DAV:  33    -0.593678926145E+03   -0.56405E-06   -0.72678E-08  2520   0.759E-04
   1 F= -.59367893E+03 E0= -.59367893E+03  d E =-.571972E-14
