 running on   52 total cores
 distrk:  each k-point on   52 cores,    1 groups
 distr:  one band on   13 cores,    4 groups
 using from now: INCAR     
 vasp.5.4.4.18Apr17-6-g9f103f2a35 (build Oct 31 2019 15:01:46) complex          
  
 POSCAR found type information on POSCAR  Sc Cl C 
 POSCAR found :  3 types and      80 ions
 scaLAPACK is switched off
 LDA part: xc-table for Pade appr. of Perdew
 generate k-points for:    3    3    1
 POSCAR, INCAR and KPOINTS ok, starting setup
 FFT: planning ...
 WAVECAR not read
 entering main loop
       N       E                     dE             d eps       ncg     rms          rms(c)
DAV:   1     0.122213560541E+05    0.12221E+05   -0.26804E+05  4432   0.152E+03
DAV:   2     0.175014567736E+04   -0.10471E+05   -0.10201E+05  5216   0.523E+02
DAV:   3    -0.402741325123E+03   -0.21529E+04   -0.20651E+04  6800   0.283E+02
DAV:   4    -0.643736654784E+03   -0.24100E+03   -0.23636E+03  6080   0.998E+01
DAV:   5    -0.654456701339E+03   -0.10720E+02   -0.10662E+02  6080   0.283E+01    0.700E+01
DAV:   6    -0.523810682050E+03    0.13065E+03   -0.69676E+02  5848   0.498E+01    0.303E+01
DAV:   7    -0.528759217041E+03   -0.49485E+01   -0.87500E+01  5928   0.228E+01    0.153E+01
DAV:   8    -0.526514956521E+03    0.22443E+01   -0.97452E+00  5840   0.734E+00    0.932E+00
DAV:   9    -0.525988818340E+03    0.52614E+00   -0.36017E+00  5376   0.389E+00    0.294E+00
DAV:  10    -0.525867725497E+03    0.12109E+00   -0.56506E-01  5736   0.207E+00    0.169E+00
DAV:  11    -0.525846708193E+03    0.21017E-01   -0.18951E-01  5632   0.862E-01    0.745E-01
DAV:  12    -0.525833071448E+03    0.13637E-01   -0.32405E-02  6168   0.505E-01    0.293E-01
DAV:  13    -0.525830774732E+03    0.22967E-02   -0.74269E-03  5352   0.248E-01    0.176E-01
DAV:  14    -0.525829054517E+03    0.17202E-02   -0.67255E-03  5272   0.147E-01    0.168E-01
DAV:  15    -0.525830790161E+03   -0.17356E-02   -0.17678E-03  5528   0.871E-02    0.983E-02
DAV:  16    -0.525833053938E+03   -0.22638E-02   -0.10331E-03  5880   0.529E-02    0.539E-02
DAV:  17    -0.525836713719E+03   -0.36598E-02   -0.61503E-04  4880   0.518E-02    0.302E-02
DAV:  18    -0.525838582668E+03   -0.18689E-02   -0.21348E-04  4712   0.251E-02    0.236E-02
DAV:  19    -0.525839814126E+03   -0.12315E-02   -0.10731E-04  5056   0.173E-02    0.151E-02
DAV:  20    -0.525840897453E+03   -0.10833E-02   -0.38851E-05  4360   0.127E-02    0.108E-02
DAV:  21    -0.525841314400E+03   -0.41695E-03   -0.17603E-05  4280   0.770E-03    0.749E-03
DAV:  22    -0.525841690268E+03   -0.37587E-03   -0.42518E-06  3808   0.495E-03    0.483E-03
DAV:  23    -0.525842298406E+03   -0.60814E-03   -0.17170E-05  3576   0.504E-03    0.350E-03
DAV:  24    -0.525842448834E+03   -0.15043E-03   -0.35007E-06  3800   0.330E-03    0.331E-03
DAV:  25    -0.525842524419E+03   -0.75585E-04   -0.13041E-06  3000   0.223E-03    0.195E-03
DAV:  26    -0.525842609353E+03   -0.84934E-04   -0.27524E-06  3304   0.231E-03    0.236E-03
DAV:  27    -0.525842624395E+03   -0.15042E-04   -0.25530E-07  2648   0.172E-03    0.167E-03
DAV:  28    -0.525842635120E+03   -0.10725E-04   -0.27471E-07  2656   0.133E-03    0.725E-04
DAV:  29    -0.525842643858E+03   -0.87376E-05   -0.25592E-07  2624   0.130E-03    0.447E-04
DAV:  30    -0.525842655143E+03   -0.11285E-04   -0.36462E-07  2688   0.129E-03    0.590E-04
DAV:  31    -0.525842659846E+03   -0.47028E-05   -0.22304E-07  2632   0.121E-03    0.305E-04
DAV:  32    -0.525842661470E+03   -0.16244E-05   -0.14795E-07  2400   0.831E-04    0.263E-04
DAV:  33    -0.525842662158E+03   -0.68790E-06   -0.94274E-08  2416   0.823E-04
   1 F= -.52584266E+03 E0= -.52584266E+03  d E =-.121418E-19
