 running on   52 total cores
 distrk:  each k-point on   52 cores,    1 groups
 distr:  one band on   13 cores,    4 groups
 using from now: INCAR     
 vasp.5.4.4.18Apr17-6-g9f103f2a35 (build Oct 31 2019 15:01:46) complex          
  
 POSCAR found type information on POSCAR  Sc Cl C 
 POSCAR found :  3 types and      80 ions
 scaLAPACK is switched off
 LDA part: xc-table for Pade appr. of Perdew
 generate k-points for:    3    3    1
 POSCAR, INCAR and KPOINTS ok, starting setup
 FFT: planning ...
 WAVECAR not read
 entering main loop
       N       E                     dE             d eps       ncg     rms          rms(c)
DAV:   1     0.122120723330E+05    0.12212E+05   -0.26778E+05  4424   0.152E+03
DAV:   2     0.174163780602E+04   -0.10470E+05   -0.10207E+05  5224   0.523E+02
DAV:   3    -0.404083122632E+03   -0.21457E+04   -0.20598E+04  6800   0.284E+02
DAV:   4    -0.641893192210E+03   -0.23781E+03   -0.23341E+03  6088   0.994E+01
DAV:   5    -0.652410439822E+03   -0.10517E+02   -0.10460E+02  6080   0.281E+01    0.696E+01
DAV:   6    -0.521361638316E+03    0.13105E+03   -0.69769E+02  5856   0.501E+01    0.309E+01
DAV:   7    -0.526649213050E+03   -0.52876E+01   -0.93245E+01  5880   0.235E+01    0.155E+01
DAV:   8    -0.524268218860E+03    0.23810E+01   -0.10328E+01  5744   0.781E+00    0.957E+00
DAV:   9    -0.523735417831E+03    0.53280E+00   -0.42109E+00  5360   0.412E+00    0.307E+00
DAV:  10    -0.523583084865E+03    0.15233E+00   -0.62224E-01  5632   0.220E+00    0.175E+00
DAV:  11    -0.523561519265E+03    0.21566E-01   -0.29042E-01  5672   0.993E-01    0.789E-01
DAV:  12    -0.523546762186E+03    0.14757E-01   -0.45708E-02  6128   0.577E-01    0.323E-01
DAV:  13    -0.523543830809E+03    0.29314E-02   -0.12270E-02  5528   0.296E-01    0.206E-01
DAV:  14    -0.523541895869E+03    0.19349E-02   -0.59849E-03  5488   0.169E-01    0.175E-01
DAV:  15    -0.523543165039E+03   -0.12692E-02   -0.29343E-03  5456   0.108E-01    0.109E-01
DAV:  16    -0.523544782329E+03   -0.16173E-02   -0.12885E-03  5968   0.709E-02    0.636E-02
DAV:  17    -0.523547389752E+03   -0.26074E-02   -0.94309E-04  5504   0.609E-02    0.422E-02
DAV:  18    -0.523550452711E+03   -0.30630E-02   -0.34779E-04  4928   0.366E-02    0.262E-02
DAV:  19    -0.523551570261E+03   -0.11176E-02   -0.16035E-04  4904   0.203E-02    0.166E-02
DAV:  20    -0.523552926760E+03   -0.13565E-02   -0.77632E-05  4296   0.134E-02    0.999E-03
DAV:  21    -0.523553464995E+03   -0.53823E-03   -0.23272E-05  4440   0.881E-03    0.800E-03
DAV:  22    -0.523553734344E+03   -0.26935E-03   -0.59143E-06  3816   0.455E-03    0.603E-03
DAV:  23    -0.523554300950E+03   -0.56661E-03   -0.10061E-05  3744   0.504E-03    0.401E-03
DAV:  24    -0.523554627812E+03   -0.32686E-03   -0.97421E-06  3408   0.392E-03    0.386E-03
DAV:  25    -0.523554709424E+03   -0.81611E-04   -0.15506E-06  3216   0.268E-03    0.256E-03
DAV:  26    -0.523554814954E+03   -0.10553E-03   -0.43479E-06  3536   0.292E-03    0.246E-03
DAV:  27    -0.523554838381E+03   -0.23426E-04   -0.36885E-07  2776   0.202E-03    0.201E-03
DAV:  28    -0.523554844922E+03   -0.65410E-05   -0.27320E-07  2520   0.161E-03    0.129E-03
DAV:  29    -0.523554854694E+03   -0.97719E-05   -0.30384E-07  2600   0.128E-03    0.679E-04
DAV:  30    -0.523554866996E+03   -0.12302E-04   -0.41780E-07  2752   0.157E-03    0.533E-04
DAV:  31    -0.523554873636E+03   -0.66403E-05   -0.30380E-07  2640   0.133E-03    0.421E-04
DAV:  32    -0.523554876152E+03   -0.25157E-05   -0.19252E-07  2424   0.114E-03    0.333E-04
DAV:  33    -0.523554876901E+03   -0.74930E-06   -0.12100E-07  2400   0.875E-04
   1 F= -.52355488E+03 E0= -.52355488E+03  d E =-.343542E-25
