 vasp.5.4.4.18Apr17-6-g9f103f2a35 (build Oct 31 2019 15:01:46) complex          
  
 executed on             LinuxIFC date 2024.04.30  11:32:33
 running on   52 total cores
 distrk:  each k-point on   52 cores,    1 groups
 distr:  one band on NCORES_PER_BAND=  13 cores,    4 groups


--------------------------------------------------------------------------------------------------------


 INCAR:
 POTCAR:    PAW_PBE Sc_sv 07Sep2000               
 POTCAR:    PAW_PBE Cl 06Sep2000                  
 POTCAR:    PAW_PBE C 08Apr2002                   
 POTCAR:    PAW_PBE Sc_sv 07Sep2000               
   VRHFIN =Sc: 3p4s3d                                                           
   LEXCH  = PE                                                                  
   EATOM  =  1273.2868 eV,   93.5839 Ry                                         
                                                                                
   TITEL  = PAW_PBE Sc_sv 07Sep2000                                             
   LULTRA =        F    use ultrasoft PP ?                                      
   IUNSCR =        1    unscreen: 0-lin 1-nonlin 2-no                           
   RPACOR =    2.200    partial core radius                                     
   POMASS =   44.956; ZVAL   =   11.000    mass and valenz                      
   RCORE  =    2.500    outmost cutoff radius                                   
   RWIGS  =    2.700; RWIGS  =    1.429    wigner-seitz radius (au A)           
   ENMAX  =  222.660; ENMIN  =  166.995 eV                                      
   RCLOC  =    1.805    cutoff for local pot                                    
   LCOR   =        T    correct aug charges                                     
   LPAW   =        T    paw PP                                                  
   EAUG   =  443.063                                                            
   RMAX   =    2.551    core radius for proj-oper                               
   RAUG   =    1.300    factor for augmentation sphere                          
   RDEP   =    2.650    radius for radial grids                                 
   RDEPT  =    2.038    core radius for aug-charge                              
                                                                                
   Atomic configuration                                                         
    8 entries                                                                   
     n  l   j            E        occ.                                          
     1  0  0.50     -4394.2533   2.0000                                         
     2  0  0.50      -471.0040   2.0000                                         
     2  1  1.50      -384.9788   6.0000                                         
     3  0  0.50       -52.1410   2.0000                                         
     4  0  0.50        -3.5584   1.0000                                         
     3  1  1.50       -30.8841   6.0000                                         
     3  2  2.50        -1.3655   2.0000                                         
     4  3  2.50        -1.3606   0.0000                                         
   Description                                                                  
     l       E           TYP  RCUT    TYP  RCUT                                 
     0    -52.1409870     23  1.800                                             
     0     -3.5583698     23  2.500                                             
     1    -30.8840697     23  2.300                                             
     1      4.0817478     23  2.300                                             
     2     -1.3655397     23  2.500                                             
     2      0.3564476     23  2.500                                             
  local pseudopotential read in
  partial core-charges read in
  partial kinetic energy density read in
  atomic valenz-charges read in
  non local Contribution for L=           0  read in
    real space projection operators read in
  non local Contribution for L=           0  read in
    real space projection operators read in
  non local Contribution for L=           1  read in
    real space projection operators read in
  non local Contribution for L=           1  read in
    real space projection operators read in
  non local Contribution for L=           2  read in
    real space projection operators read in
  non local Contribution for L=           2  read in
    real space projection operators read in
    PAW grid and wavefunctions read in
 
   number of l-projection  operators is LMAX  =           6
   number of lm-projection operators is LMMAX =          18
 
 POTCAR:    PAW_PBE Cl 06Sep2000                  
   VRHFIN =Cl: s2p5                                                             
   LEXCH  = PE                                                                  
   EATOM  =   409.7259 eV,   30.1140 Ry                                         
                                                                                
   TITEL  = PAW_PBE Cl 06Sep2000                                                
   LULTRA =        F    use ultrasoft PP ?                                      
   IUNSCR =        1    unscreen: 0-lin 1-nonlin 2-no                           
   RPACOR =    1.500    partial core radius                                     
   POMASS =   35.453; ZVAL   =    7.000    mass and valenz                      
   RCORE  =    1.900    outmost cutoff radius                                   
   RWIGS  =    2.100; RWIGS  =    1.111    wigner-seitz radius (au A)           
   ENMAX  =  262.472; ENMIN  =  196.854 eV                                      
   ICORE  =        2    local potential                                         
   LCOR   =        T    correct aug charges                                     
   LPAW   =        T    paw PP                                                  
   EAUG   =  356.192                                                            
   DEXC   =    0.000                                                            
   RMAX   =    1.945    core radius for proj-oper                               
   RAUG   =    1.300    factor for augmentation sphere                          
   RDEP   =    2.020    radius for radial grids                                 
   RDEPT  =    1.678    core radius for aug-charge                              
                                                                                
   Atomic configuration                                                         
    6 entries                                                                   
     n  l   j            E        occ.                                          
     1  0  0.50     -2751.1850   2.0000                                         
     2  0  0.50      -252.6861   2.0000                                         
     2  1  1.50      -191.6157   6.0000                                         
     3  0  0.50       -20.6916   2.0000                                         
     3  1  0.50        -8.5949   5.0000                                         
     3  2  1.50        -8.1635   0.0000                                         
   Description                                                                  
     l       E           TYP  RCUT    TYP  RCUT                                 
     0    -20.6915656     23  1.900                                             
     0    -22.0521482     23  1.900                                             
     1     -8.5948577     23  1.900                                             
     1     -5.3847331     23  1.900                                             
     2     -8.1634956     23  1.900                                             
  local pseudopotential read in
  partial core-charges read in
  partial kinetic energy density read in
  atomic valenz-charges read in
  non local Contribution for L=           0  read in
    real space projection operators read in
  non local Contribution for L=           0  read in
    real space projection operators read in
  non local Contribution for L=           1  read in
    real space projection operators read in
  non local Contribution for L=           1  read in
    real space projection operators read in
    PAW grid and wavefunctions read in
 
   number of l-projection  operators is LMAX  =           4
   number of lm-projection operators is LMMAX =           8
 
 POTCAR:    PAW_PBE C 08Apr2002                   
   VRHFIN =C: s2p2                                                              
   LEXCH  = PE                                                                  
   EATOM  =   147.1560 eV,   10.8157 Ry                                         
                                                                                
   TITEL  = PAW_PBE C 08Apr2002                                                 
   LULTRA =        F    use ultrasoft PP ?                                      
   IUNSCR =        1    unscreen: 0-lin 1-nonlin 2-no                           
   RPACOR =    1.200    partial core radius                                     
   POMASS =   12.011; ZVAL   =    4.000    mass and valenz                      
   RCORE  =    1.500    outmost cutoff radius                                   
   RWIGS  =    1.630; RWIGS  =    0.863    wigner-seitz radius (au A)           
   ENMAX  =  400.000; ENMIN  =  300.000 eV                                      
   ICORE  =        2    local potential                                         
   LCOR   =        T    correct aug charges                                     
   LPAW   =        T    paw PP                                                  
   EAUG   =  644.873                                                            
   DEXC   =    0.000                                                            
   RMAX   =    1.529    core radius for proj-oper                               
   RAUG   =    1.300    factor for augmentation sphere                          
   RDEP   =    1.501    radius for radial grids                                 
   RDEPT  =    1.300    core radius for aug-charge                              
                                                                                
   Atomic configuration                                                         
    4 entries                                                                   
     n  l   j            E        occ.                                          
     1  0  0.50      -273.3789   2.0000                                         
     2  0  0.50       -13.7508   2.0000                                         
     2  1  0.50        -5.2854   2.0000                                         
     3  2  1.50        -5.4423   0.0000                                         
   Description                                                                  
     l       E           TYP  RCUT    TYP  RCUT                                 
     0    -13.7508458     23  1.200                                             
     0     -8.2022199     23  1.200                                             
     1     -5.2854383     23  1.500                                             
     1     34.0145650     23  1.500                                             
     2     -5.4423304      7  1.500                                             
  local pseudopotential read in
  partial core-charges read in
  partial kinetic energy density read in
  atomic valenz-charges read in
  non local Contribution for L=           0  read in
    real space projection operators read in
  non local Contribution for L=           0  read in
    real space projection operators read in
  non local Contribution for L=           1  read in
    real space projection operators read in
  non local Contribution for L=           1  read in
    real space projection operators read in
    PAW grid and wavefunctions read in
 
   number of l-projection  operators is LMAX  =           4
   number of lm-projection operators is LMMAX =           8
 
 Optimization of the real space projectors (new method)

 maximal supplied QI-value         = 15.12
 optimisation between [QCUT,QGAM] = [ 12.55, 25.10] = [ 44.09,176.36] Ry 
 Optimized for a Real-space Cutoff    1.56 Angstroem

   l    n(q)    QCUT    max X(q) W(low)/X(q) W(high)/X(q)  e(spline) 
   0     12    12.548     2.962    0.12E-05    0.11E-06    0.46E-07
   0     12    12.548    26.414    0.30E-04    0.15E-05    0.76E-07
   1     11    12.548     3.969    0.45E-05    0.12E-05    0.60E-07
   1     11    12.548     5.137    0.15E-04    0.18E-04    0.36E-06
   2     11    12.548   143.970    0.20E-03    0.19E-03    0.76E-06
   2     11    12.548   121.201    0.20E-03    0.19E-03    0.76E-06
 Optimization of the real space projectors (new method)

 maximal supplied QI-value         = 19.84
 optimisation between [QCUT,QGAM] = [ 12.50, 25.00] = [ 43.76,175.03] Ry 
 Optimized for a Real-space Cutoff    1.20 Angstroem

   l    n(q)    QCUT    max X(q) W(low)/X(q) W(high)/X(q)  e(spline) 
   0      9    12.501   168.010    0.44E-04    0.61E-04    0.77E-07
   0      9    12.501   164.674    0.43E-04    0.60E-04    0.75E-07
   1      8    12.501    69.222    0.11E-03    0.13E-03    0.91E-07
   1      8    12.501    56.786    0.11E-03    0.13E-03    0.90E-07
 Optimization of the real space projectors (new method)

 maximal supplied QI-value         = 25.13
 optimisation between [QCUT,QGAM] = [ 12.32, 24.88] = [ 42.47,173.37] Ry 
 Optimized for a Real-space Cutoff    1.16 Angstroem

   l    n(q)    QCUT    max X(q) W(low)/X(q) W(high)/X(q)  e(spline) 
   0      9    12.315   115.676    0.19E-03    0.80E-05    0.34E-06
   0      9    12.315    87.132    0.19E-03    0.82E-05    0.34E-06
   1      8    12.315     4.429    0.18E-03    0.13E-03    0.22E-06
   1      8    12.315     2.733    0.14E-03    0.10E-03    0.18E-06
  PAW_PBE Sc_sv 07Sep2000               :
 energy of atom  1       EATOM=-1273.2868
 kinetic energy error for atom=    0.0014 (will be added to EATOM!!)
  PAW_PBE Cl 06Sep2000                  :
 energy of atom  2       EATOM= -409.7259
 kinetic energy error for atom=    0.0013 (will be added to EATOM!!)
  PAW_PBE C 08Apr2002                   :
 energy of atom  3       EATOM= -147.1560
 kinetic energy error for atom=    0.0057 (will be added to EATOM!!)
 
 
 POSCAR: Sc Cl  C                                
  positions in cartesian coordinates
  No initial velocities read in
 exchange correlation table for  LEXCH =        8
   RHO(1)=    0.500       N(1)  =     2000
   RHO(2)=  100.500       N(2)  =     4000
 


--------------------------------------------------------------------------------------------------------


 ion  position               nearest neighbor table
   1  0.089  0.177  0.550-  66 2.27  70 2.52  61 2.53  65 2.54  49 2.61  50 2.63  18 3.25  17 3.36
                            13 3.38  29 3.41   2 3.42
   2  0.087  0.423  0.550-  67 2.36  51 2.36  66 2.41  62 2.44  71 2.47  50 2.71  30 3.27   3 3.31
                             7 3.34  19 3.39   1 3.42
   3  0.073  0.656  0.549-  67 2.25  51 2.45  68 2.49  52 2.54  72 2.57  63 2.59  20 3.23   2 3.31
                            19 3.34  31 3.35  14 3.42  15 3.43
   4  0.078  0.911  0.544-  68 2.28  65 2.49  69 2.52  64 2.52  49 2.58  52 2.67  20 3.02  32 3.08
                            17 3.40   8 3.43
   5  0.340  0.165  0.544-  69 2.19  74 2.26  70 2.41  54 2.54  53 2.60  49 2.74  22 3.02  21 3.18
                            17 3.34
   6  0.339  0.425  0.546-  71 2.32  70 2.33  75 2.40  55 2.56  54 2.60  50 2.60  18 3.20  23 3.25
                            22 3.26   7 3.30  11 3.40
   7  0.333  0.661  0.549-  76 2.27  71 2.33  56 2.53  72 2.54  55 2.64  51 2.76  24 3.17  19 3.25
                            23 3.27   6 3.30   2 3.34  12 3.34  11 3.38
   8  0.325  0.908  0.547-  72 2.19  52 2.49  69 2.53  73 2.54  56 2.60  53 2.66  20 3.09  24 3.22
                            21 3.25   4 3.43
   9  0.591  0.167  0.543-  78 2.14  74 2.26  73 2.47  58 2.52  57 2.70  53 2.70  21 3.12  25 3.18
                            26 3.20  14 3.27
  10  0.593  0.429  0.546-  79 2.28  75 2.39  54 2.44  74 2.46  59 2.48  58 2.69  26 3.10  27 3.17
                            15 3.23  22 3.26  14 3.35
  11  0.583  0.673  0.541-  75 2.25  80 2.31  76 2.36  55 2.56  59 2.60  60 2.75  27 3.08  23 3.11
                            28 3.19  12 3.27   7 3.38  16 3.39   6 3.40
  12  0.573  0.905  0.548-  73 2.31  76 2.42  60 2.62  77 2.62  56 2.62  57 2.63  24 3.22  25 3.24
                            11 3.27   7 3.34  28 3.40
  13  0.839  0.164  0.542-  66 2.23  77 2.24  78 2.49  62 2.55  57 2.75  61 2.83  30 3.05  29 3.07
                            25 3.16  16 3.35   1 3.38
  14  0.825  0.408  0.545-  78 2.05  79 2.31  58 2.47  67 2.48  63 2.60  62 2.76  26 3.06  30 3.07
                            31 3.25   9 3.27  10 3.35   3 3.42
  15  0.828  0.663  0.546-  79 2.26  80 2.36  64 2.49  68 2.50  59 2.56  63 2.64  10 3.23  31 3.25
                            27 3.27  32 3.28   3 3.43
  16  0.830  0.917  0.544-  77 2.27  65 2.40  80 2.45  61 2.48  60 2.56  64 2.62  28 3.18  32 3.23
                            29 3.28  13 3.35  11 3.39
  17  0.165  0.094  0.451-  65 2.37  69 2.42  70 2.45  36 2.51  37 2.54  33 2.66  18 3.17  22 3.29
                             5 3.34   1 3.36   4 3.40  29 3.40  32 3.42
  18  0.179  0.331  0.454-  70 2.23  38 2.41  71 2.41  66 2.52  34 2.60  33 2.66  17 3.17   6 3.20
                             1 3.25  22 3.30
  19  0.177  0.595  0.453-  72 2.37  39 2.38  71 2.42  67 2.45  34 2.64  35 2.70  24 3.12   7 3.25
                             3 3.34   2 3.39  20 3.39  23 3.41
  20  0.161  0.832  0.461-  68 2.13  72 2.25  69 2.44  35 2.73  40 2.73  36 2.88   4 3.02   8 3.09
                             3 3.23  32 3.31  19 3.39
  21  0.426  0.080  0.456-  73 2.32  69 2.33  74 2.41  40 2.45  41 2.57  37 2.85   9 3.12   5 3.18
                             8 3.25  25 3.37  22 3.41
  22  0.413  0.320  0.458-  70 2.13  74 2.36  75 2.56  42 2.62  37 2.68  38 2.69   5 3.02   6 3.26
                            10 3.26  17 3.29  18 3.30  26 3.37  21 3.41
  23  0.423  0.590  0.453-  76 2.18  75 2.33  71 2.36  38 2.63  39 2.67  43 2.67  11 3.11   6 3.25
                            27 3.26   7 3.27  24 3.28  19 3.41
  24  0.406  0.819  0.457-  76 2.17  72 2.18  73 2.33  39 2.46  40 2.77  44 2.99  19 3.12   7 3.17
                             8 3.22  12 3.22  23 3.28
  25  0.666  0.071  0.456-  73 2.26  77 2.27  44 2.33  45 2.60  41 2.64  78 2.69  13 3.16   9 3.18
                            12 3.24  28 3.31  29 3.33  21 3.37
  26  0.669  0.346  0.458-  79 2.25  78 2.34  74 2.36  42 2.58  46 2.63  41 2.74  14 3.06  10 3.10
                            31 3.20   9 3.20  22 3.37  27 3.40
  27  0.656  0.586  0.454-  75 2.17  80 2.24  79 2.54  42 2.67  43 2.69  47 2.71  11 3.08  10 3.17
                            23 3.26  15 3.27  28 3.33  26 3.40
  28  0.678  0.837  0.451-  80 2.33  77 2.41  48 2.46  43 2.64  44 2.68  76 2.68  16 3.18  11 3.19
                            25 3.31  27 3.33  29 3.39  12 3.40  32 3.40
  29  0.916  0.090  0.453-  77 2.26  65 2.31  66 2.42  33 2.49  45 2.58  48 2.79  13 3.07  16 3.28
                            25 3.33  30 3.38  28 3.39  17 3.40   1 3.41
  30  0.911  0.332  0.459-  78 2.36  67 2.37  45 2.44  66 2.44  34 2.62  46 2.78  13 3.05  14 3.07
                             2 3.27  29 3.38  31 3.41
  31  0.904  0.575  0.453-  79 2.25  67 2.48  68 2.48  46 2.49  47 2.50  35 2.88  26 3.20  15 3.25
                            14 3.25   3 3.35  30 3.41
  32  0.925  0.838  0.455-  68 2.26  65 2.31  80 2.43  36 2.55  47 2.77  48 2.87   4 3.08  16 3.23
                            15 3.28  20 3.31  28 3.40  17 3.42
  33  0.067  0.169  0.391-  29 2.49  17 2.66  18 2.66
  34  0.083  0.411  0.400-  18 2.60  30 2.62  19 2.64
  35  0.093  0.679  0.388-  19 2.70  20 2.73  31 2.88
  36  0.080  0.932  0.393-  17 2.51  32 2.55  20 2.88
  37  0.324  0.160  0.391-  17 2.54  22 2.68  21 2.85
  38  0.330  0.413  0.397-  18 2.41  23 2.63  22 2.69
  39  0.325  0.671  0.396-  19 2.38  24 2.46  23 2.67
  40  0.334  0.930  0.397-  21 2.45  20 2.73  24 2.77
  41  0.589  0.167  0.396-  21 2.57  25 2.64  26 2.74
  42  0.575  0.411  0.395-  26 2.58  22 2.62  27 2.67
  43  0.584  0.675  0.387-  28 2.64  23 2.67  27 2.69
  44  0.604  0.942  0.393-  25 2.33  28 2.68  24 2.99
  45  0.835  0.185  0.399-  30 2.44  29 2.58  25 2.60
  46  0.828  0.421  0.392-  31 2.49  26 2.63  30 2.78
  47  0.831  0.658  0.393-  31 2.50  27 2.71  32 2.77
  48  0.820  0.914  0.387-  28 2.46  29 2.79  32 2.87
  49  0.161  0.073  0.606-   4 2.58   1 2.61   5 2.74
  50  0.183  0.345  0.611-   6 2.60   1 2.63   2 2.71
  51  0.144  0.571  0.606-   2 2.36   3 2.45   7 2.76
  52  0.165  0.825  0.604-   8 2.49   3 2.54   4 2.67
  53  0.419  0.082  0.606-   5 2.60   8 2.66   9 2.70
  54  0.431  0.336  0.598-  10 2.44   5 2.54   6 2.60
  55  0.433  0.586  0.606-   6 2.56  11 2.56   7 2.64
  56  0.404  0.822  0.608-   7 2.53   8 2.60  12 2.62
  57  0.667  0.075  0.608-  12 2.63   9 2.70  13 2.75
  58  0.669  0.325  0.603-  14 2.47   9 2.52  10 2.69
  59  0.661  0.588  0.603-  10 2.48  15 2.56  11 2.60
  60  0.676  0.842  0.608-  16 2.56  12 2.62  11 2.75
  61  0.924  0.066  0.606-  16 2.48   1 2.53  13 2.83
  62  0.926  0.323  0.603-   2 2.44  13 2.55  14 2.76
  63  0.903  0.571  0.607-   3 2.59  14 2.60  15 2.64
  64  0.914  0.826  0.602-  15 2.49   4 2.52  16 2.62
  65  0.997  0.006  0.496-  29 2.31  32 2.31  17 2.37  16 2.40   4 2.49   1 2.54
  66  0.005  0.251  0.505-  13 2.23   1 2.27   2 2.41  29 2.42  30 2.44  18 2.52
  67  0.006  0.504  0.501-   3 2.25   2 2.36  30 2.37  19 2.45  31 2.48  14 2.48
  68  0.003  0.755  0.497-  20 2.13  32 2.26   4 2.28  31 2.48   3 2.49  15 2.50
  69  0.258  0.017  0.498-   5 2.19  21 2.33  17 2.42  20 2.44   4 2.52   8 2.53
  70  0.264  0.263  0.500-  22 2.13  18 2.23   6 2.33   5 2.41  17 2.45   1 2.52
  71  0.257  0.503  0.499-   6 2.32   7 2.33  23 2.36  18 2.41  19 2.42   2 2.47
  72  0.254  0.761  0.500-  24 2.18   8 2.19  20 2.25  19 2.37   7 2.54   3 2.57
  73  0.504  0.989  0.498-  25 2.26  12 2.31  21 2.32  24 2.33   9 2.47   8 2.54
  74  0.505  0.247  0.504-   9 2.26   5 2.26  22 2.36  26 2.36  21 2.41  10 2.46
  75  0.507  0.512  0.499-  27 2.17  11 2.25  23 2.33  10 2.39   6 2.40  22 2.56
  76  0.481  0.740  0.498-  24 2.17  23 2.18   7 2.27  11 2.36  12 2.42  28 2.68
  77  0.761  0.005  0.499-  13 2.24  29 2.26  16 2.27  25 2.27  28 2.41  12 2.62
  78  0.747  0.263  0.506-  14 2.05   9 2.14  26 2.34  30 2.36  13 2.49  25 2.69
  79  0.755  0.504  0.502-  26 2.25  31 2.25  15 2.26  10 2.28  14 2.31  27 2.54
  80  0.747  0.744  0.497-  27 2.24  11 2.31  28 2.33  15 2.36  32 2.43  16 2.45
 
  LATTYP: Found a hexagonal cell.
 ALAT       =    13.7939866762
 C/A-ratio  =     2.0161119278
  
  Lattice vectors:
  
 A1 = (  13.7939866800,   0.0000000000,   0.0000000000)
 A2 = (  -6.8969933400,  11.9459428800,   0.0000000000)
 A3 = (   0.0000000000,   0.0000000000,  27.8102210700)


Analysis of symmetry for initial positions (statically):
=====================================================================
 Subroutine PRICEL returns:
 Original cell was already a primitive cell.
 

 Routine SETGRP: Setting up the symmetry group for a 
 hexagonal supercell.


 Subroutine GETGRP returns: Found  1 space group operations
 (whereof  1 operations were pure point group operations)
 out of a pool of 24 trial point group operations.


The static configuration has the point symmetry C_1 .


Analysis of symmetry for dynamics (positions and initial velocities):
=====================================================================
 Subroutine PRICEL returns:
 Original cell was already a primitive cell.
 

 Routine SETGRP: Setting up the symmetry group for a 
 hexagonal supercell.


 Subroutine GETGRP returns: Found  1 space group operations
 (whereof  1 operations were pure point group operations)
 out of a pool of 24 trial point group operations.


The dynamic configuration has the point symmetry C_1 .


 Subroutine INISYM returns: Found  1 space group operations
 (whereof  1 operations are pure point group operations),
 and found     1 'primitive' translations

 
 

Automatic generation of k-mesh.
 generate k-points for:    3    3    1
Space group operators:
 irot       det(A)        alpha          n_x          n_y          n_z        tau_x        tau_y        tau_z
    1     1.000000     0.000000     1.000000     0.000000     0.000000     0.000000     0.000000     0.000000
 
 Subroutine IBZKPT returns following result:
 ===========================================
 
 Found      5 irreducible k-points:
 
 Following reciprocal coordinates:
            Coordinates               Weight
  0.000000  0.000000  0.000000      1.000000
  0.333333 -0.000000  0.000000      2.000000
  0.000000  0.333333  0.000000      2.000000
  0.333333  0.333333  0.000000      2.000000
 -0.333333  0.333333  0.000000      2.000000
 
 Following cartesian coordinates:
            Coordinates               Weight
  0.000000  0.000000  0.000000      1.000000
  0.024165  0.013952  0.000000      2.000000
  0.000000  0.027903  0.000000      2.000000
  0.024165  0.041855  0.000000      2.000000
 -0.024165  0.013952  0.000000      2.000000
 


--------------------------------------------------------------------------------------------------------




 Dimension of arrays:
   k-points           NKPTS =      5   k-points in BZ     NKDIM =      5   number of bands    NBANDS=    384
   number of dos      NEDOS =    301   number of ions     NIONS =     80
   non local maximal  LDIM  =      6   non local SUM 2l+1 LMDIM =     18
   total plane-waves  NPLWV = ******
   max r-space proj   IRMAX =   9806   max aug-charges    IRDMAX= 216835
   dimension x,y,z NGX =   112 NGY =  112 NGZ =  224
   dimension x,y,z NGXF=   224 NGYF=  224 NGZF=  448
   support grid    NGXF=   448 NGYF=  448 NGZF=  896
   ions per type =              32  32  16
   NGX,Y,Z   is equivalent  to a cutoff of  13.50, 13.50, 13.39 a.u.
   NGXF,Y,Z  is equivalent  to a cutoff of  27.00, 27.00, 26.78 a.u.

 SYSTEM =  unknown system                          
 POSCAR =  Sc Cl  C                                

 Startparameter for this run:
   NWRITE =      2    write-flag & timer
   PREC   = anorma    normal or accurate (medium, high low for compatibility)
   ISTART =      0    job   : 0-new  1-cont  2-samecut
   ICHARG =      2    charge: 1-file 2-atom 10-const
   ISPIN  =      1    spin polarized calculation?
   LNONCOLLINEAR =      F non collinear calculations
   LSORBIT =      F    spin-orbit coupling
   INIWAV =      1    electr: 0-lowe 1-rand  2-diag
   LASPH  =      F    aspherical Exc in radial PAW
   METAGGA=      F    non-selfconsistent MetaGGA calc.

 Electronic Relaxation 1
   ENCUT  =  600.0 eV  44.10 Ry    6.64 a.u.  27.55 27.55 55.54*2*pi/ulx,y,z
   ENINI  =  600.0     initial cutoff
   ENAUG  =  644.9 eV  augmentation charge cutoff
   NELM   =     60;   NELMIN=  2; NELMDL= -5     # of ELM steps 
   EDIFF  = 0.1E-05   stopping-criterion for ELM
   LREAL  =      T    real-space projection
   NLSPLINE    = F    spline interpolate recip. space projectors
   LCOMPAT=      F    compatible to vasp.4.4
   GGA_COMPAT  = T    GGA compatible to vasp.4.4-vasp.4.6
   LMAXPAW     = -100 max onsite density
   LMAXMIX     =    2 max onsite mixed and CHGCAR
   VOSKOWN=      0    Vosko Wilk Nusair interpolation
   ROPT   =   -0.00025  -0.00025  -0.00025
 Ionic relaxation
   EDIFFG = -.1E-01   stopping-criterion for IOM
   NSW    =      1    number of steps for IOM
   NBLOCK =      1;   KBLOCK =      1    inner block; outer block 
   IBRION =     -1    ionic relax: 0-MD 1-quasi-New 2-CG
   NFREE  =      0    steps in history (QN), initial steepest desc. (CG)
   ISIF   =      2    stress and relaxation
   IWAVPR =     10    prediction:  0-non 1-charg 2-wave 3-comb
   ISYM   =      2    0-nonsym 1-usesym 2-fastsym
   LCORR  =      T    Harris-Foulkes like correction to forces

   POTIM  = 1.0000    time-step for ionic-motion
   TEIN   =    0.0    initial temperature
   TEBEG  =    0.0;   TEEND  =   0.0 temperature during run
   SMASS  =  -3.00    Nose mass-parameter (am)
   estimated Nose-frequenzy (Omega)   =  0.10E-29 period in steps =****** mass=  -0.435E-26a.u.
   SCALEE = 1.0000    scale energy and forces
   NPACO  =    256;   APACO  = 16.0  distance and # of slots for P.C.
   PSTRESS=    0.0 pullay stress

  Mass of Ions in am
   POMASS =  44.96 35.45 12.01
  Ionic Valenz
   ZVAL   =  11.00  7.00  4.00
  Atomic Wigner-Seitz radii
   RWIGS  =  -1.00 -1.00 -1.00
  virtual crystal weights 
   VCA    =   1.00  1.00  1.00
   NELECT =     640.0000    total number of electrons
   NUPDOWN=      -1.0000    fix difference up-down

 DOS related values:
   EMIN   =  10.00;   EMAX   =-10.00  energy-range for DOS
   EFERMI =   0.00
   ISMEAR =     0;   SIGMA  =   0.05  broadening in eV -4-tet -1-fermi 0-gaus

 Electronic relaxation 2 (details)
   IALGO  =     38    algorithm
   LDIAG  =      T    sub-space diagonalisation (order eigenvalues)
   LSUBROT=      F    optimize rotation matrix (better conditioning)
   TURBO    =      0    0=normal 1=particle mesh
   IRESTART =      0    0=no restart 2=restart with 2 vectors
   NREBOOT  =      0    no. of reboots
   NMIN     =      0    reboot dimension
   EREF     =   0.00    reference energy to select bands
   IMIX   =      4    mixing-type and parameters
     AMIX     =   0.40;   BMIX     =  1.00
     AMIX_MAG =   1.60;   BMIX_MAG =  1.00
     AMIN     =   0.10
     WC   =   100.;   INIMIX=   1;  MIXPRE=   1;  MAXMIX= -45

 Intra band minimization:
   WEIMIN = 0.0000     energy-eigenvalue tresh-hold
   EBREAK =  0.65E-09  absolut break condition
   DEPER  =   0.30     relativ break condition  

   TIME   =   0.40     timestep for ELM

  volume/ion in A,a.u.               =      57.28       386.56
  Fermi-wavevector in a.u.,A,eV,Ry     =   0.849369  1.605075  9.815628  0.721428
  Thomas-Fermi vector in A             =   1.965179
 
 Write flags
   LWAVE        =      F    write WAVECAR
   LDOWNSAMPLE  =      F    k-point downsampling of WAVECAR
   LCHARG       =      F    write CHGCAR
   LVTOT        =      F    write LOCPOT, total local potential
   LVHAR        =      F    write LOCPOT, Hartree potential only
   LELF         =      F    write electronic localiz. function (ELF)
   LORBIT       =      0    0 simple, 1 ext, 2 COOP (PROOUT), +10 PAW based schemes


 Dipole corrections
   LMONO  =      F    monopole corrections only (constant potential shift)
   LDIPOL =      F    correct potential (dipole corrections)
   IDIPOL =      0    1-x, 2-y, 3-z, 4-all directions 
   EPSILON=  1.0000000 bulk dielectric constant

 Exchange correlation treatment:
   GGA     =    --    GGA type
   LEXCH   =     8    internal setting for exchange type
   VOSKOWN=      0    Vosko Wilk Nusair interpolation
   LHFCALC =     F    Hartree Fock is set to
   LHFONE  =     F    Hartree Fock one center treatment
   AEXX    =    0.0000 exact exchange contribution

 Linear response parameters
   LEPSILON=     F    determine dielectric tensor
   LRPA    =     F    only Hartree local field effects (RPA)
   LNABLA  =     F    use nabla operator in PAW spheres
   LVEL    =     F    velocity operator in full k-point grid
   LINTERFAST=   F  fast interpolation
   KINTER  =     0    interpolate to denser k-point grid
   CSHIFT  =0.1000    complex shift for real part using Kramers Kronig
   OMEGAMAX=  -1.0    maximum frequency
   DEG_THRESHOLD= 0.2000000E-02 threshold for treating states as degnerate
   RTIME   =   -0.100 relaxation time in fs
  (WPLASMAI=    0.000 imaginary part of plasma frequency in eV, 0.658/RTIME)
   DFIELD  = 0.0000000 0.0000000 0.0000000 field for delta impulse in time
 
 Orbital magnetization related:
   ORBITALMAG=     F  switch on orbital magnetization
   LCHIMAG   =     F  perturbation theory with respect to B field
   DQ        =  0.001000  dq finite difference perturbation B field
   LLRAUG    =     F  two centre corrections for induced B field



--------------------------------------------------------------------------------------------------------


 Static calculation
 charge density and potential will be updated during run
 non-spin polarized calculation
 Variant of blocked Davidson
 Davidson routine will perform the subspace rotation
 perform sub-space diagonalisation
    after iterative eigenvector-optimisation
 modified Broyden-mixing scheme, WC =      100.0
 initial mixing is a Kerker type mixing with AMIX =  0.4000 and BMIX =      1.0000
 Hartree-type preconditioning will be used
 using additional bands           64
 real space projection scheme for non local part
 use partial core corrections
 calculate Harris-corrections to forces 
   (improved forces if not selfconsistent)
 use gradient corrections 
 use of overlap-Matrix (Vanderbilt PP)
 Gauss-broadening in eV      SIGMA  =   0.05


--------------------------------------------------------------------------------------------------------


  energy-cutoff  :      600.00
  volume of cell :     4582.63
      direct lattice vectors                 reciprocal lattice vectors
    13.793986680  0.000000000  0.000000000     0.072495358  0.041855214  0.000000000
    -6.896993340 11.945942880  0.000000000     0.000000000  0.083710429  0.000000000
     0.000000000  0.000000000 27.810221070     0.000000000  0.000000000  0.035958003

  length of vectors
    13.793986680 13.793986676 27.810221070     0.083710429  0.083710429  0.035958003


 
 k-points in units of 2pi/SCALE and weight: read from INCAR                         
   0.00000000  0.00000000  0.00000000       0.111
   0.02416512  0.01395174  0.00000000       0.222
   0.00000000  0.02790348  0.00000000       0.222
   0.02416512  0.04185521  0.00000000       0.222
  -0.02416512  0.01395174  0.00000000       0.222
 
 k-points in reciprocal lattice and weights: read from INCAR                         
   0.00000000  0.00000000  0.00000000       0.111
   0.33333333 -0.00000000  0.00000000       0.222
   0.00000000  0.33333333  0.00000000       0.222
   0.33333333  0.33333333  0.00000000       0.222
  -0.33333333  0.33333333  0.00000000       0.222
 
 position of ions in fractional coordinates (direct lattice) 
   0.08875011  0.17671535  0.55048182
   0.08650206  0.42326885  0.54986159
   0.07258160  0.65596336  0.54907819
   0.07788244  0.91110315  0.54419282
   0.33979726  0.16518442  0.54397100
   0.33934195  0.42533800  0.54622864
   0.33289661  0.66090474  0.54853631
   0.32463490  0.90814064  0.54679837
   0.59133659  0.16738513  0.54328099
   0.59286683  0.42935665  0.54559092
   0.58340217  0.67313506  0.54109569
   0.57342946  0.90501065  0.54789787
   0.83860106  0.16409052  0.54192087
   0.82470792  0.40811437  0.54486314
   0.82785426  0.66302057  0.54564440
   0.83041741  0.91694125  0.54438785
   0.16455109  0.09396316  0.45062136
   0.17918315  0.33071770  0.45445597
   0.17747622  0.59519128  0.45294017
   0.16073729  0.83176962  0.46079593
   0.42573852  0.07951001  0.45644518
   0.41263954  0.31974406  0.45820829
   0.42259521  0.59049414  0.45331749
   0.40578581  0.81899606  0.45722211
   0.66584872  0.07073834  0.45577285
   0.66912198  0.34630163  0.45765623
   0.65647363  0.58619272  0.45415043
   0.67769320  0.83716979  0.45095311
   0.91614782  0.08989563  0.45269600
   0.91149588  0.33186727  0.45935015
   0.90405788  0.57500800  0.45260257
   0.92476439  0.83847277  0.45503643
   0.06650719  0.16863202  0.39078052
   0.08281083  0.41142519  0.40033843
   0.09276952  0.67867793  0.38819337
   0.08002061  0.93246076  0.39272105
   0.32386272  0.16026785  0.39060654
   0.33036488  0.41280065  0.39729880
   0.32525076  0.67147805  0.39561042
   0.33376989  0.93021817  0.39686749
   0.58944220  0.16668802  0.39645461
   0.57504666  0.41055737  0.39491067
   0.58388961  0.67476658  0.38680473
   0.60439870  0.94177838  0.39270231
   0.83502864  0.18451567  0.39860229
   0.82814247  0.42107292  0.39247578
   0.83143274  0.65797813  0.39252130
   0.81974372  0.91374431  0.38697608
   0.16063680  0.07251096  0.60568587
   0.18329821  0.34473079  0.61126931
   0.14421211  0.57055354  0.60566652
   0.16507286  0.82464143  0.60447834
   0.41928881  0.08201188  0.60617125
   0.43066983  0.33635837  0.59832298
   0.43315942  0.58642769  0.60635889
   0.40370189  0.82189061  0.60768574
   0.66721489  0.07475470  0.60767976
   0.66935111  0.32536388  0.60332522
   0.66108033  0.58766724  0.60313672
   0.67618085  0.84169426  0.60838399
   0.92431062  0.06598229  0.60581654
   0.92607654  0.32280369  0.60329508
   0.90323330  0.57081964  0.60717877
   0.91404085  0.82601030  0.60150251
   0.99678755  0.00612388  0.49628666
   0.00451922  0.25073125  0.50516305
   0.00586376  0.50436327  0.50137610
   0.00337796  0.75516355  0.49695301
   0.25789912  0.01741526  0.49750237
   0.26415547  0.26289407  0.50004482
   0.25653477  0.50309278  0.49913766
   0.25380144  0.76086640  0.49988527
   0.50379392  0.98933758  0.49787630
   0.50513058  0.24709191  0.50439778
   0.50730615  0.51208879  0.49898536
   0.48124253  0.73950662  0.49781852
   0.76085470  0.00513528  0.49902245
   0.74675253  0.26307700  0.50582444
   0.75492212  0.50354977  0.50208012
   0.74682398  0.74382335  0.49710988
 
 position of ions in cartesian coordinates  (Angst):
   0.00541329  2.11103150 15.30902106
  -1.72607423  5.05634551 15.29177244
  -3.52298524  7.83610083 15.26998590
  -5.20956295 10.88398618 15.13412250
   3.54788304  1.97328369 15.12795365
   1.74732498  5.08106342 15.19073936
   0.03371584  7.89513022 15.25491591
  -1.78543048 10.84859618 15.20658358
   7.00243492  1.99957322 15.10876454
   5.21672728  5.12906998 15.17300411
   3.40483372  8.04123301 15.04799071
   1.66802592 10.81120558 15.23716087
  10.43592069  1.96021593 15.07093927
   8.56124796  4.87531097 15.15276428
   6.84656225  7.92040583 15.17449128
   5.13062894 10.95372778 15.13954632
   1.62175232  1.12247851 12.53187976
   0.19069229  3.95073470 12.63852103
  -1.65692561  7.11012102 12.59636615
  -3.51950143  9.93627234 12.81483656
   5.32425150  0.94982208 12.69384127
   3.48667162  3.81964425 12.74287376
   1.75663855  7.05400930 12.60685963
  -0.05120633  9.78368012 12.71544792
   8.69682650  0.84503620 12.67514363
   6.84141964  4.13689954 12.72752103
   5.01242123  7.00262472 12.63002389
   3.57413647 10.00078251 12.54110571
  12.01732119  1.07388812 12.58957591
  10.28427567  3.96446740 12.77462918
   8.50473598  6.86901274 12.58697750
   6.97324666 10.01634777 12.65466367
  -0.24565466  2.01446842 10.86769260
  -1.69530526  4.91486182 11.13350031
  -3.40117563  8.10744778 10.79574333
  -5.32737250 11.13912301 10.92165917
   3.36199181  1.91455053 10.86285419
   1.70996544  4.93129294 11.04896753
  -0.14467494  8.02143843 11.00201336
  -1.81169112 11.11233313 11.03697259
   6.98111164  1.99124554 11.02549038
   5.10057448  4.90449493 10.98255306
   3.40030486  8.06072297 10.75712511
   1.84162841 11.25043073 10.92113804
  10.24577066  2.20421365 11.08521779
   8.51924906  5.03011301 10.91483824
   6.93070132  7.86016914 10.91610422
   5.00544561 10.91553731 10.76189045
   1.71571434  0.86621178 16.84425788
   0.15080716  4.11813433 16.99953477
  -1.94584401  6.81580000 16.84371974
  -3.41053361  9.85111936 16.81067636
   5.21802885  0.97970919 16.85775633
   3.62079241  4.01811793 16.63949445
   1.93040739  7.00543172 16.86297469
  -0.09991560  9.81825826 16.89987464
   8.68797063  0.89301541 16.89970855
   6.98898771  3.88677834 16.77860788
   5.06579618  7.02023932 16.77336548
   3.52206991 10.05483156 16.91929313
  12.29484895  0.78822068 16.84789198
  10.54791265  3.85619439 16.77776958
   8.52224894  6.81897878 16.88577573
   6.91127979  9.86747184 16.72791787
  13.70743790  0.07315549 13.80184176
  -1.66695373  2.99522118 14.04869604
  -3.39770540  6.02509478 13.94338031
  -5.16176242  9.02114059 13.82037298
   3.43734402  0.20804173 13.83565096
   1.83057837  3.14051751 13.90635707
   0.06880958  6.00991764 13.88112868
  -1.74675685  9.08926659 13.90191973
   0.12587194 11.81857021 13.84605005
   5.26357318  2.95174590 14.02741365
   3.46590131  6.11738346 13.87689307
   1.53788091  8.83410379 13.84444310
  10.45980164  0.06134576 13.87792476
   8.48625406  3.14270286 14.06708962
   6.94040626  6.01537681 13.96295924
   5.17153542  8.88567120 13.82473552
 


--------------------------------------------------------------------------------------------------------


 k-point  1 :   0.0000 0.0000 0.0000  plane waves:  153003
 k-point  2 :   0.3333-0.0000 0.0000  plane waves:  152954
 k-point  3 :   0.0000 0.3333 0.0000  plane waves:  152954
 k-point  4 :   0.3333 0.3333 0.0000  plane waves:  152898
 k-point  5 :  -0.3333 0.3333 0.0000  plane waves:  152954

 maximum and minimum number of plane-waves per node :     11814    11730

 maximum number of plane-waves:    153003
 maximum index in each direction: 
   IXMAX=   27   IYMAX=   27   IZMAX=   55
   IXMIN=  -27   IYMIN=  -27   IZMIN=  -55


 real space projection operators:
  total allocation   :      55038.89 KBytes
  max/ min on nodes  :       4451.89       3893.45


 parallel 3D FFT for wavefunctions:
    minimum data exchange during FFTs selected (reduces bandwidth)
 parallel 3D FFT for charge:
    minimum data exchange during FFTs selected (reduces bandwidth)


 total amount of memory used by VASP MPI-rank0   253921. kBytes
=======================================================================

   base      :      30000. kBytes
   nonlr-proj:      18737. kBytes
   fftplans  :      72602. kBytes
   grid      :      41267. kBytes
   one-center:        108. kBytes
   wavefun   :      91207. kBytes
 
     INWAV:  cpu time    0.0000: real time    0.0000
 Broyden mixing: mesh for mixing (old mesh)
   NGX = 55   NGY = 55   NGZ =111
  (NGX  =224   NGY  =224   NGZ  =448)
  gives a total of 335775 points

 initial charge density was supplied:
 charge density of overlapping atoms calculated
 number of electron     640.0000000 magnetization 
 keeping initial charge density in first step


--------------------------------------------------------------------------------------------------------


 Maximum index for non-local projection operator          947
 Maximum index for augmentation-charges         5086 (set IRDMAX)


--------------------------------------------------------------------------------------------------------


 First call to EWALD:  gamma=   0.107
 Maximum number of real-space cells 4x 4x 2
 Maximum number of reciprocal cells 2x 2x 4

    FEWALD:  cpu time    0.0028: real time    0.0028


--------------------------------------- Iteration      1(   1)  ---------------------------------------


    POTLOK:  cpu time    0.4102: real time    0.4164
    SETDIJ:  cpu time    0.4221: real time    0.4222
     EDDAV:  cpu time   50.3311: real time   50.3346
       DOS:  cpu time    0.0014: real time    0.0014
    --------------------------------------------
      LOOP:  cpu time   51.1647: real time   51.1746

 eigenvalue-minimisations  :  4424
 total energy-change (2. order) : 0.1221207E+05  (-0.2677785E+05)
 number of electron     640.0000000 magnetization 
 augmentation part      640.0000000 magnetization 

 Free energy of the ion-electron system (eV)
  ---------------------------------------------------
  alpha Z        PSCENC =       784.57699423
  Ewald energy   TEWEN  =    250821.43589914
  -Hartree energ DENC   =   -298490.42140362
  -exchange      EXHF   =         0.00000000
  -V(xc)+E(xc)   XCENC  =      2502.17222404
  PAW double counting   =     43679.68029659   -43417.33247688
  entropy T*S    EENTRO =        -0.06398692
  eigenvalues    EBANDS =       121.30084918
  atomic energy  EATOM  =     56210.72393729
  Solvation  Ediel_sol  =         0.00000000
  ---------------------------------------------------
  free energy    TOTEN  =     12212.07233305 eV

  energy without entropy =    12212.13631997  energy(sigma->0) =    12212.10432651


--------------------------------------------------------------------------------------------------------




--------------------------------------- Iteration      1(   2)  ---------------------------------------


     EDDAV:  cpu time   57.1797: real time   57.1944
       DOS:  cpu time    0.0013: real time    0.0013
    --------------------------------------------
      LOOP:  cpu time   57.1810: real time   57.1957

 eigenvalue-minimisations  :  5224
 total energy-change (2. order) :-0.1047043E+05  (-0.1020742E+05)
 number of electron     640.0000000 magnetization 
 augmentation part      640.0000000 magnetization 

 Free energy of the ion-electron system (eV)
  ---------------------------------------------------
  alpha Z        PSCENC =       784.57699423
  Ewald energy   TEWEN  =    250821.43589914
  -Hartree energ DENC   =   -298490.42140362
  -exchange      EXHF   =         0.00000000
  -V(xc)+E(xc)   XCENC  =      2502.17222404
  PAW double counting   =     43679.68029659   -43417.33247688
  entropy T*S    EENTRO =        -0.04515467
  eigenvalues    EBANDS =    -10349.15251010
  atomic energy  EATOM  =     56210.72393729
  Solvation  Ediel_sol  =         0.00000000
  ---------------------------------------------------
  free energy    TOTEN  =      1741.63780602 eV

  energy without entropy =     1741.68296069  energy(sigma->0) =     1741.66038336


--------------------------------------------------------------------------------------------------------




--------------------------------------- Iteration      1(   3)  ---------------------------------------


     EDDAV:  cpu time   71.1635: real time   71.1729
       DOS:  cpu time    0.0006: real time    0.0006
    --------------------------------------------
      LOOP:  cpu time   71.1641: real time   71.1735

 eigenvalue-minimisations  :  6800
 total energy-change (2. order) :-0.2145721E+04  (-0.2059850E+04)
 number of electron     640.0000000 magnetization 
 augmentation part      640.0000000 magnetization 

 Free energy of the ion-electron system (eV)
  ---------------------------------------------------
  alpha Z        PSCENC =       784.57699423
  Ewald energy   TEWEN  =    250821.43589914
  -Hartree energ DENC   =   -298490.42140362
  -exchange      EXHF   =         0.00000000
  -V(xc)+E(xc)   XCENC  =      2502.17222404
  PAW double counting   =     43679.68029659   -43417.33247688
  entropy T*S    EENTRO =        -0.00000000
  eigenvalues    EBANDS =    -12494.91859342
  atomic energy  EATOM  =     56210.72393729
  Solvation  Ediel_sol  =         0.00000000
  ---------------------------------------------------
  free energy    TOTEN  =      -404.08312263 eV

  energy without entropy =     -404.08312263  energy(sigma->0) =     -404.08312263


--------------------------------------------------------------------------------------------------------




--------------------------------------- Iteration      1(   4)  ---------------------------------------


     EDDAV:  cpu time   64.8710: real time   64.8794
       DOS:  cpu time    0.0006: real time    0.0006
    --------------------------------------------
      LOOP:  cpu time   64.8716: real time   64.8801

 eigenvalue-minimisations  :  6088
 total energy-change (2. order) :-0.2378101E+03  (-0.2334101E+03)
 number of electron     640.0000000 magnetization 
 augmentation part      640.0000000 magnetization 

 Free energy of the ion-electron system (eV)
  ---------------------------------------------------
  alpha Z        PSCENC =       784.57699423
  Ewald energy   TEWEN  =    250821.43589914
  -Hartree energ DENC   =   -298490.42140362
  -exchange      EXHF   =         0.00000000
  -V(xc)+E(xc)   XCENC  =      2502.17222404
  PAW double counting   =     43679.68029659   -43417.33247688
  entropy T*S    EENTRO =        -0.00000000
  eigenvalues    EBANDS =    -12732.72866300
  atomic energy  EATOM  =     56210.72393729
  Solvation  Ediel_sol  =         0.00000000
  ---------------------------------------------------
  free energy    TOTEN  =      -641.89319221 eV

  energy without entropy =     -641.89319221  energy(sigma->0) =     -641.89319221


--------------------------------------------------------------------------------------------------------




--------------------------------------- Iteration      1(   5)  ---------------------------------------


     EDDAV:  cpu time   64.8046: real time   64.8133
       DOS:  cpu time    0.0006: real time    0.0006
    CHARGE:  cpu time    3.8891: real time    3.8892
    MIXING:  cpu time    0.0123: real time    0.0124
    --------------------------------------------
      LOOP:  cpu time   68.7067: real time   68.7155

 eigenvalue-minimisations  :  6080
 total energy-change (2. order) :-0.1051725E+02  (-0.1045964E+02)
 number of electron     640.0000003 magnetization 
 augmentation part       59.2054899 magnetization 

 Broyden mixing:
  rms(total) = 0.69589E+01    rms(broyden)= 0.69588E+01
  rms(prec ) = 0.73237E+01
  weight for this iteration     100.00

 Free energy of the ion-electron system (eV)
  ---------------------------------------------------
  alpha Z        PSCENC =       784.57699423
  Ewald energy   TEWEN  =    250821.43589914
  -Hartree energ DENC   =   -298490.42140362
  -exchange      EXHF   =         0.00000000
  -V(xc)+E(xc)   XCENC  =      2502.17222404
  PAW double counting   =     43679.68029659   -43417.33247688
  entropy T*S    EENTRO =        -0.00000000
  eigenvalues    EBANDS =    -12743.24591061
  atomic energy  EATOM  =     56210.72393729
  Solvation  Ediel_sol  =         0.00000000
  ---------------------------------------------------
  free energy    TOTEN  =      -652.41043982 eV

  energy without entropy =     -652.41043982  energy(sigma->0) =     -652.41043982


--------------------------------------------------------------------------------------------------------




--------------------------------------- Iteration      1(   6)  ---------------------------------------


    POTLOK:  cpu time    0.3855: real time    0.3939
    SETDIJ:  cpu time    0.4189: real time    0.4189
     EDDAV:  cpu time   63.0319: real time   63.0334
       DOS:  cpu time    0.0009: real time    0.0009
    CHARGE:  cpu time    3.8790: real time    3.8791
    MIXING:  cpu time    0.0113: real time    0.0113
    --------------------------------------------
      LOOP:  cpu time   67.7275: real time   67.7374

 eigenvalue-minimisations  :  5856
 total energy-change (2. order) : 0.1310488E+03  (-0.6976875E+02)
 number of electron     640.0000004 magnetization 
 augmentation part       70.1388208 magnetization 

 Broyden mixing:
  rms(total) = 0.30911E+01    rms(broyden)= 0.30910E+01
  rms(prec ) = 0.31245E+01
  weight for this iteration     100.00

 eigenvalues of (default mixing * dielectric matrix)
  average eigenvalue GAMMA=   0.9456
  0.9456

 Free energy of the ion-electron system (eV)
  ---------------------------------------------------
  alpha Z        PSCENC =       784.57699423
  Ewald energy   TEWEN  =    250821.43589914
  -Hartree energ DENC   =   -298299.62235549
  -exchange      EXHF   =         0.00000000
  -V(xc)+E(xc)   XCENC  =      2491.92294460
  PAW double counting   =     49227.71589746   -49019.87538868
  entropy T*S    EENTRO =        -0.00000001
  eigenvalues    EBANDS =    -12738.23956685
  atomic energy  EATOM  =     56210.72393729
  Solvation  Ediel_sol  =         0.00000000
  ---------------------------------------------------
  free energy    TOTEN  =      -521.36163832 eV

  energy without entropy =     -521.36163830  energy(sigma->0) =     -521.36163831


--------------------------------------------------------------------------------------------------------




--------------------------------------- Iteration      1(   7)  ---------------------------------------


    POTLOK:  cpu time    0.3860: real time    0.3942
    SETDIJ:  cpu time    0.4189: real time    0.4189
     EDDAV:  cpu time   63.2238: real time   63.2244
       DOS:  cpu time    0.0007: real time    0.0007
    CHARGE:  cpu time    3.8832: real time    3.8832
    MIXING:  cpu time    0.0116: real time    0.0116
    --------------------------------------------
      LOOP:  cpu time   67.9242: real time   67.9330

 eigenvalue-minimisations  :  5880
 total energy-change (2. order) :-0.5287575E+01  (-0.9324540E+01)
 number of electron     640.0000004 magnetization 
 augmentation part       69.5099999 magnetization 

 Broyden mixing:
  rms(total) = 0.15530E+01    rms(broyden)= 0.15530E+01
  rms(prec ) = 0.15905E+01
  weight for this iteration     100.00

 eigenvalues of (default mixing * dielectric matrix)
  average eigenvalue GAMMA=   0.9844
  0.9844  0.9844

 Free energy of the ion-electron system (eV)
  ---------------------------------------------------
  alpha Z        PSCENC =       784.57699423
  Ewald energy   TEWEN  =    250821.43589914
  -Hartree energ DENC   =   -298400.14971634
  -exchange      EXHF   =         0.00000000
  -V(xc)+E(xc)   XCENC  =      2487.92132522
  PAW double counting   =     54282.05878189   -54087.92211074
  entropy T*S    EENTRO =        -0.00000000
  eigenvalues    EBANDS =    -12625.29432375
  atomic energy  EATOM  =     56210.72393729
  Solvation  Ediel_sol  =         0.00000000
  ---------------------------------------------------
  free energy    TOTEN  =      -526.64921305 eV

  energy without entropy =     -526.64921305  energy(sigma->0) =     -526.64921305


--------------------------------------------------------------------------------------------------------




--------------------------------------- Iteration      1(   8)  ---------------------------------------


    POTLOK:  cpu time    0.3863: real time    0.3952
    SETDIJ:  cpu time    0.4183: real time    0.4184
     EDDAV:  cpu time   62.0288: real time   62.0292
       DOS:  cpu time    0.0006: real time    0.0006
    CHARGE:  cpu time    3.8781: real time    3.8783
    MIXING:  cpu time    0.0112: real time    0.0112
    --------------------------------------------
      LOOP:  cpu time   66.7235: real time   66.7329

 eigenvalue-minimisations  :  5744
 total energy-change (2. order) : 0.2380994E+01  (-0.1032832E+01)
 number of electron     640.0000004 magnetization 
 augmentation part       69.2564245 magnetization 

 Broyden mixing:
  rms(total) = 0.95714E+00    rms(broyden)= 0.95714E+00
  rms(prec ) = 0.97322E+00
  weight for this iteration     100.00

 eigenvalues of (default mixing * dielectric matrix)
  average eigenvalue GAMMA=   1.4122
  2.5114  0.8626  0.8626

 Free energy of the ion-electron system (eV)
  ---------------------------------------------------
  alpha Z        PSCENC =       784.57699423
  Ewald energy   TEWEN  =    250821.43589914
  -Hartree energ DENC   =   -298465.89284413
  -exchange      EXHF   =         0.00000000
  -V(xc)+E(xc)   XCENC  =      2487.96265628
  PAW double counting   =     56122.51085723   -55938.66186268
  entropy T*S    EENTRO =        -0.00000000
  eigenvalues    EBANDS =    -12546.92385621
  atomic energy  EATOM  =     56210.72393729
  Solvation  Ediel_sol  =         0.00000000
  ---------------------------------------------------
  free energy    TOTEN  =      -524.26821886 eV

  energy without entropy =     -524.26821886  energy(sigma->0) =     -524.26821886


--------------------------------------------------------------------------------------------------------




--------------------------------------- Iteration      1(   9)  ---------------------------------------


    POTLOK:  cpu time    0.3861: real time    0.3940
    SETDIJ:  cpu time    0.4182: real time    0.4182
     EDDAV:  cpu time   58.6213: real time   58.6231
       DOS:  cpu time    0.0007: real time    0.0007
    CHARGE:  cpu time    3.8806: real time    3.8807
    MIXING:  cpu time    0.0120: real time    0.0120
    --------------------------------------------
      LOOP:  cpu time   63.3189: real time   63.3287

 eigenvalue-minimisations  :  5360
 total energy-change (2. order) : 0.5328010E+00  (-0.4210906E+00)
 number of electron     640.0000004 magnetization 
 augmentation part       69.9712558 magnetization 

 Broyden mixing:
  rms(total) = 0.30715E+00    rms(broyden)= 0.30713E+00
  rms(prec ) = 0.32171E+00
  weight for this iteration     100.00

 eigenvalues of (default mixing * dielectric matrix)
  average eigenvalue GAMMA=   1.2118
  2.1838  0.8512  0.8512  0.9610

 Free energy of the ion-electron system (eV)
  ---------------------------------------------------
  alpha Z        PSCENC =       784.57699423
  Ewald energy   TEWEN  =    250821.43589914
  -Hartree energ DENC   =   -298593.20788249
  -exchange      EXHF   =         0.00000000
  -V(xc)+E(xc)   XCENC  =      2487.49154007
  PAW double counting   =     59897.52870158   -59730.66459140
  entropy T*S    EENTRO =        -0.00000000
  eigenvalues    EBANDS =    -12401.62001625
  atomic energy  EATOM  =     56210.72393729
  Solvation  Ediel_sol  =         0.00000000
  ---------------------------------------------------
  free energy    TOTEN  =      -523.73541783 eV

  energy without entropy =     -523.73541783  energy(sigma->0) =     -523.73541783


--------------------------------------------------------------------------------------------------------




--------------------------------------- Iteration      1(  10)  ---------------------------------------


    POTLOK:  cpu time    0.3862: real time    0.3948
    SETDIJ:  cpu time    0.4188: real time    0.4189
     EDDAV:  cpu time   61.0413: real time   61.0442
       DOS:  cpu time    0.0007: real time    0.0007
    CHARGE:  cpu time    3.8747: real time    3.8748
    MIXING:  cpu time    0.0123: real time    0.0123
    --------------------------------------------
      LOOP:  cpu time   65.7340: real time   65.7456

 eigenvalue-minimisations  :  5632
 total energy-change (2. order) : 0.1523330E+00  (-0.6222367E-01)
 number of electron     640.0000004 magnetization 
 augmentation part       69.7978819 magnetization 

 Broyden mixing:
  rms(total) = 0.17482E+00    rms(broyden)= 0.17481E+00
  rms(prec ) = 0.18242E+00
  weight for this iteration     100.00

 eigenvalues of (default mixing * dielectric matrix)
  average eigenvalue GAMMA=   1.2124
  2.1895  1.3795  0.9087  0.9087  0.6758

 Free energy of the ion-electron system (eV)
  ---------------------------------------------------
  alpha Z        PSCENC =       784.57699423
  Ewald energy   TEWEN  =    250821.43589914
  -Hartree energ DENC   =   -298621.27420303
  -exchange      EXHF   =         0.00000000
  -V(xc)+E(xc)   XCENC  =      2488.06643440
  PAW double counting   =     59434.58856557   -59265.71221534
  entropy T*S    EENTRO =        -0.00000000
  eigenvalues    EBANDS =    -12375.98849712
  atomic energy  EATOM  =     56210.72393729
  Solvation  Ediel_sol  =         0.00000000
  ---------------------------------------------------
  free energy    TOTEN  =      -523.58308487 eV

  energy without entropy =     -523.58308487  energy(sigma->0) =     -523.58308487


--------------------------------------------------------------------------------------------------------




--------------------------------------- Iteration      1(  11)  ---------------------------------------


    POTLOK:  cpu time    0.3856: real time    0.3939
    SETDIJ:  cpu time    0.4184: real time    0.4184
     EDDAV:  cpu time   61.3872: real time   61.3896
       DOS:  cpu time    0.0006: real time    0.0006
    CHARGE:  cpu time    3.8751: real time    3.8752
    MIXING:  cpu time    0.0130: real time    0.0130
    --------------------------------------------
      LOOP:  cpu time   66.0799: real time   66.0907

 eigenvalue-minimisations  :  5672
 total energy-change (2. order) : 0.2156560E-01  (-0.2904166E-01)
 number of electron     640.0000004 magnetization 
 augmentation part       69.7484923 magnetization 

 Broyden mixing:
  rms(total) = 0.78936E-01    rms(broyden)= 0.78933E-01
  rms(prec ) = 0.85417E-01
  weight for this iteration     100.00

 eigenvalues of (default mixing * dielectric matrix)
  average eigenvalue GAMMA=   1.2594
  2.4574  1.7154  0.9014  0.9014  0.7905  0.7905

 Free energy of the ion-electron system (eV)
  ---------------------------------------------------
  alpha Z        PSCENC =       784.57699423
  Ewald energy   TEWEN  =    250821.43589914
  -Hartree energ DENC   =   -298670.60567416
  -exchange      EXHF   =         0.00000000
  -V(xc)+E(xc)   XCENC  =      2488.64041415
  PAW double counting   =     59546.35091182   -59377.67858445
  entropy T*S    EENTRO =        -0.00000000
  eigenvalues    EBANDS =    -12327.00541728
  atomic energy  EATOM  =     56210.72393729
  Solvation  Ediel_sol  =         0.00000000
  ---------------------------------------------------
  free energy    TOTEN  =      -523.56151926 eV

  energy without entropy =     -523.56151926  energy(sigma->0) =     -523.56151926


--------------------------------------------------------------------------------------------------------




--------------------------------------- Iteration      1(  12)  ---------------------------------------


    POTLOK:  cpu time    0.3861: real time    0.3964
    SETDIJ:  cpu time    0.4178: real time    0.4178
     EDDAV:  cpu time   65.4373: real time   65.4380
       DOS:  cpu time    0.0007: real time    0.0006
    CHARGE:  cpu time    3.8937: real time    3.8938
    MIXING:  cpu time    0.0135: real time    0.0136
    --------------------------------------------
      LOOP:  cpu time   70.1492: real time   70.1602

 eigenvalue-minimisations  :  6128
 total energy-change (2. order) : 0.1475708E-01  (-0.4570843E-02)
 number of electron     640.0000004 magnetization 
 augmentation part       69.7289329 magnetization 

 Broyden mixing:
  rms(total) = 0.32275E-01    rms(broyden)= 0.32275E-01
  rms(prec ) = 0.39150E-01
  weight for this iteration     100.00

 eigenvalues of (default mixing * dielectric matrix)
  average eigenvalue GAMMA=   1.2520
  2.2043  2.2043  0.9241  0.9241  0.9074  0.9074  0.6927

 Free energy of the ion-electron system (eV)
  ---------------------------------------------------
  alpha Z        PSCENC =       784.57699423
  Ewald energy   TEWEN  =    250821.43589914
  -Hartree energ DENC   =   -298704.90904000
  -exchange      EXHF   =         0.00000000
  -V(xc)+E(xc)   XCENC  =      2489.05704559
  PAW double counting   =     59623.74072652   -59455.23912397
  entropy T*S    EENTRO =        -0.00000000
  eigenvalues    EBANDS =    -12292.93320099
  atomic energy  EATOM  =     56210.72393729
  Solvation  Ediel_sol  =         0.00000000
  ---------------------------------------------------
  free energy    TOTEN  =      -523.54676219 eV

  energy without entropy =     -523.54676219  energy(sigma->0) =     -523.54676219


--------------------------------------------------------------------------------------------------------




--------------------------------------- Iteration      1(  13)  ---------------------------------------


    POTLOK:  cpu time    0.3869: real time    0.3948
    SETDIJ:  cpu time    0.4173: real time    0.4189
     EDDAV:  cpu time   60.1081: real time   60.1091
       DOS:  cpu time    0.0005: real time    0.0005
    CHARGE:  cpu time    3.8852: real time    3.8853
    MIXING:  cpu time    0.0135: real time    0.0135
    --------------------------------------------
      LOOP:  cpu time   64.8116: real time   64.8223

 eigenvalue-minimisations  :  5528
 total energy-change (2. order) : 0.2931377E-02  (-0.1227036E-02)
 number of electron     640.0000004 magnetization 
 augmentation part       69.7332101 magnetization 

 Broyden mixing:
  rms(total) = 0.20647E-01    rms(broyden)= 0.20646E-01
  rms(prec ) = 0.27100E-01
  weight for this iteration     100.00

 eigenvalues of (default mixing * dielectric matrix)
  average eigenvalue GAMMA=   1.2744
  2.6456  1.9061  1.4197  0.9033  0.9033  0.8790  0.8790  0.6592

 Free energy of the ion-electron system (eV)
  ---------------------------------------------------
  alpha Z        PSCENC =       784.57699423
  Ewald energy   TEWEN  =    250821.43589914
  -Hartree energ DENC   =   -298725.82610377
  -exchange      EXHF   =         0.00000000
  -V(xc)+E(xc)   XCENC  =      2489.24279429
  PAW double counting   =     59586.57373213   -59417.93175582
  entropy T*S    EENTRO =        -0.00000000
  eigenvalues    EBANDS =    -12272.33932829
  atomic energy  EATOM  =     56210.72393729
  Solvation  Ediel_sol  =         0.00000000
  ---------------------------------------------------
  free energy    TOTEN  =      -523.54383081 eV

  energy without entropy =     -523.54383081  energy(sigma->0) =     -523.54383081


--------------------------------------------------------------------------------------------------------




--------------------------------------- Iteration      1(  14)  ---------------------------------------


    POTLOK:  cpu time    0.3842: real time    0.3927
    SETDIJ:  cpu time    0.4181: real time    0.4182
     EDDAV:  cpu time   59.7521: real time   59.7533
       DOS:  cpu time    0.0006: real time    0.0006
    CHARGE:  cpu time    3.8916: real time    3.8916
    MIXING:  cpu time    0.0132: real time    0.0132
    --------------------------------------------
      LOOP:  cpu time   64.4599: real time   64.4696

 eigenvalue-minimisations  :  5488
 total energy-change (2. order) : 0.1934940E-02  (-0.5984854E-03)
 number of electron     640.0000004 magnetization 
 augmentation part       69.7433610 magnetization 

 Broyden mixing:
  rms(total) = 0.17470E-01    rms(broyden)= 0.17470E-01
  rms(prec ) = 0.21593E-01
  weight for this iteration     100.00

 eigenvalues of (default mixing * dielectric matrix)
  average eigenvalue GAMMA=   1.3172
  2.5407  2.5407  1.6824  0.9359  0.9359  0.9493  0.7936  0.7936  0.6826

 Free energy of the ion-electron system (eV)
  ---------------------------------------------------
  alpha Z        PSCENC =       784.57699423
  Ewald energy   TEWEN  =    250821.43589914
  -Hartree energ DENC   =   -298748.39635153
  -exchange      EXHF   =         0.00000000
  -V(xc)+E(xc)   XCENC  =      2489.38595273
  PAW double counting   =     59594.59250693   -59426.01437496
  entropy T*S    EENTRO =        -0.00000000
  eigenvalues    EBANDS =    -12249.84645971
  atomic energy  EATOM  =     56210.72393729
  Solvation  Ediel_sol  =         0.00000000
  ---------------------------------------------------
  free energy    TOTEN  =      -523.54189587 eV

  energy without entropy =     -523.54189587  energy(sigma->0) =     -523.54189587


--------------------------------------------------------------------------------------------------------




--------------------------------------- Iteration      1(  15)  ---------------------------------------


    POTLOK:  cpu time    0.3839: real time    0.3925
    SETDIJ:  cpu time    0.4180: real time    0.4180
     EDDAV:  cpu time   59.4696: real time   59.4713
       DOS:  cpu time    0.0006: real time    0.0006
    CHARGE:  cpu time    3.8890: real time    3.8890
    MIXING:  cpu time    0.0138: real time    0.0138
    --------------------------------------------
      LOOP:  cpu time   64.1749: real time   64.1853

 eigenvalue-minimisations  :  5456
 total energy-change (2. order) :-0.1269170E-02  (-0.2934304E-03)
 number of electron     640.0000004 magnetization 
 augmentation part       69.7486811 magnetization 

 Broyden mixing:
  rms(total) = 0.10899E-01    rms(broyden)= 0.10899E-01
  rms(prec ) = 0.14211E-01
  weight for this iteration     100.00

 eigenvalues of (default mixing * dielectric matrix)
  average eigenvalue GAMMA=   1.3368
  2.7911  2.7911  1.3878  1.3878  0.8909  0.8909  0.8862  0.8862  0.8222  0.6334

 Free energy of the ion-electron system (eV)
  ---------------------------------------------------
  alpha Z        PSCENC =       784.57699423
  Ewald energy   TEWEN  =    250821.43589914
  -Hartree energ DENC   =   -298767.24716535
  -exchange      EXHF   =         0.00000000
  -V(xc)+E(xc)   XCENC  =      2489.47828596
  PAW double counting   =     59555.80751585   -59387.11592123
  entropy T*S    EENTRO =        -0.00000000
  eigenvalues    EBANDS =    -12231.20271094
  atomic energy  EATOM  =     56210.72393729
  Solvation  Ediel_sol  =         0.00000000
  ---------------------------------------------------
  free energy    TOTEN  =      -523.54316504 eV

  energy without entropy =     -523.54316504  energy(sigma->0) =     -523.54316504


--------------------------------------------------------------------------------------------------------




--------------------------------------- Iteration      1(  16)  ---------------------------------------


    POTLOK:  cpu time    0.3855: real time    0.3939
    SETDIJ:  cpu time    0.4178: real time    0.4178
     EDDAV:  cpu time   63.9631: real time   63.9641
       DOS:  cpu time    0.0005: real time    0.0005
    CHARGE:  cpu time    3.8740: real time    3.8741
    MIXING:  cpu time    0.0139: real time    0.0139
    --------------------------------------------
      LOOP:  cpu time   68.6549: real time   68.6643

 eigenvalue-minimisations  :  5968
 total energy-change (2. order) :-0.1617289E-02  (-0.1288462E-03)
 number of electron     640.0000004 magnetization 
 augmentation part       69.7466490 magnetization 

 Broyden mixing:
  rms(total) = 0.63601E-02    rms(broyden)= 0.63600E-02
  rms(prec ) = 0.88694E-02
  weight for this iteration     100.00

 eigenvalues of (default mixing * dielectric matrix)
  average eigenvalue GAMMA=   1.3547
  3.2054  2.5284  1.8102  1.3887  0.9114  0.9114  0.9343  0.9343  0.9480  0.6950
  0.6345

 Free energy of the ion-electron system (eV)
  ---------------------------------------------------
  alpha Z        PSCENC =       784.57699423
  Ewald energy   TEWEN  =    250821.43589914
  -Hartree energ DENC   =   -298780.93535509
  -exchange      EXHF   =         0.00000000
  -V(xc)+E(xc)   XCENC  =      2489.54796011
  PAW double counting   =     59543.71980589   -59375.01391170
  entropy T*S    EENTRO =        -0.00000000
  eigenvalues    EBANDS =    -12217.60011220
  atomic energy  EATOM  =     56210.72393729
  Solvation  Ediel_sol  =         0.00000000
  ---------------------------------------------------
  free energy    TOTEN  =      -523.54478233 eV

  energy without entropy =     -523.54478233  energy(sigma->0) =     -523.54478233


--------------------------------------------------------------------------------------------------------




--------------------------------------- Iteration      1(  17)  ---------------------------------------


    POTLOK:  cpu time    0.3878: real time    0.3963
    SETDIJ:  cpu time    0.4177: real time    0.4177
     EDDAV:  cpu time   59.8560: real time   59.8575
       DOS:  cpu time    0.0005: real time    0.0005
    CHARGE:  cpu time    3.8736: real time    3.8737
    MIXING:  cpu time    0.0142: real time    0.0142
    --------------------------------------------
      LOOP:  cpu time   64.5498: real time   64.5600

 eigenvalue-minimisations  :  5504
 total energy-change (2. order) :-0.2607423E-02  (-0.9430850E-04)
 number of electron     640.0000004 magnetization 
 augmentation part       69.7447200 magnetization 

 Broyden mixing:
  rms(total) = 0.42193E-02    rms(broyden)= 0.42191E-02
  rms(prec ) = 0.60017E-02
  weight for this iteration     100.00

 eigenvalues of (default mixing * dielectric matrix)
  average eigenvalue GAMMA=   1.4285
  3.9356  2.7051  2.3266  1.3142  1.0930  0.9076  0.9076  0.9148  0.9148  0.7716
  0.7283  0.6233

 Free energy of the ion-electron system (eV)
  ---------------------------------------------------
  alpha Z        PSCENC =       784.57699423
  Ewald energy   TEWEN  =    250821.43589914
  -Hartree energ DENC   =   -298791.69978422
  -exchange      EXHF   =         0.00000000
  -V(xc)+E(xc)   XCENC  =      2489.58843691
  PAW double counting   =     59544.89457231   -59376.22671532
  entropy T*S    EENTRO =        -0.00000000
  eigenvalues    EBANDS =    -12206.84073008
  atomic energy  EATOM  =     56210.72393729
  Solvation  Ediel_sol  =         0.00000000
  ---------------------------------------------------
  free energy    TOTEN  =      -523.54738975 eV

  energy without entropy =     -523.54738975  energy(sigma->0) =     -523.54738975


--------------------------------------------------------------------------------------------------------




--------------------------------------- Iteration      1(  18)  ---------------------------------------


    POTLOK:  cpu time    0.3898: real time    0.3987
    SETDIJ:  cpu time    0.4178: real time    0.4178
     EDDAV:  cpu time   54.7597: real time   54.7634
       DOS:  cpu time    0.0006: real time    0.0006
    CHARGE:  cpu time    3.8740: real time    3.8741
    MIXING:  cpu time    0.0152: real time    0.0152
    --------------------------------------------
      LOOP:  cpu time   59.4570: real time   59.4698

 eigenvalue-minimisations  :  4928
 total energy-change (2. order) :-0.3062959E-02  (-0.3477896E-04)
 number of electron     640.0000004 magnetization 
 augmentation part       69.7455115 magnetization 

 Broyden mixing:
  rms(total) = 0.26150E-02    rms(broyden)= 0.26150E-02
  rms(prec ) = 0.35321E-02
  weight for this iteration     100.00

 eigenvalues of (default mixing * dielectric matrix)
  average eigenvalue GAMMA=   1.4327
  4.2483  2.6316  2.2874  1.5383  1.0157  1.0157  0.9412  0.9412  0.9344  0.8976
  0.8976  0.6664  0.6096

 Free energy of the ion-electron system (eV)
  ---------------------------------------------------
  alpha Z        PSCENC =       784.57699423
  Ewald energy   TEWEN  =    250821.43589914
  -Hartree energ DENC   =   -298802.45922571
  -exchange      EXHF   =         0.00000000
  -V(xc)+E(xc)   XCENC  =      2489.61880640
  PAW double counting   =     59539.15576728   -59370.49965861
  entropy T*S    EENTRO =        -0.00000000
  eigenvalues    EBANDS =    -12196.10297274
  atomic energy  EATOM  =     56210.72393729
  Solvation  Ediel_sol  =         0.00000000
  ---------------------------------------------------
  free energy    TOTEN  =      -523.55045271 eV

  energy without entropy =     -523.55045271  energy(sigma->0) =     -523.55045271


--------------------------------------------------------------------------------------------------------




--------------------------------------- Iteration      1(  19)  ---------------------------------------


    POTLOK:  cpu time    0.3900: real time    0.3954
    SETDIJ:  cpu time    0.4187: real time    0.4187
     EDDAV:  cpu time   54.5805: real time   54.5822
       DOS:  cpu time    0.0006: real time    0.0006
    CHARGE:  cpu time    3.8745: real time    3.8745
    MIXING:  cpu time    0.0150: real time    0.0150
    --------------------------------------------
      LOOP:  cpu time   59.2793: real time   59.2864

 eigenvalue-minimisations  :  4904
 total energy-change (2. order) :-0.1117550E-02  (-0.1603510E-04)
 number of electron     640.0000004 magnetization 
 augmentation part       69.7457496 magnetization 

 Broyden mixing:
  rms(total) = 0.16599E-02    rms(broyden)= 0.16598E-02
  rms(prec ) = 0.23952E-02
  weight for this iteration     100.00

 eigenvalues of (default mixing * dielectric matrix)
  average eigenvalue GAMMA=   1.5090
  5.0112  2.7178  2.2528  2.0790  1.1645  1.1645  0.9557  0.9557  0.9280  0.9280
  0.8398  0.8398  0.6808  0.6087

 Free energy of the ion-electron system (eV)
  ---------------------------------------------------
  alpha Z        PSCENC =       784.57699423
  Ewald energy   TEWEN  =    250821.43589914
  -Hartree energ DENC   =   -298806.25689500
  -exchange      EXHF   =         0.00000000
  -V(xc)+E(xc)   XCENC  =      2489.63076600
  PAW double counting   =     59539.14502533   -59370.49095583
  entropy T*S    EENTRO =        -0.00000000
  eigenvalues    EBANDS =    -12192.31634143
  atomic energy  EATOM  =     56210.72393729
  Solvation  Ediel_sol  =         0.00000000
  ---------------------------------------------------
  free energy    TOTEN  =      -523.55157026 eV

  energy without entropy =     -523.55157026  energy(sigma->0) =     -523.55157026


--------------------------------------------------------------------------------------------------------




--------------------------------------- Iteration      1(  20)  ---------------------------------------


    POTLOK:  cpu time    0.3925: real time    0.4011
    SETDIJ:  cpu time    0.4183: real time    0.4183
     EDDAV:  cpu time   49.2207: real time   49.2223
       DOS:  cpu time    0.0007: real time    0.0007
    CHARGE:  cpu time    3.8916: real time    3.8917
    MIXING:  cpu time    0.0152: real time    0.0152
    --------------------------------------------
      LOOP:  cpu time   53.9390: real time   53.9491

 eigenvalue-minimisations  :  4296
 total energy-change (2. order) :-0.1356499E-02  (-0.7763215E-05)
 number of electron     640.0000004 magnetization 
 augmentation part       69.7454897 magnetization 

 Broyden mixing:
  rms(total) = 0.99945E-03    rms(broyden)= 0.99932E-03
  rms(prec ) = 0.14051E-02
  weight for this iteration     100.00

 eigenvalues of (default mixing * dielectric matrix)
  average eigenvalue GAMMA=   1.5729
  6.0309  2.9776  2.2957  2.2957  1.2094  1.2094  0.9745  0.9745  0.9169  0.9169
  0.8763  0.8763  0.7646  0.6721  0.6026

 Free energy of the ion-electron system (eV)
  ---------------------------------------------------
  alpha Z        PSCENC =       784.57699423
  Ewald energy   TEWEN  =    250821.43589914
  -Hartree energ DENC   =   -298810.63474613
  -exchange      EXHF   =         0.00000000
  -V(xc)+E(xc)   XCENC  =      2489.63851420
  PAW double counting   =     59538.58612583   -59369.93069189
  entropy T*S    EENTRO =        -0.00000000
  eigenvalues    EBANDS =    -12187.94895943
  atomic energy  EATOM  =     56210.72393729
  Solvation  Ediel_sol  =         0.00000000
  ---------------------------------------------------
  free energy    TOTEN  =      -523.55292676 eV

  energy without entropy =     -523.55292676  energy(sigma->0) =     -523.55292676


--------------------------------------------------------------------------------------------------------




--------------------------------------- Iteration      1(  21)  ---------------------------------------


    POTLOK:  cpu time    0.3938: real time    0.3989
    SETDIJ:  cpu time    0.4179: real time    0.4179
     EDDAV:  cpu time   50.5461: real time   50.5472
       DOS:  cpu time    0.0006: real time    0.0006
    CHARGE:  cpu time    3.8722: real time    3.8723
    MIXING:  cpu time    0.0156: real time    0.0156
    --------------------------------------------
      LOOP:  cpu time   55.2462: real time   55.2524

 eigenvalue-minimisations  :  4440
 total energy-change (2. order) :-0.5382342E-03  (-0.2327177E-05)
 number of electron     640.0000004 magnetization 
 augmentation part       69.7454651 magnetization 

 Broyden mixing:
  rms(total) = 0.80025E-03    rms(broyden)= 0.80010E-03
  rms(prec ) = 0.10599E-02
  weight for this iteration     100.00

 eigenvalues of (default mixing * dielectric matrix)
  average eigenvalue GAMMA=   1.5482
  6.3193  2.9308  2.4897  1.8885  1.3897  1.1061  1.1061  0.9632  0.9632  0.9192
  0.9192  0.8616  0.8183  0.8183  0.6720  0.6064

 Free energy of the ion-electron system (eV)
  ---------------------------------------------------
  alpha Z        PSCENC =       784.57699423
  Ewald energy   TEWEN  =    250821.43589914
  -Hartree energ DENC   =   -298812.35106446
  -exchange      EXHF   =         0.00000000
  -V(xc)+E(xc)   XCENC  =      2489.64005833
[...]
    -6.896993340 11.945942880  0.000000000     0.000000000  0.083710429  0.000000000
     0.000000000  0.000000000 27.810221070     0.000000000  0.000000000  0.035958003

  length of vectors
    13.793986680 13.793986676 27.810221070     0.083710429  0.083710429  0.035958003


 FORCES acting on ions
    electron-ion (+dipol)            ewald-force                    non-local-force                 convergence-correction
 -----------------------------------------------------------------------------------------------
   -.444E+02 0.784E+01 -.116E+04   0.434E+02 -.843E+01 0.115E+04   0.103E+01 0.704E-01 0.397E+01   0.208E-04 -.261E-04 0.866E-04
   -.391E+02 0.225E+02 -.109E+04   0.385E+02 -.239E+02 0.108E+04   0.101E+01 0.212E+00 0.393E+01   0.233E-05 0.270E-04 0.665E-04
   0.162E+02 -.268E+02 -.109E+04   -.164E+02 0.261E+02 0.109E+04   -.860E-01 0.986E+00 0.425E+01   -.921E-05 -.669E-05 0.840E-04
   -.144E+02 -.524E+02 -.104E+04   0.141E+02 0.536E+02 0.103E+04   0.282E+00 -.552E-01 0.429E+01   -.395E-05 0.281E-04 0.790E-04
   0.440E+02 0.356E+02 -.108E+04   -.431E+02 -.364E+02 0.107E+04   -.103E+01 0.455E+00 0.507E+01   0.181E-04 -.407E-04 0.636E-04
   0.152E+02 0.360E+02 -.109E+04   -.151E+02 -.362E+02 0.108E+04   0.170E+00 -.241E+00 0.477E+01   -.288E-05 0.258E-05 0.723E-04
   0.429E+02 0.150E+02 -.116E+04   -.421E+02 -.151E+02 0.115E+04   -.934E+00 -.101E+00 0.525E+01   -.179E-04 0.286E-04 0.586E-04
   -.111E+00 -.622E+02 -.110E+04   0.626E+00 0.625E+02 0.109E+04   -.161E-01 0.664E+00 0.428E+01   -.702E-05 0.121E-04 0.604E-04
   0.128E+02 0.811E+02 -.105E+04   -.137E+02 -.802E+02 0.104E+04   0.191E+00 -.149E+01 0.421E+01   0.708E-05 -.163E-04 0.473E-04
   0.872E+01 0.333E+02 -.108E+04   -.881E+01 -.342E+02 0.107E+04   -.994E-01 -.873E-01 0.399E+01   -.907E-05 -.207E-07 0.724E-04
   0.347E+01 -.518E+02 -.995E+03   -.304E+01 0.503E+02 0.990E+03   -.101E+00 0.118E+01 0.491E+01   -.291E-04 0.110E-04 0.660E-04
   -.103E+02 -.273E+02 -.112E+04   0.892E+01 0.290E+02 0.111E+04   0.117E+01 -.751E+00 0.417E+01   0.127E-04 0.108E-04 0.644E-04
   0.220E+02 0.202E+02 -.104E+04   -.213E+02 -.198E+02 0.103E+04   -.927E+00 -.246E+00 0.435E+01   -.329E-04 -.398E-04 0.263E-04
   -.577E+02 -.414E+02 -.109E+04   0.576E+02 0.421E+02 0.108E+04   0.798E+00 0.791E+00 0.427E+01   0.308E-04 0.351E-05 0.885E-04
   -.361E+02 -.324E+02 -.106E+04   0.361E+02 0.322E+02 0.105E+04   0.293E+00 0.427E+00 0.436E+01   0.364E-04 0.884E-05 0.132E-03
   -.143E+02 0.693E+01 -.103E+04   0.146E+02 -.563E+01 0.102E+04   0.301E+00 -.108E+01 0.416E+01   -.817E-05 0.325E-04 0.721E-04
   -.104E+02 0.167E+02 0.110E+04   0.117E+02 -.188E+02 -.110E+04   -.668E+00 0.108E+01 -.334E+01   0.512E-05 -.162E-04 -.918E-04
   0.642E+02 -.591E+01 0.105E+04   -.649E+02 0.760E+01 -.104E+04   -.827E+00 -.866E+00 -.397E+01   -.259E-04 -.120E-05 -.132E-03
   0.706E+02 0.572E+02 0.110E+04   -.721E+02 -.587E+02 -.109E+04   -.963E-01 -.213E+00 -.367E+01   0.127E-05 0.159E-04 -.954E-04
   0.353E+01 -.147E+02 0.992E+03   -.261E+01 0.151E+02 -.990E+03   -.562E-01 0.351E+00 -.452E+01   0.410E-04 0.305E-04 -.899E-04
   0.187E+02 -.788E+01 0.104E+04   -.192E+02 0.704E+01 -.103E+04   -.182E+00 0.104E+01 -.357E+01   0.334E-05 -.138E-04 -.975E-04
   -.273E+02 -.110E+02 0.102E+04   0.275E+02 0.112E+02 -.102E+04   0.284E+00 0.705E+00 -.427E+01   0.222E-04 -.327E-05 -.953E-04
   0.667E+01 0.298E+02 0.116E+04   -.701E+01 -.307E+02 -.115E+04   -.135E+00 -.871E-01 -.538E+01   0.579E-05 0.227E-04 -.121E-03
   -.125E+02 -.720E+02 0.107E+04   0.121E+02 0.742E+02 -.107E+04   0.351E+00 0.239E+00 -.556E+01   0.786E-05 0.230E-04 -.117E-03
   0.315E+02 -.351E+02 0.101E+04   -.328E+02 0.342E+02 -.100E+04   0.387E+00 0.188E+01 -.306E+01   0.624E-05 0.317E-05 -.111E-03
   0.103E+02 0.461E+02 0.107E+04   -.106E+02 -.477E+02 -.106E+04   0.233E+00 0.248E-01 -.463E+01   0.131E-04 -.558E-04 -.115E-03
   -.344E+02 0.638E+01 0.114E+04   0.345E+02 -.598E+01 -.114E+04   0.940E+00 -.491E+00 -.482E+01   -.267E-04 -.291E-04 -.112E-03
   0.392E+02 0.838E+01 0.112E+04   -.380E+02 -.776E+01 -.112E+04   -.170E+01 -.578E+00 -.283E+01   -.485E-04 0.376E-04 -.118E-03
   -.316E+02 0.211E+01 0.111E+04   0.330E+02 -.282E+01 -.110E+04   -.695E+00 0.276E+00 -.451E+01   -.101E-04 -.119E-04 -.999E-04
   -.270E+02 -.494E+02 0.986E+03   0.280E+02 0.509E+02 -.982E+03   -.274E+00 -.356E+00 -.419E+01   -.154E-04 -.722E-05 -.984E-04
   -.784E+02 -.512E+02 0.112E+04   0.787E+02 0.522E+02 -.112E+04   0.864E+00 0.199E+00 -.347E+01   0.316E-04 0.151E-05 -.105E-03
   0.109E+02 0.137E+02 0.109E+04   -.105E+02 -.133E+02 -.108E+04   -.920E+00 -.546E+00 -.442E+01   0.168E-04 0.374E-04 -.786E-04
   -.371E+01 -.135E+02 0.148E+04   0.343E+01 0.135E+02 -.148E+04   0.101E+01 0.241E+00 0.218E+01   -.122E-04 0.742E-05 -.675E-04
   0.154E+02 -.157E+02 0.138E+04   -.154E+02 0.154E+02 -.139E+04   -.183E+00 0.718E+00 0.213E+01   0.615E-05 -.121E-04 -.805E-04
   0.145E+02 0.299E+01 0.146E+04   -.145E+02 -.273E+01 -.146E+04   -.208E+00 -.472E+00 0.334E+01   0.122E-04 0.836E-06 -.367E-04
   -.276E+02 0.303E+02 0.145E+04   0.277E+02 -.303E+02 -.145E+04   0.965E-01 -.660E+00 0.223E+01   0.994E-05 0.196E-04 -.468E-04
   -.310E+02 0.302E+00 0.146E+04   0.311E+02 -.554E+00 -.147E+04   0.143E+00 0.880E+00 0.266E+01   0.107E-04 -.681E-05 -.605E-04
   -.162E+02 -.169E+02 0.144E+04   0.161E+02 0.167E+02 -.144E+04   0.567E+00 0.502E+00 0.141E+01   -.865E-05 0.649E-05 -.721E-04
   -.173E+02 0.824E+00 0.148E+04   0.170E+02 -.719E+00 -.148E+04   0.142E+01 -.899E-01 0.627E+00   0.823E-05 0.152E-04 -.467E-04
   0.533E+01 0.219E+02 0.143E+04   -.552E+01 -.216E+02 -.143E+04   0.436E+00 -.105E+01 0.195E+01   0.245E-04 0.117E-04 -.334E-04
   0.102E+02 -.180E+02 0.142E+04   -.102E+02 0.180E+02 -.143E+04   -.261E+00 0.421E+00 0.250E+01   0.810E-05 -.196E-04 -.633E-04
   0.903E+01 0.716E+01 0.145E+04   -.898E+01 -.731E+01 -.145E+04   -.271E-01 0.350E+00 0.240E+01   0.705E-05 -.155E-04 -.678E-04
   0.107E+02 0.140E+02 0.150E+04   -.106E+02 -.140E+02 -.150E+04   -.224E+00 -.333E+00 0.301E+01   -.169E-04 0.877E-05 -.555E-04
   0.427E+02 0.438E+02 0.147E+04   -.428E+02 -.433E+02 -.147E+04   -.213E+00 -.214E+01 0.132E+01   -.129E-04 0.144E-04 -.549E-04
   0.820E+01 -.162E+02 0.143E+04   -.828E+01 0.165E+02 -.143E+04   0.211E+00 -.834E+00 0.158E+01   -.945E-05 -.836E-05 -.816E-04
   -.279E+02 0.168E+02 0.147E+04   0.278E+02 -.168E+02 -.147E+04   0.435E+00 -.400E+00 0.242E+01   -.281E-05 -.140E-04 -.597E-04
   0.279E+01 -.232E+02 0.145E+04   -.265E+01 0.230E+02 -.145E+04   -.522E+00 0.676E+00 0.245E+01   0.217E-05 -.169E-04 -.513E-04
   -.389E+02 -.648E+01 0.149E+04   0.387E+02 0.630E+01 -.149E+04   0.897E+00 0.481E+00 0.263E+01   -.268E-04 0.136E-04 -.561E-04
   -.238E+02 -.102E+02 -.143E+04   0.238E+02 0.998E+01 0.143E+04   0.294E+00 0.583E+00 -.227E+01   0.175E-05 -.550E-05 0.637E-04
   -.993E+01 0.137E+02 -.148E+04   0.101E+02 -.136E+02 0.148E+04   -.239E+00 -.284E+00 -.252E+01   0.110E-04 -.109E-04 0.559E-04
   -.216E+02 -.279E+02 -.147E+04   0.213E+02 0.277E+02 0.147E+04   0.112E+01 0.129E+01 -.605E+00   -.150E-04 0.178E-04 0.726E-04
   0.179E+02 -.192E+02 -.145E+04   -.177E+02 0.194E+02 0.145E+04   -.581E+00 0.826E-01 -.172E+01   -.123E-05 -.800E-06 0.898E-04
   -.125E+00 0.208E+01 -.144E+04   0.165E+00 -.193E+01 0.145E+04   -.525E-01 -.302E+00 -.232E+01   0.314E-05 -.780E-05 0.380E-04
   0.169E+02 0.316E+02 -.141E+04   -.167E+02 -.316E+02 0.141E+04   -.804E+00 -.775E-02 -.920E+00   -.531E-05 -.167E-04 0.637E-04
   0.800E+01 -.258E+01 -.147E+04   -.764E+01 0.255E+01 0.147E+04   -.114E+01 0.219E+00 -.195E+01   -.107E-05 0.235E-05 0.743E-04
   0.159E+01 -.175E+02 -.147E+04   -.169E+01 0.176E+02 0.147E+04   0.415E+00 0.161E+00 -.206E+01   -.960E-05 0.926E-05 0.630E-04
   -.674E+00 -.939E+01 -.145E+04   0.691E+00 0.947E+01 0.145E+04   -.378E-01 0.258E-01 -.276E+01   -.224E-04 -.641E-05 0.364E-04
   0.189E+02 0.123E+02 -.146E+04   -.188E+02 -.124E+02 0.147E+04   -.484E+00 0.466E+00 -.137E+01   0.153E-04 -.890E-06 0.484E-04
   -.716E+00 -.101E+02 -.146E+04   0.527E+00 0.101E+02 0.146E+04   0.616E+00 0.235E+00 -.157E+01   0.235E-04 0.159E-04 0.779E-04
   0.305E+01 0.302E+01 -.147E+04   -.291E+01 -.284E+01 0.147E+04   -.428E+00 -.698E+00 -.262E+01   0.755E-05 0.134E-05 0.558E-04
   0.112E+02 -.165E+02 -.145E+04   -.111E+02 0.162E+02 0.145E+04   -.750E+00 0.108E+01 -.185E+01   0.184E-04 -.166E-04 0.497E-04
   0.226E+02 0.240E+02 -.144E+04   -.226E+02 -.241E+02 0.144E+04   -.781E+00 -.475E-01 -.143E+01   -.188E-04 0.169E-04 0.578E-04
   0.679E+01 -.519E+01 -.147E+04   -.688E+01 0.501E+01 0.147E+04   0.154E+00 0.643E+00 -.213E+01   -.164E-05 0.889E-05 0.638E-04
   -.718E+01 -.829E+01 -.143E+04   0.720E+01 0.835E+01 0.143E+04   0.234E-01 0.572E-01 -.156E+01   0.182E-05 -.111E-04 0.800E-04
   -.155E+02 -.129E+02 0.152E+02   0.152E+02 0.129E+02 -.156E+02   0.909E+00 -.510E+00 0.872E+00   0.237E-06 0.180E-05 -.557E-05
   -.203E+02 -.228E+02 -.256E+02   0.205E+02 0.228E+02 0.260E+02   -.597E+00 -.106E+00 -.955E+00   0.824E-06 -.688E-05 -.119E-04
   -.587E+01 -.498E+01 0.211E+02   0.616E+01 0.511E+01 -.211E+02   -.597E+00 -.315E+00 0.561E-02   -.780E-05 0.426E-05 -.343E-05
   0.385E+01 0.346E+02 0.254E+02   -.382E+01 -.345E+02 -.259E+02   -.865E+00 -.735E+00 0.165E+01   0.735E-06 -.540E-05 -.505E-05
   0.136E+02 0.160E+02 0.287E+02   -.136E+02 -.153E+02 -.291E+02   -.130E+00 -.244E+01 0.102E+01   0.105E-04 0.378E-05 -.916E-05
   0.172E+02 0.304E+02 -.331E+02   -.170E+02 -.299E+02 0.332E+02   -.116E+01 -.134E+01 0.267E+00   0.499E-05 -.952E-05 -.322E-05
   0.263E+02 0.183E+02 0.202E+02   -.261E+02 -.183E+02 -.204E+02   -.341E+00 0.321E+00 0.958E+00   -.360E-06 0.366E-05 -.149E-04
   0.176E+02 0.263E+02 -.994E+01   -.175E+02 -.256E+02 0.951E+01   -.186E+00 -.196E+01 0.931E+00   0.371E-05 0.811E-05 -.133E-04
   0.135E+02 -.128E+01 0.498E+01   -.132E+02 0.103E+01 -.543E+01   -.419E+00 0.577E+00 0.137E+01   -.419E-05 0.418E-05 -.188E-04
   0.227E+01 0.157E+01 -.312E+02   -.207E+01 -.177E+01 0.316E+02   -.451E+00 0.849E+00 -.155E+01   0.209E-05 -.194E-04 -.184E-05
   0.128E+02 0.388E+02 0.167E+02   -.128E+02 -.385E+02 -.167E+02   -.125E-02 -.774E+00 0.311E+00   -.185E-05 -.409E-05 -.133E-04
   -.250E+02 -.314E+02 0.214E+02   0.245E+02 0.310E+02 -.215E+02   0.198E+01 0.119E+01 0.133E+01   -.563E-05 0.104E-04 -.252E-04
   0.177E+02 0.228E+02 -.669E+01   -.173E+02 -.225E+02 0.679E+01   -.114E+01 -.127E+01 -.195E+00   -.639E-05 0.188E-05 -.121E-04
   -.201E+02 0.427E+02 -.147E+02   0.197E+02 -.425E+02 0.149E+02   0.212E+01 -.155E+01 -.206E+01   -.105E-04 -.939E-05 0.249E-05
   0.160E+01 -.192E+02 -.764E+01   -.135E+01 0.193E+02 0.786E+01   -.740E+00 -.129E+00 -.638E+00   0.953E-05 0.159E-05 0.177E-05
   -.200E+02 -.226E+02 0.267E+02   0.201E+02 0.222E+02 -.269E+02   -.563E+00 0.135E+01 0.419E+00   -.298E-06 0.811E-05 -.232E-05
 -----------------------------------------------------------------------------------------------
   0.173E+01 0.169E+01 -.129E+02   -.114E-12 0.924E-13 0.108E-11   -.172E+01 -.169E+01 0.129E+02   0.379E-04 0.621E-04 -.617E-03
 
 
 POSITION                                       TOTAL-FORCE (eV/Angst)
 -----------------------------------------------------------------------------------
      0.00541      2.11103     15.30902         0.031877     -0.514034     -1.292325
     -1.72607      5.05635     15.29177         0.427452     -1.140370     -2.549870
     -3.52299      7.83610     15.26999        -0.339604      0.251505     -1.754485
     -5.20956     10.88399     15.13412         0.002715      1.177010     -0.453987
      3.54788      1.97328     15.12795        -0.179303     -0.325347      0.267777
      1.74732      5.08106     15.19074         0.210697     -0.398521     -0.954006
      0.03372      7.89513     15.25492        -0.109782     -0.208734     -1.180250
     -1.78543     10.84860     15.20658         0.498828      1.011643     -0.515787
      7.00243      1.99957     15.10876        -0.655199     -0.607184      0.713406
      5.21673      5.12907     15.17300        -0.182746     -0.992455     -0.660217
      3.40483      8.04123     15.04799         0.330364     -0.344678      0.029320
      1.66803     10.81121     15.23716        -0.192393      0.974064     -0.783594
     10.43592      1.96022     15.07094        -0.247307      0.151611      1.228867
      8.56125      4.87531     15.15276         0.748343      1.463676      0.791499
      6.84656      7.92041     15.17449         0.214324      0.197178     -0.972836
      5.13063     10.95373     15.13955         0.570277      0.211695     -0.977240
      1.62175      1.12248     12.53188         0.640710     -1.000125      1.183197
      0.19069      3.95073     12.63852        -1.545739      0.824809      1.184763
     -1.65693      7.11012     12.59637        -1.641692     -1.705836      1.352801
     -3.51950      9.93627     12.81484         0.860963      0.715663     -2.047567
      5.32425      0.94982     12.69384        -0.656416      0.190137     -0.049706
      3.48667      3.81964     12.74287         0.521757      0.972398     -0.787897
      1.75664      7.05401     12.60686        -0.470078     -1.007594      0.154220
     -0.05121      9.78368     12.71545        -0.119653      2.362508     -0.219426
      8.69683      0.84504     12.67514        -0.909972      0.931411      0.567115
      6.84142      4.13690     12.72752        -0.074620     -1.606135     -0.380786
      5.01242      7.00262     12.63002         1.020057     -0.093230     -0.659154
      3.57414     10.00078     12.54111        -0.415208      0.047999      0.190237
     12.01732      1.07389     12.58958         0.766697     -0.436921      0.853530
     10.28428      3.96447     12.77463         0.664662      1.162989      0.072074
      8.50474      6.86901     12.58698         1.190851      1.147686      0.596817
      6.97325     10.01635     12.65466        -0.581722     -0.125693     -0.541653
     -0.24565      2.01447     10.86769         0.730367      0.237954      0.104810
     -1.69531      4.91486     11.13350        -0.218086      0.475297     -0.104063
     -3.40118      8.10745     10.79574        -0.183601     -0.214215      1.051558
     -5.32737     11.13912     10.92166         0.195326     -0.647750      0.138968
      3.36199      1.91455     10.86285         0.253600      0.627981      0.510530
      1.70997      4.93129     11.04897         0.512566      0.327411     -0.603623
     -0.14467      8.02144     11.00201         1.065669      0.015495     -1.170770
     -1.81169     11.11233     11.03697         0.243319     -0.810626     -0.096227
      6.98111      1.99125     11.02549        -0.235552      0.366928      0.303303
      5.10057      4.90449     10.98255         0.026079      0.197586      0.262477
      3.40030      8.06072     10.75713        -0.093511     -0.276792      0.773579
      1.84163     11.25043     10.92114        -0.263878     -1.579061     -0.474175
     10.24577      2.20421     11.08522         0.122962     -0.504377     -0.424747
      8.51925      5.03011     10.91484         0.334301     -0.328058      0.389768
      6.93070      7.86017     10.91610        -0.380455      0.523895      0.277973
      5.00545     10.91554     10.76189         0.697645      0.302683      0.581846
      1.71571      0.86621     16.84426         0.304157      0.401179     -0.135405
      0.15081      4.11813     16.99953        -0.101221     -0.228026     -0.355926
     -1.94584      6.81580     16.84372         0.861050      1.071126      1.263723
     -3.41053      9.85112     16.81068        -0.470477      0.236849      0.400788
      5.21803      0.97971     16.85776        -0.012550     -0.156059     -0.204447
      3.62079      4.01812     16.63949        -0.646827     -0.014272      1.133126
      1.93041      7.00543     16.86297        -0.786520      0.181335      0.113165
     -0.09992      9.81826     16.89987         0.316835      0.235205      0.059856
      8.68797      0.89302     16.89971        -0.020846      0.103189     -0.559644
      6.98899      3.88678     16.77861        -0.406196      0.310518      0.707197
      5.06580      7.02024     16.77337         0.426639      0.196465      0.429723
      3.52207     10.05483     16.91929        -0.288553     -0.512434     -0.497368
     12.29485      0.78822     16.84789        -0.644208      0.786553      0.207409
     10.54791      3.85619     16.77777        -0.785650     -0.140114      0.701893
      8.52225      6.81898     16.88578         0.069901      0.464101     -0.005259
      6.91128      9.86747     16.72792         0.039598      0.117547      0.499272
     13.70744      0.07316     13.80184         0.666032     -0.466654      0.421696
     -1.66695      2.99522     14.04870        -0.363231     -0.137354     -0.542232
     -3.39771      6.02509     13.94338        -0.312444     -0.189249      0.000742
     -5.16176      9.02114     13.82037        -0.834905     -0.580569      1.135543
      3.43734      0.20804     13.83565        -0.121023     -1.709764      0.572419
      1.83058      3.14052     13.90636        -0.928223     -0.821460      0.318165
      0.06881      6.00992     13.88113        -0.139634      0.249725      0.711522
     -1.74676      9.08927     13.90192        -0.170027     -1.308849      0.499386
      0.12587     11.81857     13.84605        -0.112619      0.326447      0.920920
      5.26357      2.95175     14.02741        -0.252374      0.649996     -1.134967
      3.46590      6.11738     13.87689        -0.001730     -0.486484      0.288724
      1.53788      8.83410     13.84444         1.475034      0.767870      1.222961
     10.45980      0.06135     13.87792        -0.679899     -0.955638     -0.092462
      8.48625      3.14270     14.06709         1.690467     -1.362255     -1.785321
      6.94041      6.01538     13.96296        -0.492299     -0.015393     -0.422336
      5.17154      8.88567     13.82474        -0.464148      0.984993      0.201094
 -----------------------------------------------------------------------------------
    total drift:                                0.007804      0.004614      0.000841


--------------------------------------------------------------------------------------------------------



  FREE ENERGIE OF THE ION-ELECTRON SYSTEM (eV)
  ---------------------------------------------------
  free  energy   TOTEN  =      -523.55487690 eV

  energy  without entropy=     -523.55487690  energy(sigma->0) =     -523.55487690
 


--------------------------------------------------------------------------------------------------------


    POTLOK:  cpu time    0.8115: real time    0.8115


--------------------------------------------------------------------------------------------------------


     LOOP+:  cpu time 1908.1058: real time 1908.4435
    4ORBIT:  cpu time    0.0000: real time    0.0000

 total amount of memory used by VASP MPI-rank0   253921. kBytes
=======================================================================

   base      :      30000. kBytes
   nonlr-proj:      18737. kBytes
   fftplans  :      72602. kBytes
   grid      :      41267. kBytes
   one-center:        108. kBytes
   wavefun   :      91207. kBytes
 
  
  
 General timing and accounting informations for this job:
 ========================================================
  
                  Total CPU time used (sec):     1938.854
                            User time (sec):     1933.618
                          System time (sec):        5.236
                         Elapsed time (sec):     1939.301
  
                   Maximum memory used (kb):      462524.
                   Average memory used (kb):           0.
  
                          Minor page faults:       409988
                          Major page faults:            0
                 Voluntary context switches:         1991
