<?xml version="1.0" encoding="ISO-8859-1"?>
<modeling>
 <generator>
  <i name="program" type="string">vasp </i>
  <i name="version" type="string">5.4.4.18Apr17-6-g9f103f2a35  </i>
  <i name="subversion" type="string">(build Oct 31 2019 15:01:46) complex            parallel </i>
  <i name="platform" type="string">LinuxIFC </i>
  <i name="date" type="string">2024 04 29 </i>
  <i name="time" type="string">20:06:52 </i>
 </generator>
 <incar>
  <i type="int" name="ISTART">     0</i>
  <i type="string" name="PREC">a</i>
  <i type="logical" name="ADDGRID"> T  </i>
  <i type="int" name="IBRION">    -1</i>
  <i name="EDIFF">      0.00000100</i>
  <i name="EDIFFG">     -0.01000000</i>
  <i type="int" name="NSW">     1</i>
  <i type="int" name="ISIF">     2</i>
  <i type="int" name="ISYM">     0</i>
  <i name="ENCUT">    600.00000000</i>
  <i name="POTIM">      1.00000000</i>
  <i type="string" name="LREAL">  Auto</i>
  <i type="int" name="ISMEAR">     0</i>
  <i name="SIGMA">      0.05000000</i>
  <i name="KSPACING">      0.30000000</i>
  <i type="logical" name="KGAMMA"> T  </i>
  <i type="logical" name="LWAVE"> F  </i>
  <i type="logical" name="LCHARG"> F  </i>
  <i type="logical" name="LSCALAPACK"> F  </i>
  <v type="int" name="KPOINT_BSE">    -1     0     0     0</v>
 </incar>
 <structure name="primitive_cell" >
  <crystal>
   <varray name="basis" >
    <v>      10.56489661       0.00000000       0.00000000 </v>
    <v>       0.00000000      10.56489661       0.00000000 </v>
    <v>       0.00000000       0.00000000      10.56489661 </v>
   </varray>
   <i name="volume">   1179.22249153 </i>
   <varray name="rec_basis" >
    <v>       0.09465308       0.00000000       0.00000000 </v>
    <v>       0.00000000       0.09465308       0.00000000 </v>
    <v>       0.00000000       0.00000000       0.09465308 </v>
   </varray>
  </crystal>
  <varray name="positions" >
   <v>      -0.04098364      -0.04906208       0.11765747 </v>
   <v>       0.09146143       0.03481994       0.19934567 </v>
   <v>       0.06955619       0.03657975      -0.03552416 </v>
   <v>      -0.17696408      -0.20484162       0.09375868 </v>
   <v>      -0.16096024       0.09961808      -0.00389742 </v>
   <v>       0.12962549      -0.14641353       0.00486767 </v>
   <v>       0.01036922      -0.19645950       0.28712860 </v>
   <v>      -0.05561689       0.08868795      -0.09608735 </v>
   <v>      -0.13471397       0.10903865       0.30244952 </v>
   <v>      -0.28449374      -0.04319004       0.01589597 </v>
   <v>      -0.09447171       0.20909680       0.13888818 </v>
   <v>      -0.28947725      -0.04872631       0.23371769 </v>
   <v>      -0.12440790      -0.10496279       0.37660780 </v>
   <v>      -0.05351152      -0.33431758       0.13717848 </v>
   <v>       0.15193165      -0.05599952       0.34434687 </v>
   <v>       0.14251907       0.15687217       0.24341465 </v>
   <v>      -0.28777064       0.09600628       0.25164627 </v>
   <v>      -0.16252953      -0.04882239      -0.17716669 </v>
   <v>       0.06823473       0.11880156       0.37054094 </v>
   <v>      -0.02436160       0.23879858      -0.04869902 </v>
   <v>       0.27993075      -0.01798729       0.02846114 </v>
   <v>       0.28531845      -0.08023167       0.21459183 </v>
   <v>      -0.18980924      -0.32204241       0.27050149 </v>
   <v>      -0.10927575      -0.24752164      -0.16255011 </v>
   <v>       0.07943128       0.27606876       0.17978177 </v>
   <v>      -0.30445592      -0.22633392       0.27514444 </v>
   <v>       0.19108391      -0.30278220       0.21064747 </v>
   <v>      -0.32577695       0.16573139       0.12958061 </v>
   <v>      -0.29377710      -0.18703465      -0.10277252 </v>
   <v>      -0.29027402      -0.29445304       0.01638640 </v>
   <v>       0.16481996      -0.27237617      -0.08658888 </v>
   <v>       0.04175037      -0.36907046      -0.05369550 </v>
   <v>       0.03406506      -0.14947430      -0.24253851 </v>
   <v>      -0.07233300       0.19043050       0.41419675 </v>
   <v>       0.26041845       0.19636873       0.11230359 </v>
   <v>      -0.07308280       0.10418509      -0.24820058 </v>
   <v>      -0.00020450      -0.33039093       0.40279468 </v>
   <v>       0.18503051      -0.03621870      -0.21531458 </v>
   <v>      -0.40329115      -0.23002979       0.14992796 </v>
   <v>       0.16023819       0.22425856      -0.11999769 </v>
   <v>      -0.30480213      -0.16942088       0.42106544 </v>
   <v>       0.28310531       0.13949282       0.32808218 </v>
   <v>      -0.06731001      -0.05007459      -0.31728410 </v>
   <v>      -0.23296484      -0.42192268      -0.00396141 </v>
   <v>      -0.39789047       0.11610916      -0.08358940 </v>
   <v>       0.09018843      -0.47050241       0.18700911 </v>
   <v>       0.01962590      -0.03793758      -0.43941405 </v>
   <v>      -0.03585603       0.33044656       0.35580398 </v>
   <v>       0.26460158      -0.35714931      -0.01611516 </v>
   <v>       0.36107795      -0.26342088       0.09630971 </v>
   <v>       0.20047506       0.33879813       0.10178987 </v>
   <v>      -0.06255929      -0.25389755      -0.47223869 </v>
   <v>      -0.28606864       0.10483483      -0.23965376 </v>
   <v>      -0.28051228       0.32667775       0.00363426 </v>
   <v>       0.35790048       0.13609335      -0.05084313 </v>
   <v>       0.14444858      -0.32194067       0.45509268 </v>
   <v>      -0.15439529       0.40527048       0.19074598 </v>
   <v>      -0.41124378       0.12605272       0.35847360 </v>
   <v>       0.48377184      -0.04173047       0.05970952 </v>
   <v>      -0.19444289       0.27474636      -0.20249899 </v>
   <v>       0.22974233      -0.25938833      -0.22063976 </v>
   <v>      -0.48429355      -0.07225395       0.30457015 </v>
   <v>       0.42767932      -0.14416447       0.17619197 </v>
   <v>       0.20658289      -0.04680526      -0.46017008 </v>
   <v>       0.11036060       0.15584626      -0.30544717 </v>
   <v>       0.12446688       0.10034560      -0.43989565 </v>
   <v>      -0.22976698       0.19955812      -0.49575873 </v>
   <v>       0.41726246       0.05292728       0.28867198 </v>
   <v>       0.05074377       0.41616725       0.28010462 </v>
   <v>      -0.41136870      -0.37153226      -0.00287358 </v>
   <v>      -0.06619701       0.25256877      -0.29211190 </v>
   <v>      -0.04191618       0.19208310      -0.43344822 </v>
   <v>       0.40147335      -0.24411020       0.29272496 </v>
   <v>      -0.20218720      -0.04072992      -0.37147666 </v>
   <v>       0.11242926       0.43801839       0.04026059 </v>
   <v>      -0.09334813       0.42811924      -0.07327457 </v>
   <v>       0.27941974       0.32785065      -0.03509968 </v>
   <v>       0.01755049       0.34636051      -0.21558443 </v>
   <v>       0.39406228       0.23423113       0.04962364 </v>
   <v>       0.38135887      -0.05896204      -0.20157559 </v>
   <v>      -0.00603331      -0.48652090       0.41722646 </v>
   <v>      -0.40358256       0.01437379      -0.49700106 </v>
   <v>       0.39254029      -0.16655652       0.40609917 </v>
   <v>      -0.37907363      -0.37595549       0.37462919 </v>
   <v>      -0.26150686       0.43974416       0.08758090 </v>
   <v>       0.44801069       0.16903825       0.18096126 </v>
   <v>      -0.38211243      -0.12761858      -0.29413109 </v>
   <v>       0.24524982      -0.45743770       0.33289745 </v>
   <v>      -0.43923526       0.30363032       0.23301262 </v>
   <v>       0.44335100      -0.21316530      -0.07260999 </v>
   <v>       0.12676058      -0.21194294      -0.38784653 </v>
   <v>       0.39541074      -0.00235179       0.44695956 </v>
   <v>      -0.23004883       0.49339711       0.35706193 </v>
   <v>       0.00464477      -0.39292411      -0.31700400 </v>
   <v>       0.24560898       0.20561331      -0.47110780 </v>
   <v>      -0.17195673      -0.45792045      -0.25041400 </v>
   <v>      -0.41926838       0.31033433      -0.10159685 </v>
   <v>      -0.27471219      -0.25324733      -0.35642636 </v>
   <v>      -0.20003082      -0.42469508      -0.48484939 </v>
   <v>       0.17535173       0.37343504       0.43674736 </v>
   <v>      -0.13490807      -0.33912988      -0.36671038 </v>
   <v>      -0.35717657      -0.32761024      -0.48755804 </v>
   <v>       0.32846767      -0.26186010      -0.49277327 </v>
   <v>      -0.36100048      -0.39383285      -0.21841002 </v>
   <v>       0.44171805       0.07844103      -0.17516750 </v>
   <v>       0.19654004       0.47549596      -0.12557416 </v>
   <v>      -0.37448145       0.46943098       0.17463674 </v>
   <v>      -0.45838464      -0.17495872      -0.48586676 </v>
   <v>       0.32565585       0.08959402      -0.32339697 </v>
   <v>       0.37418703       0.30582781       0.35453949 </v>
   <v>      -0.34429941       0.28065942      -0.48847003 </v>
   <v>      -0.47343451       0.05571209      -0.28955195 </v>
   <v>      -0.49104684       0.34654269       0.02699434 </v>
   <v>       0.37315756       0.40391968       0.18928741 </v>
   <v>       0.28498204      -0.45184571       0.45877650 </v>
   <v>       0.44395414      -0.41435932       0.28133036 </v>
   <v>      -0.37647032       0.39148705       0.42257490 </v>
   <v>       0.43458170      -0.24079751      -0.27053143 </v>
   <v>       0.36493941      -0.36093916      -0.27589343 </v>
   <v>      -0.23613929       0.38463817      -0.31996941 </v>
   <v>      -0.12716964       0.38187098      -0.40788836 </v>
   <v>       0.27987160       0.35184952      -0.28024282 </v>
   <v>       0.44628717      -0.48145515       0.06096649 </v>
   <v>       0.46272704       0.25503587      -0.18767761 </v>
   <v>      -0.37270435       0.42120093      -0.20305740 </v>
   <v>       0.39259053      -0.07881018      -0.38369542 </v>
   <v>       0.49774074       0.21764065      -0.47717375 </v>
   <v>      -0.37424310       0.31212965      -0.35126492 </v>
   <v>       0.24385614      -0.43527970      -0.38327901 </v>
   <v>       0.09578898       0.42083656      -0.37874557 </v>
   <v>       0.43643633      -0.46277124      -0.17868666 </v>
   <v>       0.37643709       0.23239368      -0.37674618 </v>
   <v>      -0.44565679      -0.41918365      -0.42539941 </v>
   <v>       0.40737277       0.46446916       0.45971534 </v>
   <v>       0.46812480       0.42963141      -0.33043366 </v>
  </varray>
 </structure>
 <varray name="primitive_index" >
  <v type="int" >        1 </v>
  <v type="int" >      117 </v>
  <v type="int" >       57 </v>
  <v type="int" >       84 </v>
  <v type="int" >      109 </v>
  <v type="int" >       65 </v>
  <v type="int" >       73 </v>
  <v type="int" >       28 </v>
  <v type="int" >      102 </v>
  <v type="int" >       21 </v>
  <v type="int" >        3 </v>
  <v type="int" >      110 </v>
  <v type="int" >       14 </v>
  <v type="int" >       13 </v>
  <v type="int" >       19 </v>
  <v type="int" >       33 </v>
  <v type="int" >       47 </v>
  <v type="int" >      108 </v>
  <v type="int" >       62 </v>
  <v type="int" >      134 </v>
  <v type="int" >       26 </v>
  <v type="int" >       97 </v>
  <v type="int" >      131 </v>
  <v type="int" >       22 </v>
  <v type="int" >       88 </v>
  <v type="int" >       52 </v>
  <v type="int" >       10 </v>
  <v type="int" >       91 </v>
  <v type="int" >      121 </v>
  <v type="int" >       51 </v>
  <v type="int" >       37 </v>
  <v type="int" >       89 </v>
  <v type="int" >       80 </v>
  <v type="int" >       48 </v>
  <v type="int" >      115 </v>
  <v type="int" >       83 </v>
  <v type="int" >       32 </v>
  <v type="int" >       24 </v>
  <v type="int" >      103 </v>
  <v type="int" >       20 </v>
  <v type="int" >       90 </v>
  <v type="int" >      122 </v>
  <v type="int" >       29 </v>
  <v type="int" >       66 </v>
  <v type="int" >      111 </v>
  <v type="int" >       55 </v>
  <v type="int" >      105 </v>
  <v type="int" >       70 </v>
  <v type="int" >      126 </v>
  <v type="int" >      123 </v>
  <v type="int" >       49 </v>
  <v type="int" >       67 </v>
  <v type="int" >        4 </v>
  <v type="int" >      124 </v>
  <v type="int" >       86 </v>
  <v type="int" >      127 </v>
  <v type="int" >      107 </v>
  <v type="int" >      125 </v>
  <v type="int" >       92 </v>
  <v type="int" >       58 </v>
  <v type="int" >       87 </v>
  <v type="int" >      106 </v>
  <v type="int" >       45 </v>
  <v type="int" >       60 </v>
  <v type="int" >       98 </v>
  <v type="int" >       35 </v>
  <v type="int" >      132 </v>
  <v type="int" >       53 </v>
  <v type="int" >       39 </v>
  <v type="int" >       74 </v>
  <v type="int" >       40 </v>
  <v type="int" >       69 </v>
  <v type="int" >       72 </v>
  <v type="int" >       61 </v>
  <v type="int" >       56 </v>
  <v type="int" >        7 </v>
  <v type="int" >       96 </v>
  <v type="int" >      128 </v>
  <v type="int" >       30 </v>
  <v type="int" >      129 </v>
  <v type="int" >       99 </v>
  <v type="int" >       17 </v>
  <v type="int" >       34 </v>
  <v type="int" >       77 </v>
  <v type="int" >       44 </v>
  <v type="int" >       75 </v>
  <v type="int" >       27 </v>
  <v type="int" >       63 </v>
  <v type="int" >       18 </v>
  <v type="int" >       15 </v>
  <v type="int" >       25 </v>
  <v type="int" >      100 </v>
  <v type="int" >       12 </v>
  <v type="int" >      104 </v>
  <v type="int" >       81 </v>
  <v type="int" >      101 </v>
  <v type="int" >       54 </v>
  <v type="int" >       76 </v>
  <v type="int" >      120 </v>
  <v type="int" >       82 </v>
  <v type="int" >       42 </v>
  <v type="int" >       46 </v>
  <v type="int" >       68 </v>
  <v type="int" >       11 </v>
  <v type="int" >       38 </v>
  <v type="int" >       16 </v>
  <v type="int" >       94 </v>
  <v type="int" >      113 </v>
  <v type="int" >      119 </v>
  <v type="int" >        8 </v>
  <v type="int" >       31 </v>
  <v type="int" >       64 </v>
  <v type="int" >      133 </v>
  <v type="int" >       93 </v>
  <v type="int" >       36 </v>
  <v type="int" >        9 </v>
  <v type="int" >       71 </v>
  <v type="int" >      118 </v>
  <v type="int" >       41 </v>
  <v type="int" >       43 </v>
  <v type="int" >      112 </v>
  <v type="int" >       78 </v>
  <v type="int" >        2 </v>
  <v type="int" >       79 </v>
  <v type="int" >      116 </v>
  <v type="int" >       23 </v>
  <v type="int" >       59 </v>
  <v type="int" >      114 </v>
  <v type="int" >       95 </v>
  <v type="int" >        6 </v>
  <v type="int" >       85 </v>
  <v type="int" >       50 </v>
  <v type="int" >      135 </v>
  <v type="int" >      130 </v>
  <v type="int" >        5 </v>
 </varray>
 <kpoints>
  <generation param="Gamma">
   <v type="int" name="divisions">       2        2        2 </v>
   <v name="usershift">      0.00000000       0.00000000       0.00000000 </v>
   <v name="genvec1">      0.50000000       0.00000000       0.00000000 </v>
   <v name="genvec2">      0.00000000       0.50000000       0.00000000 </v>
   <v name="genvec3">      0.00000000       0.00000000       0.50000000 </v>
   <v name="shift">      0.00000000       0.00000000       0.00000000 </v>
  </generation>
  <varray name="kpointlist" >
   <v>       0.00000000       0.00000000       0.00000000 </v>
   <v>       0.50000000       0.00000000       0.00000000 </v>
   <v>       0.00000000       0.50000000       0.00000000 </v>
   <v>       0.50000000       0.50000000       0.00000000 </v>
   <v>       0.00000000       0.00000000       0.50000000 </v>
   <v>       0.50000000       0.00000000       0.50000000 </v>
   <v>       0.00000000       0.50000000       0.50000000 </v>
   <v>       0.50000000       0.50000000       0.50000000 </v>
  </varray>
  <varray name="weights" >
   <v>       0.12500000 </v>
   <v>       0.12500000 </v>
   <v>       0.12500000 </v>
   <v>       0.12500000 </v>
   <v>       0.12500000 </v>
   <v>       0.12500000 </v>
   <v>       0.12500000 </v>
   <v>       0.12500000 </v>
  </varray>
 </kpoints>
 <parameters>
  <separator name="general" >
   <i type="string" name="SYSTEM">unknown system</i>
   <i type="logical" name="LCOMPAT"> F  </i>
  </separator>
  <separator name="electronic" >
   <i type="string" name="PREC">a</i>
   <i name="ENMAX">    600.00000000</i>
   <i name="ENAUG">    605.39200000</i>
   <i name="EDIFF">      0.00000100</i>
   <i type="int" name="IALGO">    38</i>
   <i type="int" name="IWAVPR">    10</i>
   <i type="int" name="NBANDS">   520</i>
   <i name="NELECT">    864.00000000</i>
   <i type="int" name="TURBO">     0</i>
   <i type="int" name="IRESTART">     0</i>
   <i type="int" name="NREBOOT">     0</i>
   <i type="int" name="NMIN">     0</i>
   <i name="EREF">      0.00000000</i>
   <separator name="electronic smearing" >
    <i type="int" name="ISMEAR">     0</i>
    <i name="SIGMA">      0.05000000</i>
    <i name="KSPACING">      0.30000000</i>
    <i type="logical" name="KGAMMA"> T  </i>
   </separator>
   <separator name="electronic projectors" >
    <i type="logical" name="LREAL"> T  </i>
    <v name="ROPT">     -0.00025000     -0.00025000     -0.00025000</v>
    <i type="int" name="LMAXPAW">  -100</i>
    <i type="int" name="LMAXMIX">     2</i>
    <i type="logical" name="NLSPLINE"> F  </i>
   </separator>
   <separator name="electronic startup" >
    <i type="int" name="ISTART">     0</i>
    <i type="int" name="ICHARG">     2</i>
    <i type="int" name="INIWAV">     1</i>
   </separator>
   <separator name="electronic spin" >
    <i type="int" name="ISPIN">     1</i>
    <i type="logical" name="LNONCOLLINEAR"> F  </i>
    <v name="MAGMOM">      1.00000000      1.00000000      1.00000000      1.00000000      1.00000000      1.00000000      1.00000000      1.00000000      1.00000000      1.00000000      1.00000000      1.00000000      1.00000000      1.00000000      1.00000000      1.00000000      1.00000000      1.00000000      1.00000000      1.00000000
      1.00000000      1.00000000      1.00000000      1.00000000      1.00000000      1.00000000      1.00000000      1.00000000      1.00000000      1.00000000      1.00000000      1.00000000      1.00000000      1.00000000      1.00000000      1.00000000      1.00000000      1.00000000      1.00000000      1.00000000
      1.00000000      1.00000000      1.00000000      1.00000000      1.00000000      1.00000000      1.00000000      1.00000000      1.00000000      1.00000000      1.00000000      1.00000000      1.00000000      1.00000000      1.00000000      1.00000000      1.00000000      1.00000000      1.00000000      1.00000000
      1.00000000      1.00000000      1.00000000      1.00000000      1.00000000      1.00000000      1.00000000      1.00000000      1.00000000      1.00000000      1.00000000      1.00000000      1.00000000      1.00000000      1.00000000      1.00000000      1.00000000      1.00000000      1.00000000      1.00000000
      1.00000000      1.00000000      1.00000000      1.00000000      1.00000000      1.00000000      1.00000000      1.00000000      1.00000000      1.00000000      1.00000000      1.00000000      1.00000000      1.00000000      1.00000000      1.00000000      1.00000000      1.00000000      1.00000000      1.00000000
      1.00000000      1.00000000      1.00000000      1.00000000      1.00000000      1.00000000      1.00000000      1.00000000      1.00000000      1.00000000      1.00000000      1.00000000      1.00000000      1.00000000      1.00000000      1.00000000      1.00000000      1.00000000      1.00000000      1.00000000
      1.00000000      1.00000000      1.00000000      1.00000000      1.00000000      1.00000000      1.00000000      1.00000000      1.00000000      1.00000000      1.00000000      1.00000000      1.00000000      1.00000000      1.00000000</v>
    <i name="NUPDOWN">     -1.00000000</i>
    <i type="logical" name="LSORBIT"> F  </i>
    <v name="SAXIS">      0.00000000      0.00000000      1.00000000</v>
    <i type="logical" name="LSPIRAL"> F  </i>
    <v name="QSPIRAL">      0.00000000      0.00000000      0.00000000</v>
    <i type="logical" name="LZEROZ"> F  </i>
   </separator>
   <separator name="electronic exchange-correlation" >
    <i type="logical" name="LASPH"> F  </i>
    <i type="logical" name="LMETAGGA"> F  </i>
   </separator>
   <separator name="electronic convergence" >
    <i type="int" name="NELM">    60</i>
    <i type="int" name="NELMDL">    -5</i>
    <i type="int" name="NELMIN">     2</i>
    <i name="ENINI">    600.00000000</i>
    <separator name="electronic convergence detail" >
     <i type="logical" name="LDIAG"> T  </i>
     <i type="logical" name="LSUBROT"> F  </i>
     <i name="WEIMIN">      0.00000000</i>
     <i name="EBREAK">      0.00000000</i>
     <i name="DEPER">      0.30000000</i>
     <i type="int" name="NRMM">     4</i>
     <i name="TIME">      0.40000000</i>
    </separator>
   </separator>
   <separator name="electronic mixer" >
    <i name="AMIX">      0.40000000</i>
    <i name="BMIX">      1.00000000</i>
    <i name="AMIN">      0.10000000</i>
    <i name="AMIX_MAG">      1.60000000</i>
    <i name="BMIX_MAG">      1.00000000</i>
    <separator name="electronic mixer details" >
     <i type="int" name="IMIX">     4</i>
     <i type="logical" name="MIXFIRST"> F  </i>
     <i type="int" name="MAXMIX">   -45</i>
     <i name="WC">    100.00000000</i>
     <i type="int" name="INIMIX">     1</i>
     <i type="int" name="MIXPRE">     1</i>
     <i type="int" name="MREMOVE">     5</i>
    </separator>
   </separator>
   <separator name="electronic dipolcorrection" >
    <i type="logical" name="LDIPOL"> F  </i>
    <i type="logical" name="LMONO"> F  </i>
    <i type="int" name="IDIPOL">     0</i>
    <i name="EPSILON">      1.00000000</i>
    <v name="DIPOL">   -100.00000000   -100.00000000   -100.00000000</v>
    <i name="EFIELD">      0.00000000</i>
   </separator>
  </separator>
  <separator name="grids" >
   <i type="int" name="NGX">    84</i>
   <i type="int" name="NGY">    84</i>
   <i type="int" name="NGZ">    84</i>
   <i type="int" name="NGXF">   168</i>
   <i type="int" name="NGYF">   168</i>
   <i type="int" name="NGZF">   168</i>
   <i type="logical" name="ADDGRID"> T  </i>
  </separator>
  <separator name="ionic" >
   <i type="int" name="NSW">     1</i>
   <i type="int" name="IBRION">    -1</i>
   <i type="int" name="MDALGO">     0</i>
   <i type="int" name="ISIF">     2</i>
   <i name="PSTRESS">      0.00000000</i>
   <i name="EDIFFG">     -0.01000000</i>
   <i type="int" name="NFREE">     0</i>
   <i name="POTIM">      1.00000000</i>
   <i name="SMASS">     -3.00000000</i>
   <i name="SCALEE">      1.00000000</i>
  </separator>
  <separator name="ionic md" >
   <i name="TEBEG">      0.00010000</i>
   <i name="TEEND">      0.00010000</i>
   <i type="int" name="NBLOCK">     1</i>
   <i type="int" name="KBLOCK">     1</i>
   <i type="int" name="NPACO">   256</i>
   <i name="APACO">     16.00000000</i>
  </separator>
  <separator name="symmetry" >
   <i type="int" name="ISYM">     0</i>
   <i name="SYMPREC">      0.00001000</i>
  </separator>
  <separator name="dos" >
   <i type="int" name="LORBIT">     0</i>
   <v name="RWIGS">     -1.00000000     -1.00000000     -1.00000000</v>
   <i type="int" name="NEDOS">   301</i>
   <i name="EMIN">     10.00000000</i>
   <i name="EMAX">    -10.00000000</i>
   <i name="EFERMI">      0.00000000</i>
  </separator>
  <separator name="writing" >
   <i type="int" name="NWRITE">     2</i>
   <i type="logical" name="LWAVE"> F  </i>
   <i type="logical" name="LDOWNSAMPLE"> F  </i>
   <i type="logical" name="LCHARG"> F  </i>
   <i type="logical" name="LPARD"> F  </i>
   <i type="logical" name="LVTOT"> F  </i>
   <i type="logical" name="LVHAR"> F  </i>
   <i type="logical" name="LELF"> F  </i>
   <i type="logical" name="LOPTICS"> F  </i>
   <v name="STM">      0.00000000      0.00000000      0.00000000      0.00000000      0.00000000      0.00000000      0.00000000</v>
  </separator>
  <separator name="performance" >
   <i type="int" name="NPAR">     4</i>
   <i type="int" name="NSIM">     4</i>
   <i type="int" name="NBLK">    -1</i>
   <i type="logical" name="LPLANE"> T  </i>
   <i type="logical" name="LSCALAPACK"> F  </i>
   <i type="logical" name="LSCAAWARE"> F  </i>
   <i type="logical" name="LSCALU"> F  </i>
   <i type="logical" name="LASYNC"> F  </i>
   <i type="logical" name="LORBITALREAL"> F  </i>
  </separator>
  <separator name="miscellaneous" >
   <i type="int" name="IDIOT">     3</i>
   <i type="int" name="ISPECIAL">     0</i>
   <i type="logical" name="LMUSIC"> F  </i>
   <v name="POMASS">     40.07800000     28.08500000     16.00000000</v>
   <v name="DARWINR">      0.00000000      0.00000000      0.00000000</v>
   <v name="DARWINV">      1.00000000      1.00000000      1.00000000</v>
   <i type="logical" name="LCORR"> T  </i>
  </separator>
  <i type="logical" name="GGA_COMPAT"> T  </i>
  <i type="logical" name="LBERRY"> F  </i>
  <i type="int" name="ICORELEVEL">     0</i>
  <i type="logical" name="LDAU"> F  </i>
  <i type="int" name="I_CONSTRAINED_M">     0</i>
  <separator name="electronic exchange-correlation" >
   <i type="string" name="GGA">--</i>
   <i type="int" name="VOSKOWN">     0</i>
   <i type="logical" name="LHFCALC"> F  </i>
   <i type="string" name="PRECFOCK"></i>
   <i type="logical" name="LSYMGRAD"> F  </i>
   <i type="logical" name="LHFONE"> F  </i>
   <i type="logical" name="LRHFCALC"> F  </i>
   <i type="logical" name="LTHOMAS"> F  </i>
   <i type="logical" name="LMODELHF"> F  </i>
   <i name="ENCUT4O">     -1.00000000</i>
   <i type="int" name="EXXOEP">     0</i>
   <i type="int" name="FOURORBIT">     0</i>
   <i name="AEXX">      0.00000000</i>
   <i name="HFALPHA">      0.00000000</i>
   <i name="MCALPHA">      0.00000000</i>
   <i name="ALDAX">      1.00000000</i>
   <i name="AGGAX">      1.00000000</i>
   <i name="ALDAC">      1.00000000</i>
   <i name="AGGAC">      1.00000000</i>
   <i type="int" name="NKREDX">     1</i>
   <i type="int" name="NKREDY">     1</i>
   <i type="int" name="NKREDZ">     1</i>
   <i type="logical" name="SHIFTRED"> F  </i>
   <i type="logical" name="ODDONLY"> F  </i>
   <i type="logical" name="EVENONLY"> F  </i>
   <i type="int" name="LMAXFOCK">     0</i>
   <i type="int" name="NMAXFOCKAE">     0</i>
   <i type="logical" name="LFOCKAEDFT"> F  </i>
   <i name="HFSCREEN">      0.00000000</i>
   <i name="HFSCREENC">      0.00000000</i>
   <i type="int" name="NBANDSGWLOW">     0</i>
  </separator>
  <separator name="vdW DFT" >
   <i type="logical" name="LUSE_VDW"> F  </i>
   <i name="Zab_VDW">     -0.84910000</i>
   <i name="PARAM1">      0.12340000</i>
   <i name="PARAM2">      1.00000000</i>
   <i name="PARAM3">      0.00000000</i>
  </separator>
  <separator name="model GW" >
   <i type="int" name="MODEL_GW">     0</i>
   <i name="MODEL_EPS0">      5.24098885</i>
   <i name="MODEL_ALPHA">      1.00000000</i>
  </separator>
  <separator name="linear response parameters" >
   <i type="logical" name="LEPSILON"> F  </i>
   <i type="logical" name="LRPA"> F  </i>
   <i type="logical" name="LNABLA"> F  </i>
   <i type="logical" name="LVEL"> F  </i>
   <i type="int" name="KINTER">     0</i>
   <i name="CSHIFT">      0.10000000</i>
   <i name="OMEGAMAX">     -1.00000000</i>
   <i name="DEG_THRESHOLD">      0.00200000</i>
   <i name="RTIME">     -0.10000000</i>
   <i name="WPLASMAI">      0.00000000</i>
   <v name="DFIELD">      0.00000000      0.00000000      0.00000000</v>
   <v name="WPLASMA">      0.00000000      0.00000000      0.00000000      0.00000000      0.00000000      0.00000000      0.00000000      0.00000000      0.00000000</v>
  </separator>
  <separator name="orbital magnetization" >
   <i type="logical" name="NUCIND"> F  </i>
   <v name="MAGPOS">      0.00000000      0.00000000      0.00000000</v>
   <i type="logical" name="LNICSALL"> T  </i>
   <i type="logical" name="ORBITALMAG"> F  </i>
   <i type="logical" name="LMAGBLOCH"> F  </i>
   <i type="logical" name="LCHIMAG"> F  </i>
   <i type="logical" name="LGAUGE"> T  </i>
   <i type="int" name="MAGATOM">     0</i>
   <v name="MAGDIPOL">      0.00000000      0.00000000      0.00000000</v>
   <v name="AVECCONST">      0.00000000      0.00000000      0.00000000</v>
  </separator>
  <separator name="response functions" >
   <i type="logical" name="LADDER"> F  </i>
   <i type="logical" name="LRPAFORCE"> F  </i>
   <i type="logical" name="LFXC"> F  </i>
   <i type="logical" name="LHARTREE"> T  </i>
   <i type="int" name="IBSE">     0</i>
   <v type="int" name="KPOINT">    -1     0     0     0</v>
   <i type="logical" name="LTCTE"> F  </i>
   <i type="logical" name="LTETE"> F  </i>
   <i type="logical" name="LTRIPLET"> F  </i>
   <i type="logical" name="LFXCEPS"> F  </i>
   <i type="logical" name="LFXHEG"> F  </i>
   <i type="int" name="NATURALO">     2</i>
   <i type="logical" name="L2ORDER"> F  </i>
   <i type="logical" name="LMP2LT"> F  </i>
   <i type="logical" name="LUSEW"> F  </i>
   <i name="ENCUTGW">     -2.00000000</i>
   <i name="ENCUTGWSOFT">     -2.00000000</i>
   <i name="ENCUTLF">     -1.00000000</i>
   <i type="int" name="LMAXMP2">    -1</i>
   <i name="SCISSOR">      0.00000000</i>
   <i type="int" name="NOMEGA">     0</i>
   <i type="int" name="NOMEGAR">     0</i>
   <i type="int" name="NBANDSGW">    -1</i>
   <i type="int" name="NBANDSO">    -1</i>
   <i type="int" name="NBANDSV">    -1</i>
   <i type="int" name="NELM">     1</i>
   <i type="int" name="NELMHF">     1</i>
   <i type="int" name="DIM">     3</i>
   <i type="int" name="ANTIRES">     0</i>
   <i name="OMEGAMAX">    -30.00000000</i>
   <i name="OMEGAMIN">    -30.00000000</i>
   <i name="OMEGATL">   -200.00000000</i>
   <i type="int" name="OMEGAGRID">   140</i>
   <i name="CSHIFT">     -0.10000000</i>
   <i type="logical" name="SELFENERGY"> F  </i>
   <i type="logical" name="LSPECTRAL"> F  </i>
   <i type="logical" name="LSPECTRALGW"> F  </i>
   <i type="logical" name="LSINGLES"> F  </i>
   <i type="logical" name="LFERMIGW"> F  </i>
   <i type="logical" name="ODDONLYGW"> F  </i>
   <i type="logical" name="EVENONLYGW"> F  </i>
   <i type="int" name="NKREDLFX">     1</i>
   <i type="int" name="NKREDLFY">     1</i>
   <i type="int" name="NKREDLFZ">     1</i>
   <i type="int" name="MAXMEM">  2800</i>
   <i type="int" name="TELESCOPE">     0</i>
   <i type="int" name="TAUPAR">     1</i>
   <i type="int" name="OMEGAPAR">    -1</i>
   <i name="LAMBDA">      1.00000000</i>
  </separator>
  <separator name="External order field" >
   <i name="OFIELD_KAPPA">      0.00000000</i>
   <v name="OFIELD_K">      0.00000000      0.00000000      0.00000000</v>
   <i name="OFIELD_Q6_NEAR">      0.00000000</i>
   <i name="OFIELD_Q6_FAR">      0.00000000</i>
   <i name="OFIELD_A">      0.00000000</i>
  </separator>
 </parameters>
 <atominfo>
  <atoms>     135 </atoms>
  <types>       3 </types>
  <array name="atoms" >
   <dimension dim="1">ion</dimension>
   <field type="string">element</field>
   <field type="int">atomtype</field>
   <set>
    <rc><c>Ca</c><c>   1</c></rc>
    <rc><c>Ca</c><c>   1</c></rc>
    <rc><c>Ca</c><c>   1</c></rc>
    <rc><c>Ca</c><c>   1</c></rc>
    <rc><c>Ca</c><c>   1</c></rc>
    <rc><c>Ca</c><c>   1</c></rc>
    <rc><c>Ca</c><c>   1</c></rc>
    <rc><c>Ca</c><c>   1</c></rc>
    <rc><c>Ca</c><c>   1</c></rc>
    <rc><c>Ca</c><c>   1</c></rc>
    <rc><c>Ca</c><c>   1</c></rc>
    <rc><c>Ca</c><c>   1</c></rc>
    <rc><c>Ca</c><c>   1</c></rc>
    <rc><c>Ca</c><c>   1</c></rc>
    <rc><c>Ca</c><c>   1</c></rc>
    <rc><c>Ca</c><c>   1</c></rc>
    <rc><c>Ca</c><c>   1</c></rc>
    <rc><c>Ca</c><c>   1</c></rc>
    <rc><c>Ca</c><c>   1</c></rc>
    <rc><c>Ca</c><c>   1</c></rc>
    <rc><c>Ca</c><c>   1</c></rc>
    <rc><c>Ca</c><c>   1</c></rc>
    <rc><c>Ca</c><c>   1</c></rc>
    <rc><c>Ca</c><c>   1</c></rc>
    <rc><c>Ca</c><c>   1</c></rc>
    <rc><c>Ca</c><c>   1</c></rc>
    <rc><c>Ca</c><c>   1</c></rc>
    <rc><c>Si</c><c>   2</c></rc>
    <rc><c>Si</c><c>   2</c></rc>
    <rc><c>Si</c><c>   2</c></rc>
    <rc><c>Si</c><c>   2</c></rc>
    <rc><c>Si</c><c>   2</c></rc>
    <rc><c>Si</c><c>   2</c></rc>
    <rc><c>Si</c><c>   2</c></rc>
    <rc><c>Si</c><c>   2</c></rc>
    <rc><c>Si</c><c>   2</c></rc>
    <rc><c>Si</c><c>   2</c></rc>
    <rc><c>Si</c><c>   2</c></rc>
    <rc><c>Si</c><c>   2</c></rc>
    <rc><c>Si</c><c>   2</c></rc>
    <rc><c>Si</c><c>   2</c></rc>
    <rc><c>Si</c><c>   2</c></rc>
    <rc><c>Si</c><c>   2</c></rc>
    <rc><c>Si</c><c>   2</c></rc>
    <rc><c>Si</c><c>   2</c></rc>
    <rc><c>Si</c><c>   2</c></rc>
    <rc><c>Si</c><c>   2</c></rc>
    <rc><c>Si</c><c>   2</c></rc>
    <rc><c>Si</c><c>   2</c></rc>
    <rc><c>Si</c><c>   2</c></rc>
    <rc><c>Si</c><c>   2</c></rc>
    <rc><c>Si</c><c>   2</c></rc>
    <rc><c>Si</c><c>   2</c></rc>
    <rc><c>Si</c><c>   2</c></rc>
    <rc><c>O </c><c>   3</c></rc>
    <rc><c>O </c><c>   3</c></rc>
    <rc><c>O </c><c>   3</c></rc>
    <rc><c>O </c><c>   3</c></rc>
    <rc><c>O </c><c>   3</c></rc>
    <rc><c>O </c><c>   3</c></rc>
    <rc><c>O </c><c>   3</c></rc>
    <rc><c>O </c><c>   3</c></rc>
    <rc><c>O </c><c>   3</c></rc>
    <rc><c>O </c><c>   3</c></rc>
    <rc><c>O </c><c>   3</c></rc>
    <rc><c>O </c><c>   3</c></rc>
    <rc><c>O </c><c>   3</c></rc>
    <rc><c>O </c><c>   3</c></rc>
    <rc><c>O </c><c>   3</c></rc>
    <rc><c>O </c><c>   3</c></rc>
    <rc><c>O </c><c>   3</c></rc>
    <rc><c>O </c><c>   3</c></rc>
    <rc><c>O </c><c>   3</c></rc>
    <rc><c>O </c><c>   3</c></rc>
    <rc><c>O </c><c>   3</c></rc>
    <rc><c>O </c><c>   3</c></rc>
    <rc><c>O </c><c>   3</c></rc>
    <rc><c>O </c><c>   3</c></rc>
    <rc><c>O </c><c>   3</c></rc>
    <rc><c>O </c><c>   3</c></rc>
    <rc><c>O </c><c>   3</c></rc>
    <rc><c>O </c><c>   3</c></rc>
    <rc><c>O </c><c>   3</c></rc>
    <rc><c>O </c><c>   3</c></rc>
    <rc><c>O </c><c>   3</c></rc>
    <rc><c>O </c><c>   3</c></rc>
    <rc><c>O </c><c>   3</c></rc>
    <rc><c>O </c><c>   3</c></rc>
    <rc><c>O </c><c>   3</c></rc>
    <rc><c>O </c><c>   3</c></rc>
    <rc><c>O </c><c>   3</c></rc>
    <rc><c>O </c><c>   3</c></rc>
    <rc><c>O </c><c>   3</c></rc>
    <rc><c>O </c><c>   3</c></rc>
    <rc><c>O </c><c>   3</c></rc>
    <rc><c>O </c><c>   3</c></rc>
    <rc><c>O </c><c>   3</c></rc>
    <rc><c>O </c><c>   3</c></rc>
    <rc><c>O </c><c>   3</c></rc>
    <rc><c>O </c><c>   3</c></rc>
    <rc><c>O </c><c>   3</c></rc>
    <rc><c>O </c><c>   3</c></rc>
    <rc><c>O </c><c>   3</c></rc>
    <rc><c>O </c><c>   3</c></rc>
    <rc><c>O </c><c>   3</c></rc>
    <rc><c>O </c><c>   3</c></rc>
    <rc><c>O </c><c>   3</c></rc>
    <rc><c>O </c><c>   3</c></rc>
    <rc><c>O </c><c>   3</c></rc>
    <rc><c>O </c><c>   3</c></rc>
    <rc><c>O </c><c>   3</c></rc>
    <rc><c>O </c><c>   3</c></rc>
    <rc><c>O </c><c>   3</c></rc>
    <rc><c>O </c><c>   3</c></rc>
    <rc><c>O </c><c>   3</c></rc>
    <rc><c>O </c><c>   3</c></rc>
    <rc><c>O </c><c>   3</c></rc>
    <rc><c>O </c><c>   3</c></rc>
    <rc><c>O </c><c>   3</c></rc>
    <rc><c>O </c><c>   3</c></rc>
    <rc><c>O </c><c>   3</c></rc>
    <rc><c>O </c><c>   3</c></rc>
    <rc><c>O </c><c>   3</c></rc>
    <rc><c>O </c><c>   3</c></rc>
    <rc><c>O </c><c>   3</c></rc>
    <rc><c>O </c><c>   3</c></rc>
    <rc><c>O </c><c>   3</c></rc>
    <rc><c>O </c><c>   3</c></rc>
    <rc><c>O </c><c>   3</c></rc>
    <rc><c>O </c><c>   3</c></rc>
    <rc><c>O </c><c>   3</c></rc>
    <rc><c>O </c><c>   3</c></rc>
    <rc><c>O </c><c>   3</c></rc>
    <rc><c>O </c><c>   3</c></rc>
    <rc><c>O </c><c>   3</c></rc>
   </set>
  </array>
  <array name="atomtypes" >
   <dimension dim="1">type</dimension>
   <field type="int">atomspertype</field>
   <field type="string">element</field>
   <field>mass</field>
   <field>valence</field>
   <field type="string">pseudopotential</field>
   <set>
    <rc><c>  27</c><c>Ca</c><c>     40.07800000</c><c>     10.00000000</c><c>  PAW_PBE Ca_sv 06Sep2000               </c></rc>
    <rc><c>  27</c><c>Si</c><c>     28.08500000</c><c>      4.00000000</c><c>  PAW_PBE Si 05Jan2001                  </c></rc>
    <rc><c>  81</c><c>O </c><c>     16.00000000</c><c>      6.00000000</c><c>  PAW_PBE O 08Apr2002                   </c></rc>
   </set>
  </array>
 </atominfo>
 <structure name="initialpos" >
  <crystal>
   <varray name="basis" >
    <v>      10.56489661       0.00000000       0.00000000 </v>
    <v>       0.00000000      10.56489661       0.00000000 </v>
    <v>       0.00000000       0.00000000      10.56489661 </v>
   </varray>
   <i name="volume">   1179.22249153 </i>
   <varray name="rec_basis" >
    <v>       0.09465308       0.00000000       0.00000000 </v>
    <v>       0.00000000       0.09465308       0.00000000 </v>
    <v>       0.00000000       0.00000000       0.09465308 </v>
   </varray>
  </crystal>
  <varray name="positions" >
   <v>       0.95901636       0.95093792       0.11765747 </v>
   <v>       0.44628717       0.51854485       0.06096649 </v>
   <v>       0.90552829       0.20909680       0.13888818 </v>
   <v>       0.71393136       0.10483483       0.76034624 </v>
   <v>       0.46812480       0.42963141       0.66956634 </v>
   <v>       0.09578898       0.42083656       0.62125443 </v>
   <v>       0.90665187       0.42811924       0.92672543 </v>
   <v>       0.37418703       0.30582781       0.35453949 </v>
   <v>       0.44395414       0.58564068       0.28133036 </v>
   <v>       0.19108391       0.69721780       0.21064747 </v>
   <v>       0.63899952       0.60616715       0.78158998 </v>
   <v>       0.76995117       0.49339711       0.35706193 </v>
   <v>       0.94648848       0.66568242       0.13717848 </v>
   <v>       0.87559210       0.89503721       0.37660780 </v>
   <v>       0.44335100       0.78683470       0.92739001 </v>
   <v>       0.19654004       0.47549596       0.87442584 </v>
   <v>       0.59641744       0.01437379       0.50299894 </v>
   <v>       0.56076474       0.30363032       0.23301262 </v>
   <v>       0.15193165       0.94400048       0.34434687 </v>
   <v>       0.16023819       0.22425856       0.88000231 </v>
   <v>       0.71550626       0.95680996       0.01589597 </v>
   <v>       0.89072425       0.75247836       0.83744989 </v>
   <v>       0.39259053       0.92118982       0.61630458 </v>
   <v>       0.18503051       0.96378130       0.78468542 </v>
   <v>       0.12676058       0.78805706       0.61215347 </v>
   <v>       0.27993075       0.98201271       0.02846114 </v>
   <v>       0.61788757       0.87238142       0.70586891 </v>
   <v>       0.94438311       0.08868795       0.90391265 </v>
   <v>       0.93268999       0.94992541       0.68271590 </v>
   <v>       0.39406228       0.23423113       0.04962364 </v>
   <v>       0.65570059       0.28065942       0.51152997 </v>
   <v>       0.99979550       0.66960907       0.40279468 </v>
   <v>       0.14251907       0.15687217       0.24341465 </v>
   <v>       0.39254029       0.83344348       0.40609917 </v>
   <v>       0.12446688       0.10034560       0.56010435 </v>
   <v>       0.28498204       0.54815429       0.45877650 </v>
   <v>       0.16481996       0.72762383       0.91341112 </v>
   <v>       0.44171805       0.07844103       0.82483250 </v>
   <v>       0.05074377       0.41616725       0.28010462 </v>
   <v>       0.93380299       0.25256877       0.70788810 </v>
   <v>       0.36493941       0.63906084       0.72410657 </v>
   <v>       0.86509193       0.66087012       0.63328962 </v>
   <v>       0.76386071       0.38463817       0.68003059 </v>
   <v>       0.73849314       0.43974416       0.08758090 </v>
   <v>       0.42767932       0.85583553       0.17619197 </v>
   <v>       0.64282343       0.67238976       0.51244196 </v>
   <v>       0.71222936       0.09600628       0.25164627 </v>
   <v>       0.92766700       0.19043050       0.41419675 </v>
   <v>       0.20047506       0.33879813       0.10178987 </v>
   <v>       0.37643709       0.23239368       0.62325382 </v>
   <v>       0.70972598       0.70554696       0.01638640 </v>
   <v>       0.69554408       0.77366608       0.27514444 </v>
   <v>       0.41726246       0.05292728       0.28867198 </v>
   <v>       0.58073162       0.31033433       0.89840315 </v>
   <v>       0.09018843       0.52949759       0.18700911 </v>
   <v>       0.11242926       0.43801839       0.04026059 </v>
   <v>       0.06955619       0.03657975       0.96447584 </v>
   <v>       0.80555711       0.27474636       0.79750101 </v>
   <v>       0.49774074       0.21764065       0.52282625 </v>
   <v>       0.20658289       0.95319474       0.53982992 </v>
   <v>       0.79781280       0.95927008       0.62852334 </v>
   <v>       0.06823473       0.11880156       0.37054094 </v>
   <v>       0.24524982       0.54256230       0.33289745 </v>
   <v>       0.52656549       0.05571209       0.71044805 </v>
   <v>       0.12962549       0.85358647       0.00486767 </v>
   <v>       0.76703516       0.57807732       0.99603859 </v>
   <v>       0.93744071       0.74610245       0.52776131 </v>
   <v>       0.32846767       0.73813990       0.50722673 </v>
   <v>       0.95808382       0.19208310       0.56655178 </v>
   <v>       0.96414397       0.33044656       0.35580398 </v>
   <v>       0.62352968       0.39148705       0.42257490 </v>
   <v>       0.40147335       0.75588980       0.29272496 </v>
   <v>       0.01036922       0.80354050       0.28712860 </v>
   <v>       0.58863130       0.62846774       0.99712642 </v>
   <v>       0.44801069       0.16903825       0.18096126 </v>
   <v>       0.72528781       0.74675267       0.64357364 </v>
   <v>       0.62092637       0.62404451       0.37462919 </v>
   <v>       0.27987160       0.35184952       0.71975718 </v>
   <v>       0.46272704       0.25503587       0.81232239 </v>
   <v>       0.03406506       0.85052570       0.75746149 </v>
   <v>       0.24560898       0.20561331       0.52889220 </v>
   <v>       0.17535173       0.37343504       0.43674736 </v>
   <v>       0.92691720       0.10418509       0.75179942 </v>
   <v>       0.82303592       0.79515838       0.09375868 </v>
   <v>       0.43643633       0.53722876       0.82131334 </v>
   <v>       0.35790048       0.13609335       0.94915687 </v>
   <v>       0.22974233       0.74061167       0.77936024 </v>
   <v>       0.07943128       0.27606876       0.17978177 </v>
   <v>       0.04175037       0.63092954       0.94630450 </v>
   <v>       0.69519787       0.83057912       0.42106544 </v>
   <v>       0.67422305       0.16573139       0.12958061 </v>
   <v>       0.48377184       0.95826953       0.05970952 </v>
   <v>       0.37315756       0.40391968       0.18928741 </v>
   <v>       0.62551855       0.46943098       0.17463674 </v>
   <v>       0.24385614       0.56472030       0.61672099 </v>
   <v>       0.27941974       0.32785065       0.96490032 </v>
   <v>       0.28531845       0.91976833       0.21459183 </v>
   <v>       0.11036060       0.15584626       0.69455283 </v>
   <v>       0.99396669       0.51347910       0.41722646 </v>
   <v>       0.39541074       0.99764821       0.44695956 </v>
   <v>       0.82804327       0.54207955       0.74958600 </v>
   <v>       0.86528603       0.10903865       0.30244952 </v>
   <v>       0.59670885       0.76997021       0.14992796 </v>
   <v>       0.00464477       0.60707589       0.68299600 </v>
   <v>       0.01962590       0.96206242       0.56058595 </v>
   <v>       0.51570645       0.92774605       0.30457015 </v>
   <v>       0.84560471       0.40527048       0.19074598 </v>
   <v>       0.83747047       0.95117761       0.82283331 </v>
   <v>       0.83903976       0.09961808       0.99610258 </v>
   <v>       0.71052275       0.95127369       0.23371769 </v>
   <v>       0.60210953       0.11610916       0.91641060 </v>
   <v>       0.87283036       0.38187098       0.59211164 </v>
   <v>       0.54161536       0.82504128       0.51413324 </v>
   <v>       0.62575690       0.31212965       0.64873508 </v>
   <v>       0.26041845       0.19636873       0.11230359 </v>
   <v>       0.62729565       0.42120093       0.79694260 </v>
   <v>       0.09146143       0.03481994       0.19934567 </v>
   <v>       0.43458170       0.75920249       0.72946857 </v>
   <v>       0.32565585       0.08959402       0.67660303 </v>
   <v>       0.79996918       0.57530492       0.51515061 </v>
   <v>       0.70622290       0.81296535       0.89722748 </v>
   <v>       0.28310531       0.13949282       0.32808218 </v>
   <v>       0.36107795       0.73657912       0.09630971 </v>
   <v>       0.71948772       0.32667775       0.00363426 </v>
   <v>       0.58875622       0.12605272       0.35847360 </v>
   <v>       0.26460158       0.64285069       0.98388484 </v>
   <v>       0.14444858       0.67805933       0.45509268 </v>
   <v>       0.01755049       0.34636051       0.78441557 </v>
   <v>       0.38135887       0.94103796       0.79842441 </v>
   <v>       0.40737277       0.46446916       0.45971534 </v>
   <v>       0.81019076       0.67795759       0.27050149 </v>
   <v>       0.77023302       0.19955812       0.50424127 </v>
   <v>       0.50895316       0.34654269       0.02699434 </v>
   <v>       0.97563840       0.23879858       0.95130098 </v>
   <v>       0.55434321       0.58081635       0.57460059 </v>
  </varray>
  <varray name="velocities" >
   <v>       0.00000000       0.00000000       0.00000000 </v>
   <v>       0.00000000       0.00000000       0.00000000 </v>
   <v>       0.00000000       0.00000000       0.00000000 </v>
   <v>       0.00000000       0.00000000       0.00000000 </v>
   <v>       0.00000000       0.00000000       0.00000000 </v>
   <v>       0.00000000       0.00000000       0.00000000 </v>
   <v>       0.00000000       0.00000000       0.00000000 </v>
   <v>       0.00000000       0.00000000       0.00000000 </v>
   <v>       0.00000000       0.00000000       0.00000000 </v>
   <v>       0.00000000       0.00000000       0.00000000 </v>
   <v>       0.00000000       0.00000000       0.00000000 </v>
   <v>       0.00000000       0.00000000       0.00000000 </v>
   <v>       0.00000000       0.00000000       0.00000000 </v>
   <v>       0.00000000       0.00000000       0.00000000 </v>
   <v>       0.00000000       0.00000000       0.00000000 </v>
   <v>       0.00000000       0.00000000       0.00000000 </v>
   <v>       0.00000000       0.00000000       0.00000000 </v>
   <v>       0.00000000       0.00000000       0.00000000 </v>
   <v>       0.00000000       0.00000000       0.00000000 </v>
   <v>       0.00000000       0.00000000       0.00000000 </v>
   <v>       0.00000000       0.00000000       0.00000000 </v>
   <v>       0.00000000       0.00000000       0.00000000 </v>
   <v>       0.00000000       0.00000000       0.00000000 </v>
   <v>       0.00000000       0.00000000       0.00000000 </v>
   <v>       0.00000000       0.00000000       0.00000000 </v>
   <v>       0.00000000       0.00000000       0.00000000 </v>
   <v>       0.00000000       0.00000000       0.00000000 </v>
   <v>       0.00000000       0.00000000       0.00000000 </v>
   <v>       0.00000000       0.00000000       0.00000000 </v>
   <v>       0.00000000       0.00000000       0.00000000 </v>
   <v>       0.00000000       0.00000000       0.00000000 </v>
   <v>       0.00000000       0.00000000       0.00000000 </v>
   <v>       0.00000000       0.00000000       0.00000000 </v>
   <v>       0.00000000       0.00000000       0.00000000 </v>
   <v>       0.00000000       0.00000000       0.00000000 </v>
   <v>       0.00000000       0.00000000       0.00000000 </v>
   <v>       0.00000000       0.00000000       0.00000000 </v>
   <v>       0.00000000       0.00000000       0.00000000 </v>
   <v>       0.00000000       0.00000000       0.00000000 </v>
   <v>       0.00000000       0.00000000       0.00000000 </v>
   <v>       0.00000000       0.00000000       0.00000000 </v>
   <v>       0.00000000       0.00000000       0.00000000 </v>
   <v>       0.00000000       0.00000000       0.00000000 </v>
   <v>       0.00000000       0.00000000       0.00000000 </v>
   <v>       0.00000000       0.00000000       0.00000000 </v>
   <v>       0.00000000       0.00000000       0.00000000 </v>
   <v>       0.00000000       0.00000000       0.00000000 </v>
   <v>       0.00000000       0.00000000       0.00000000 </v>
   <v>       0.00000000       0.00000000       0.00000000 </v>
   <v>       0.00000000       0.00000000       0.00000000 </v>
   <v>       0.00000000       0.00000000       0.00000000 </v>
   <v>       0.00000000       0.00000000       0.00000000 </v>
   <v>       0.00000000       0.00000000       0.00000000 </v>
   <v>       0.00000000       0.00000000       0.00000000 </v>
   <v>       0.00000000       0.00000000       0.00000000 </v>
   <v>       0.00000000       0.00000000       0.00000000 </v>
   <v>       0.00000000       0.00000000       0.00000000 </v>
   <v>       0.00000000       0.00000000       0.00000000 </v>
   <v>       0.00000000       0.00000000       0.00000000 </v>
   <v>       0.00000000       0.00000000       0.00000000 </v>
   <v>       0.00000000       0.00000000       0.00000000 </v>
   <v>       0.00000000       0.00000000       0.00000000 </v>
   <v>       0.00000000       0.00000000       0.00000000 </v>
   <v>       0.00000000       0.00000000       0.00000000 </v>
   <v>       0.00000000       0.00000000       0.00000000 </v>
   <v>       0.00000000       0.00000000       0.00000000 </v>
   <v>       0.00000000       0.00000000       0.00000000 </v>
   <v>       0.00000000       0.00000000       0.00000000 </v>
   <v>       0.00000000       0.00000000       0.00000000 </v>
   <v>       0.00000000       0.00000000       0.00000000 </v>
   <v>       0.00000000       0.00000000       0.00000000 </v>
   <v>       0.00000000       0.00000000       0.00000000 </v>
   <v>       0.00000000       0.00000000       0.00000000 </v>
   <v>       0.00000000       0.00000000       0.00000000 </v>
   <v>       0.00000000       0.00000000       0.00000000 </v>
   <v>       0.00000000       0.00000000       0.00000000 </v>
   <v>       0.00000000       0.00000000       0.00000000 </v>
   <v>       0.00000000       0.00000000       0.00000000 </v>
   <v>       0.00000000       0.00000000       0.00000000 </v>
   <v>       0.00000000       0.00000000       0.00000000 </v>
   <v>       0.00000000       0.00000000       0.00000000 </v>
   <v>       0.00000000       0.00000000       0.00000000 </v>
   <v>       0.00000000       0.00000000       0.00000000 </v>
   <v>       0.00000000       0.00000000       0.00000000 </v>
   <v>       0.00000000       0.00000000       0.00000000 </v>
   <v>       0.00000000       0.00000000       0.00000000 </v>
   <v>       0.00000000       0.00000000       0.00000000 </v>
   <v>       0.00000000       0.00000000       0.00000000 </v>
   <v>       0.00000000       0.00000000       0.00000000 </v>
   <v>       0.00000000       0.00000000       0.00000000 </v>
   <v>       0.00000000       0.00000000       0.00000000 </v>
   <v>       0.00000000       0.00000000       0.00000000 </v>
   <v>       0.00000000       0.00000000       0.00000000 </v>
   <v>       0.00000000       0.00000000       0.00000000 </v>
   <v>       0.00000000       0.00000000       0.00000000 </v>
   <v>       0.00000000       0.00000000       0.00000000 </v>
   <v>       0.00000000       0.00000000       0.00000000 </v>
   <v>       0.00000000       0.00000000       0.00000000 </v>
   <v>       0.00000000       0.00000000       0.00000000 </v>
   <v>       0.00000000       0.00000000       0.00000000 </v>
   <v>       0.00000000       0.00000000       0.00000000 </v>
   <v>       0.00000000       0.00000000       0.00000000 </v>
   <v>       0.00000000       0.00000000       0.00000000 </v>
   <v>       0.00000000       0.00000000       0.00000000 </v>
   <v>       0.00000000       0.00000000       0.00000000 </v>
   <v>       0.00000000       0.00000000       0.00000000 </v>
   <v>       0.00000000       0.00000000       0.00000000 </v>
   <v>       0.00000000       0.00000000       0.00000000 </v>
   <v>       0.00000000       0.00000000       0.00000000 </v>
   <v>       0.00000000       0.00000000       0.00000000 </v>
   <v>       0.00000000       0.00000000       0.00000000 </v>
   <v>       0.00000000       0.00000000       0.00000000 </v>
   <v>       0.00000000       0.00000000       0.00000000 </v>
   <v>       0.00000000       0.00000000       0.00000000 </v>
   <v>       0.00000000       0.00000000       0.00000000 </v>
   <v>       0.00000000       0.00000000       0.00000000 </v>
   <v>       0.00000000       0.00000000       0.00000000 </v>
   <v>       0.00000000       0.00000000       0.00000000 </v>
   <v>       0.00000000       0.00000000       0.00000000 </v>
   <v>       0.00000000       0.00000000       0.00000000 </v>
   <v>       0.00000000       0.00000000       0.00000000 </v>
   <v>       0.00000000       0.00000000       0.00000000 </v>
   <v>       0.00000000       0.00000000       0.00000000 </v>
   <v>       0.00000000       0.00000000       0.00000000 </v>
   <v>       0.00000000       0.00000000       0.00000000 </v>
   <v>       0.00000000       0.00000000       0.00000000 </v>
   <v>       0.00000000       0.00000000       0.00000000 </v>
   <v>       0.00000000       0.00000000       0.00000000 </v>
   <v>       0.00000000       0.00000000       0.00000000 </v>
   <v>       0.00000000       0.00000000       0.00000000 </v>
   <v>       0.00000000       0.00000000       0.00000000 </v>
   <v>       0.00000000       0.00000000       0.00000000 </v>
   <v>       0.00000000       0.00000000       0.00000000 </v>
   <v>       0.00000000       0.00000000       0.00000000 </v>
   <v>       0.00000000       0.00000000       0.00000000 </v>
  </varray>
 </structure>
 <calculation>
  <scstep>
   <time name="dav">   25.15   25.15</time>
   <time name="total">   25.55   25.56</time>
   <energy>
    <i name="alphaZ">   4052.29761577 </i>
    <i name="ewald"> -55687.35922298 </i>
    <i name="hartreedc"> -12494.04750594 </i>
    <i name="XCdc">   3275.12825595 </i>
    <i name="pawpsdc">  50594.51003143 </i>
    <i name="pawaedc"> -49994.65612350 </i>
    <i name="eentropy">     -0.03017109 </i>
    <i name="bandstr">   5690.20353307 </i>
    <i name="atom">  64968.54023382 </i>
    <i name="e_fr_energy">  10404.58664654 </i>
    <i name="e_wo_entrp">  10404.61681763 </i>
    <i name="e_0_energy">  10404.60173209 </i>
   </energy>
  </scstep>
  <scstep>
   <time name="dav">   27.25   27.27</time>
   <time name="total">   27.25   27.27</time>
   <energy>
    <i name="e_fr_energy">    304.43236256 </i>
    <i name="e_wo_entrp">    304.43236256 </i>
    <i name="e_0_energy">    304.43236256 </i>
   </energy>
  </scstep>
  <scstep>
   <time name="dav">   31.99   31.99</time>
   <time name="total">   31.99   31.99</time>
   <energy>
    <i name="e_fr_energy">   -900.15664814 </i>
    <i name="e_wo_entrp">   -900.15664814 </i>
    <i name="e_0_energy">   -900.15664814 </i>
   </energy>
  </scstep>
  <scstep>
   <time name="dav">   33.82   33.83</time>
   <time name="total">   33.82   33.83</time>
   <energy>
    <i name="e_fr_energy">   -963.46265926 </i>
    <i name="e_wo_entrp">   -963.46265926 </i>
    <i name="e_0_energy">   -963.46265926 </i>
   </energy>
  </scstep>
  <scstep>
   <time name="dav">   39.80   39.84</time>
   <time name="total">   40.63   40.66</time>
   <energy>
    <i name="e_fr_energy">   -968.07892737 </i>
    <i name="e_wo_entrp">   -968.07892737 </i>
    <i name="e_0_energy">   -968.07892737 </i>
   </energy>
  </scstep>
  <scstep>
   <time name="dav">   28.80   28.80</time>
   <time name="total">   29.99   30.00</time>
   <energy>
    <i name="e_fr_energy">   -821.96977739 </i>
    <i name="e_wo_entrp">   -821.96975815 </i>
    <i name="e_0_energy">   -821.96976777 </i>
   </energy>
  </scstep>
  <scstep>
   <time name="dav">   36.25   36.24</time>
   <time name="total">   38.61   38.63</time>
   <energy>
    <i name="e_fr_energy">   -823.30144601 </i>
    <i name="e_wo_entrp">   -823.30144601 </i>
    <i name="e_0_energy">   -823.30144601 </i>
   </energy>
  </scstep>
  <scstep>
   <time name="dav">   31.39   31.39</time>
   <time name="total">   32.62   32.64</time>
   <energy>
    <i name="e_fr_energy">   -822.25228156 </i>
    <i name="e_wo_entrp">   -822.25228156 </i>
    <i name="e_0_energy">   -822.25228156 </i>
   </energy>
  </scstep>
  <scstep>
   <time name="dav">   31.61   31.61</time>
   <time name="total">   33.09   33.11</time>
   <energy>
    <i name="e_fr_energy">   -822.05526606 </i>
    <i name="e_wo_entrp">   -822.05526606 </i>
    <i name="e_0_energy">   -822.05526606 </i>
   </energy>
  </scstep>
  <scstep>
   <time name="dav">   38.30   38.30</time>
   <time name="total">   39.54   39.55</time>
   <energy>
    <i name="e_fr_energy">   -822.03780035 </i>
    <i name="e_wo_entrp">   -822.03780035 </i>
    <i name="e_0_energy">   -822.03780035 </i>
   </energy>
  </scstep>
  <scstep>
   <time name="dav">   27.82   27.82</time>
   <time name="total">   29.03   29.05</time>
   <energy>
    <i name="e_fr_energy">   -822.04800477 </i>
    <i name="e_wo_entrp">   -822.04800477 </i>
    <i name="e_0_energy">   -822.04800477 </i>
   </energy>
  </scstep>
  <scstep>
   <time name="dav">   42.34   42.34</time>
   <time name="total">   43.52   43.53</time>
   <energy>
    <i name="e_fr_energy">   -822.05009932 </i>
    <i name="e_wo_entrp">   -822.05009932 </i>
    <i name="e_0_energy">   -822.05009932 </i>
   </energy>
  </scstep>
  <scstep>
   <time name="dav">   31.22   31.22</time>
   <time name="total">   32.42   32.44</time>
   <energy>
    <i name="e_fr_energy">   -822.05096173 </i>
    <i name="e_wo_entrp">   -822.05096173 </i>
    <i name="e_0_energy">   -822.05096173 </i>
   </energy>
  </scstep>
  <scstep>
   <time name="dav">   31.86   31.86</time>
   <time name="total">   35.09   35.10</time>
   <energy>
    <i name="e_fr_energy">   -822.05105945 </i>
    <i name="e_wo_entrp">   -822.05105945 </i>
    <i name="e_0_energy">   -822.05105945 </i>
   </energy>
  </scstep>
  <scstep>
   <time name="dav">   32.40   32.40</time>
   <time name="total">   33.70   33.71</time>
   <energy>
    <i name="e_fr_energy">   -822.05107057 </i>
    <i name="e_wo_entrp">   -822.05107057 </i>
    <i name="e_0_energy">   -822.05107057 </i>
   </energy>
  </scstep>
  <scstep>
   <time name="dav">   31.37   31.37</time>
   <time name="total">   32.56   32.57</time>
   <energy>
    <i name="e_fr_energy">   -822.05106338 </i>
    <i name="e_wo_entrp">   -822.05106338 </i>
    <i name="e_0_energy">   -822.05106338 </i>
   </energy>
  </scstep>
  <scstep>
   <time name="dav">   33.17   33.18</time>
   <time name="total">   34.41   34.44</time>
   <energy>
    <i name="e_fr_energy">   -822.05106539 </i>
    <i name="e_wo_entrp">   -822.05106539 </i>
    <i name="e_0_energy">   -822.05106539 </i>
   </energy>
  </scstep>
  <scstep>
   <time name="dav">   30.76   30.76</time>
   <time name="total">   32.94   32.96</time>
   <energy>
    <i name="e_fr_energy">   -822.05106523 </i>
    <i name="e_wo_entrp">   -822.05106523 </i>
    <i name="e_0_energy">   -822.05106523 </i>
   </energy>
  </scstep>
  <scstep>
   <time name="dav">   22.00   22.00</time>
   <time name="total">   22.37   22.38</time>
   <energy>
    <i name="alphaZ">   4052.29761577 </i>
    <i name="ewald"> -55687.35922298 </i>
    <i name="hartreedc"> -13874.79589276 </i>
    <i name="XCdc">   3371.11658807 </i>
    <i name="pawpsdc"> 108075.65434562 </i>
    <i name="pawaedc">-107708.58809114 </i>
    <i name="eentropy">     -0.00000000 </i>
    <i name="bandstr">  -4018.91664092 </i>
    <i name="atom">  64968.54023382 </i>
    <i name="e_fr_energy">   -822.05106451 </i>
    <i name="e_wo_entrp">   -822.05106451 </i>
    <i name="e_0_energy">   -822.05106451 </i>
   </energy>
  </scstep>
  <structure>
   <crystal>
    <varray name="basis" >
     <v>      10.56489661       0.00000000       0.00000000 </v>
     <v>       0.00000000      10.56489661       0.00000000 </v>
     <v>       0.00000000       0.00000000      10.56489661 </v>
    </varray>
    <i name="volume">   1179.22249153 </i>
    <varray name="rec_basis" >
     <v>       0.09465308       0.00000000       0.00000000 </v>
     <v>       0.00000000       0.09465308       0.00000000 </v>
     <v>       0.00000000       0.00000000       0.09465308 </v>
    </varray>
   </crystal>
   <varray name="positions" >
    <v>       0.95901636       0.95093792       0.11765747 </v>
    <v>       0.44628717       0.51854485       0.06096649 </v>
    <v>       0.90552829       0.20909680       0.13888818 </v>
    <v>       0.71393136       0.10483483       0.76034624 </v>
    <v>       0.46812480       0.42963141       0.66956634 </v>
    <v>       0.09578898       0.42083656       0.62125443 </v>
    <v>       0.90665187       0.42811924       0.92672543 </v>
    <v>       0.37418703       0.30582781       0.35453949 </v>
    <v>       0.44395414       0.58564068       0.28133036 </v>
    <v>       0.19108391       0.69721780       0.21064747 </v>
    <v>       0.63899952       0.60616715       0.78158998 </v>
    <v>       0.76995117       0.49339711       0.35706193 </v>
    <v>       0.94648848       0.66568242       0.13717848 </v>
    <v>       0.87559210       0.89503721       0.37660780 </v>
    <v>       0.44335100       0.78683470       0.92739001 </v>
    <v>       0.19654004       0.47549596       0.87442584 </v>
    <v>       0.59641744       0.01437379       0.50299894 </v>
    <v>       0.56076474       0.30363032       0.23301262 </v>
    <v>       0.15193165       0.94400048       0.34434687 </v>
    <v>       0.16023819       0.22425856       0.88000231 </v>
    <v>       0.71550626       0.95680996       0.01589597 </v>
    <v>       0.89072425       0.75247836       0.83744989 </v>
    <v>       0.39259053       0.92118982       0.61630458 </v>
    <v>       0.18503051       0.96378130       0.78468542 </v>
    <v>       0.12676058       0.78805706       0.61215347 </v>
    <v>       0.27993075       0.98201271       0.02846114 </v>
    <v>       0.61788757       0.87238142       0.70586891 </v>
    <v>       0.94438311       0.08868795       0.90391265 </v>
    <v>       0.93268999       0.94992541       0.68271590 </v>
    <v>       0.39406228       0.23423113       0.04962364 </v>
    <v>       0.65570059       0.28065942       0.51152997 </v>
    <v>       0.99979550       0.66960907       0.40279468 </v>
    <v>       0.14251907       0.15687217       0.24341465 </v>
    <v>       0.39254029       0.83344348       0.40609917 </v>
    <v>       0.12446688       0.10034560       0.56010435 </v>
    <v>       0.28498204       0.54815429       0.45877650 </v>
    <v>       0.16481996       0.72762383       0.91341112 </v>
    <v>       0.44171805       0.07844103       0.82483250 </v>
    <v>       0.05074377       0.41616725       0.28010462 </v>
    <v>       0.93380299       0.25256877       0.70788810 </v>
    <v>       0.36493941       0.63906084       0.72410657 </v>
    <v>       0.86509193       0.66087012       0.63328962 </v>
    <v>       0.76386071       0.38463817       0.68003059 </v>
    <v>       0.73849314       0.43974416       0.08758090 </v>
    <v>       0.42767932       0.85583553       0.17619197 </v>
    <v>       0.64282343       0.67238976       0.51244196 </v>
    <v>       0.71222936       0.09600628       0.25164627 </v>
    <v>       0.92766700       0.19043050       0.41419675 </v>
    <v>       0.20047506       0.33879813       0.10178987 </v>
    <v>       0.37643709       0.23239368       0.62325382 </v>
    <v>       0.70972598       0.70554696       0.01638640 </v>
    <v>       0.69554408       0.77366608       0.27514444 </v>
    <v>       0.41726246       0.05292728       0.28867198 </v>
    <v>       0.58073162       0.31033433       0.89840315 </v>
    <v>       0.09018843       0.52949759       0.18700911 </v>
    <v>       0.11242926       0.43801839       0.04026059 </v>
    <v>       0.06955619       0.03657975       0.96447584 </v>
    <v>       0.80555711       0.27474636       0.79750101 </v>
    <v>       0.49774074       0.21764065       0.52282625 </v>
    <v>       0.20658289       0.95319474       0.53982992 </v>
    <v>       0.79781280       0.95927008       0.62852334 </v>
    <v>       0.06823473       0.11880156       0.37054094 </v>
    <v>       0.24524982       0.54256230       0.33289745 </v>
    <v>       0.52656549       0.05571209       0.71044805 </v>
    <v>       0.12962549       0.85358647       0.00486767 </v>
    <v>       0.76703516       0.57807732       0.99603859 </v>
    <v>       0.93744071       0.74610245       0.52776131 </v>
    <v>       0.32846767       0.73813990       0.50722673 </v>
    <v>       0.95808382       0.19208310       0.56655178 </v>
    <v>       0.96414397       0.33044656       0.35580398 </v>
    <v>       0.62352968       0.39148705       0.42257490 </v>
    <v>       0.40147335       0.75588980       0.29272496 </v>
    <v>       0.01036922       0.80354050       0.28712860 </v>
    <v>       0.58863130       0.62846774       0.99712642 </v>
    <v>       0.44801069       0.16903825       0.18096126 </v>
    <v>       0.72528781       0.74675267       0.64357364 </v>
    <v>       0.62092637       0.62404451       0.37462919 </v>
    <v>       0.27987160       0.35184952       0.71975718 </v>
    <v>       0.46272704       0.25503587       0.81232239 </v>
    <v>       0.03406506       0.85052570       0.75746149 </v>
    <v>       0.24560898       0.20561331       0.52889220 </v>
    <v>       0.17535173       0.37343504       0.43674736 </v>
    <v>       0.92691720       0.10418509       0.75179942 </v>
    <v>       0.82303592       0.79515838       0.09375868 </v>
    <v>       0.43643633       0.53722876       0.82131334 </v>
    <v>       0.35790048       0.13609335       0.94915687 </v>
    <v>       0.22974233       0.74061167       0.77936024 </v>
    <v>       0.07943128       0.27606876       0.17978177 </v>
    <v>       0.04175037       0.63092954       0.94630450 </v>
    <v>       0.69519787       0.83057912       0.42106544 </v>
    <v>       0.67422305       0.16573139       0.12958061 </v>
    <v>       0.48377184       0.95826953       0.05970952 </v>
    <v>       0.37315756       0.40391968       0.18928741 </v>
    <v>       0.62551855       0.46943098       0.17463674 </v>
    <v>       0.24385614       0.56472030       0.61672099 </v>
    <v>       0.27941974       0.32785065       0.96490032 </v>
    <v>       0.28531845       0.91976833       0.21459183 </v>
    <v>       0.11036060       0.15584626       0.69455283 </v>
    <v>       0.99396669       0.51347910       0.41722646 </v>
    <v>       0.39541074       0.99764821       0.44695956 </v>
    <v>       0.82804327       0.54207955       0.74958600 </v>
    <v>       0.86528603       0.10903865       0.30244952 </v>
    <v>       0.59670885       0.76997021       0.14992796 </v>
    <v>       0.00464477       0.60707589       0.68299600 </v>
    <v>       0.01962590       0.96206242       0.56058595 </v>
    <v>       0.51570645       0.92774605       0.30457015 </v>
    <v>       0.84560471       0.40527048       0.19074598 </v>
    <v>       0.83747047       0.95117761       0.82283331 </v>
    <v>       0.83903976       0.09961808       0.99610258 </v>
    <v>       0.71052275       0.95127369       0.23371769 </v>
    <v>       0.60210953       0.11610916       0.91641060 </v>
    <v>       0.87283036       0.38187098       0.59211164 </v>
    <v>       0.54161536       0.82504128       0.51413324 </v>
    <v>       0.62575690       0.31212965       0.64873508 </v>
    <v>       0.26041845       0.19636873       0.11230359 </v>
    <v>       0.62729565       0.42120093       0.79694260 </v>
    <v>       0.09146143       0.03481994       0.19934567 </v>
    <v>       0.43458170       0.75920249       0.72946857 </v>
    <v>       0.32565585       0.08959402       0.67660303 </v>
    <v>       0.79996918       0.57530492       0.51515061 </v>
    <v>       0.70622290       0.81296535       0.89722748 </v>
    <v>       0.28310531       0.13949282       0.32808218 </v>
    <v>       0.36107795       0.73657912       0.09630971 </v>
    <v>       0.71948772       0.32667775       0.00363426 </v>
    <v>       0.58875622       0.12605272       0.35847360 </v>
    <v>       0.26460158       0.64285069       0.98388484 </v>
    <v>       0.14444858       0.67805933       0.45509268 </v>
    <v>       0.01755049       0.34636051       0.78441557 </v>
    <v>       0.38135887       0.94103796       0.79842441 </v>
    <v>       0.40737277       0.46446916       0.45971534 </v>
    <v>       0.81019076       0.67795759       0.27050149 </v>
    <v>       0.77023302       0.19955812       0.50424127 </v>
    <v>       0.50895316       0.34654269       0.02699434 </v>
    <v>       0.97563840       0.23879858       0.95130098 </v>
    <v>       0.55434321       0.58081635       0.57460059 </v>
   </varray>
  </structure>
  <varray name="forces" >
   <v>      -1.93354835      -3.40862399      -2.86516072 </v>
   <v>      -2.18344645       4.80374004      -4.67237025 </v>
   <v>      -2.85230522       3.08994099      -2.99568328 </v>
   <v>       0.44159815       0.16598723      -1.08357419 </v>
   <v>      -0.91478377      -0.27166966      -2.60389243 </v>
   <v>       0.72783600       1.12291236      -3.30501750 </v>
   <v>       2.30681321       0.94556462      -1.05925610 </v>
   <v>      -2.91945810       0.71707806       4.84947553 </v>
   <v>       3.48359369      -4.99324491       0.61127632 </v>
   <v>       1.59338758       0.24702778      -0.78785056 </v>
   <v>      -1.56914281       2.50965572       1.34581592 </v>
   <v>       1.94792897      -1.43218642      -2.48351526 </v>
   <v>       2.74760720      -3.49635445      -1.89302003 </v>
   <v>      -1.49973865       2.91578002       4.43394382 </v>
   <v>       1.39197536      -1.02798995       0.84098051 </v>
   <v>       0.02524365       3.05372857      -3.27791772 </v>
   <v>       2.62954768      -0.61774203       1.57497680 </v>
   <v>       4.25964659       1.33988144       1.51031960 </v>
   <v>       0.92010417      -4.55345602       6.13666441 </v>
   <v>      -1.36335644      -2.84121076      -3.68846128 </v>
   <v>      -4.28052871       2.76964762       1.24918172 </v>
   <v>       0.94505366      -1.72837090       3.84369373 </v>
   <v>      -2.23178259      -2.21372355       0.44605643 </v>
   <v>       0.56909230       2.64499988       0.27787578 </v>
   <v>       2.28787677      -4.35003277      -3.48967536 </v>
   <v>      -2.31715288      -0.45971718       0.41472978 </v>
   <v>      -1.37410158       1.54945292       3.24904220 </v>
   <v>       1.53868273       1.02541557      -2.05002868 </v>
   <v>      -1.64368946       1.45493389       2.87514925 </v>
   <v>       2.18905105       3.80442961       0.19064240 </v>
   <v>      -7.15605291       0.04285434      -5.21465795 </v>
   <v>       1.90335504      -1.83489801       1.91195682 </v>
   <v>       8.88654869       2.39981793       3.35138343 </v>
   <v>       4.68660462       3.86344668       9.95314468 </v>
   <v>       3.82166835      -0.42179430      -2.18775420 </v>
   <v>      -1.81370165       1.19852871      13.13333625 </v>
   <v>      -3.88204058      -1.70430942       4.98418705 </v>
   <v>      -0.00133766       4.70633718       1.97062310 </v>
   <v>       3.11966607       5.75304007       5.38775849 </v>
   <v>       2.19996504      -0.85604250      -1.48493807 </v>
   <v>      -5.97670219      -3.98821108      -1.54846492 </v>
   <v>       0.48243589      -7.27858320      -3.69396460 </v>
   <v>      -5.05127435       5.12654012       8.67205609 </v>
   <v>      -0.41657132       4.38461526       2.51057884 </v>
   <v>       4.88118575      -2.01465442      -3.72523367 </v>
   <v>       3.24964888       5.28809707      -1.08819176 </v>
   <v>      -3.79258956      -0.10231199       2.42881530 </v>
   <v>       0.25832902       4.16793552       3.46710210 </v>
   <v>       2.82337146       4.03063869      -1.87247284 </v>
   <v>      -8.24114718      -4.39511557       1.27884762 </v>
   <v>      -3.42642733       8.25838198       3.30343192 </v>
   <v>      -4.16858722      -0.18138696       0.80246213 </v>
   <v>      -0.24244897       1.73678034       2.37811230 </v>
   <v>       3.42540674      -2.71473645      -1.03171017 </v>
   <v>      -2.92288235       1.60220903       4.52972446 </v>
   <v>      -1.94056524      -2.87131272      -4.13111789 </v>
   <v>       1.63144219       1.26162346      -2.22563535 </v>
   <v>      -0.69970170       2.84624894      -2.42662562 </v>
   <v>      -2.18708390       0.24602601       0.65000880 </v>
   <v>       1.84162519       2.31058080       0.39526249 </v>
   <v>      -4.20406380       0.57986694      -5.71404455 </v>
   <v>      -2.79824235       2.83828790       7.51174459 </v>
   <v>      -0.30666839       1.90965023     -13.70066455 </v>
   <v>       6.61094850      -0.72315754      -5.96636992 </v>
   <v>       0.61121405      -4.78342218      -0.84072348 </v>
   <v>       9.40594399      -8.06489201       0.76405572 </v>
   <v>      -0.61171429       2.95149286      -3.25749495 </v>
   <v>       1.28107629       0.45524993      -0.50807934 </v>
   <v>       3.53175522      -1.41615217      -4.85360392 </v>
   <v>      -5.98077406      -8.02275344       2.74674296 </v>
   <v>      -0.66445664      -1.42551595      -1.31005272 </v>
   <v>      -1.42616215      -2.01117265      -2.26395807 </v>
   <v>       2.16830446      -2.56489573      -0.81696416 </v>
   <v>      -6.81151870       0.04553635      -3.45488299 </v>
   <v>      -0.18983935      -4.00099524      -0.43540460 </v>
   <v>       4.27331330      -4.65276731      -0.26057884 </v>
   <v>      -2.05408790       2.12014653      -4.82080963 </v>
   <v>       1.49953352      -1.99431067      -2.07997657 </v>
   <v>       0.38710159       0.18616807      -2.47399717 </v>
   <v>      -3.75789780       2.26474557       1.80215564 </v>
   <v>       0.61010228       0.30958530      -0.85553847 </v>
   <v>      -0.89178502       0.66576782      -3.60775498 </v>
   <v>       0.38874331       0.42756417       0.14184064 </v>
   <v>      -1.69861530       1.36534803      -3.50393938 </v>
   <v>      -3.12153171       2.93573690       0.78214045 </v>
   <v>       0.89039756      -4.79213587      -5.09324060 </v>
   <v>       1.04032767      -0.64509449      -0.64521824 </v>
   <v>       0.38141110       2.91907927       1.53477442 </v>
   <v>      -1.39384300       1.82283540      -1.89377387 </v>
   <v>       4.78287873      -1.01173909      -2.81911390 </v>
   <v>       1.39017345       0.25700833       1.73667711 </v>
   <v>      -1.31263911      -1.86752671       1.34565705 </v>
   <v>      -4.29134017      -2.47570215      -0.85174476 </v>
   <v>      -1.02933437       3.64217731       1.18180993 </v>
   <v>       3.99963509       1.07814478       2.59117326 </v>
   <v>       6.49450035       3.88923806       3.24404681 </v>
   <v>       3.37270835       1.53874004       0.45336832 </v>
   <v>       1.66356120      -0.50115390       4.29988526 </v>
   <v>      -1.04890732       2.99293446      -2.70979988 </v>
   <v>      -1.28637389       0.79203163      -3.86715923 </v>
   <v>      -3.62508771      -1.36135143       0.63113641 </v>
   <v>      -2.96735194      -2.18471253       0.53231314 </v>
   <v>       1.75618261      -0.31140676       2.04906157 </v>
   <v>       1.22282725       2.34150021       0.09680118 </v>
   <v>      -3.22473735       2.70813725      -2.18337439 </v>
   <v>      -2.20620767      -0.54077574      -4.10246408 </v>
   <v>       2.01503657       0.56427298      -3.09167032 </v>
   <v>       2.42843294      -1.92823849       4.00683128 </v>
   <v>      -4.43298031      -2.36802152       4.00073311 </v>
   <v>       3.46602149      -2.72414998      -0.70967351 </v>
   <v>      -2.52336985       1.50524827       0.60953889 </v>
   <v>       3.64857645      -1.28510888      -2.15807989 </v>
   <v>      -4.35166971      -2.41686822       1.81363724 </v>
   <v>       4.15637211      -1.19558137       0.33723956 </v>
   <v>      -6.63846223      -2.43943572       3.82064602 </v>
   <v>       1.41307331      -0.40347076       5.22612178 </v>
   <v>      -0.34145943      -1.57201513      -6.49672407 </v>
   <v>       6.22556088       1.59912884      -0.93659829 </v>
   <v>       1.17070475       5.16694504       3.79926571 </v>
   <v>      -2.40747117       3.36634731       4.22763702 </v>
   <v>      -3.65537030      -5.52871787      -0.79060351 </v>
   <v>      -2.27825079      -2.82634457      -2.63002776 </v>
   <v>       3.60123910       3.65034786       2.94970836 </v>
   <v>       0.45303996      -1.42554350      -4.72808296 </v>
   <v>       2.14646812       2.70282344      -4.51104878 </v>
   <v>      -0.95325390      -4.35910491      -3.38605682 </v>
   <v>      -2.47438440       1.10833367      -3.59913963 </v>
   <v>       2.32820919       2.73592024      -0.76568354 </v>
   <v>      -0.86322270      -1.75333197       9.83779830 </v>
   <v>       1.63560727       0.24584778       1.33281894 </v>
   <v>       1.44798859      -0.70807105       1.63745748 </v>
   <v>       2.54568984      -4.56626654      -2.66854640 </v>
   <v>      -1.47400983      -4.74327308      -1.12767338 </v>
   <v>       1.13837689       0.23162137       1.47201258 </v>
   <v>      -2.50009528      -1.94483228       5.90107970 </v>
  </varray>
  <varray name="stress" >
   <v>     664.09848543      27.98809830     -67.55030241 </v>
   <v>      27.98809818     682.46532497      43.23714912 </v>
   <v>     -67.55030236      43.23714910     709.34749917 </v>
  </varray>
  <energy>
   <i name="e_fr_energy">   -822.05106451 </i>
   <i name="e_wo_entrp">   -822.05106451 </i>
   <i name="e_0_energy">     -0.00000000 </i>
  </energy>
  <time name="totalsc">  659.71  660.03</time>
  <eigenvalues>
   <array>
    <dimension dim="1">band</dimension>
    <dimension dim="2">kpoint</dimension>
    <dimension dim="3">spin</dimension>
    <field>eigene</field>
    <field>occ</field>
    <set>
     <set comment="spin 1">
      <set comment="kpoint 1">
       <r>  -32.2066    1.0000 </r>
       <r>  -31.7660    1.0000 </r>
       <r>  -31.7100    1.0000 </r>
       <r>  -31.4399    1.0000 </r>
       <r>  -31.4090    1.0000 </r>
       <r>  -31.3835    1.0000 </r>
       <r>  -31.3711    1.0000 </r>
       <r>  -31.2945    1.0000 </r>
       <r>  -31.2730    1.0000 </r>
       <r>  -31.1659    1.0000 </r>
       <r>  -31.0946    1.0000 </r>
       <r>  -31.0889    1.0000 </r>
       <r>  -31.0570    1.0000 </r>
       <r>  -30.8956    1.0000 </r>
       <r>  -30.7691    1.0000 </r>
       <r>  -30.7203    1.0000 </r>
       <r>  -30.5817    1.0000 </r>
       <r>  -30.5446    1.0000 </r>
       <r>  -30.5090    1.0000 </r>
       <r>  -30.5024    1.0000 </r>
       <r>  -30.3284    1.0000 </r>
       <r>  -30.2210    1.0000 </r>
       <r>  -30.1041    1.0000 </r>
       <r>  -29.7738    1.0000 </r>
       <r>  -29.5982    1.0000 </r>
       <r>  -29.3000    1.0000 </r>
       <r>  -29.2318    1.0000 </r>
       <r>  -17.6957    1.0000 </r>
       <r>  -16.5646    1.0000 </r>
       <r>  -16.3585    1.0000 </r>
       <r>  -16.3175    1.0000 </r>
       <r>  -15.9547    1.0000 </r>
       <r>  -15.8683    1.0000 </r>
       <r>  -15.5135    1.0000 </r>
       <r>  -15.2272    1.0000 </r>
[...]
       <r>     9.7313     0.0002   864.0000 </r>
       <r>     9.9043     1.4130   864.2445 </r>
       <r>    10.0774    11.3361   866.2061 </r>
       <r>    10.2504    10.3661   867.9998 </r>
       <r>    10.4235     4.5563   868.7882 </r>
       <r>    10.5965    18.8140   872.0437 </r>
       <r>    10.7695    11.5220   874.0375 </r>
       <r>    10.9426    13.5152   876.3761 </r>
       <r>    11.1156    19.2884   879.7137 </r>
       <r>    11.2886    21.4513   883.4256 </r>
       <r>    11.4617    24.8000   887.7169 </r>
       <r>    11.6347    26.3997   892.2850 </r>
       <r>    11.8077    23.8034   896.4039 </r>
       <r>    11.9808    31.5255   901.8589 </r>
       <r>    12.1538    33.6394   907.6798 </r>
       <r>    12.3269    41.0195   914.7777 </r>
       <r>    12.4999    39.3746   921.5909 </r>
       <r>    12.6729    39.8690   928.4897 </r>
       <r>    12.8460    49.4182   937.0409 </r>
       <r>    13.0190    43.0700   944.4936 </r>
       <r>    13.1920    44.0235   952.1113 </r>
       <r>    13.3651    46.6348   960.1809 </r>
       <r>    13.5381    44.1550   967.8213 </r>
       <r>    13.7112    46.7259   975.9066 </r>
       <r>    13.8842    48.2348   984.2530 </r>
       <r>    14.0572    47.0769   992.3991 </r>
       <r>    14.2303    51.1633  1001.2522 </r>
       <r>    14.4033    58.2992  1011.3402 </r>
       <r>    14.5763    51.7369  1020.2926 </r>
       <r>    14.7494    58.7983  1030.4668 </r>
       <r>    14.9224    46.5151  1038.5157 </r>
       <r>    15.0955     8.5766  1039.9998 </r>
       <r>    15.2685     0.0014  1040.0000 </r>
       <r>    15.4415     0.0000  1040.0000 </r>
       <r>    15.6146     0.0000  1040.0000 </r>
       <r>    15.7876     0.0000  1040.0000 </r>
       <r>    15.9606     0.0000  1040.0000 </r>
       <r>    16.1337     0.0000  1040.0000 </r>
       <r>    16.3067     0.0000  1040.0000 </r>
       <r>    16.4797     0.0000  1040.0000 </r>
       <r>    16.6528     0.0000  1040.0000 </r>
       <r>    16.8258     0.0000  1040.0000 </r>
       <r>    16.9989     0.0000  1040.0000 </r>
       <r>    17.1719     0.0000  1040.0000 </r>
       <r>    17.3449     0.0000  1040.0000 </r>
      </set>
     </set>
    </array>
   </total>
  </dos>
 </calculation>
 <structure name="finalpos" >
  <crystal>
   <varray name="basis" >
    <v>      10.56489661       0.00000000       0.00000000 </v>
    <v>       0.00000000      10.56489661       0.00000000 </v>
    <v>       0.00000000       0.00000000      10.56489661 </v>
   </varray>
   <i name="volume">   1179.22249153 </i>
   <varray name="rec_basis" >
    <v>       0.09465308       0.00000000       0.00000000 </v>
    <v>       0.00000000       0.09465308       0.00000000 </v>
    <v>       0.00000000       0.00000000       0.09465308 </v>
   </varray>
  </crystal>
  <varray name="positions" >
   <v>       0.95901636       0.95093792       0.11765747 </v>
   <v>       0.44628717       0.51854485       0.06096649 </v>
   <v>       0.90552829       0.20909680       0.13888818 </v>
   <v>       0.71393136       0.10483483       0.76034624 </v>
   <v>       0.46812480       0.42963141       0.66956634 </v>
   <v>       0.09578898       0.42083656       0.62125443 </v>
   <v>       0.90665187       0.42811924       0.92672543 </v>
   <v>       0.37418703       0.30582781       0.35453949 </v>
   <v>       0.44395414       0.58564068       0.28133036 </v>
   <v>       0.19108391       0.69721780       0.21064747 </v>
   <v>       0.63899952       0.60616715       0.78158998 </v>
   <v>       0.76995117       0.49339711       0.35706193 </v>
   <v>       0.94648848       0.66568242       0.13717848 </v>
   <v>       0.87559210       0.89503721       0.37660780 </v>
   <v>       0.44335100       0.78683470       0.92739001 </v>
   <v>       0.19654004       0.47549596       0.87442584 </v>
   <v>       0.59641744       0.01437379       0.50299894 </v>
   <v>       0.56076474       0.30363032       0.23301262 </v>
   <v>       0.15193165       0.94400048       0.34434687 </v>
   <v>       0.16023819       0.22425856       0.88000231 </v>
   <v>       0.71550626       0.95680996       0.01589597 </v>
   <v>       0.89072425       0.75247836       0.83744989 </v>
   <v>       0.39259053       0.92118982       0.61630458 </v>
   <v>       0.18503051       0.96378130       0.78468542 </v>
   <v>       0.12676058       0.78805706       0.61215347 </v>
   <v>       0.27993075       0.98201271       0.02846114 </v>
   <v>       0.61788757       0.87238142       0.70586891 </v>
   <v>       0.94438311       0.08868795       0.90391265 </v>
   <v>       0.93268999       0.94992541       0.68271590 </v>
   <v>       0.39406228       0.23423113       0.04962364 </v>
   <v>       0.65570059       0.28065942       0.51152997 </v>
   <v>       0.99979550       0.66960907       0.40279468 </v>
   <v>       0.14251907       0.15687217       0.24341465 </v>
   <v>       0.39254029       0.83344348       0.40609917 </v>
   <v>       0.12446688       0.10034560       0.56010435 </v>
   <v>       0.28498204       0.54815429       0.45877650 </v>
   <v>       0.16481996       0.72762383       0.91341112 </v>
   <v>       0.44171805       0.07844103       0.82483250 </v>
   <v>       0.05074377       0.41616725       0.28010462 </v>
   <v>       0.93380299       0.25256877       0.70788810 </v>
   <v>       0.36493941       0.63906084       0.72410657 </v>
   <v>       0.86509193       0.66087012       0.63328962 </v>
   <v>       0.76386071       0.38463817       0.68003059 </v>
   <v>       0.73849314       0.43974416       0.08758090 </v>
   <v>       0.42767932       0.85583553       0.17619197 </v>
   <v>       0.64282343       0.67238976       0.51244196 </v>
   <v>       0.71222936       0.09600628       0.25164627 </v>
   <v>       0.92766700       0.19043050       0.41419675 </v>
   <v>       0.20047506       0.33879813       0.10178987 </v>
   <v>       0.37643709       0.23239368       0.62325382 </v>
   <v>       0.70972598       0.70554696       0.01638640 </v>
   <v>       0.69554408       0.77366608       0.27514444 </v>
   <v>       0.41726246       0.05292728       0.28867198 </v>
   <v>       0.58073162       0.31033433       0.89840315 </v>
   <v>       0.09018843       0.52949759       0.18700911 </v>
   <v>       0.11242926       0.43801839       0.04026059 </v>
   <v>       0.06955619       0.03657975       0.96447584 </v>
   <v>       0.80555711       0.27474636       0.79750101 </v>
   <v>       0.49774074       0.21764065       0.52282625 </v>
   <v>       0.20658289       0.95319474       0.53982992 </v>
   <v>       0.79781280       0.95927008       0.62852334 </v>
   <v>       0.06823473       0.11880156       0.37054094 </v>
   <v>       0.24524982       0.54256230       0.33289745 </v>
   <v>       0.52656549       0.05571209       0.71044805 </v>
   <v>       0.12962549       0.85358647       0.00486767 </v>
   <v>       0.76703516       0.57807732       0.99603859 </v>
   <v>       0.93744071       0.74610245       0.52776131 </v>
   <v>       0.32846767       0.73813990       0.50722673 </v>
   <v>       0.95808382       0.19208310       0.56655178 </v>
   <v>       0.96414397       0.33044656       0.35580398 </v>
   <v>       0.62352968       0.39148705       0.42257490 </v>
   <v>       0.40147335       0.75588980       0.29272496 </v>
   <v>       0.01036922       0.80354050       0.28712860 </v>
   <v>       0.58863130       0.62846774       0.99712642 </v>
   <v>       0.44801069       0.16903825       0.18096126 </v>
   <v>       0.72528781       0.74675267       0.64357364 </v>
   <v>       0.62092637       0.62404451       0.37462919 </v>
   <v>       0.27987160       0.35184952       0.71975718 </v>
   <v>       0.46272704       0.25503587       0.81232239 </v>
   <v>       0.03406506       0.85052570       0.75746149 </v>
   <v>       0.24560898       0.20561331       0.52889220 </v>
   <v>       0.17535173       0.37343504       0.43674736 </v>
   <v>       0.92691720       0.10418509       0.75179942 </v>
   <v>       0.82303592       0.79515838       0.09375868 </v>
   <v>       0.43643633       0.53722876       0.82131334 </v>
   <v>       0.35790048       0.13609335       0.94915687 </v>
   <v>       0.22974233       0.74061167       0.77936024 </v>
   <v>       0.07943128       0.27606876       0.17978177 </v>
   <v>       0.04175037       0.63092954       0.94630450 </v>
   <v>       0.69519787       0.83057912       0.42106544 </v>
   <v>       0.67422305       0.16573139       0.12958061 </v>
   <v>       0.48377184       0.95826953       0.05970952 </v>
   <v>       0.37315756       0.40391968       0.18928741 </v>
   <v>       0.62551855       0.46943098       0.17463674 </v>
   <v>       0.24385614       0.56472030       0.61672099 </v>
   <v>       0.27941974       0.32785065       0.96490032 </v>
   <v>       0.28531845       0.91976833       0.21459183 </v>
   <v>       0.11036060       0.15584626       0.69455283 </v>
   <v>       0.99396669       0.51347910       0.41722646 </v>
   <v>       0.39541074       0.99764821       0.44695956 </v>
   <v>       0.82804327       0.54207955       0.74958600 </v>
   <v>       0.86528603       0.10903865       0.30244952 </v>
   <v>       0.59670885       0.76997021       0.14992796 </v>
   <v>       0.00464477       0.60707589       0.68299600 </v>
   <v>       0.01962590       0.96206242       0.56058595 </v>
   <v>       0.51570645       0.92774605       0.30457015 </v>
   <v>       0.84560471       0.40527048       0.19074598 </v>
   <v>       0.83747047       0.95117761       0.82283331 </v>
   <v>       0.83903976       0.09961808       0.99610258 </v>
   <v>       0.71052275       0.95127369       0.23371769 </v>
   <v>       0.60210953       0.11610916       0.91641060 </v>
   <v>       0.87283036       0.38187098       0.59211164 </v>
   <v>       0.54161536       0.82504128       0.51413324 </v>
   <v>       0.62575690       0.31212965       0.64873508 </v>
   <v>       0.26041845       0.19636873       0.11230359 </v>
   <v>       0.62729565       0.42120093       0.79694260 </v>
   <v>       0.09146143       0.03481994       0.19934567 </v>
   <v>       0.43458170       0.75920249       0.72946857 </v>
   <v>       0.32565585       0.08959402       0.67660303 </v>
   <v>       0.79996918       0.57530492       0.51515061 </v>
   <v>       0.70622290       0.81296535       0.89722748 </v>
   <v>       0.28310531       0.13949282       0.32808218 </v>
   <v>       0.36107795       0.73657912       0.09630971 </v>
   <v>       0.71948772       0.32667775       0.00363426 </v>
   <v>       0.58875622       0.12605272       0.35847360 </v>
   <v>       0.26460158       0.64285069       0.98388484 </v>
   <v>       0.14444858       0.67805933       0.45509268 </v>
   <v>       0.01755049       0.34636051       0.78441557 </v>
   <v>       0.38135887       0.94103796       0.79842441 </v>
   <v>       0.40737277       0.46446916       0.45971534 </v>
   <v>       0.81019076       0.67795759       0.27050149 </v>
   <v>       0.77023302       0.19955812       0.50424127 </v>
   <v>       0.50895316       0.34654269       0.02699434 </v>
   <v>       0.97563840       0.23879858       0.95130098 </v>
   <v>       0.55434321       0.58081635       0.57460059 </v>
  </varray>
  <varray name="velocities" >
   <v>       0.00000000       0.00000000       0.00000000 </v>
   <v>       0.00000000       0.00000000       0.00000000 </v>
   <v>       0.00000000       0.00000000       0.00000000 </v>
   <v>       0.00000000       0.00000000       0.00000000 </v>
   <v>       0.00000000       0.00000000       0.00000000 </v>
   <v>       0.00000000       0.00000000       0.00000000 </v>
   <v>       0.00000000       0.00000000       0.00000000 </v>
   <v>       0.00000000       0.00000000       0.00000000 </v>
   <v>       0.00000000       0.00000000       0.00000000 </v>
   <v>       0.00000000       0.00000000       0.00000000 </v>
   <v>       0.00000000       0.00000000       0.00000000 </v>
   <v>       0.00000000       0.00000000       0.00000000 </v>
   <v>       0.00000000       0.00000000       0.00000000 </v>
   <v>       0.00000000       0.00000000       0.00000000 </v>
   <v>       0.00000000       0.00000000       0.00000000 </v>
   <v>       0.00000000       0.00000000       0.00000000 </v>
   <v>       0.00000000       0.00000000       0.00000000 </v>
   <v>       0.00000000       0.00000000       0.00000000 </v>
   <v>       0.00000000       0.00000000       0.00000000 </v>
   <v>       0.00000000       0.00000000       0.00000000 </v>
   <v>       0.00000000       0.00000000       0.00000000 </v>
   <v>       0.00000000       0.00000000       0.00000000 </v>
   <v>       0.00000000       0.00000000       0.00000000 </v>
   <v>       0.00000000       0.00000000       0.00000000 </v>
   <v>       0.00000000       0.00000000       0.00000000 </v>
   <v>       0.00000000       0.00000000       0.00000000 </v>
   <v>       0.00000000       0.00000000       0.00000000 </v>
   <v>       0.00000000       0.00000000       0.00000000 </v>
   <v>       0.00000000       0.00000000       0.00000000 </v>
   <v>       0.00000000       0.00000000       0.00000000 </v>
   <v>       0.00000000       0.00000000       0.00000000 </v>
   <v>       0.00000000       0.00000000       0.00000000 </v>
   <v>       0.00000000       0.00000000       0.00000000 </v>
   <v>       0.00000000       0.00000000       0.00000000 </v>
   <v>       0.00000000       0.00000000       0.00000000 </v>
   <v>       0.00000000       0.00000000       0.00000000 </v>
   <v>       0.00000000       0.00000000       0.00000000 </v>
   <v>       0.00000000       0.00000000       0.00000000 </v>
   <v>       0.00000000       0.00000000       0.00000000 </v>
   <v>       0.00000000       0.00000000       0.00000000 </v>
   <v>       0.00000000       0.00000000       0.00000000 </v>
   <v>       0.00000000       0.00000000       0.00000000 </v>
   <v>       0.00000000       0.00000000       0.00000000 </v>
   <v>       0.00000000       0.00000000       0.00000000 </v>
   <v>       0.00000000       0.00000000       0.00000000 </v>
   <v>       0.00000000       0.00000000       0.00000000 </v>
   <v>       0.00000000       0.00000000       0.00000000 </v>
   <v>       0.00000000       0.00000000       0.00000000 </v>
   <v>       0.00000000       0.00000000       0.00000000 </v>
   <v>       0.00000000       0.00000000       0.00000000 </v>
   <v>       0.00000000       0.00000000       0.00000000 </v>
   <v>       0.00000000       0.00000000       0.00000000 </v>
   <v>       0.00000000       0.00000000       0.00000000 </v>
   <v>       0.00000000       0.00000000       0.00000000 </v>
   <v>       0.00000000       0.00000000       0.00000000 </v>
   <v>       0.00000000       0.00000000       0.00000000 </v>
   <v>       0.00000000       0.00000000       0.00000000 </v>
   <v>       0.00000000       0.00000000       0.00000000 </v>
   <v>       0.00000000       0.00000000       0.00000000 </v>
   <v>       0.00000000       0.00000000       0.00000000 </v>
   <v>       0.00000000       0.00000000       0.00000000 </v>
   <v>       0.00000000       0.00000000       0.00000000 </v>
   <v>       0.00000000       0.00000000       0.00000000 </v>
   <v>       0.00000000       0.00000000       0.00000000 </v>
   <v>       0.00000000       0.00000000       0.00000000 </v>
   <v>       0.00000000       0.00000000       0.00000000 </v>
   <v>       0.00000000       0.00000000       0.00000000 </v>
   <v>       0.00000000       0.00000000       0.00000000 </v>
   <v>       0.00000000       0.00000000       0.00000000 </v>
   <v>       0.00000000       0.00000000       0.00000000 </v>
   <v>       0.00000000       0.00000000       0.00000000 </v>
   <v>       0.00000000       0.00000000       0.00000000 </v>
   <v>       0.00000000       0.00000000       0.00000000 </v>
   <v>       0.00000000       0.00000000       0.00000000 </v>
   <v>       0.00000000       0.00000000       0.00000000 </v>
   <v>       0.00000000       0.00000000       0.00000000 </v>
   <v>       0.00000000       0.00000000       0.00000000 </v>
   <v>       0.00000000       0.00000000       0.00000000 </v>
   <v>       0.00000000       0.00000000       0.00000000 </v>
   <v>       0.00000000       0.00000000       0.00000000 </v>
   <v>       0.00000000       0.00000000       0.00000000 </v>
   <v>       0.00000000       0.00000000       0.00000000 </v>
   <v>       0.00000000       0.00000000       0.00000000 </v>
   <v>       0.00000000       0.00000000       0.00000000 </v>
   <v>       0.00000000       0.00000000       0.00000000 </v>
   <v>       0.00000000       0.00000000       0.00000000 </v>
   <v>       0.00000000       0.00000000       0.00000000 </v>
   <v>       0.00000000       0.00000000       0.00000000 </v>
   <v>       0.00000000       0.00000000       0.00000000 </v>
   <v>       0.00000000       0.00000000       0.00000000 </v>
   <v>       0.00000000       0.00000000       0.00000000 </v>
   <v>       0.00000000       0.00000000       0.00000000 </v>
   <v>       0.00000000       0.00000000       0.00000000 </v>
   <v>       0.00000000       0.00000000       0.00000000 </v>
   <v>       0.00000000       0.00000000       0.00000000 </v>
   <v>       0.00000000       0.00000000       0.00000000 </v>
   <v>       0.00000000       0.00000000       0.00000000 </v>
   <v>       0.00000000       0.00000000       0.00000000 </v>
   <v>       0.00000000       0.00000000       0.00000000 </v>
   <v>       0.00000000       0.00000000       0.00000000 </v>
   <v>       0.00000000       0.00000000       0.00000000 </v>
   <v>       0.00000000       0.00000000       0.00000000 </v>
   <v>       0.00000000       0.00000000       0.00000000 </v>
   <v>       0.00000000       0.00000000       0.00000000 </v>
   <v>       0.00000000       0.00000000       0.00000000 </v>
   <v>       0.00000000       0.00000000       0.00000000 </v>
   <v>       0.00000000       0.00000000       0.00000000 </v>
   <v>       0.00000000       0.00000000       0.00000000 </v>
   <v>       0.00000000       0.00000000       0.00000000 </v>
   <v>       0.00000000       0.00000000       0.00000000 </v>
   <v>       0.00000000       0.00000000       0.00000000 </v>
   <v>       0.00000000       0.00000000       0.00000000 </v>
   <v>       0.00000000       0.00000000       0.00000000 </v>
   <v>       0.00000000       0.00000000       0.00000000 </v>
   <v>       0.00000000       0.00000000       0.00000000 </v>
   <v>       0.00000000       0.00000000       0.00000000 </v>
   <v>       0.00000000       0.00000000       0.00000000 </v>
   <v>       0.00000000       0.00000000       0.00000000 </v>
   <v>       0.00000000       0.00000000       0.00000000 </v>
   <v>       0.00000000       0.00000000       0.00000000 </v>
   <v>       0.00000000       0.00000000       0.00000000 </v>
   <v>       0.00000000       0.00000000       0.00000000 </v>
   <v>       0.00000000       0.00000000       0.00000000 </v>
   <v>       0.00000000       0.00000000       0.00000000 </v>
   <v>       0.00000000       0.00000000       0.00000000 </v>
   <v>       0.00000000       0.00000000       0.00000000 </v>
   <v>       0.00000000       0.00000000       0.00000000 </v>
   <v>       0.00000000       0.00000000       0.00000000 </v>
   <v>       0.00000000       0.00000000       0.00000000 </v>
   <v>       0.00000000       0.00000000       0.00000000 </v>
   <v>       0.00000000       0.00000000       0.00000000 </v>
   <v>       0.00000000       0.00000000       0.00000000 </v>
   <v>       0.00000000       0.00000000       0.00000000 </v>
   <v>       0.00000000       0.00000000       0.00000000 </v>
   <v>       0.00000000       0.00000000       0.00000000 </v>
  </varray>
 </structure>
</modeling>
