 vasp.5.4.4.18Apr17-6-g9f103f2a35 (build Oct 31 2019 15:01:46) complex          
  
 executed on             LinuxIFC date 2024.04.29  23:48:53
 running on   52 total cores
 distrk:  each k-point on   52 cores,    1 groups
 distr:  one band on NCORES_PER_BAND=  13 cores,    4 groups


--------------------------------------------------------------------------------------------------------


 INCAR:
 POTCAR:    PAW_PBE Ca_sv 06Sep2000               
 POTCAR:    PAW_PBE Si 05Jan2001                  
 POTCAR:    PAW_PBE O 08Apr2002                   
 POTCAR:    PAW_PBE Ca_sv 06Sep2000               
   SHA256 =  a47365830e737f14e0e6c5cf1ed81b94e081eecf0a33df105380881bc9da05d5 Ca
   COPYR  = (c) Copyright 06Sep2000 Georg Kresse                                
   COPYR  = This file is part of the software VASP. Any use, copying, and all ot
   COPYR  = If you do not have a valid VASP license, you may not use, copy or di
   VRHFIN =Ca: 3s3p4s                                                           
   LEXCH  = PE                                                                  
   EATOM  =  1006.0909 eV,   73.9456 Ry                                         
                                                                                
   TITEL  = PAW_PBE Ca_sv 06Sep2000                                             
   LULTRA =        F    use ultrasoft PP ?                                      
   IUNSCR =        1    unscreen: 0-lin 1-nonlin 2-no                           
   RPACOR =    2.000    partial core radius                                     
   POMASS =   40.078; ZVAL   =   10.000    mass and valenz                      
   RCORE  =    2.300    outmost cutoff radius                                   
   RWIGS  =    2.500; RWIGS  =    1.323    wigner-seitz radius (au A)           
   ENMAX  =  266.622; ENMIN  =  199.967 eV                                      
   RCLOC  =    1.808    cutoff for local pot                                    
   LCOR   =        T    correct aug charges                                     
   LPAW   =        T    paw PP                                                  
   EAUG   =  420.852                                                            
   RMAX   =    2.359    core radius for proj-oper                               
   RAUG   =    1.300    factor for augmentation sphere                          
   RDEP   =    2.392    radius for radial grids                                 
   RDEPT  =    1.987    core radius for aug-charge                              
                                                                                
   Atomic configuration                                                         
    7 entries                                                                   
     n  l   j            E        occ.                                          
     1  0  0.50     -3949.1705   2.0000                                         
     2  0  0.50      -414.3434   2.0000                                         
     2  1  1.50      -334.7047   6.0000                                         
     3  0  0.50       -47.0896   2.0000                                         
     4  0  0.50        -3.7663   2.0000                                         
     3  1  1.50       -28.0061   6.0000                                         
     3  2  1.50        -4.0817   0.0000                                         
   Description                                                                  
     l       E           TYP  RCUT    TYP  RCUT                                 
     0    -47.0896403     23  2.300                                             
     0     -3.7663320     23  2.300                                             
     1    -28.0060855     23  2.300                                             
     1      6.8029130     23  2.300                                             
     2     -4.0817478     23  2.300                                             
     2      0.4464412     23  2.300                                             
  local pseudopotential read in
  partial core-charges read in
  partial kinetic energy density read in
  atomic valenz-charges read in
  non local Contribution for L=           0  read in
    real space projection operators read in
  non local Contribution for L=           0  read in
    real space projection operators read in
  non local Contribution for L=           1  read in
    real space projection operators read in
  non local Contribution for L=           1  read in
    real space projection operators read in
  non local Contribution for L=           2  read in
    real space projection operators read in
  non local Contribution for L=           2  read in
    real space projection operators read in
    PAW grid and wavefunctions read in
 
   number of l-projection  operators is LMAX  =           6
   number of lm-projection operators is LMMAX =          18
 
 POTCAR:    PAW_PBE Si 05Jan2001                  
   SHA256 =  79d9987ad8750f624c4d6acb2a16d13abf6a777132adc04dc6c8399be72b42bb Si
   COPYR  = (c) Copyright 05Jan2001 Georg Kresse                                
   COPYR  = This file is part of the software VASP. Any use, copying, and all ot
   COPYR  = If you do not have a valid VASP license, you may not use, copy or di
   VRHFIN =Si: s2p2                                                             
   LEXCH  = PE                                                                  
   EATOM  =   103.0669 eV,    7.5752 Ry                                         
                                                                                
   TITEL  = PAW_PBE Si 05Jan2001                                                
   LULTRA =        F    use ultrasoft PP ?                                      
   IUNSCR =        1    unscreen: 0-lin 1-nonlin 2-no                           
   RPACOR =    1.500    partial core radius                                     
   POMASS =   28.085; ZVAL   =    4.000    mass and valenz                      
   RCORE  =    1.900    outmost cutoff radius                                   
   RWIGS  =    2.480; RWIGS  =    1.312    wigner-seitz radius (au A)           
   ENMAX  =  245.345; ENMIN  =  184.009 eV                                      
   ICORE  =        2    local potential                                         
   LCOR   =        T    correct aug charges                                     
   LPAW   =        T    paw PP                                                  
   EAUG   =  322.069                                                            
   DEXC   =    0.000                                                            
   RMAX   =    1.950    core radius for proj-oper                               
   RAUG   =    1.300    factor for augmentation sphere                          
   RDEP   =    1.993    radius for radial grids                                 
   RDEPT  =    1.837    core radius for aug-charge                              
                                                                                
   Atomic configuration                                                         
    6 entries                                                                   
     n  l   j            E        occ.                                          
     1  0  0.50     -1785.8828   2.0000                                         
     2  0  0.50      -139.4969   2.0000                                         
     2  1  1.50       -95.5546   6.0000                                         
     3  0  0.50       -10.8127   2.0000                                         
     3  1  0.50        -4.0811   2.0000                                         
     3  2  1.50        -4.0817   0.0000                                         
   Description                                                                  
     l       E           TYP  RCUT    TYP  RCUT                                 
     0    -10.8127223     23  1.900                                             
     0     -7.6451159     23  1.900                                             
     1     -4.0811372     23  1.900                                             
     1      2.4879257     23  1.900                                             
     2     -4.0817478      7  1.900                                             
  local pseudopotential read in
  partial core-charges read in
  partial kinetic energy density read in
  atomic valenz-charges read in
  non local Contribution for L=           0  read in
    real space projection operators read in
  non local Contribution for L=           0  read in
    real space projection operators read in
  non local Contribution for L=           1  read in
    real space projection operators read in
  non local Contribution for L=           1  read in
    real space projection operators read in
    PAW grid and wavefunctions read in
 
   number of l-projection  operators is LMAX  =           4
   number of lm-projection operators is LMMAX =           8
 
 POTCAR:    PAW_PBE O 08Apr2002                   
   SHA256 =  818f92134a0a090dccd8ba1447fa70422a3b330e708bb4f08108d8ae51209ddf O/
   COPYR  = (c) Copyright 08Apr2002 Georg Kresse                                
   COPYR  = This file is part of the software VASP. Any use, copying, and all ot
   COPYR  = If you do not have a valid VASP license, you may not use, copy or di
   VRHFIN =O: s2p4                                                              
   LEXCH  = PE                                                                  
   EATOM  =   432.3788 eV,   31.7789 Ry                                         
                                                                                
   TITEL  = PAW_PBE O 08Apr2002                                                 
   LULTRA =        F    use ultrasoft PP ?                                      
   IUNSCR =        1    unscreen: 0-lin 1-nonlin 2-no                           
   RPACOR =    1.200    partial core radius                                     
   POMASS =   16.000; ZVAL   =    6.000    mass and valenz                      
   RCORE  =    1.520    outmost cutoff radius                                   
   RWIGS  =    1.550; RWIGS  =    0.820    wigner-seitz radius (au A)           
   ENMAX  =  400.000; ENMIN  =  300.000 eV                                      
   ICORE  =        2    local potential                                         
   LCOR   =        T    correct aug charges                                     
   LPAW   =        T    paw PP                                                  
   EAUG   =  605.392                                                            
   DEXC   =    0.000                                                            
   RMAX   =    1.553    core radius for proj-oper                               
   RAUG   =    1.300    factor for augmentation sphere                          
   RDEP   =    1.550    radius for radial grids                                 
   RDEPT  =    1.329    core radius for aug-charge                              
                                                                                
   Atomic configuration                                                         
    4 entries                                                                   
     n  l   j            E        occ.                                          
     1  0  0.50      -514.6923   2.0000                                         
     2  0  0.50       -23.9615   2.0000                                         
     2  1  0.50        -9.0305   4.0000                                         
     3  2  1.50        -9.5241   0.0000                                         
   Description                                                                  
     l       E           TYP  RCUT    TYP  RCUT                                 
     0    -23.9615318     23  1.200                                             
     0     -9.5240782     23  1.200                                             
     1     -9.0304911     23  1.520                                             
     1      8.1634956     23  1.520                                             
     2     -9.5240782      7  1.500                                             
  local pseudopotential read in
  partial core-charges read in
  partial kinetic energy density read in
  kinetic energy density of atom read in
  atomic valenz-charges read in
  non local Contribution for L=           0  read in
    real space projection operators read in
  non local Contribution for L=           0  read in
    real space projection operators read in
  non local Contribution for L=           1  read in
    real space projection operators read in
  non local Contribution for L=           1  read in
    real space projection operators read in
    PAW grid and wavefunctions read in
 
   number of l-projection  operators is LMAX  =           4
   number of lm-projection operators is LMMAX =           8
 
 Optimization of the real space projectors (new method)

 maximal supplied QI-value         = 16.25
 optimisation between [QCUT,QGAM] = [ 12.51, 25.03] = [ 43.85,175.40] Ry 
 Optimized for a Real-space Cutoff    1.47 Angstroem

   l    n(q)    QCUT    max X(q) W(low)/X(q) W(high)/X(q)  e(spline) 
   0     11    12.514    11.817    0.25E-04    0.32E-05    0.87E-07
   0     11    12.514     8.461    0.39E-04    0.59E-05    0.18E-06
   1     11    12.514     3.957    0.97E-05    0.57E-05    0.28E-07
   1     11    12.514     4.314    0.42E-04    0.14E-04    0.23E-06
   2     10    12.514    14.565    0.79E-04    0.50E-03    0.16E-05
   2     10    12.514    14.552    0.75E-04    0.48E-03    0.15E-05
 Optimization of the real space projectors (new method)

 maximal supplied QI-value         = 19.84
 optimisation between [QCUT,QGAM] = [ 12.50, 25.00] = [ 43.76,175.03] Ry 
 Optimized for a Real-space Cutoff    1.16 Angstroem

   l    n(q)    QCUT    max X(q) W(low)/X(q) W(high)/X(q)  e(spline) 
   0      9    12.501   159.560    0.10E-03    0.83E-04    0.71E-07
   0      9    12.501   115.863    0.99E-04    0.81E-04    0.70E-07
   1      8    12.501    88.339    0.20E-03    0.25E-03    0.76E-07
   1      8    12.501    48.592    0.20E-03    0.24E-03    0.75E-07
 Optimization of the real space projectors (new method)

 maximal supplied QI-value         = 24.76
 optimisation between [QCUT,QGAM] = [ 12.38, 25.00] = [ 42.90,175.06] Ry 
 Optimized for a Real-space Cutoff    1.16 Angstroem

   l    n(q)    QCUT    max X(q) W(low)/X(q) W(high)/X(q)  e(spline) 
   0      9    12.378    20.381    0.16E-03    0.67E-05    0.31E-06
   0      9    12.378    15.268    0.17E-03    0.81E-05    0.33E-06
   1      8    12.378     5.964    0.20E-03    0.16E-03    0.30E-06
   1      8    12.378     5.382    0.18E-03    0.14E-03    0.26E-06
  PAW_PBE Ca_sv 06Sep2000               :
 energy of atom  1       EATOM=-1006.0909
 kinetic energy error for atom=    0.0012 (will be added to EATOM!!)
  PAW_PBE Si 05Jan2001                  :
 energy of atom  2       EATOM= -103.0669
 kinetic energy error for atom=    0.0003 (will be added to EATOM!!)
  PAW_PBE O 08Apr2002                   :
 energy of atom  3       EATOM= -432.3788
 kinetic energy error for atom=    0.0168 (will be added to EATOM!!)
 
 
 POSCAR: Ca Si  O                                
  positions in direct lattice
  No initial velocities read in
 exchange correlation table for  LEXCH =        8
   RHO(1)=    0.500       N(1)  =     2000
   RHO(2)=  100.500       N(2)  =     4000
 


--------------------------------------------------------------------------------------------------------


 ion  position               nearest neighbor table
   1  0.148  0.610  0.838-  57 2.38 116 2.38 109 2.45  34 3.02
   2  0.142  0.502  0.295-  62 2.08  97 2.34 100 2.38  47 2.53   9 2.99  30 3.05
   3  0.270  0.430  0.045-  64 2.10  60 2.14 109 2.18 111 2.23  77 2.35  23 2.79  50 3.03  45 3.08

   4  0.576  0.458  0.180- 108 2.22  90 2.27  72 2.49  64 2.51 128 2.52  18 2.97  15 3.12  32 3.15

   5  0.145  0.102  0.769-  86 2.00  55 2.13  68 2.17 110 2.37  92 2.38  56 2.49  42 2.79  35 2.85
                            54 2.93  43 3.00
   6  0.678  0.975  0.245- 107 2.13 133 2.13 126 2.15 101 2.28   8 2.75  29 2.91  51 3.05  31 3.14

   7  0.436  0.652  0.909-  77 2.15 119 2.23  80 2.39 105 2.41  50 2.47 116 2.54  34 2.54  39 2.90

   8  0.603  0.082  0.442- 107 1.87  98 2.51  76 2.57   6 2.75  46 2.90  32 3.12
   9  0.174  0.739  0.201-  87 2.28 117 2.48  95 2.52  61 2.57   2 2.99  25 3.04
  10  0.789  0.794  0.439- 112 2.14  94 2.23 101 2.32 107 2.41  70 2.47  18 2.70  46 2.85  53 3.00
                            21 3.16
  11  0.368  0.138  0.237-  96 2.02 133 2.26  69 2.31 114 2.32  37 3.01  16 3.12  44 3.16
  12  0.582  0.238  0.695- 122 2.12 120 2.19 132 2.27 106 2.35  58 2.45  33 3.02
  13  0.759  0.737  0.962-  67 2.23  83 2.23  75 2.26  91 2.36 123 2.50  51 2.54  41 3.11  39 3.15

  14  0.403  0.529  0.632- 103 2.14  80 2.16 131 2.18 124 2.44  36 3.10  30 3.15
  15  0.832  0.383  0.209- 128 2.01  63 2.03  90 2.09 130 2.28  18 3.11   4 3.12
  16  0.387  0.159  0.970- 114 2.27  73 2.45  31 3.05  45 3.11  11 3.12
  17  0.062  0.441  0.581- 100 2.28  57 2.38 124 2.39  97 2.40  92 2.49  47 2.54  19 3.02
  18  0.728  0.598  0.329- 112 2.19  90 2.22 101 2.32  91 2.41 108 2.53  10 2.70  51 2.73   4 2.97
                            19 3.04  15 3.11  47 3.15
  19  0.822  0.410  0.485-  97 2.16  76 2.19  81 2.24  90 2.36 112 2.55  32 2.60  47 2.70  17 3.02
                            18 3.04
  20  0.919  0.091  0.089-  89 2.21 113 2.32 126 2.35  99 2.56  41 2.71  44 2.77
  21  0.673  0.657  0.643-  94 2.02 105 2.05  70 2.21 123 2.39  39 2.57  46 2.93  53 3.16  10 3.16

  22  0.011  0.742  0.601-  70 2.16  57 2.17 129 2.40 100 2.47  78 2.52  36 2.88  47 2.91
  23  0.054  0.335  0.001- 130 2.19 111 2.22 134 2.34  44 2.79   3 2.79  52 3.10
  24  0.298  0.854  0.630-  79 2.12 119 2.24  78 2.27  71 2.33  74 2.35  56 2.36  84 2.50  37 2.73
                            36 2.75  34 3.16
  25  0.091  0.959  0.315-  95 2.02 125 2.12  61 2.16  99 2.33 121 2.47  48 2.78   9 3.04  37 3.10
                            41 3.11  44 3.12
  26  0.340  0.332  0.440- 118 2.08 102 2.11 122 2.20  65 2.31  42 2.85  30 3.02
  27  0.460  0.784  0.286-  87 1.97 108 2.06  59 2.16  74 2.24 133 2.57  30 2.73  51 2.78  31 2.97
                            37 3.01  46 3.07
  28  0.508  0.909  0.800- 127 1.57 104 1.57  79 1.60 120 1.99  33 2.58  34 2.95
  29  0.634  0.180  0.108-  66 1.63  69 1.64 126 1.69 128 2.08  73 2.12 113 2.44  49 2.48   6 2.91

  30  0.383  0.578  0.366- 103 1.53  87 1.55 118 1.73 131 1.97  36 2.64  27 2.73  26 3.02   2 3.05
                            14 3.15
  31  0.469  0.935  0.080-  59 1.54 114 1.68 133 1.85  66 1.89  83 2.14 127 2.17  27 2.97  16 3.05
                             6 3.14
  32  0.615  0.349  0.425- 102 1.60  88 1.60  90 1.67  76 1.77  19 2.60   8 3.12   4 3.15
  33  0.668  0.052  0.854- 120 1.72 113 1.75 104 1.93  73 1.96 132 1.98  49 2.42  28 2.58  12 3.02
                            53 3.10
  34  0.292  0.817  0.899- 116 1.50 119 1.58 110 1.74 127 1.75   7 2.54  43 2.74  28 2.95   1 3.02
                            24 3.16
  35  0.973  0.940  0.830-  89 1.56  93 1.65 129 1.67  86 2.10  53 2.81   5 2.85  43 3.00
  36  0.224  0.673  0.497-  78 1.56  71 1.60 131 1.68 100 1.77  87 2.41  30 2.64  24 2.75  22 2.88
                            14 3.10
  37  0.334  0.962  0.424-  96 1.54  61 1.71  74 1.77  84 2.27  71 2.50  56 2.51  24 2.73  27 3.01
                            11 3.01  25 3.10  42 3.14
  38  0.878  0.516  0.796- 123 1.50 135 1.59  57 1.90  81 2.24  39 2.79
  39  0.641  0.536  0.825-  80 1.58 123 1.63  72 1.84 105 1.92  58 2.00  50 2.27  21 2.57  38 2.79
                             7 2.90  13 3.15
  40  0.870  0.125  0.494-  98 1.53 115 1.78 125 1.90  82 2.05  76 2.51  48 2.73  54 3.03
  41  0.935  0.861  0.121-  75 1.56  95 1.59  67 1.79 117 2.17  89 2.33  20 2.71  13 3.11  25 3.11

  42  0.316  0.157  0.611-  55 1.54  84 1.62  65 1.75 122 2.00  56 2.18   5 2.79  26 2.85  48 2.86
                            45 3.04  37 3.14
  43  0.162  0.986  0.999- 117 1.54  68 1.61 110 1.68  99 1.94  89 2.07 114 2.38  34 2.74  35 3.00
                             5 3.00
  44  0.107  0.196  0.190- 130 1.65  99 1.69 121 1.73  60 1.76  20 2.77  23 2.79  25 3.12  11 3.16

  45  0.290  0.339  0.797- 111 1.61 124 1.68  55 1.72 106 1.74  77 2.11  50 2.83  42 3.04   3 3.08
                            16 3.11
  46  0.564  0.848  0.520- 107 1.71  94 1.73  85 1.73  74 1.87  79 2.09  10 2.85   8 2.90  21 2.93
                            27 3.07
  47  0.980  0.569  0.424- 100 1.48 112 1.61  62 1.66  97 1.69   2 2.53  17 2.54  19 2.70  22 2.91
                            18 3.15
  48  0.104  0.117  0.493- 125 1.55  65 1.58  56 1.81 121 1.94 115 2.18  40 2.73  25 2.78  42 2.86

  49  0.727  0.238  0.926-  73 1.70 113 1.88  58 2.05 134 2.07 128 2.14 132 2.39  33 2.42  29 2.48

  50  0.484  0.445  0.897-  80 1.62  64 1.67  77 1.77 106 1.78  72 1.94  39 2.27   7 2.47  45 2.83
                             3 3.03
  51  0.651  0.731  0.152- 101 1.51  91 1.60  83 1.65 108 1.83  13 2.54  18 2.73  27 2.78   6 3.05

  52  0.978  0.586  0.049-  63 1.46  67 1.69 109 1.74 135 1.84  23 3.10
  53  0.793  0.899  0.674-  82 1.53  93 1.61  70 1.68  85 1.92  35 2.81  10 3.00  33 3.10  21 3.16

  54  0.934  0.231  0.723-  92 1.54  86 1.66 115 1.96 134 2.03  81 2.04 132 2.35   5 2.93  40 3.03

  55  0.290  0.207  0.731-  42 1.54  45 1.72   5 2.13
  56  0.193  0.020  0.577-  48 1.81  42 2.18  24 2.36   5 2.49  37 2.51
  57  0.994  0.589  0.706-  38 1.90  22 2.17   1 2.38  17 2.38
  58  0.689  0.372  0.818-  39 2.00  49 2.05  12 2.45
  59  0.407  0.822  0.112-  31 1.54  27 2.16
  60  0.224  0.278  0.137-  44 1.76   3 2.14
  61  0.270  0.910  0.303-  37 1.71  25 2.16   9 2.57
  62  0.009  0.621  0.294-  47 1.66   2 2.08
  63  0.922  0.511  0.133-  52 1.46  15 2.03
  64  0.444  0.390  0.023-  50 1.67   3 2.10   4 2.51
  65  0.211  0.200  0.512-  48 1.58  42 1.75  26 2.31
  66  0.567  0.063  0.069-  29 1.63  31 1.89
  67  0.923  0.720  0.061-  52 1.69  41 1.79  13 2.23
  68  0.153  0.117  0.955-  43 1.61   5 2.17
  69  0.542  0.227  0.205-  29 1.64  11 2.31
  70  0.831  0.763  0.645-  53 1.68  22 2.16  21 2.21  10 2.47
  71  0.195  0.804  0.466-  36 1.60  24 2.33  37 2.50
  72  0.606  0.524  0.979-  39 1.84  50 1.94   4 2.49
  73  0.592  0.181  0.931-  49 1.70  33 1.96  29 2.12  16 2.45
  74  0.413  0.839  0.465-  37 1.77  46 1.87  27 2.24  24 2.35
  75  0.807  0.880  0.085-  41 1.56  13 2.26
  76  0.706  0.264  0.513-  32 1.77  19 2.19  40 2.51   8 2.57
  77  0.344  0.497  0.868-  50 1.77  45 2.11   7 2.15   3 2.35
  78  0.215  0.678  0.631-  36 1.56  24 2.27  22 2.52
  79  0.474  0.863  0.675-  28 1.60  46 2.09  24 2.12
  80  0.514  0.513  0.780-  39 1.58  50 1.62  14 2.16   7 2.39
  81  0.843  0.372  0.673-  54 2.04  19 2.24  38 2.24
  82  0.860  0.990  0.607-  53 1.53  40 2.05
  83  0.608  0.819  0.049-  51 1.65  31 2.14  13 2.23
  84  0.393  0.043  0.592-  42 1.62  37 2.27  24 2.50
  85  0.639  0.927  0.621-  46 1.73  53 1.92
  86  0.977  0.118  0.800-  54 1.66   5 2.00  35 2.10
  87  0.325  0.688  0.317-  30 1.55  27 1.97   9 2.28  36 2.41
  88  0.595  0.452  0.515-  32 1.60
  89  0.989  0.968  0.961-  35 1.56  43 2.07  20 2.21  41 2.33
  90  0.697  0.410  0.325-  32 1.67  15 2.09  18 2.22   4 2.27  19 2.36
  91  0.724  0.618  0.123-  51 1.60  13 2.36  18 2.41
  92  0.057  0.281  0.723-  54 1.54   5 2.38  17 2.49
  93  0.841  0.893  0.804-  53 1.61  35 1.65
  94  0.621  0.715  0.488-  46 1.73  21 2.02  10 2.23
  95  0.987  0.839  0.245-  41 1.59  25 2.02   9 2.52
  96  0.369  0.089  0.404-  37 1.54  11 2.02
  97  0.982  0.427  0.391-  47 1.69  19 2.16   2 2.34  17 2.40
  98  0.810  0.092  0.382-  40 1.53   8 2.51
  99  0.129  0.059  0.145-  44 1.69  43 1.94  25 2.33  20 2.56
 100  0.095  0.599  0.469-  47 1.48  36 1.77  17 2.28   2 2.38  22 2.47
 101  0.714  0.782  0.254-  51 1.51   6 2.28  10 2.32  18 2.32
 102  0.502  0.291  0.371-  32 1.60  26 2.11
 103  0.445  0.615  0.475-  30 1.53  14 2.14
 104  0.633  0.890  0.848-  28 1.57  33 1.93
 105  0.608  0.696  0.802-  39 1.92  21 2.05   7 2.41
 106  0.439  0.346  0.790-  45 1.74  50 1.78  12 2.35
 107  0.630  0.926  0.415-  46 1.71   8 1.87   6 2.13  10 2.41
 108  0.543  0.642  0.222-  51 1.83  27 2.06   4 2.22  18 2.53
 109  0.121  0.544  0.036-  52 1.74   3 2.18   1 2.45
 110  0.208  0.937  0.871-  43 1.68  34 1.74   5 2.37
 111  0.218  0.304  0.910-  45 1.61  23 2.22   3 2.23
 112  0.859  0.625  0.461-  47 1.61  10 2.14  18 2.19  19 2.55
 113  0.759  0.085  0.969-  33 1.75  49 1.88  20 2.32  29 2.44
 114  0.345  0.009  0.088-  31 1.68  16 2.27  11 2.32  43 2.38
 115  0.966  0.226  0.558-  40 1.78  54 1.96  48 2.18
 116  0.242  0.727  0.977-  34 1.50   1 2.38   7 2.54
 117  0.109  0.878  0.054-  43 1.54  41 2.17   9 2.48
 118  0.375  0.443  0.304-  30 1.73  26 2.08
 119  0.322  0.746  0.787-  34 1.58   7 2.23  24 2.24
 120  0.542  0.075  0.781-  33 1.72  28 1.99  12 2.19
 121  0.094  0.171  0.336-  44 1.73  48 1.94  25 2.47
 122  0.436  0.280  0.594-  42 2.00  12 2.12  26 2.20
 123  0.771  0.586  0.809-  38 1.50  39 1.63  21 2.39  13 2.50
 124  0.236  0.415  0.687-  45 1.68  17 2.39  14 2.44
 125  0.003  0.041  0.452-  48 1.55  40 1.90  25 2.12
 126  0.748  0.136  0.187-  29 1.69   6 2.15  20 2.35
 127  0.428  0.880  0.905-  28 1.57  34 1.75  31 2.17
 128  0.724  0.333  0.083-  15 2.01  29 2.08  49 2.14   4 2.52
 129  0.061  0.900  0.725-  35 1.67  22 2.40
 130  0.997  0.284  0.174-  44 1.65  23 2.19  15 2.28
 131  0.278  0.539  0.493-  36 1.68  30 1.97  14 2.18
 132  0.749  0.149  0.741-  33 1.98  12 2.27  54 2.35  49 2.39
 133  0.496  0.993  0.225-  31 1.85   6 2.13  11 2.26  27 2.57
 134  0.900  0.266  0.891-  54 2.03  49 2.07  23 2.34
 135  0.939  0.506  0.918-  38 1.59  52 1.84
 

IMPORTANT INFORMATION: All symmetrisations will be switched off!
NOSYMM: (Re-)initialisation of all symmetry stuff for point group C_1.

 
 

Automatic generation of k-mesh.
 generate k-points for:    2    2    2
Space group operators:
 irot       det(A)        alpha          n_x          n_y          n_z        tau_x        tau_y        tau_z
    1     1.000000     0.000001     1.000000     0.000000     0.000000     0.000000     0.000000     0.000000
 
 Subroutine IBZKPT returns following result:
 ===========================================
 
 Found      8 irreducible k-points:
 
 Following reciprocal coordinates:
            Coordinates               Weight
  0.000000  0.000000  0.000000      1.000000
  0.500000  0.000000  0.000000      1.000000
  0.000000  0.500000  0.000000      1.000000
  0.500000  0.500000  0.000000      1.000000
  0.000000  0.000000  0.500000      1.000000
  0.500000  0.000000  0.500000      1.000000
  0.000000  0.500000  0.500000      1.000000
  0.500000  0.500000  0.500000      1.000000
 
 Following cartesian coordinates:
            Coordinates               Weight
  0.000000  0.000000  0.000000      1.000000
  0.042999  0.000000  0.000000      1.000000
  0.000000  0.042999  0.000000      1.000000
  0.042999  0.042999  0.000000      1.000000
  0.000000  0.000000  0.042999      1.000000
  0.042999  0.000000  0.042999      1.000000
  0.000000  0.042999  0.042999      1.000000
  0.042999  0.042999  0.042999      1.000000
 


--------------------------------------------------------------------------------------------------------




 Dimension of arrays:
   k-points           NKPTS =      8   k-points in BZ     NKDIM =      8   number of bands    NBANDS=    520
   number of dos      NEDOS =    301   number of ions     NIONS =    135
   non local maximal  LDIM  =      6   non local SUM 2l+1 LMDIM =     18
   total plane-waves  NPLWV = 884736
   max r-space proj   IRMAX =   7548   max aug-charges    IRDMAX= 214954
   dimension x,y,z NGX =    96 NGY =   96 NGZ =   96
   dimension x,y,z NGXF=   192 NGYF=  192 NGZF=  192
   support grid    NGXF=   384 NGYF=  384 NGZF=  384
   ions per type =              27  27  81
   NGX,Y,Z   is equivalent  to a cutoff of  13.72, 13.72, 13.72 a.u.
   NGXF,Y,Z  is equivalent  to a cutoff of  27.45, 27.45, 27.45 a.u.

 SYSTEM =  unknown system                          
 POSCAR =  Ca Si  O                                

 Startparameter for this run:
   NWRITE =      2    write-flag & timer
   PREC   = a         normal or accurate (medium, high low for compatibility)
   ISTART =      0    job   : 0-new  1-cont  2-samecut
   ICHARG =      2    charge: 1-file 2-atom 10-const
   ISPIN  =      1    spin polarized calculation?
   LNONCOLLINEAR =      F non collinear calculations
   LSORBIT =      F    spin-orbit coupling
   INIWAV =      1    electr: 0-lowe 1-rand  2-diag
   LASPH  =      F    aspherical Exc in radial PAW
   METAGGA=      F    non-selfconsistent MetaGGA calc.

 Electronic Relaxation 1
   ENCUT  =  600.0 eV  44.10 Ry    6.64 a.u.  23.22 23.22 23.22*2*pi/ulx,y,z
   ENINI  =  600.0     initial cutoff
   ENAUG  =  605.4 eV  augmentation charge cutoff
   NELM   =     60;   NELMIN=  2; NELMDL= -5     # of ELM steps 
   EDIFF  = 0.1E-05   stopping-criterion for ELM
   LREAL  =      T    real-space projection
   NLSPLINE    = F    spline interpolate recip. space projectors
   LCOMPAT=      F    compatible to vasp.4.4
   GGA_COMPAT  = T    GGA compatible to vasp.4.4-vasp.4.6
   LMAXPAW     = -100 max onsite density
   LMAXMIX     =    2 max onsite mixed and CHGCAR
   VOSKOWN=      0    Vosko Wilk Nusair interpolation
   ROPT   =   -0.00025  -0.00025  -0.00025
 Ionic relaxation
   EDIFFG = -.1E-01   stopping-criterion for IOM
   NSW    =      1    number of steps for IOM
   NBLOCK =      1;   KBLOCK =      1    inner block; outer block 
   IBRION =     -1    ionic relax: 0-MD 1-quasi-New 2-CG
   NFREE  =      0    steps in history (QN), initial steepest desc. (CG)
   ISIF   =      2    stress and relaxation
   IWAVPR =     10    prediction:  0-non 1-charg 2-wave 3-comb
   ISYM   =      0    0-nonsym 1-usesym 2-fastsym
   LCORR  =      T    Harris-Foulkes like correction to forces

   POTIM  = 1.0000    time-step for ionic-motion
   TEIN   =    0.0    initial temperature
   TEBEG  =    0.0;   TEEND  =   0.0 temperature during run
   SMASS  =  -3.00    Nose mass-parameter (am)
   estimated Nose-frequenzy (Omega)   =  0.10E-29 period in steps =****** mass=  -0.309E-26a.u.
   SCALEE = 1.0000    scale energy and forces
   NPACO  =    256;   APACO  = 16.0  distance and # of slots for P.C.
   PSTRESS=    0.0 pullay stress

  Mass of Ions in am
   POMASS =  40.08 28.09 16.00
  Ionic Valenz
   ZVAL   =  10.00  4.00  6.00
  Atomic Wigner-Seitz radii
   RWIGS  =  -1.00 -1.00 -1.00
  virtual crystal weights 
   VCA    =   1.00  1.00  1.00
   NELECT =     864.0000    total number of electrons
   NUPDOWN=      -1.0000    fix difference up-down

 DOS related values:
   EMIN   =  10.00;   EMAX   =-10.00  energy-range for DOS
   EFERMI =   0.00
   ISMEAR =     0;   SIGMA  =   0.05  broadening in eV -4-tet -1-fermi 0-gaus

 Electronic relaxation 2 (details)
   IALGO  =     38    algorithm
   LDIAG  =      T    sub-space diagonalisation (order eigenvalues)
   LSUBROT=      F    optimize rotation matrix (better conditioning)
   TURBO    =      0    0=normal 1=particle mesh
   IRESTART =      0    0=no restart 2=restart with 2 vectors
   NREBOOT  =      0    no. of reboots
   NMIN     =      0    reboot dimension
   EREF     =   0.00    reference energy to select bands
   IMIX   =      4    mixing-type and parameters
     AMIX     =   0.40;   BMIX     =  1.00
     AMIX_MAG =   1.60;   BMIX_MAG =  1.00
     AMIN     =   0.10
     WC   =   100.;   INIMIX=   1;  MIXPRE=   1;  MAXMIX= -45

 Intra band minimization:
   WEIMIN = 0.0000     energy-eigenvalue tresh-hold
   EBREAK =  0.48E-09  absolut break condition
   DEPER  =   0.30     relativ break condition  

   TIME   =   0.40     timestep for ELM

  volume/ion in A,a.u.               =      11.65        78.60
  Fermi-wavevector in a.u.,A,eV,Ry     =   1.340915  2.533962 24.463997  1.798053
  Thomas-Fermi vector in A             =   2.469190
 
 Write flags
   LWAVE        =      F    write WAVECAR
   LDOWNSAMPLE  =      F    k-point downsampling of WAVECAR
   LCHARG       =      F    write CHGCAR
   LVTOT        =      F    write LOCPOT, total local potential
   LVHAR        =      F    write LOCPOT, Hartree potential only
   LELF         =      F    write electronic localiz. function (ELF)
   LORBIT       =      0    0 simple, 1 ext, 2 COOP (PROOUT), +10 PAW based schemes


 Dipole corrections
   LMONO  =      F    monopole corrections only (constant potential shift)
   LDIPOL =      F    correct potential (dipole corrections)
   IDIPOL =      0    1-x, 2-y, 3-z, 4-all directions 
   EPSILON=  1.0000000 bulk dielectric constant

 Exchange correlation treatment:
   GGA     =    --    GGA type
   LEXCH   =     8    internal setting for exchange type
   VOSKOWN=      0    Vosko Wilk Nusair interpolation
   LHFCALC =     F    Hartree Fock is set to
   LHFONE  =     F    Hartree Fock one center treatment
   AEXX    =    0.0000 exact exchange contribution

 Linear response parameters
   LEPSILON=     F    determine dielectric tensor
   LRPA    =     F    only Hartree local field effects (RPA)
   LNABLA  =     F    use nabla operator in PAW spheres
   LVEL    =     F    velocity operator in full k-point grid
   LINTERFAST=   F  fast interpolation
   KINTER  =     0    interpolate to denser k-point grid
   CSHIFT  =0.1000    complex shift for real part using Kramers Kronig
   OMEGAMAX=  -1.0    maximum frequency
   DEG_THRESHOLD= 0.2000000E-02 threshold for treating states as degnerate
   RTIME   =   -0.100 relaxation time in fs
  (WPLASMAI=    0.000 imaginary part of plasma frequency in eV, 0.658/RTIME)
   DFIELD  = 0.0000000 0.0000000 0.0000000 field for delta impulse in time
 
 Orbital magnetization related:
   ORBITALMAG=     F  switch on orbital magnetization
   LCHIMAG   =     F  perturbation theory with respect to B field
   DQ        =  0.001000  dq finite difference perturbation B field
   LLRAUG    =     F  two centre corrections for induced B field



--------------------------------------------------------------------------------------------------------


 Static calculation
 charge density and potential will be updated during run
 non-spin polarized calculation
 Variant of blocked Davidson
 Davidson routine will perform the subspace rotation
 perform sub-space diagonalisation
    after iterative eigenvector-optimisation
 modified Broyden-mixing scheme, WC =      100.0
 initial mixing is a Kerker type mixing with AMIX =  0.4000 and BMIX =      1.0000
 Hartree-type preconditioning will be used
 using additional bands           88
 real space projection scheme for non local part
 use partial core corrections
 calculate Harris-corrections to forces 
   (improved forces if not selfconsistent)
 use gradient corrections 
 use of overlap-Matrix (Vanderbilt PP)
 Gauss-broadening in eV      SIGMA  =   0.05


--------------------------------------------------------------------------------------------------------


  energy-cutoff  :      600.00
  volume of cell :     1572.30
      direct lattice vectors                 reciprocal lattice vectors
    11.628173330  0.000000000  0.000000000     0.085998030  0.000000000  0.000000000
     0.000000000 11.628173330  0.000000000     0.000000000  0.085998030  0.000000000
     0.000000000  0.000000000 11.628173330     0.000000000  0.000000000  0.085998030

  length of vectors
    11.628173330 11.628173330 11.628173330     0.085998030  0.085998030  0.085998030


 
 k-points in units of 2pi/SCALE and weight: read from INCAR                         
   0.00000000  0.00000000  0.00000000       0.125
   0.04299902  0.00000000  0.00000000       0.125
   0.00000000  0.04299902  0.00000000       0.125
   0.04299902  0.04299902  0.00000000       0.125
   0.00000000  0.00000000  0.04299902       0.125
   0.04299902  0.00000000  0.04299902       0.125
   0.00000000  0.04299902  0.04299902       0.125
   0.04299902  0.04299902  0.04299902       0.125
 
 k-points in reciprocal lattice and weights: read from INCAR                         
   0.00000000  0.00000000  0.00000000       0.125
   0.50000000  0.00000000  0.00000000       0.125
   0.00000000  0.50000000  0.00000000       0.125
   0.50000000  0.50000000  0.00000000       0.125
   0.00000000  0.00000000  0.50000000       0.125
   0.50000000  0.00000000  0.50000000       0.125
   0.00000000  0.50000000  0.50000000       0.125
   0.50000000  0.50000000  0.50000000       0.125
 
 position of ions in fractional coordinates (direct lattice) 
   0.14810794  0.61006004  0.83776847
   0.14203014  0.50168771  0.29502959
   0.26982757  0.43037526  0.04481947
   0.57565758  0.45789923  0.18003912
   0.14545867  0.10248109  0.76945346
   0.67768787  0.97487605  0.24524564
   0.43602179  0.65216773  0.90897317
   0.60285197  0.08174611  0.44245258
   0.17428686  0.73878429  0.20145384
   0.78908543  0.79383814  0.43851015
   0.36778058  0.13812317  0.23737115
   0.58167030  0.23823291  0.69531925
   0.75884947  0.73689505  0.96226167
   0.40306478  0.52862497  0.63172439
   0.83195023  0.38270729  0.20902969
   0.38669623  0.15896313  0.97032334
   0.06155880  0.44086719  0.58085118
   0.72778523  0.59810685  0.32921217
   0.82194667  0.40971600  0.48477560
   0.91877629  0.09095690  0.08850935
   0.67339819  0.65712472  0.64272010
   0.01060397  0.74246862  0.60088055
   0.05353612  0.33508710  0.00134609
   0.29774068  0.85449225  0.62998195
   0.09126625  0.95912305  0.31469342
   0.33993410  0.33211731  0.44036469
   0.46046397  0.78437141  0.28572385
   0.50760723  0.90853693  0.80026748
   0.63417077  0.17977419  0.10840546
   0.38274529  0.57774374  0.36617179
   0.46874867  0.93485826  0.07960154
   0.61480296  0.34911685  0.42493313
   0.66798174  0.05154952  0.85414251
   0.29241892  0.81679037  0.89905111
   0.97253219  0.94013802  0.83035367
   0.22402165  0.67316289  0.49701036
   0.33426929  0.96233874  0.42447338
   0.87819518  0.51601783  0.79628729
   0.64057472  0.53622386  0.82459994
   0.86985020  0.12528014  0.49371966
   0.93492595  0.86079480  0.12087708
   0.31628159  0.15743078  0.61081427
   0.16179138  0.98555789  0.99904981
   0.10708889  0.19640031  0.18971707
   0.28978845  0.33899056  0.79727415
   0.56394897  0.84783096  0.52020273
   0.97999480  0.56859398  0.42353254
   0.10425869  0.11724897  0.49323922
   0.72730518  0.23773440  0.92586490
   0.48412516  0.44548164  0.89717320
   0.65143666  0.73144981  0.15220820
   0.97837473  0.58614091  0.04896815
   0.79300182  0.89883254  0.67429577
   0.93370340  0.23092877  0.72344414
   0.29025376  0.20741614  0.73050250
   0.19312414  0.02045826  0.57739749
   0.99357282  0.58873070  0.70556168
   0.68882910  0.37165960  0.81848721
   0.40654320  0.82203272  0.11157599
   0.22375526  0.27783605  0.13729857
   0.26992470  0.90977473  0.30316168
   0.00924741  0.62145036  0.29404761
   0.92217450  0.51118589  0.13288598
   0.44439415  0.38998435  0.02324473
   0.21054870  0.19987955  0.51199682
   0.56721783  0.06342439  0.06866629
   0.92250891  0.71972670  0.06094962
   0.15301754  0.11650456  0.95498460
   0.54233080  0.22679217  0.20495192
   0.83143526  0.76280027  0.64471265
   0.19506627  0.80384889  0.46572509
   0.60597922  0.52433288  0.97885327
   0.59200822  0.18144647  0.93076890
   0.41316058  0.83865346  0.46467806
   0.80678346  0.87972812  0.08501658
   0.70576110  0.26382339  0.51270647
   0.34357967  0.49718003  0.86846514
   0.21526272  0.67768553  0.63056066
   0.47435937  0.86343994  0.67499069
   0.51406506  0.51347682  0.77955160
   0.84346847  0.37205309  0.67258180
   0.85956615  0.99037456  0.60713118
   0.60808971  0.81884234  0.04882975
   0.39342619  0.04293523  0.59170085
   0.63929170  0.92676472  0.62128746
   0.97663155  0.11849311  0.80049966
   0.32476583  0.68764023  0.31674426
   0.59511898  0.45178141  0.51476387
   0.98873391  0.96820065  0.96087505
   0.69729778  0.40951545  0.32467644
   0.72391805  0.61806648  0.12313744
   0.05674812  0.28077406  0.72298096
   0.84079217  0.89342454  0.80411963
   0.62122497  0.71488060  0.48776622
   0.98695158  0.83862636  0.24501444
   0.36949487  0.08868703  0.40416819
   0.98160715  0.42660281  0.39103695
   0.80991736  0.09220477  0.38168522
   0.12935789  0.05941476  0.14537782
   0.09482830  0.59857792  0.46884765
   0.71414942  0.78244178  0.25394366
   0.50242231  0.29079023  0.37129510
   0.44545053  0.61485002  0.47523591
   0.63258399  0.88969194  0.84841594
   0.60810465  0.69646949  0.80172117
   0.43949451  0.34566088  0.79014053
   0.63038418  0.92554396  0.41480258
   0.54326236  0.64155204  0.22244544
   0.12113235  0.54378664  0.03635154
   0.20788187  0.93698306  0.87064985
   0.21847672  0.30356061  0.91034033
   0.85886400  0.62465565  0.46135403
   0.75921051  0.08523452  0.96901946
   0.34489167  0.00855448  0.08782325
   0.96558927  0.22584785  0.55784825
   0.24234161  0.72671148  0.97695620
   0.10859335  0.87787761  0.05391112
   0.37545199  0.44289473  0.30440578
   0.32155205  0.74566111  0.78684098
   0.54203589  0.07469571  0.78076367
   0.09392739  0.17056351  0.33556500
   0.43608666  0.27971810  0.59436322
   0.77077020  0.58627583  0.80883951
   0.23590460  0.41503734  0.68679068
   0.00302744  0.04125765  0.45171166
   0.74805906  0.13551380  0.18657418
   0.42824752  0.88044552  0.90542818
   0.72389325  0.33281899  0.08326947
   0.06111370  0.89998655  0.72491695
   0.99737143  0.28425995  0.17359791
   0.27756503  0.53893225  0.49330010
   0.74931698  0.14910720  0.74130930
   0.49644562  0.99349988  0.22464119
   0.89961769  0.26602005  0.89118163
   0.93927176  0.50606857  0.91836939
 
 position of ions in cartesian coordinates  (Angst):
   1.72222475  7.09388394  9.74171700
   1.65155114  5.83371166  3.43065524
   3.13760181  5.00447807  0.52116858
   6.69384608  5.32453158  2.09352614
   1.69141859  1.19166790  8.94733816
   7.88027206 11.33602767  2.85175883
   5.07013690  7.58351940 10.56969755
   7.01006715  0.95055793  5.14491527
   2.02663784  8.59071183  2.34254019
   9.17562215  9.23088752  5.09907208
   4.27661631  1.60612012  2.76019284
   6.76376306  2.77021357  8.08529275
   8.82403321  8.56874337 11.18934552
   4.68690715  6.14694281  7.34580075
   9.67406151  4.45018676  2.43063349
   4.49657079  1.84845084 11.28308798
   0.71581635  5.12648013  6.75423819
   8.46281281  6.95489009  3.82813618
   9.55773832  4.76424872  5.63705469
  10.68368992  1.05766255  1.02920208
   7.83039086  7.64116014  7.47366076
   0.12330484  8.63355375  6.98714313
   0.62252728  3.89645089  0.01565261
   3.46218023  9.93618401  7.32553930
   1.06125974 11.15284907  3.65930969
   3.95281259  3.86191768  5.12063693
   5.35435480  9.12080674  3.32244643
   5.90254485 10.56462494  9.30564901
   7.37424764  2.09044549  1.26055744
   4.45062852  6.71810434  4.25790905
   5.45069079 10.87069391  0.92562047
   7.14903543  4.05959126  4.94119607
   7.76740741  0.59942671  9.93211716
   3.40029785  9.49777997 10.45432217
  11.30877287 10.93208784  9.65549640
   2.60496254  7.82765474  5.77932266
   3.88694129 11.19024166  4.93585001
  10.21180576  6.00034477  9.25936668
   7.44871383  6.23530393  9.58859105
  10.11476888  1.45677913  5.74105783
  10.87148095 10.00947115  1.40557964
   3.67777719  1.83063238  7.10265421
   1.88133825 11.46023799 11.61712440
   1.24524813  2.28377681  2.20606296
   3.36971034  3.94184094  9.27084205
   6.55769642  9.85872539  6.04900756
  11.39554934  6.61170937  4.92490973
   1.21233817  1.36339132  5.73547114
   8.45723065  2.76441686 10.76611754
   5.62949125  5.18013768 10.43248543
   7.57501837  8.50542522  1.76990337
  11.37671091  6.81574814  0.56941019
   9.22116267 10.45178059  7.84082814
  10.85726495  2.68527978  8.41233391
   3.37512106  2.41187079  8.49440974
   2.24568096  0.23789214  6.71407811
  11.55343694  6.84586267  8.20439353
   8.00982414  4.32172224  9.51751116
   4.72735480  9.55873900  1.29742496
   2.60186495  3.23072572  1.59653162
   3.13873124 10.57901820  3.52521651
   0.10753054  7.22633247  3.41923659
  10.72320494  5.94415816  1.54522119
   5.16749220  4.53480556  0.27029372
   2.44829674  2.32423410  5.95358778
   6.59570729  0.73750978  0.79846350
  10.72709346  8.36910683  0.70873276
   1.77931444  1.35473519 11.10472640
   6.30631657  2.63717863  2.38321644
   9.66807329  8.86997370  7.49683047
   2.26826438  9.34729428  5.41553207
   7.04643145  6.09703356 11.38227553
   6.88397423  2.10989103 10.82314211
   4.80430284  9.75200783  5.40335702
   9.38141794 10.22963109  0.98858753
   8.20671242  3.06778409  5.96183972
   3.99520393  5.78129556 10.09866317
   2.50311225  7.88024480  7.33226869
   5.51593301 10.04022925  7.84890875
   5.97763763  5.97079742  9.06476107
   9.80799758  4.32629786  7.82089776
   9.99518418 11.51624709  7.05982661
   7.07097250  9.52164069  0.56780080
   4.57482788  0.49925835  6.88040007
   7.43379467 10.77658078  7.22443828
  11.35644090  1.37785837  9.30834883
   3.77643336  7.99599975  3.68315714
   6.92014662  5.25339258  5.98576351
  11.49716930 11.25840497 11.17322165
   8.10829946  4.76191669  3.77539388
   8.41784451  7.18698412  1.43186353
   0.65987702  3.26488940  8.40694793
   9.77687705 10.38889539  9.35044244
   7.22371158  8.31275550  5.67183011
  11.47644409  9.75169266  2.84907043
   4.29655035  1.03126810  4.69973778
  11.41429812  4.96061138  4.54704548
   9.41785945  1.07217305  4.43830186
   1.50419595  0.69088515  1.69047846
   1.10267986  6.96036784  5.45184178
   8.30425328  9.09836869  2.95290085
   5.84225367  3.38135914  4.31748376
   5.17977603  7.14958258  5.52612558
   7.35579631 10.34549214  9.86552756
   7.07114630  8.09866794  9.32255274
   5.11051834  4.01940460  9.18789104
   7.33021649 10.76238560  4.82339630
   6.31714890  7.46007830  2.58663412
   1.40854797  6.32324531  0.42270195
   2.41728645 10.89540148 10.12406742
   2.54048513  3.52985543 10.58559512
   9.98701950  7.26360416  5.36470462
   8.82823138  0.99112180 11.26792620
   4.01046010  0.09947298  1.02122398
  11.22803938  2.62619790  6.48675613
   2.81799022  8.45032701 11.36021608
   1.26274225 10.20811298  0.62688782
   4.36582086  5.15005673  3.53968315
   3.73906296  8.67067664  9.14952329
   6.30288733  0.86857463  9.07885533
   1.09220399  1.98334209  3.90200801
   5.07089124  3.25261050  6.91135849
   8.96264945  6.81731699  9.40532597
   2.74313961  4.82612613  7.98612103
   0.03520360  0.47975111  5.25258146
   8.69856046  1.57577790  2.16951688
   4.97973639 10.23797312 10.52847577
   8.41755619  3.87007694  0.96827184
   0.71064073 10.46519961  8.42945993
  11.59760788  3.30542395  2.01862659
   3.22757425  6.26679762  5.73617901
   8.71318776  1.73384438  8.62007301
   5.77275576 11.55258886  2.61216669
  10.46091041  3.09332722 10.36281451
  10.92201486  5.88465305 10.67895850
 


--------------------------------------------------------------------------------------------------------


 k-point  1 :   0.0000 0.0000 0.0000  plane waves:   52515
 k-point  2 :   0.5000 0.0000 0.0000  plane waves:   52518
 k-point  3 :   0.0000 0.5000 0.0000  plane waves:   52518
 k-point  4 :   0.5000 0.5000 0.0000  plane waves:   52456
 k-point  5 :   0.0000 0.0000 0.5000  plane waves:   52518
 k-point  6 :   0.5000 0.0000 0.5000  plane waves:   52456
 k-point  7 :   0.0000 0.5000 0.5000  plane waves:   52456
 k-point  8 :   0.5000 0.5000 0.5000  plane waves:   52568

 maximum and minimum number of plane-waves per node :      4066     3984

 maximum number of plane-waves:     52568
 maximum index in each direction: 
   IXMAX=   23   IYMAX=   23   IZMAX=   23
   IXMIN=  -23   IYMIN=  -23   IZMIN=  -23


 real space projection operators:
  total allocation   :      51789.84 KBytes
  max/ min on nodes  :       4264.70       3771.64


 parallel 3D FFT for wavefunctions:
    minimum data exchange during FFTs selected (reduces bandwidth)
 parallel 3D FFT for charge:
    minimum data exchange during FFTs selected (reduces bandwidth)


 total amount of memory used by VASP MPI-rank0   158129. kBytes
=======================================================================

   base      :      30000. kBytes
   nonlr-proj:      22578. kBytes
   fftplans  :      23353. kBytes
   grid      :      12472. kBytes
   one-center:        171. kBytes
   wavefun   :      69555. kBytes
 
     INWAV:  cpu time    0.0000: real time    0.0000
 Broyden mixing: mesh for mixing (old mesh)
   NGX = 47   NGY = 47   NGZ = 47
  (NGX  =192   NGY  =192   NGZ  =192)
  gives a total of 103823 points

 initial charge density was supplied:
 charge density of overlapping atoms calculated
 number of electron     864.0000000 magnetization 
 keeping initial charge density in first step


--------------------------------------------------------------------------------------------------------


 Maximum index for non-local projection operator          820
 Maximum index for augmentation-charges         6627 (set IRDMAX)


--------------------------------------------------------------------------------------------------------


 First call to EWALD:  gamma=   0.152
 Maximum number of real-space cells 3x 3x 3
 Maximum number of reciprocal cells 3x 3x 3

    FEWALD:  cpu time    0.0051: real time    0.0050


--------------------------------------- Iteration      1(   1)  ---------------------------------------


    POTLOK:  cpu time    0.1356: real time    0.1410
    SETDIJ:  cpu time    0.3929: real time    0.3931
     EDDAV:  cpu time   34.7812: real time   34.7880
       DOS:  cpu time    0.0022: real time    0.0022
    --------------------------------------------
      LOOP:  cpu time   35.3119: real time   35.3244

 eigenvalue-minimisations  :  8320
 total energy-change (2. order) : 0.9709771E+04  (-0.4835451E+05)
 number of electron     864.0000000 magnetization 
 augmentation part      864.0000000 magnetization 

 Free energy of the ion-electron system (eV)
  ---------------------------------------------------
  alpha Z        PSCENC =      3039.22321400
  Ewald energy   TEWEN  =    -48626.55056475
  -Hartree energ DENC   =    -16121.01521813
  -exchange      EXHF   =         0.00000000
  -V(xc)+E(xc)   XCENC  =      3191.68814824
  PAW double counting   =     50594.51003143   -49994.65612350
  entropy T*S    EENTRO =        -0.03798603
  eigenvalues    EBANDS =      2658.06954852
  atomic energy  EATOM  =     64968.54023382
  Solvation  Ediel_sol  =         0.00000000
  ---------------------------------------------------
  free energy    TOTEN  =      9709.77128362 eV

  energy without entropy =     9709.80926965  energy(sigma->0) =     9709.79027664


--------------------------------------------------------------------------------------------------------




--------------------------------------- Iteration      1(   2)  ---------------------------------------


     EDDAV:  cpu time   38.6847: real time   38.6967
       DOS:  cpu time    0.0010: real time    0.0010
    --------------------------------------------
      LOOP:  cpu time   38.6857: real time   38.6977

 eigenvalue-minimisations  :  9656
 total energy-change (2. order) :-0.9604997E+04  (-0.9274963E+04)
 number of electron     864.0000000 magnetization 
 augmentation part      864.0000000 magnetization 

 Free energy of the ion-electron system (eV)
  ---------------------------------------------------
  alpha Z        PSCENC =      3039.22321400
  Ewald energy   TEWEN  =    -48626.55056475
  -Hartree energ DENC   =    -16121.01521813
  -exchange      EXHF   =         0.00000000
  -V(xc)+E(xc)   XCENC  =      3191.68814824
  PAW double counting   =     50594.51003143   -49994.65612350
  entropy T*S    EENTRO =        -0.00000000
  eigenvalues    EBANDS =     -6946.96581082
  atomic energy  EATOM  =     64968.54023382
  Solvation  Ediel_sol  =         0.00000000
  ---------------------------------------------------
  free energy    TOTEN  =       104.77391031 eV

  energy without entropy =      104.77391031  energy(sigma->0) =      104.77391031


--------------------------------------------------------------------------------------------------------




--------------------------------------- Iteration      1(   3)  ---------------------------------------


     EDDAV:  cpu time   41.4476: real time   41.4677
       DOS:  cpu time    0.0010: real time    0.0010
    --------------------------------------------
      LOOP:  cpu time   41.4486: real time   41.4687

 eigenvalue-minimisations  : 10328
 total energy-change (2. order) :-0.1080982E+04  (-0.1072075E+04)
 number of electron     864.0000000 magnetization 
 augmentation part      864.0000000 magnetization 

 Free energy of the ion-electron system (eV)
  ---------------------------------------------------
  alpha Z        PSCENC =      3039.22321400
  Ewald energy   TEWEN  =    -48626.55056475
  -Hartree energ DENC   =    -16121.01521813
  -exchange      EXHF   =         0.00000000
  -V(xc)+E(xc)   XCENC  =      3191.68814824
  PAW double counting   =     50594.51003143   -49994.65612350
  entropy T*S    EENTRO =        -0.00000000
  eigenvalues    EBANDS =     -8027.94805404
  atomic energy  EATOM  =     64968.54023382
  Solvation  Ediel_sol  =         0.00000000
  ---------------------------------------------------
  free energy    TOTEN  =      -976.20833291 eV

  energy without entropy =     -976.20833291  energy(sigma->0) =     -976.20833291


--------------------------------------------------------------------------------------------------------




--------------------------------------- Iteration      1(   4)  ---------------------------------------


     EDDAV:  cpu time   44.0152: real time   44.0199
       DOS:  cpu time    0.0010: real time    0.0010
    --------------------------------------------
      LOOP:  cpu time   44.0162: real time   44.0209

 eigenvalue-minimisations  : 11416
 total energy-change (2. order) :-0.5228031E+02  (-0.5206782E+02)
 number of electron     864.0000000 magnetization 
 augmentation part      864.0000000 magnetization 

 Free energy of the ion-electron system (eV)
  ---------------------------------------------------
  alpha Z        PSCENC =      3039.22321400
  Ewald energy   TEWEN  =    -48626.55056475
  -Hartree energ DENC   =    -16121.01521813
  -exchange      EXHF   =         0.00000000
  -V(xc)+E(xc)   XCENC  =      3191.68814824
  PAW double counting   =     50594.51003143   -49994.65612350
  entropy T*S    EENTRO =        -0.00000000
  eigenvalues    EBANDS =     -8080.22835926
  atomic energy  EATOM  =     64968.54023382
  Solvation  Ediel_sol  =         0.00000000
  ---------------------------------------------------
  free energy    TOTEN  =     -1028.48863813 eV

  energy without entropy =    -1028.48863813  energy(sigma->0) =    -1028.48863813


--------------------------------------------------------------------------------------------------------




--------------------------------------- Iteration      1(   5)  ---------------------------------------


     EDDAV:  cpu time   53.1005: real time   53.1194
       DOS:  cpu time    0.0009: real time    0.0009
    CHARGE:  cpu time    1.3142: real time    1.3142
    MIXING:  cpu time    0.0065: real time    0.0068
    --------------------------------------------
      LOOP:  cpu time   54.4222: real time   54.4413

 eigenvalue-minimisations  : 14400
 total energy-change (2. order) :-0.5181976E+01  (-0.5179118E+01)
 number of electron     864.0000008 magnetization 
 augmentation part      133.0338174 magnetization 

 Broyden mixing:
  rms(total) = 0.84133E+01    rms(broyden)= 0.84127E+01
  rms(prec ) = 0.10064E+02
  weight for this iteration     100.00

 Free energy of the ion-electron system (eV)
  ---------------------------------------------------
  alpha Z        PSCENC =      3039.22321400
  Ewald energy   TEWEN  =    -48626.55056475
  -Hartree energ DENC   =    -16121.01521813
  -exchange      EXHF   =         0.00000000
  -V(xc)+E(xc)   XCENC  =      3191.68814824
  PAW double counting   =     50594.51003143   -49994.65612350
  entropy T*S    EENTRO =        -0.00000000
  eigenvalues    EBANDS =     -8085.41033570
  atomic energy  EATOM  =     64968.54023382
  Solvation  Ediel_sol  =         0.00000000
  ---------------------------------------------------
  free energy    TOTEN  =     -1033.67061457 eV

  energy without entropy =    -1033.67061457  energy(sigma->0) =    -1033.67061457


--------------------------------------------------------------------------------------------------------




--------------------------------------- Iteration      1(   6)  ---------------------------------------


    POTLOK:  cpu time    0.1278: real time    0.1318
    SETDIJ:  cpu time    0.3774: real time    0.3775
     EDDAV:  cpu time   39.1234: real time   39.1264
       DOS:  cpu time    0.0011: real time    0.0011
    CHARGE:  cpu time    1.3281: real time    1.3281
    MIXING:  cpu time    0.0056: real time    0.0057
    --------------------------------------------
      LOOP:  cpu time   40.9635: real time   40.9706

 eigenvalue-minimisations  :  9832
 total energy-change (2. order) : 0.1447989E+03  (-0.6424498E+02)
 number of electron     864.0000007 magnetization 
 augmentation part      119.8511869 magnetization 

 Broyden mixing:
  rms(total) = 0.35879E+01    rms(broyden)= 0.35869E+01
  rms(prec ) = 0.38209E+01
  weight for this iteration     100.00

 eigenvalues of (default mixing * dielectric matrix)
  average eigenvalue GAMMA=   1.0256
  1.0256

 Free energy of the ion-electron system (eV)
  ---------------------------------------------------
  alpha Z        PSCENC =      3039.22321400
  Ewald energy   TEWEN  =    -48626.55056475
  -Hartree energ DENC   =    -17433.98065947
  -exchange      EXHF   =         0.00000000
  -V(xc)+E(xc)   XCENC  =      3279.44220799
  PAW double counting   =     65220.98381650   -64759.62319088
  entropy T*S    EENTRO =        -0.00000000
  eigenvalues    EBANDS =     -6576.90679268
  atomic energy  EATOM  =     64968.54023382
  Solvation  Ediel_sol  =         0.00000000
  ---------------------------------------------------
  free energy    TOTEN  =      -888.87173547 eV

  energy without entropy =     -888.87173547  energy(sigma->0) =     -888.87173547


--------------------------------------------------------------------------------------------------------




--------------------------------------- Iteration      1(   7)  ---------------------------------------


    POTLOK:  cpu time    0.1257: real time    0.1433
    SETDIJ:  cpu time    0.3743: real time    0.3782
     EDDAV:  cpu time   41.6376: real time   41.6445
       DOS:  cpu time    0.0012: real time    0.0011
    CHARGE:  cpu time    1.3491: real time    1.3492
    MIXING:  cpu time    0.0071: real time    0.0071
    --------------------------------------------
      LOOP:  cpu time   43.4949: real time   43.5234

 eigenvalue-minimisations  : 10688
 total energy-change (2. order) :-0.1640568E+01  (-0.7548248E+01)
 number of electron     864.0000007 magnetization 
 augmentation part      118.8506471 magnetization 

 Broyden mixing:
  rms(total) = 0.17585E+01    rms(broyden)= 0.17585E+01
  rms(prec ) = 0.19381E+01
  weight for this iteration     100.00

 eigenvalues of (default mixing * dielectric matrix)
  average eigenvalue GAMMA=   1.1919
  1.1919  1.1919

 Free energy of the ion-electron system (eV)
  ---------------------------------------------------
  alpha Z        PSCENC =      3039.22321400
  Ewald energy   TEWEN  =    -48626.55056475
  -Hartree energ DENC   =    -17501.34034225
  -exchange      EXHF   =         0.00000000
  -V(xc)+E(xc)   XCENC  =      3282.25301499
  PAW double counting   =     77926.71309856   -77520.58341084
  entropy T*S    EENTRO =        -0.00000000
  eigenvalues    EBANDS =     -6458.76754719
  atomic energy  EATOM  =     64968.54023382
  Solvation  Ediel_sol  =         0.00000000
  ---------------------------------------------------
  free energy    TOTEN  =      -890.51230366 eV

  energy without entropy =     -890.51230366  energy(sigma->0) =     -890.51230366


--------------------------------------------------------------------------------------------------------




--------------------------------------- Iteration      1(   8)  ---------------------------------------


    POTLOK:  cpu time    0.1036: real time    0.1109
    SETDIJ:  cpu time    0.3670: real time    0.3670
     EDDAV:  cpu time   42.7956: real time   42.8021
       DOS:  cpu time    0.0011: real time    0.0011
    CHARGE:  cpu time    1.3365: real time    1.3366
    MIXING:  cpu time    0.0071: real time    0.0071
    --------------------------------------------
      LOOP:  cpu time   44.6110: real time   44.6248

 eigenvalue-minimisations  : 11080
 total energy-change (2. order) : 0.1421914E+01  (-0.1087988E+01)
 number of electron     864.0000007 magnetization 
 augmentation part      118.9204338 magnetization 

 Broyden mixing:
  rms(total) = 0.77867E+00    rms(broyden)= 0.77859E+00
  rms(prec ) = 0.90185E+00
  weight for this iteration     100.00

 eigenvalues of (default mixing * dielectric matrix)
  average eigenvalue GAMMA=   1.3302
  2.0791  0.9557  0.9557

 Free energy of the ion-electron system (eV)
  ---------------------------------------------------
  alpha Z        PSCENC =      3039.22321400
  Ewald energy   TEWEN  =    -48626.55056475
  -Hartree energ DENC   =    -17494.31471102
  -exchange      EXHF   =         0.00000000
  -V(xc)+E(xc)   XCENC  =      3280.61695504
  PAW double counting   =     84781.49515693   -84411.39002250
  entropy T*S    EENTRO =        -0.00000000
  eigenvalues    EBANDS =     -6426.71065125
  atomic energy  EATOM  =     64968.54023382
  Solvation  Ediel_sol  =         0.00000000
  ---------------------------------------------------
  free energy    TOTEN  =      -889.09038971 eV

  energy without entropy =     -889.09038971  energy(sigma->0) =     -889.09038971


--------------------------------------------------------------------------------------------------------




--------------------------------------- Iteration      1(   9)  ---------------------------------------


    POTLOK:  cpu time    0.1366: real time    0.1527
    SETDIJ:  cpu time    0.3844: real time    0.3844
     EDDAV:  cpu time   42.4731: real time   42.4762
       DOS:  cpu time    0.0018: real time    0.0018
    CHARGE:  cpu time    1.3631: real time    1.3632
    MIXING:  cpu time    0.0055: real time    0.0055
    --------------------------------------------
      LOOP:  cpu time   44.3646: real time   44.3838

 eigenvalue-minimisations  : 10848
 total energy-change (2. order) : 0.3593899E+00  (-0.2079699E+00)
 number of electron     864.0000007 magnetization 
 augmentation part      118.3851891 magnetization 

 Broyden mixing:
  rms(total) = 0.21941E+00    rms(broyden)= 0.21940E+00
  rms(prec ) = 0.26847E+00
  weight for this iteration     100.00

 eigenvalues of (default mixing * dielectric matrix)
  average eigenvalue GAMMA=   1.3346
  2.3084  1.1610  0.9345  0.9345

 Free energy of the ion-electron system (eV)
  ---------------------------------------------------
  alpha Z        PSCENC =      3039.22321400
  Ewald energy   TEWEN  =    -48626.55056475
  -Hartree energ DENC   =    -17564.21074445
  -exchange      EXHF   =         0.00000000
  -V(xc)+E(xc)   XCENC  =      3284.76766077
  PAW double counting   =     90745.84512492   -90399.73133572
  entropy T*S    EENTRO =        -0.00000005
  eigenvalues    EBANDS =     -6336.61458839
  atomic energy  EATOM  =     64968.54023382
  Solvation  Ediel_sol  =         0.00000000
  ---------------------------------------------------
  free energy    TOTEN  =      -888.73099984 eV

  energy without entropy =     -888.73099979  energy(sigma->0) =     -888.73099982


--------------------------------------------------------------------------------------------------------




--------------------------------------- Iteration      1(  10)  ---------------------------------------


    POTLOK:  cpu time    0.1263: real time    0.1345
    SETDIJ:  cpu time    0.3733: real time    0.3734
     EDDAV:  cpu time   44.4368: real time   44.4393
       DOS:  cpu time    0.0020: real time    0.0020
    CHARGE:  cpu time    1.3720: real time    1.3720
    MIXING:  cpu time    0.0070: real time    0.0070
    --------------------------------------------
      LOOP:  cpu time   46.3174: real time   46.3282

 eigenvalue-minimisations  : 11608
 total energy-change (2. order) :-0.7906761E-01  (-0.1002105E+00)
 number of electron     864.0000007 magnetization 
 augmentation part      118.2016850 magnetization 

 Broyden mixing:
  rms(total) = 0.14278E+00    rms(broyden)= 0.14275E+00
  rms(prec ) = 0.16680E+00
  weight for this iteration     100.00

 eigenvalues of (default mixing * dielectric matrix)
  average eigenvalue GAMMA=   1.2671
  2.3854  1.2454  1.0563  0.8241  0.8241

 Free energy of the ion-electron system (eV)
  ---------------------------------------------------
  alpha Z        PSCENC =      3039.22321400
  Ewald energy   TEWEN  =    -48626.55056475
  -Hartree energ DENC   =    -17582.77652788
  -exchange      EXHF   =         0.00000000
  -V(xc)+E(xc)   XCENC  =      3285.78626809
  PAW double counting   =     91875.36616862   -91532.28011500
  entropy T*S    EENTRO =        -0.00000721
  eigenvalues    EBANDS =     -6316.11873715
  atomic energy  EATOM  =     64968.54023382
  Solvation  Ediel_sol  =         0.00000000
  ---------------------------------------------------
  free energy    TOTEN  =      -888.81006745 eV

  energy without entropy =     -888.81006024  energy(sigma->0) =     -888.81006385


--------------------------------------------------------------------------------------------------------




--------------------------------------- Iteration      1(  11)  ---------------------------------------


    POTLOK:  cpu time    0.1311: real time    0.1515
    SETDIJ:  cpu time    0.3824: real time    0.3824
     EDDAV:  cpu time   44.3022: real time   44.3049
       DOS:  cpu time    0.0019: real time    0.0019
    CHARGE:  cpu time    1.3409: real time    1.3480
    MIXING:  cpu time    0.0090: real time    0.0090
    --------------------------------------------
      LOOP:  cpu time   46.1674: real time   46.1978

 eigenvalue-minimisations  : 11560
 total energy-change (2. order) :-0.8552896E-02  (-0.1465945E-01)
 number of electron     864.0000007 magnetization 
 augmentation part      118.1897946 magnetization 

 Broyden mixing:
  rms(total) = 0.76088E-01    rms(broyden)= 0.76083E-01
  rms(prec ) = 0.89473E-01
  weight for this iteration     100.00

 eigenvalues of (default mixing * dielectric matrix)
  average eigenvalue GAMMA=   1.3327
  2.4461  1.8086  0.9835  0.9835  0.8874  0.8874

 Free energy of the ion-electron system (eV)
  ---------------------------------------------------
  alpha Z        PSCENC =      3039.22321400
  Ewald energy   TEWEN  =    -48626.55056475
  -Hartree energ DENC   =    -17590.34082823
  -exchange      EXHF   =         0.00000000
  -V(xc)+E(xc)   XCENC  =      3286.19456504
  PAW double counting   =     91857.71924802   -91513.64993178
  entropy T*S    EENTRO =        -0.00000354
  eigenvalues    EBANDS =     -6309.95455293
  atomic energy  EATOM  =     64968.54023382
  Solvation  Ediel_sol  =         0.00000000
  ---------------------------------------------------
  free energy    TOTEN  =      -888.81862035 eV

  energy without entropy =     -888.81861681  energy(sigma->0) =     -888.81861858


--------------------------------------------------------------------------------------------------------




--------------------------------------- Iteration      1(  12)  ---------------------------------------


    POTLOK:  cpu time    0.1295: real time    0.1337
    SETDIJ:  cpu time    0.3744: real time    0.3744
     EDDAV:  cpu time   40.3886: real time   40.3928
       DOS:  cpu time    0.0020: real time    0.0020
    CHARGE:  cpu time    1.3577: real time    1.3577
    MIXING:  cpu time    0.0072: real time    0.0072
    --------------------------------------------
      LOOP:  cpu time   42.2593: real time   42.2678

 eigenvalue-minimisations  : 10304
 total energy-change (2. order) :-0.8447676E-02  (-0.3829151E-02)
 number of electron     864.0000007 magnetization 
 augmentation part      118.1876827 magnetization 

 Broyden mixing:
  rms(total) = 0.28249E-01    rms(broyden)= 0.28244E-01
  rms(prec ) = 0.36252E-01
  weight for this iteration     100.00

 eigenvalues of (default mixing * dielectric matrix)
  average eigenvalue GAMMA=   1.3592
  2.5244  2.3797  1.0030  1.0030  0.9085  0.8479  0.8479

 Free energy of the ion-electron system (eV)
  ---------------------------------------------------
  alpha Z        PSCENC =      3039.22321400
  Ewald energy   TEWEN  =    -48626.55056475
  -Hartree energ DENC   =    -17594.90826777
  -exchange      EXHF   =         0.00000000
  -V(xc)+E(xc)   XCENC  =      3286.37427630
  PAW double counting   =     91739.71608770   -91393.99166430
  entropy T*S    EENTRO =        -0.00001144
  eigenvalues    EBANDS =     -6307.23037159
  atomic energy  EATOM  =     64968.54023382
  Solvation  Ediel_sol  =         0.00000000
  ---------------------------------------------------
  free energy    TOTEN  =      -888.82706802 eV

  energy without entropy =     -888.82705658  energy(sigma->0) =     -888.82706230


--------------------------------------------------------------------------------------------------------




--------------------------------------- Iteration      1(  13)  ---------------------------------------


    POTLOK:  cpu time    0.1325: real time    0.1491
    SETDIJ:  cpu time    0.3865: real time    0.3865
     EDDAV:  cpu time   44.8488: real time   44.8529
       DOS:  cpu time    0.0019: real time    0.0019
    CHARGE:  cpu time    1.3788: real time    1.3789
    MIXING:  cpu time    0.0074: real time    0.0074
    --------------------------------------------
      LOOP:  cpu time   46.7561: real time   46.7767

 eigenvalue-minimisations  : 11664
 total energy-change (2. order) :-0.2988587E-02  (-0.1101596E-02)
 number of electron     864.0000007 magnetization 
 augmentation part      118.1938675 magnetization 

 Broyden mixing:
  rms(total) = 0.14086E-01    rms(broyden)= 0.14084E-01
  rms(prec ) = 0.18035E-01
  weight for this iteration     100.00

 eigenvalues of (default mixing * dielectric matrix)
  average eigenvalue GAMMA=   1.3312
  2.6678  2.4473  0.8759  0.8759  1.0237  1.0237  0.8675  0.8675

 Free energy of the ion-electron system (eV)
  ---------------------------------------------------
  alpha Z        PSCENC =      3039.22321400
  Ewald energy   TEWEN  =    -48626.55056475
  -Hartree energ DENC   =    -17597.51100591
  -exchange      EXHF   =         0.00000000
  -V(xc)+E(xc)   XCENC  =      3286.46446528
  PAW double counting   =     91617.47818477   -91270.64548604
  entropy T*S    EENTRO =        -0.00001288
  eigenvalues    EBANDS =     -6305.82908490
  atomic energy  EATOM  =     64968.54023382
  Solvation  Ediel_sol  =         0.00000000
  ---------------------------------------------------
  free energy    TOTEN  =      -888.83005661 eV

  energy without entropy =     -888.83004373  energy(sigma->0) =     -888.83005017


--------------------------------------------------------------------------------------------------------




--------------------------------------- Iteration      1(  14)  ---------------------------------------


    POTLOK:  cpu time    0.1295: real time    0.1327
    SETDIJ:  cpu time    0.3723: real time    0.3744
     EDDAV:  cpu time   44.2581: real time   44.2603
       DOS:  cpu time    0.0022: real time    0.0022
    CHARGE:  cpu time    1.3583: real time    1.3584
    MIXING:  cpu time    0.0066: real time    0.0066
    --------------------------------------------
      LOOP:  cpu time   46.1270: real time   46.1346

 eigenvalue-minimisations  : 11568
 total energy-change (2. order) :-0.5924357E-03  (-0.4019630E-03)
 number of electron     864.0000007 magnetization 
 augmentation part      118.1934692 magnetization 

 Broyden mixing:
  rms(total) = 0.10280E-01    rms(broyden)= 0.10279E-01
  rms(prec ) = 0.12346E-01
  weight for this iteration     100.00

 eigenvalues of (default mixing * dielectric matrix)
  average eigenvalue GAMMA=   1.2902
  2.7510  2.4616  1.0591  1.0591  0.9384  0.8932  0.8932  0.7782  0.7782

 Free energy of the ion-electron system (eV)
  ---------------------------------------------------
  alpha Z        PSCENC =      3039.22321400
  Ewald energy   TEWEN  =    -48626.55056475
  -Hartree energ DENC   =    -17598.61755891
  -exchange      EXHF   =         0.00000000
  -V(xc)+E(xc)   XCENC  =      3286.50686306
  PAW double counting   =     91589.88168968   -91242.81339146
  entropy T*S    EENTRO =        -0.00001573
  eigenvalues    EBANDS =     -6305.00111876
  atomic energy  EATOM  =     64968.54023382
  Solvation  Ediel_sol  =         0.00000000
  ---------------------------------------------------
  free energy    TOTEN  =      -888.83064904 eV

  energy without entropy =     -888.83063331  energy(sigma->0) =     -888.83064118


--------------------------------------------------------------------------------------------------------




--------------------------------------- Iteration      1(  15)  ---------------------------------------


    POTLOK:  cpu time    0.1316: real time    0.1484
    SETDIJ:  cpu time    0.3709: real time    0.3749
     EDDAV:  cpu time   42.9485: real time   42.9519
       DOS:  cpu time    0.0021: real time    0.0021
    CHARGE:  cpu time    1.3468: real time    1.3468
    MIXING:  cpu time    0.0074: real time    0.0074
    --------------------------------------------
      LOOP:  cpu time   44.8072: real time   44.8316

 eigenvalue-minimisations  : 11088
 total energy-change (2. order) :-0.8397749E-04  (-0.6531009E-04)
 number of electron     864.0000007 magnetization 
 augmentation part      118.1944147 magnetization 

 Broyden mixing:
  rms(total) = 0.58431E-02    rms(broyden)= 0.58426E-02
  rms(prec ) = 0.70890E-02
  weight for this iteration     100.00

 eigenvalues of (default mixing * dielectric matrix)
  average eigenvalue GAMMA=   1.3625
  2.9853  2.3217  2.0708  0.9627  0.9627  0.8601  0.8707  0.8707  0.8603  0.8603

 Free energy of the ion-electron system (eV)
  ---------------------------------------------------
  alpha Z        PSCENC =      3039.22321400
  Ewald energy   TEWEN  =    -48626.55056475
  -Hartree energ DENC   =    -17598.95633036
  -exchange      EXHF   =         0.00000000
  -V(xc)+E(xc)   XCENC  =      3286.51672227
  PAW double counting   =     91587.90938932   -91240.81149635
  entropy T*S    EENTRO =        -0.00001671
  eigenvalues    EBANDS =     -6304.70188427
  atomic energy  EATOM  =     64968.54023382
  Solvation  Ediel_sol  =         0.00000000
  ---------------------------------------------------
  free energy    TOTEN  =      -888.83073302 eV

  energy without entropy =     -888.83071631  energy(sigma->0) =     -888.83072467


--------------------------------------------------------------------------------------------------------




--------------------------------------- Iteration      1(  16)  ---------------------------------------


    POTLOK:  cpu time    0.1291: real time    0.1330
    SETDIJ:  cpu time    0.3765: real time    0.3787
     EDDAV:  cpu time   38.2483: real time   38.2568
       DOS:  cpu time    0.0020: real time    0.0020
    CHARGE:  cpu time    1.3473: real time    1.3474
    MIXING:  cpu time    0.0081: real time    0.0081
    --------------------------------------------
      LOOP:  cpu time   40.1114: real time   40.1260

 eigenvalue-minimisations  :  9560
 total energy-change (2. order) :-0.7577213E-04  (-0.2855172E-04)
 number of electron     864.0000007 magnetization 
 augmentation part      118.1920509 magnetization 

 Broyden mixing:
  rms(total) = 0.18189E-02    rms(broyden)= 0.18178E-02
  rms(prec ) = 0.22903E-02
  weight for this iteration     100.00

 eigenvalues of (default mixing * dielectric matrix)
  average eigenvalue GAMMA=   1.3630
  3.0594  2.3809  2.3809  0.9212  0.9212  0.9359  0.9359  0.8776  0.8776  0.8514
  0.8514

 Free energy of the ion-electron system (eV)
  ---------------------------------------------------
  alpha Z        PSCENC =      3039.22321400
  Ewald energy   TEWEN  =    -48626.55056475
  -Hartree energ DENC   =    -17599.59995597
  -exchange      EXHF   =         0.00000000
  -V(xc)+E(xc)   XCENC  =      3286.54174299
  PAW double counting   =     91601.39392461   -91254.34881589
  entropy T*S    EENTRO =        -0.00001980
  eigenvalues    EBANDS =     -6304.03056782
  atomic energy  EATOM  =     64968.54023382
  Solvation  Ediel_sol  =         0.00000000
  ---------------------------------------------------
  free energy    TOTEN  =      -888.83080879 eV

  energy without entropy =     -888.83078899  energy(sigma->0) =     -888.83079889


--------------------------------------------------------------------------------------------------------




--------------------------------------- Iteration      1(  17)  ---------------------------------------


    POTLOK:  cpu time    0.1273: real time    0.1441
    SETDIJ:  cpu time    0.3755: real time    0.3755
     EDDAV:  cpu time   43.6874: real time   43.6904
       DOS:  cpu time    0.0019: real time    0.0019
    CHARGE:  cpu time    1.3414: real time    1.3415
    MIXING:  cpu time    0.0082: real time    0.0082
    --------------------------------------------
      LOOP:  cpu time   45.5417: real time   45.5615

 eigenvalue-minimisations  : 11336
 total energy-change (2. order) :-0.1575102E-04  (-0.1087592E-04)
 number of electron     864.0000007 magnetization 
 augmentation part      118.1926448 magnetization 

 Broyden mixing:
  rms(total) = 0.14081E-02    rms(broyden)= 0.14072E-02
  rms(prec ) = 0.16703E-02
  weight for this iteration     100.00

 eigenvalues of (default mixing * dielectric matrix)
  average eigenvalue GAMMA=   1.3197
  3.2085  2.3605  2.3605  0.9982  0.9982  0.8099  0.8099  0.8992  0.8992  0.9219
  0.9219  0.6484

 Free energy of the ion-electron system (eV)
  ---------------------------------------------------
  alpha Z        PSCENC =      3039.22321400
  Ewald energy   TEWEN  =    -48626.55056475
  -Hartree energ DENC   =    -17599.62234415
  -exchange      EXHF   =         0.00000000
  -V(xc)+E(xc)   XCENC  =      3286.54012100
  PAW double counting   =     91604.76222473   -91257.74183666
  entropy T*S    EENTRO =        -0.00002007
  eigenvalues    EBANDS =     -6303.98185247
  atomic energy  EATOM  =     64968.54023382
  Solvation  Ediel_sol  =         0.00000000
  ---------------------------------------------------
  free energy    TOTEN  =      -888.83082455 eV

  energy without entropy =     -888.83080448  energy(sigma->0) =     -888.83081451


--------------------------------------------------------------------------------------------------------




--------------------------------------- Iteration      1(  18)  ---------------------------------------


    POTLOK:  cpu time    0.1292: real time    0.1333
    SETDIJ:  cpu time    0.3752: real time    0.3752
     EDDAV:  cpu time   41.4951: real time   41.4996
       DOS:  cpu time    0.0020: real time    0.0020
    CHARGE:  cpu time    1.3427: real time    1.3427
    MIXING:  cpu time    0.0090: real time    0.0090
    --------------------------------------------
      LOOP:  cpu time   43.3532: real time   43.3618

[...]
   -.180E+02 -.392E+02 -.838E+02   0.952E+01 0.588E+02 0.101E+03   0.964E+01 -.180E+02 -.167E+02   0.454E-03 -.454E-03 -.147E-02
   0.753E+02 0.611E+02 0.268E+02   -.745E+02 -.543E+02 -.335E+01   -.289E+01 -.642E+01 -.237E+02   0.531E-03 -.735E-03 0.559E-04
   -.351E+01 0.871E+02 -.311E+01   0.103E+02 -.846E+02 -.102E+02   -.655E+01 -.205E+01 0.141E+02   0.819E-03 0.949E-03 -.485E-03
   -.102E+03 0.114E+03 0.800E+02   0.118E+03 -.139E+03 -.883E+02   -.154E+02 0.247E+02 0.771E+01   0.160E-03 0.155E-02 0.858E-03
   -.117E+02 -.112E+03 -.356E+01   0.421E+02 0.124E+03 0.573E+01   -.273E+02 -.930E+01 -.254E+01   -.837E-03 -.512E-03 0.991E-04
   -.325E+02 0.313E+02 -.616E+02   0.182E+02 -.409E+02 0.838E+02   0.147E+02 0.100E+02 -.198E+02   0.157E-02 -.148E-02 0.447E-03
   0.366E+02 0.713E+02 0.188E+02   -.395E+02 -.933E+02 -.283E+02   0.283E+01 0.253E+02 0.868E+01   0.136E-02 0.301E-03 -.341E-03
   0.911E+02 0.383E+02 -.901E+02   -.864E+02 -.501E+02 0.115E+03   -.632E+01 0.115E+02 -.247E+02   0.467E-03 0.633E-04 0.244E-03
   0.124E+02 -.834E+02 -.284E+02   -.322E+01 0.113E+03 0.311E+02   -.849E+01 -.276E+02 -.305E+01   -.520E-03 -.126E-02 -.123E-02
   -.367E+02 0.200E+03 0.773E+02   0.384E+02 -.227E+03 -.882E+02   -.148E+01 0.277E+02 0.124E+02   -.200E-03 0.145E-02 -.244E-04
   -.885E+02 -.338E+02 0.443E+02   0.767E+02 0.277E+02 -.772E+02   0.973E+01 0.550E+01 0.320E+02   0.574E-03 -.888E-03 -.132E-03
   0.874E+01 -.187E+02 -.488E+02   -.122E+01 0.758E+00 0.478E+02   -.959E+01 0.197E+02 0.286E+01   -.432E-03 -.756E-03 0.291E-03
   0.564E+01 -.381E+02 -.711E+01   0.162E+02 0.410E+02 0.150E+02   -.179E+02 -.896E+00 -.376E+01   -.136E-02 0.215E-03 -.739E-03
   -.136E+03 -.434E+02 -.239E+02   0.153E+03 0.566E+02 0.435E+02   -.151E+02 -.111E+02 -.141E+02   -.320E-03 -.572E-03 -.104E-02
   -.204E+02 0.269E+02 0.323E+02   0.152E+01 -.395E+02 -.485E+02   0.206E+02 0.127E+02 0.182E+02   0.106E-03 0.721E-03 0.135E-03
   -.113E+03 -.103E+01 -.166E+02   0.133E+03 0.127E+02 0.411E+02   -.162E+02 -.980E+01 -.236E+02   -.153E-02 -.286E-03 -.144E-02
   -.101E+03 -.965E+01 -.191E+02   0.127E+03 -.117E+02 0.308E+02   -.220E+02 0.251E+02 -.106E+02   0.881E-04 -.106E-02 0.656E-03
   -.356E+01 -.667E+02 -.274E+02   0.578E+00 0.834E+02 0.285E+02   0.242E+01 -.192E+02 0.317E+00   0.822E-03 -.705E-03 0.196E-03
   -.522E+02 0.972E+02 -.748E+01   0.661E+02 -.105E+03 -.972E+01   -.147E+02 0.541E+01 0.202E+02   -.666E-03 0.624E-03 -.158E-04
   -.715E+02 0.114E+02 -.318E+02   0.802E+02 -.937E+01 0.185E+02   -.936E+01 -.761E+01 0.140E+02   0.618E-03 0.199E-03 -.111E-02
   0.102E+03 0.108E+03 0.571E+02   -.112E+03 -.118E+03 -.556E+02   0.107E+02 0.914E+01 -.150E+01   0.338E-03 0.124E-02 -.746E-04
   -.252E+01 -.685E+02 -.411E+02   0.202E+02 0.655E+02 0.398E+02   -.198E+02 0.457E+01 0.209E+01   0.543E-03 0.803E-04 -.237E-04
   -.113E+02 0.460E+02 0.639E+02   0.524E+01 -.382E+02 -.880E+02   0.905E+01 -.104E+02 0.250E+02   -.168E-02 -.380E-03 0.395E-03
   0.547E+02 0.508E+01 0.623E+00   -.700E+02 -.196E+02 0.166E+02   0.164E+02 0.160E+02 -.175E+02   -.298E-03 0.552E-03 0.711E-03
   -.301E+02 0.573E+01 -.759E+02   0.107E+02 0.430E+01 0.867E+02   0.202E+02 -.118E+02 -.927E+01   0.538E-03 0.108E-02 -.123E-02
   -.920E+02 0.392E+02 0.194E+02   0.105E+03 -.507E+02 -.733E+00   -.125E+02 0.122E+02 -.210E+02   0.727E-03 -.200E-03 0.866E-03
   0.123E+03 -.670E+00 0.411E+02   -.140E+03 0.390E+01 -.310E+02   0.157E+02 -.922E+00 -.136E+02   0.129E-03 -.513E-03 0.111E-02
   0.219E+02 0.982E+00 0.745E+02   -.986E+01 0.168E+02 -.722E+02   -.143E+02 -.206E+02 -.397E+01   0.295E-03 0.610E-03 -.222E-03
   0.987E+02 0.723E+02 -.124E+03   -.114E+03 -.947E+02 0.149E+03   0.139E+02 0.191E+02 -.219E+02   -.257E-03 0.527E-03 -.796E-03
   0.219E+02 0.144E+03 -.985E+01   -.298E+02 -.170E+03 0.159E+02   0.740E+01 0.202E+02 -.624E+00   -.145E-04 -.149E-03 -.389E-03
   0.417E+02 0.135E+02 0.173E+03   -.378E+02 -.349E+02 -.185E+03   -.461E+01 0.265E+02 0.112E+02   -.346E-03 0.720E-03 0.976E-03
   0.459E+02 0.344E+02 0.444E+02   -.410E+02 -.504E+02 -.708E+02   -.482E+01 0.153E+02 0.260E+02   -.145E-02 0.361E-03 0.134E-02
   0.788E+02 0.140E+02 0.483E+02   -.951E+02 -.120E+01 -.608E+02   0.147E+02 -.176E+02 0.134E+02   0.127E-02 0.419E-03 -.154E-03
   0.472E+02 -.123E+03 -.119E+02   -.542E+02 0.126E+03 0.215E+02   0.869E+01 -.319E+01 -.105E+02   -.656E-03 -.759E-03 -.886E-03
   -.377E+02 -.158E+00 0.338E+02   0.458E+02 0.891E+01 -.320E+02   -.113E+02 -.110E+02 -.384E+01   -.118E-03 -.463E-04 -.402E-03
   -.127E+03 0.136E+02 -.166E+02   0.121E+03 0.159E+02 0.194E+02   0.477E+01 -.271E+02 -.327E+01   0.656E-03 0.110E-02 0.451E-03
   0.104E+03 -.180E+02 0.256E+02   -.112E+03 0.272E+02 -.428E+02   0.839E+01 -.842E+01 0.181E+02   -.292E-03 0.661E-03 0.153E-03
   0.115E+03 0.721E+02 -.203E+02   -.133E+03 -.956E+02 0.997E+01   0.139E+02 0.217E+02 0.119E+02   0.765E-03 -.186E-02 -.102E-02
   -.138E+03 -.855E+02 -.820E+02   0.154E+03 0.854E+02 0.975E+02   -.157E+02 0.763E+00 -.170E+02   -.225E-03 -.999E-03 -.124E-03
   0.161E+02 -.642E+02 -.255E+02   -.164E+02 0.637E+02 0.472E+02   -.153E+01 0.948E+00 -.192E+02   -.690E-03 -.156E-02 0.325E-03
   -.243E+02 -.145E+02 0.112E+03   0.260E+02 0.245E+02 -.112E+03   -.385E+01 -.135E+02 -.441E+01   0.100E-02 0.923E-03 0.144E-02
   0.253E+02 0.674E+02 0.367E+02   -.730E+01 -.704E+02 -.560E+02   -.200E+02 0.198E+01 0.210E+02   -.233E-03 -.740E-03 0.198E-03
   0.425E+02 -.704E+01 -.100E+03   -.608E+02 0.236E+02 0.105E+03   0.186E+02 -.186E+02 -.514E+01   0.861E-04 0.456E-03 -.388E-03
   0.646E+02 0.127E+03 0.359E+02   -.635E+02 -.147E+03 -.267E+02   -.318E+01 0.187E+02 -.133E+02   -.245E-03 0.115E-02 0.158E-03
   -.957E+02 0.138E+02 0.772E+02   0.101E+03 -.991E+01 -.890E+02   -.550E+01 -.523E+01 0.143E+02   -.121E-03 0.140E-03 0.311E-04
   0.223E+02 -.168E+02 -.616E+02   -.237E+02 0.245E+02 0.711E+02   0.118E+01 -.108E+02 -.739E+01   0.338E-04 -.798E-03 -.377E-03
   0.502E+02 -.761E+02 -.343E+02   -.426E+02 0.763E+02 0.373E+02   -.111E+02 0.105E+01 -.207E+01   0.753E-03 0.477E-04 0.616E-03
   0.158E+02 0.102E+02 0.204E+02   -.936E+01 -.250E+02 -.479E+01   -.518E+01 0.163E+02 -.146E+02   0.519E-03 0.275E-03 0.293E-03
 -----------------------------------------------------------------------------------------------
   -.658E+02 -.766E+02 0.133E+03   -.129E-11 -.426E-13 0.723E-12   0.658E+02 0.766E+02 -.133E+03   0.284E-02 -.134E-02 -.285E-02
 
 
 POSITION                                       TOTAL-FORCE (eV/Angst)
 -----------------------------------------------------------------------------------
      1.72222      7.09388      9.74172         1.714720     -0.233515     -1.011137
      1.65155      5.83371      3.43066         1.064310     -2.581249     -1.441205
      3.13760      5.00448      0.52117         1.862619      0.315938      0.295189
      6.69385      5.32453      2.09353        -1.791899     -1.946120     -2.575011
      1.69142      1.19167      8.94734         0.456521     -0.553975     -0.043304
      7.88027     11.33603      2.85176         1.272983      0.001961     -2.782949
      5.07014      7.58352     10.56970         1.228617      2.634646      1.280122
      7.01007      0.95056      5.14492        -1.965577      6.838919      1.422648
      2.02664      8.59071      2.34254         0.580399      2.190060     -1.789507
      9.17562      9.23089      5.09907         0.209628      3.542981     -0.655908
      4.27662      1.60612      2.76019         1.069925      0.262735     -2.110217
      6.76376      2.77021      8.08529         0.407159      1.757434     -0.232449
      8.82403      8.56874     11.18935        -0.711054      0.694745     -2.685351
      4.68691      6.14694      7.34580        -0.816083     -1.384352      0.669669
      9.67406      4.45019      2.43063         2.133332     -2.522587     -0.396900
      4.49657      1.84845     11.28309        -0.126821      0.864947     -0.406003
      0.71582      5.12648      6.75424         2.796919     -3.495627      4.719739
      8.46281      6.95489      3.82814        -2.173611      0.450911     -1.416014
      9.55774      4.76425      5.63705        -1.617213     -1.766145      2.797765
     10.68369      1.05766      1.02920        -2.326884      1.738560     -1.053059
      7.83039      7.64116      7.47366         0.681500     -1.124557     -0.582524
      0.12330      8.63355      6.98714         1.632435      1.790907      1.213535
      0.62253      3.89645      0.01565        -1.564584     -0.300155     -2.655257
      3.46218      9.93618      7.32554        -1.466723      0.832429      1.642367
      1.06126     11.15285      3.65931         1.636187      1.171588      0.038187
      3.95281      3.86192      5.12064         0.127311     -1.016859      1.593450
      5.35435      9.12081      3.32245         1.391623      4.620268     -0.527047
      5.90254     10.56462      9.30565         1.761986      2.650849     -4.859437
      7.37425      2.09045      1.26056         0.337927      1.100559      3.517268
      4.45063      6.71810      4.25791         0.302891     -5.825311      0.107822
      5.45069     10.87069      0.92562         1.575825      3.779702      3.789113
      7.14904      4.05959      4.94120        -2.242237     -1.649586      1.679328
      7.76741      0.59943      9.93212         0.233145      0.733795     -0.228051
      3.40030      9.49778     10.45432        -0.668670      5.456004     -2.527789
     11.30877     10.93209      9.65550        -0.014711      3.056013     -4.144256
      2.60496      7.82765      5.77932        -0.236951     -1.440659      0.006012
      3.88694     11.19024      4.93585        -0.515745     -2.560017     -1.439936
     10.21181      6.00034      9.25937         7.062964     -5.371073     -4.605266
      7.44871      6.23530      9.58859         1.789803     -0.297426      5.583051
     10.11477      1.45678      5.74106         2.742060     -2.439391      2.510704
     10.87148     10.00947      1.40558         2.752073     -4.705019     -2.937450
      3.67778      1.83063      7.10265         4.179275      0.371762     -4.605890
      1.88134     11.46024     11.61712         0.799920      4.594815      0.920961
      1.24525      2.28378      2.20606         3.374111      0.757153      2.648353
      3.36971      3.94184      9.27084         0.904283      1.948246     -3.328416
      6.55770      9.85873      6.04901        -1.096436      0.350170      0.848050
     11.39555      6.61171      4.92491        -5.361069      1.070458     -9.038765
      1.21234      1.36339      5.73547         2.061060      0.804230      0.372706
      8.45723      2.76442     10.76612         4.126362      4.350767     -1.637924
      5.62949      5.18014     10.43249        -3.271774     -6.830103      3.094877
      7.57502      8.50543      1.76990        -4.401727     -3.442678     -2.094953
     11.37671      6.81575      0.56941         2.100630      1.699142     -3.309023
      9.22116     10.45178      7.84083        -3.608035     -1.542634     -0.766235
     10.85726      2.68528      8.41233        -3.469195      1.010775      3.711736
      3.37512      2.41187      8.49441        -0.674700     -0.425774      3.386623
      2.24568      0.23789      6.71408        -2.238689      0.656579     -1.231784
     11.55344      6.84586      8.20439        -2.528096     -2.217676      1.957713
      8.00982      4.32172      9.51751        -1.378630      1.716236      1.563945
      4.72735      9.55874      1.29742        -1.424297     -4.755691      0.074496
      2.60186      3.23073      1.59653        -2.257600     -1.731833      2.435018
      3.13873     10.57902      3.52522         0.974454      1.519888      1.590183
      0.10753      7.22633      3.41924         0.044065      0.876516     -0.137260
     10.72320      5.94416      1.54522        -1.537491     -3.329271      3.373110
      5.16749      4.53481      0.27029         1.284295     -0.559065      0.033482
      2.44830      2.32423      5.95359         1.711432      4.209574      0.901694
      6.59571      0.73751      0.79846        -1.868225     -4.711410     -2.521724
     10.72709      8.36911      0.70873         3.396617     -1.231544     -1.299726
      1.77931      1.35474     11.10473         0.473225      0.532766      0.213455
      6.30632      2.63718      2.38322         0.460062      0.455581     -3.642772
      9.66807      8.86997      7.49683        -1.512370      1.549311     -1.519273
      2.26826      9.34729      5.41553        -1.685550     -0.239976     -0.541218
      7.04643      6.09703     11.38228        -2.033215      0.191005     -5.136044
      6.88397      2.10989     10.82314         1.822452      3.965700     -0.616314
      4.80430      9.75201      5.40336         2.073545      2.671227      1.143363
      9.38142     10.22963      0.98859         0.171358      3.165753      0.786739
      8.20671      3.06778      5.96184        -0.377829     -0.949314     -1.541661
      3.99520      5.78130     10.09866        -1.994189      1.470572      1.526253
      2.50311      7.88024      7.33227        -0.834226     -0.259311      2.608956
      5.51593     10.04023      7.84891        -0.565404     -2.022386     -0.117064
      5.97764      5.97080      9.06476         2.087810      2.632727     -3.206684
      9.80800      4.32630      7.82090         2.655847      1.963783      1.636554
      9.99518     11.51625      7.05983         1.415437      3.642665     -3.656594
      7.07097      9.52164      0.56780        -0.202209     -0.802994      1.733981
      4.57483      0.49926      6.88040         0.594820     -0.738128      1.024916
      7.43379     10.77658      7.22444         5.002782     -1.111974     -0.127909
     11.35644      1.37786      9.30835        -2.436506     -5.624926     -1.324496
      3.77643      7.99600      3.68316        -5.534137     -1.840408     -1.556940
      6.92015      5.25339      5.98576         1.121401      1.599809      0.928146
     11.49717     11.25840     11.17322        -2.067615      0.391844     -0.309697
      8.10830      4.76192      3.77539         0.223948      0.489512      0.803105
      8.41784      7.18698      1.43186         0.972647     -0.333837     -0.611770
      0.65988      3.26489      8.40695         3.102678      3.173859     -0.377489
      9.77688     10.38890      9.35044         0.432401      0.445581      2.429131
      7.22371      8.31276      5.67183        -0.142286      3.335433     -0.770093
     11.47644      9.75169      2.84907        -1.532185     -0.275148      0.140737
      4.29655      1.03127      4.69974         0.643934      1.671769     -0.320096
     11.41430      4.96061      4.54705         0.212552      1.398114      1.504580
      9.41786      1.07217      4.43830        -2.157948     -0.672374     -0.934047
      1.50420      0.69089      1.69048        -2.073365      1.773973      1.849438
      1.10268      6.96037      5.45184         3.880727      1.930984      4.101715
      8.30425      9.09837      2.95290         2.073994      2.141056      5.472784
      5.84225      3.38136      4.31748         1.714393      0.021709      2.061894
      5.17978      7.14958      5.52613         3.494282      1.835928      0.959449
      7.35580     10.34549      9.86553         3.622034      3.734822      1.167367
      7.07115      8.09867      9.32255        -0.567670     -2.469767      1.487212
      5.11052      4.01940      9.18789        -0.893464     -2.669373      2.995368
      7.33022     10.76239      4.82340        -0.577048     -5.590847      0.749297
      6.31715      7.46008      2.58663         0.868364     -0.562106     -0.056603
      1.40855      6.32325      0.42270        -2.144095      1.549271      0.773606
      2.41729     10.89540     10.12407         2.962310     -2.483462      0.872158
      2.54049      3.52986     10.58560         1.117755      1.514848     -0.252482
      9.98702      7.26360      5.36470         0.863217     -1.804155      1.522539
      8.82823      0.99112     11.26793         0.381035      0.659214     -2.335727
      4.01046      0.09947      1.02122        -1.945659      2.305853     -3.500835
     11.22804      2.62620      6.48676        -2.334365     -2.762654     -1.627969
      2.81799      8.45033     11.36022        -1.188557     -3.373831      3.296123
      1.26274     10.20811      0.62689        -0.437335     -6.077859      5.382290
      4.36582      5.15006      3.53968        -0.691295      5.145848     -1.553578
      3.73906      8.67068      9.14952         0.048690     -0.664857     -0.409380
      6.30289      0.86857      9.07886        -1.481910     -4.770671      0.807089
      1.09220      1.98334      3.90201         1.653903      0.376088     -0.859600
      5.07089      3.25261      6.91136        -3.150779     -2.234075     -2.052516
      8.96265      6.81732      9.40533        -1.769429      2.376210     -0.443292
      2.74314      4.82613      7.98612         0.070981      0.738447      0.867994
      0.03520      0.47975      5.25258        -3.748825     -1.719670      1.638814
      8.69856      1.57578      2.16952         0.508202      0.605418     -1.515844
      4.97974     10.23797     10.52848        -1.862879      0.500463      2.455287
      8.41756      3.87008      0.96827        -2.173452     -3.525579     -4.174038
      0.71064     10.46520      8.42946        -2.030703     -1.019621      1.783223
     11.59761      3.30542      2.01863         0.316324     -2.108955     -0.829258
      3.22757      6.26680      5.73618        -2.164611     -1.987691     -4.048221
      8.71319      1.73384      8.62007        -0.583467     -1.315313      2.430000
      5.77276     11.55259      2.61217        -0.299323     -3.172806      2.104105
     10.46091      3.09333     10.36281        -3.526503      1.297071      0.974404
     10.92201      5.88465     10.67896         1.250649      1.498896      1.036249
 -----------------------------------------------------------------------------------
    total drift:                               -0.000542     -0.026205     -0.005723


--------------------------------------------------------------------------------------------------------



  FREE ENERGIE OF THE ION-ELECTRON SYSTEM (eV)
  ---------------------------------------------------
  free  energy   TOTEN  =      -888.83082714 eV

  energy  without entropy=     -888.83080701  energy(sigma->0) =     -888.83081708
 


--------------------------------------------------------------------------------------------------------


    POTLOK:  cpu time    0.4690: real time    0.4711


--------------------------------------------------------------------------------------------------------


     LOOP+:  cpu time  866.9277: real time  867.2445
    4ORBIT:  cpu time    0.0000: real time    0.0000

 total amount of memory used by VASP MPI-rank0   158129. kBytes
=======================================================================

   base      :      30000. kBytes
   nonlr-proj:      22578. kBytes
   fftplans  :      23353. kBytes
   grid      :      12472. kBytes
   one-center:        171. kBytes
   wavefun   :      69555. kBytes
 
  
  
 General timing and accounting informations for this job:
 ========================================================
  
                  Total CPU time used (sec):      888.575
                            User time (sec):      884.719
                          System time (sec):        3.856
                         Elapsed time (sec):      889.141
  
                   Maximum memory used (kb):      305752.
                   Average memory used (kb):           0.
  
                          Minor page faults:        81206
                          Major page faults:            0
                 Voluntary context switches:         1749
