 running on   52 total cores
 distrk:  each k-point on   52 cores,    1 groups
 distr:  one band on   13 cores,    4 groups
 using from now: INCAR     
 vasp.5.4.4.18Apr17-6-g9f103f2a35 (build Oct 31 2019 15:01:46) complex          
  
 POSCAR found type information on POSCAR  Ca Si O 
 POSCAR found :  3 types and     135 ions
 scaLAPACK is switched off
 LDA part: xc-table for Pade appr. of Perdew
 generate k-points for:    2    2    2
 POSCAR, INCAR and KPOINTS ok, starting setup
 FFT: planning ...
 WAVECAR not read
 entering main loop
       N       E                     dE             d eps       ncg     rms          rms(c)
DAV:   1     0.959431546943E+04    0.95943E+04   -0.47829E+05  8320   0.181E+03
DAV:   2     0.912044451086E+02   -0.95031E+04   -0.91984E+04  9888   0.485E+02
DAV:   3    -0.972258540379E+03   -0.10635E+04   -0.10536E+04 10320   0.163E+02
DAV:   4    -0.102523627439E+04   -0.52978E+02   -0.52748E+02 11272   0.329E+01
DAV:   5    -0.103101255032E+04   -0.57763E+01   -0.57729E+01 14632   0.782E+00    0.882E+01
DAV:   6    -0.878463780374E+03    0.15255E+03   -0.78620E+02  9968   0.440E+01    0.455E+01
DAV:   7    -0.881401393558E+03   -0.29376E+01   -0.12731E+02 10800   0.197E+01    0.290E+01
DAV:   8    -0.868573526587E+03    0.12828E+02   -0.41188E+01 12504   0.110E+01    0.164E+01
DAV:   9    -0.870083902862E+03   -0.15104E+01   -0.14791E+01 10752   0.726E+00    0.122E+01
DAV:  10    -0.867201858334E+03    0.28820E+01   -0.36729E+00 11752   0.477E+00    0.499E+00
DAV:  11    -0.867332779674E+03   -0.13092E+00   -0.30183E+00  9912   0.296E+00    0.513E+00
DAV:  12    -0.867207871614E+03    0.12491E+00   -0.71576E-01 10256   0.168E+00    0.484E+00
DAV:  13    -0.867236442639E+03   -0.28571E-01   -0.46470E-01 11368   0.109E+00    0.494E+00
DAV:  14    -0.867102793064E+03    0.13365E+00   -0.14077E-01 11768   0.662E-01    0.865E-01
DAV:  15    -0.867123066740E+03   -0.20274E-01   -0.69697E-02  9984   0.491E-01    0.185E+00
DAV:  16    -0.867117430838E+03    0.56359E-02   -0.24968E-02 10752   0.317E-01    0.100E+00
DAV:  17    -0.867119231343E+03   -0.18005E-02   -0.82107E-03 10040   0.182E-01    0.978E-01
DAV:  18    -0.867117318997E+03    0.19123E-02   -0.40641E-03 10056   0.119E-01    0.494E-01
DAV:  19    -0.867116991373E+03    0.32762E-03   -0.92448E-04  9640   0.576E-02    0.451E-02
DAV:  20    -0.867117210753E+03   -0.21938E-03   -0.38163E-04 11352   0.356E-02    0.173E-01
DAV:  21    -0.867117199861E+03    0.10892E-04   -0.19266E-04 11272   0.268E-02    0.112E-01
DAV:  22    -0.867117178587E+03    0.21273E-04   -0.49639E-05  9920   0.137E-02    0.147E-02
DAV:  23    -0.867117188061E+03   -0.94734E-05   -0.23608E-05  9392   0.788E-03    0.446E-02
DAV:  24    -0.867117183111E+03    0.49501E-05   -0.74087E-06  8728   0.515E-03    0.100E-02
DAV:  25    -0.867117183589E+03   -0.47797E-06   -0.17013E-06  6064   0.271E-03
   1 F= -.86711718E+03 E0= -.86710243E+03  d E =-.295102E-01
