 vasp.5.4.4.18Apr17-6-g9f103f2a35 (build Oct 31 2019 15:01:46) complex          
  
 executed on             LinuxIFC date 2024.04.30  00:02:12
 running on   52 total cores
 distrk:  each k-point on   52 cores,    1 groups
 distr:  one band on NCORES_PER_BAND=  13 cores,    4 groups


--------------------------------------------------------------------------------------------------------


 INCAR:
 POTCAR:    PAW_PBE Ca_sv 06Sep2000               
 POTCAR:    PAW_PBE Si 05Jan2001                  
 POTCAR:    PAW_PBE O 08Apr2002                   
 POTCAR:    PAW_PBE Ca_sv 06Sep2000               
   SHA256 =  a47365830e737f14e0e6c5cf1ed81b94e081eecf0a33df105380881bc9da05d5 Ca
   COPYR  = (c) Copyright 06Sep2000 Georg Kresse                                
   COPYR  = This file is part of the software VASP. Any use, copying, and all ot
   COPYR  = If you do not have a valid VASP license, you may not use, copy or di
   VRHFIN =Ca: 3s3p4s                                                           
   LEXCH  = PE                                                                  
   EATOM  =  1006.0909 eV,   73.9456 Ry                                         
                                                                                
   TITEL  = PAW_PBE Ca_sv 06Sep2000                                             
   LULTRA =        F    use ultrasoft PP ?                                      
   IUNSCR =        1    unscreen: 0-lin 1-nonlin 2-no                           
   RPACOR =    2.000    partial core radius                                     
   POMASS =   40.078; ZVAL   =   10.000    mass and valenz                      
   RCORE  =    2.300    outmost cutoff radius                                   
   RWIGS  =    2.500; RWIGS  =    1.323    wigner-seitz radius (au A)           
   ENMAX  =  266.622; ENMIN  =  199.967 eV                                      
   RCLOC  =    1.808    cutoff for local pot                                    
   LCOR   =        T    correct aug charges                                     
   LPAW   =        T    paw PP                                                  
   EAUG   =  420.852                                                            
   RMAX   =    2.359    core radius for proj-oper                               
   RAUG   =    1.300    factor for augmentation sphere                          
   RDEP   =    2.392    radius for radial grids                                 
   RDEPT  =    1.987    core radius for aug-charge                              
                                                                                
   Atomic configuration                                                         
    7 entries                                                                   
     n  l   j            E        occ.                                          
     1  0  0.50     -3949.1705   2.0000                                         
     2  0  0.50      -414.3434   2.0000                                         
     2  1  1.50      -334.7047   6.0000                                         
     3  0  0.50       -47.0896   2.0000                                         
     4  0  0.50        -3.7663   2.0000                                         
     3  1  1.50       -28.0061   6.0000                                         
     3  2  1.50        -4.0817   0.0000                                         
   Description                                                                  
     l       E           TYP  RCUT    TYP  RCUT                                 
     0    -47.0896403     23  2.300                                             
     0     -3.7663320     23  2.300                                             
     1    -28.0060855     23  2.300                                             
     1      6.8029130     23  2.300                                             
     2     -4.0817478     23  2.300                                             
     2      0.4464412     23  2.300                                             
  local pseudopotential read in
  partial core-charges read in
  partial kinetic energy density read in
  atomic valenz-charges read in
  non local Contribution for L=           0  read in
    real space projection operators read in
  non local Contribution for L=           0  read in
    real space projection operators read in
  non local Contribution for L=           1  read in
    real space projection operators read in
  non local Contribution for L=           1  read in
    real space projection operators read in
  non local Contribution for L=           2  read in
    real space projection operators read in
  non local Contribution for L=           2  read in
    real space projection operators read in
    PAW grid and wavefunctions read in
 
   number of l-projection  operators is LMAX  =           6
   number of lm-projection operators is LMMAX =          18
 
 POTCAR:    PAW_PBE Si 05Jan2001                  
   SHA256 =  79d9987ad8750f624c4d6acb2a16d13abf6a777132adc04dc6c8399be72b42bb Si
   COPYR  = (c) Copyright 05Jan2001 Georg Kresse                                
   COPYR  = This file is part of the software VASP. Any use, copying, and all ot
   COPYR  = If you do not have a valid VASP license, you may not use, copy or di
   VRHFIN =Si: s2p2                                                             
   LEXCH  = PE                                                                  
   EATOM  =   103.0669 eV,    7.5752 Ry                                         
                                                                                
   TITEL  = PAW_PBE Si 05Jan2001                                                
   LULTRA =        F    use ultrasoft PP ?                                      
   IUNSCR =        1    unscreen: 0-lin 1-nonlin 2-no                           
   RPACOR =    1.500    partial core radius                                     
   POMASS =   28.085; ZVAL   =    4.000    mass and valenz                      
   RCORE  =    1.900    outmost cutoff radius                                   
   RWIGS  =    2.480; RWIGS  =    1.312    wigner-seitz radius (au A)           
   ENMAX  =  245.345; ENMIN  =  184.009 eV                                      
   ICORE  =        2    local potential                                         
   LCOR   =        T    correct aug charges                                     
   LPAW   =        T    paw PP                                                  
   EAUG   =  322.069                                                            
   DEXC   =    0.000                                                            
   RMAX   =    1.950    core radius for proj-oper                               
   RAUG   =    1.300    factor for augmentation sphere                          
   RDEP   =    1.993    radius for radial grids                                 
   RDEPT  =    1.837    core radius for aug-charge                              
                                                                                
   Atomic configuration                                                         
    6 entries                                                                   
     n  l   j            E        occ.                                          
     1  0  0.50     -1785.8828   2.0000                                         
     2  0  0.50      -139.4969   2.0000                                         
     2  1  1.50       -95.5546   6.0000                                         
     3  0  0.50       -10.8127   2.0000                                         
     3  1  0.50        -4.0811   2.0000                                         
     3  2  1.50        -4.0817   0.0000                                         
   Description                                                                  
     l       E           TYP  RCUT    TYP  RCUT                                 
     0    -10.8127223     23  1.900                                             
     0     -7.6451159     23  1.900                                             
     1     -4.0811372     23  1.900                                             
     1      2.4879257     23  1.900                                             
     2     -4.0817478      7  1.900                                             
  local pseudopotential read in
  partial core-charges read in
  partial kinetic energy density read in
  atomic valenz-charges read in
  non local Contribution for L=           0  read in
    real space projection operators read in
  non local Contribution for L=           0  read in
    real space projection operators read in
  non local Contribution for L=           1  read in
    real space projection operators read in
  non local Contribution for L=           1  read in
    real space projection operators read in
    PAW grid and wavefunctions read in
 
   number of l-projection  operators is LMAX  =           4
   number of lm-projection operators is LMMAX =           8
 
 POTCAR:    PAW_PBE O 08Apr2002                   
   SHA256 =  818f92134a0a090dccd8ba1447fa70422a3b330e708bb4f08108d8ae51209ddf O/
   COPYR  = (c) Copyright 08Apr2002 Georg Kresse                                
   COPYR  = This file is part of the software VASP. Any use, copying, and all ot
   COPYR  = If you do not have a valid VASP license, you may not use, copy or di
   VRHFIN =O: s2p4                                                              
   LEXCH  = PE                                                                  
   EATOM  =   432.3788 eV,   31.7789 Ry                                         
                                                                                
   TITEL  = PAW_PBE O 08Apr2002                                                 
   LULTRA =        F    use ultrasoft PP ?                                      
   IUNSCR =        1    unscreen: 0-lin 1-nonlin 2-no                           
   RPACOR =    1.200    partial core radius                                     
   POMASS =   16.000; ZVAL   =    6.000    mass and valenz                      
   RCORE  =    1.520    outmost cutoff radius                                   
   RWIGS  =    1.550; RWIGS  =    0.820    wigner-seitz radius (au A)           
   ENMAX  =  400.000; ENMIN  =  300.000 eV                                      
   ICORE  =        2    local potential                                         
   LCOR   =        T    correct aug charges                                     
   LPAW   =        T    paw PP                                                  
   EAUG   =  605.392                                                            
   DEXC   =    0.000                                                            
   RMAX   =    1.553    core radius for proj-oper                               
   RAUG   =    1.300    factor for augmentation sphere                          
   RDEP   =    1.550    radius for radial grids                                 
   RDEPT  =    1.329    core radius for aug-charge                              
                                                                                
   Atomic configuration                                                         
    4 entries                                                                   
     n  l   j            E        occ.                                          
     1  0  0.50      -514.6923   2.0000                                         
     2  0  0.50       -23.9615   2.0000                                         
     2  1  0.50        -9.0305   4.0000                                         
     3  2  1.50        -9.5241   0.0000                                         
   Description                                                                  
     l       E           TYP  RCUT    TYP  RCUT                                 
     0    -23.9615318     23  1.200                                             
     0     -9.5240782     23  1.200                                             
     1     -9.0304911     23  1.520                                             
     1      8.1634956     23  1.520                                             
     2     -9.5240782      7  1.500                                             
  local pseudopotential read in
  partial core-charges read in
  partial kinetic energy density read in
  kinetic energy density of atom read in
  atomic valenz-charges read in
  non local Contribution for L=           0  read in
    real space projection operators read in
  non local Contribution for L=           0  read in
    real space projection operators read in
  non local Contribution for L=           1  read in
    real space projection operators read in
  non local Contribution for L=           1  read in
    real space projection operators read in
    PAW grid and wavefunctions read in
 
   number of l-projection  operators is LMAX  =           4
   number of lm-projection operators is LMMAX =           8
 
 Optimization of the real space projectors (new method)

 maximal supplied QI-value         = 16.25
 optimisation between [QCUT,QGAM] = [ 12.51, 25.03] = [ 43.85,175.40] Ry 
 Optimized for a Real-space Cutoff    1.47 Angstroem

   l    n(q)    QCUT    max X(q) W(low)/X(q) W(high)/X(q)  e(spline) 
   0     11    12.514    11.817    0.25E-04    0.32E-05    0.87E-07
   0     11    12.514     8.461    0.39E-04    0.59E-05    0.18E-06
   1     11    12.514     3.957    0.97E-05    0.57E-05    0.28E-07
   1     11    12.514     4.314    0.42E-04    0.14E-04    0.23E-06
   2     10    12.514    14.565    0.79E-04    0.50E-03    0.16E-05
   2     10    12.514    14.552    0.75E-04    0.48E-03    0.15E-05
 Optimization of the real space projectors (new method)

 maximal supplied QI-value         = 19.84
 optimisation between [QCUT,QGAM] = [ 12.50, 25.00] = [ 43.76,175.03] Ry 
 Optimized for a Real-space Cutoff    1.16 Angstroem

   l    n(q)    QCUT    max X(q) W(low)/X(q) W(high)/X(q)  e(spline) 
   0      9    12.501   159.560    0.10E-03    0.83E-04    0.71E-07
   0      9    12.501   115.863    0.99E-04    0.81E-04    0.70E-07
   1      8    12.501    88.339    0.20E-03    0.25E-03    0.76E-07
   1      8    12.501    48.592    0.20E-03    0.24E-03    0.75E-07
 Optimization of the real space projectors (new method)

 maximal supplied QI-value         = 24.76
 optimisation between [QCUT,QGAM] = [ 12.38, 25.00] = [ 42.90,175.06] Ry 
 Optimized for a Real-space Cutoff    1.16 Angstroem

   l    n(q)    QCUT    max X(q) W(low)/X(q) W(high)/X(q)  e(spline) 
   0      9    12.378    20.381    0.16E-03    0.67E-05    0.31E-06
   0      9    12.378    15.268    0.17E-03    0.81E-05    0.33E-06
   1      8    12.378     5.964    0.20E-03    0.16E-03    0.30E-06
   1      8    12.378     5.382    0.18E-03    0.14E-03    0.26E-06
  PAW_PBE Ca_sv 06Sep2000               :
 energy of atom  1       EATOM=-1006.0909
 kinetic energy error for atom=    0.0012 (will be added to EATOM!!)
  PAW_PBE Si 05Jan2001                  :
 energy of atom  2       EATOM= -103.0669
 kinetic energy error for atom=    0.0003 (will be added to EATOM!!)
  PAW_PBE O 08Apr2002                   :
 energy of atom  3       EATOM= -432.3788
 kinetic energy error for atom=    0.0168 (will be added to EATOM!!)
 
 
 POSCAR: Ca Si  O                                
  positions in direct lattice
  No initial velocities read in
 exchange correlation table for  LEXCH =        8
   RHO(1)=    0.500       N(1)  =     2000
   RHO(2)=  100.500       N(2)  =     4000
 


--------------------------------------------------------------------------------------------------------


 ion  position               nearest neighbor table
   1  0.096  0.522  0.056-  74 1.93 108 2.48  50 2.91   6 2.93  21 3.06  10 3.12   2 3.16
   2  0.324  0.572  0.172-  74 1.85 100 2.23 113 2.28 121 2.43   1 3.16
   3  0.273  0.836  0.007-  70 2.19 104 2.19  67 2.39 118 2.52  82 2.53  40 3.04
   4  0.056  0.613  0.661- 130 2.02  90 2.02 129 2.33  89 2.43  86 2.50  10 2.96  53 2.99
   5  0.308  0.606  0.487- 121 2.07 131 2.16  68 2.26 130 2.26 111 2.34  41 3.08  25 3.16
   6  0.901  0.570  0.920-  90 2.21 108 2.25 129 2.44  99 2.54   1 2.93  22 3.03
   7  0.075  0.203  0.116- 128 2.27  60 2.28 134 2.31 115 2.45  13 2.95
   8  0.780  0.778  0.141- 105 1.93 103 2.06  79 2.32  77 2.34  31 2.85  50 3.04
   9  0.906  0.784  0.454-  81 2.02 125 2.31  93 2.33  62 2.35  33 2.62
  10  0.219  0.605  0.844-  70 2.09  97 2.14  87 2.40  90 2.51   4 2.96  40 3.11   1 3.12  41 3.14

  11  0.939  0.937  0.991- 118 2.15 133 2.32 115 2.36  60 2.39  29 3.14
  12  0.562  0.511  0.948- 127 1.82  92 2.14 106 2.26  45 2.64  34 2.85  46 2.95
  13  0.291  0.100  0.066-  82 1.96  72 2.31  60 2.42 109 2.53   7 2.95  35 3.07  51 3.07
  14  0.248  0.345  0.377-  75 2.20  37 2.25 116 2.39  91 2.42 121 2.51
  15  0.836  0.035  0.549-  62 1.78  57 2.54  63 2.55  33 2.92
  16  0.539  0.401  0.400- 102 2.12 121 2.49  52 2.86  18 3.12
  17  0.480  0.881  0.728-  67 2.07 119 2.24  66 2.41  96 2.41  45 2.76
  18  0.566  0.645  0.320- 100 2.15 101 2.23 135 2.26  31 3.01  36 3.06  16 3.12
  19  0.593  0.110  0.471-  57 2.20  80 2.39  96 2.47  20 2.76  39 2.89  30 3.00
  20  0.711  0.168  0.285-  65 1.89  57 2.15  80 2.19  63 2.30  64 2.35 107 2.49  19 2.76  44 2.88
                            47 3.02  51 3.03
  21  0.096  0.714  0.221-  74 2.08  79 2.21  50 2.85   1 3.06
  22  0.747  0.709  0.779- 114 2.15 129 2.39  66 2.49 122 2.50   6 3.03  29 3.03
  23  0.844  0.216  0.894-  99 2.11  95 2.16  85 2.25 134 2.25  48 3.07
  24  0.541  0.343  0.745- 124 2.32 102 2.42  92 2.48  41 2.62
  25  0.293  0.863  0.533-  55 1.93 119 2.14  89 2.15  33 3.03  49 3.05  40 3.07   5 3.16
  26  0.106  0.124  0.728-  78 2.06  85 2.13 132 2.51
  27  0.128  0.995  0.285- 128 2.05 117 2.32  44 2.98  33 3.09
  28  0.534  0.967  0.100-  73 1.59  82 1.62 126 1.87 105 2.09  71 2.39  51 3.00  46 3.00  31 3.07
                            54 3.14
  29  0.952  0.851  0.746- 133 1.63 125 1.70 129 1.74  69 1.75  40 2.98  22 3.03  33 3.14  11 3.14

  30  0.379  0.139  0.593-  96 1.56  98 1.63  76 1.70  84 1.71  35 2.88  19 3.00  39 3.04
  31  0.649  0.879  0.309-  93 1.75 105 1.76 101 1.86  57 2.02   8 2.85  36 2.98  18 3.01  28 3.07

  32  0.044  0.375  0.797-  85 1.71 132 1.72  90 1.81  87 2.03  99 2.10  86 2.20  48 2.55  53 2.57

  33  0.052  0.930  0.521-  55 1.52  62 1.62  78 1.66 125 1.69   9 2.62  15 2.92  25 3.03  27 3.09
                            29 3.14
  34  0.666  0.384  0.117- 107 1.61 127 1.70  65 2.03 135 2.26  43 2.30 120 2.45  12 2.85  51 2.90

  35  0.380  0.136  0.831-  72 1.52 110 1.61  98 1.64 109 1.76  54 2.88  30 2.88  13 3.07
  36  0.646  0.765  0.528-  56 1.67  93 1.74  61 1.78  66 1.80  31 2.98  38 2.99  18 3.06
  37  0.110  0.466  0.348- 111 1.52 112 1.65  91 1.67  75 1.86  14 2.25  53 3.10
  38  0.748  0.545  0.575-  61 1.55  88 1.76 122 1.78  81 1.98  52 2.61  48 2.79  36 2.99
  39  0.391  0.100  0.345- 116 1.52  94 1.60  59 1.71  76 1.87  19 2.89  30 3.04  51 3.06
  40  0.197  0.849  0.768-  70 1.64 119 1.72  89 1.98  69 1.99  67 2.48  29 2.98   3 3.04  25 3.07
                            10 3.11
  41  0.413  0.512  0.699- 131 1.45  97 1.65 124 1.72  92 1.84  24 2.62  45 2.94   5 3.08  10 3.14

  42  0.331  0.379  0.939- 113 1.43 109 1.75 124 1.79  87 1.93 120 2.55
  43  0.854  0.351  0.131- 134 1.47 107 1.51 123 1.83 108 1.85  34 2.30  50 2.87
  44  0.883  0.005  0.259- 117 1.54  64 1.61 115 1.63  63 1.73  57 2.46  20 2.88  27 2.98  47 2.98

  45  0.480  0.689  0.851- 106 1.54 114 1.82  67 1.83  97 2.07  92 2.08  12 2.64  46 2.75  17 2.76
                            41 2.94
  46  0.535  0.720  0.069- 103 1.44  73 1.63 100 1.83 106 1.97 114 2.52  45 2.75  12 2.95  28 3.00

  47  0.943  0.222  0.362-  63 1.56  83 1.59 123 1.80 128 1.84  44 2.98  20 3.02
  48  0.854  0.388  0.707-  58 1.61  99 1.61 122 1.74  86 1.84  88 2.54  32 2.55  52 2.71  38 2.79
                            23 3.07  53 3.13
  49  0.361  0.833  0.292- 104 1.47  68 1.49  94 1.81 101 1.85 100 2.27  25 3.05
  50  0.910  0.571  0.200-  79 1.63 112 1.63 108 1.65  77 1.72  21 2.85  43 2.87   1 2.91   8 3.04

  51  0.505  0.208  0.148- 120 1.60  59 1.65  65 1.72 126 1.97  34 2.90  28 3.00  20 3.03  39 3.06
                            13 3.07
  52  0.722  0.335  0.535-  88 1.47  80 1.50 102 1.50  58 2.18  38 2.61  48 2.71  16 2.86
  53  0.083  0.378  0.587-  86 1.45  91 1.59 132 1.62 130 2.30  32 2.57   4 2.99  37 3.10  48 3.13

  54  0.608  0.102  0.892-  95 1.42 110 1.52 126 1.86  71 1.94  35 2.88  28 3.14
  55  0.149  0.873  0.465-  33 1.52  25 1.93
  56  0.510  0.749  0.508-  36 1.67
  57  0.717  0.016  0.377-  31 2.02  20 2.15  19 2.20  44 2.46  15 2.54
  58  0.771  0.284  0.701-  48 1.61  52 2.18
  59  0.499  0.128  0.258-  51 1.65  39 1.71
  60  0.105  0.032  0.042- 118 1.63   7 2.28  11 2.39  13 2.42
  61  0.647  0.621  0.556-  38 1.55  36 1.78
  62  0.939  0.975  0.463-  33 1.62  15 1.78   9 2.35
  63  0.878  0.110  0.356-  47 1.56  44 1.73  20 2.30  15 2.55
  64  0.788  0.032  0.170-  44 1.61 115 1.93  20 2.35
  65  0.608  0.270  0.225-  51 1.72  20 1.89  34 2.03
  66  0.660  0.845  0.652-  36 1.80  17 2.41  22 2.49
  67  0.381  0.804  0.845-  45 1.83  17 2.07   3 2.39  40 2.48
  68  0.318  0.733  0.351-  49 1.49   5 2.26
  69  0.058  0.926  0.809-  29 1.75  40 1.99
  70  0.172  0.768  0.874-  40 1.64  10 2.09   3 2.19
  71  0.685  0.989  0.975-  54 1.94  28 2.39
  72  0.283  0.071  0.877-  35 1.52  13 2.31
  73  0.578  0.848  0.066-  28 1.59  46 1.63 105 1.81
  74  0.199  0.632  0.108-   2 1.85   1 1.93  21 2.08
  75  0.182  0.414  0.222-  37 1.86  14 2.20
  76  0.326  0.071  0.482-  30 1.70  39 1.87
  77  0.786  0.618  0.250-  50 1.72   8 2.34
  78  0.084  0.052  0.576-  33 1.66  26 2.06
  79  0.944  0.679  0.127-  50 1.63  21 2.21   8 2.32
  80  0.731  0.249  0.446-  52 1.50  20 2.19  19 2.39
  81  0.872  0.650  0.549-  38 1.98   9 2.02
  82  0.401  0.982  0.084-  28 1.62  13 1.96   3 2.53
  83  0.945  0.218  0.494-  47 1.59
  84  0.442  0.253  0.537-  30 1.71
  85  0.015  0.240  0.825-  32 1.71  26 2.13  23 2.25
  86  0.981  0.423  0.632-  53 1.45  48 1.84  32 2.20   4 2.50
  87  0.189  0.411  0.873-  42 1.93  32 2.03  10 2.40
  88  0.798  0.426  0.508-  52 1.47  38 1.76  48 2.54
  89  0.200  0.751  0.636-  40 1.98  25 2.15   4 2.43
  90  0.033  0.525  0.801-  32 1.81   4 2.02   6 2.21  10 2.51
  91  0.070  0.391  0.457-  53 1.59  37 1.67  14 2.42
  92  0.540  0.546  0.776-  41 1.84  45 2.08  12 2.14  24 2.48
  93  0.720  0.803  0.409-  36 1.74  31 1.75   9 2.33
  94  0.386  0.968  0.353-  39 1.60  49 1.81
  95  0.671  0.194  0.853-  54 1.42  23 2.16
  96  0.463  0.043  0.613-  30 1.56  17 2.41  19 2.47
  97  0.361  0.631  0.742-  41 1.65  45 2.07  10 2.14
  98  0.341  0.188  0.712-  30 1.63  35 1.64
  99  0.875  0.378  0.838-  48 1.61  32 2.10  23 2.11   6 2.54
 100  0.454  0.702  0.195-  46 1.83  18 2.15   2 2.23  49 2.27
 101  0.509  0.820  0.330-  49 1.85  31 1.86  18 2.23
 102  0.599  0.343  0.554-  52 1.50  16 2.12  24 2.42
 103  0.651  0.695  0.066-  46 1.44   8 2.06
 104  0.302  0.839  0.186-  49 1.47   3 2.19
 105  0.677  0.897  0.168-  31 1.76  73 1.81   8 1.93  28 2.09
 106  0.435  0.647  0.964-  45 1.54  46 1.97  12 2.26
 107  0.752  0.281  0.118-  43 1.51  34 1.61  20 2.49
 108  0.896  0.492  0.089-  50 1.65  43 1.85   6 2.25   1 2.48
 109  0.370  0.240  0.932-  42 1.75  35 1.76  13 2.53
 110  0.509  0.108  0.813-  54 1.52  35 1.61
 111  0.148  0.581  0.382-  37 1.52   5 2.34
 112  0.015  0.520  0.266-  50 1.63  37 1.65
 113  0.322  0.471  0.013-  42 1.43   2 2.28
 114  0.610  0.759  0.879-  45 1.82  22 2.15  46 2.52
 115  0.945  0.051  0.148-  44 1.63  64 1.93  11 2.36   7 2.45
 116  0.287  0.163  0.312-  39 1.52  14 2.39
 117  0.959  0.905  0.279-  44 1.54  27 2.32
 118  0.089  0.903  0.079-  60 1.63  11 2.15   3 2.52
 119  0.301  0.919  0.701-  40 1.72  25 2.14  17 2.24
 120  0.488  0.307  0.061-  51 1.60  34 2.45  42 2.55
 121  0.371  0.512  0.358-   5 2.07   2 2.43  16 2.49  14 2.51
 122  0.802  0.522  0.710-  48 1.74  38 1.78  22 2.50
 123  0.872  0.322  0.278-  47 1.80  43 1.83
 124  0.392  0.439  0.819-  41 1.72  42 1.79  24 2.32
 125  0.997  0.841  0.613-  33 1.69  29 1.70   9 2.31
 126  0.534  0.103  0.027-  54 1.86  28 1.87  51 1.97
 127  0.690  0.447  0.994-  34 1.70  12 1.82
 128  0.058  0.149  0.295-  47 1.84  27 2.05   7 2.27
 129  0.945  0.712  0.784-  29 1.74   4 2.33  22 2.39   6 2.44
 130  0.194  0.531  0.614-   4 2.02   5 2.26  53 2.30
 131  0.428  0.511  0.580-  41 1.45   5 2.16
 132  0.137  0.327  0.699-  53 1.62  32 1.72  26 2.51
 133  0.854  0.908  0.821-  29 1.63  11 2.32
 134  0.919  0.290  0.048-  43 1.47  23 2.25   7 2.31
 135  0.550  0.509  0.192-  34 2.26  18 2.26
 

IMPORTANT INFORMATION: All symmetrisations will be switched off!
NOSYMM: (Re-)initialisation of all symmetry stuff for point group C_1.

 
 

Automatic generation of k-mesh.
 generate k-points for:    2    2    2
Space group operators:
 irot       det(A)        alpha          n_x          n_y          n_z        tau_x        tau_y        tau_z
    1     1.000000     0.000000     1.000000     0.000000     0.000000     0.000000     0.000000     0.000000
 
 Subroutine IBZKPT returns following result:
 ===========================================
 
 Found      8 irreducible k-points:
 
 Following reciprocal coordinates:
            Coordinates               Weight
  0.000000  0.000000  0.000000      1.000000
  0.500000  0.000000  0.000000      1.000000
  0.000000  0.500000  0.000000      1.000000
  0.500000  0.500000  0.000000      1.000000
  0.000000  0.000000  0.500000      1.000000
  0.500000  0.000000  0.500000      1.000000
  0.000000  0.500000  0.500000      1.000000
  0.500000  0.500000  0.500000      1.000000
 
 Following cartesian coordinates:
            Coordinates               Weight
  0.000000  0.000000  0.000000      1.000000
  0.041344  0.000000  0.000000      1.000000
  0.000000  0.041344  0.000000      1.000000
  0.041344  0.041344  0.000000      1.000000
  0.000000  0.000000  0.041344      1.000000
  0.041344  0.000000  0.041344      1.000000
  0.000000  0.041344  0.041344      1.000000
  0.041344  0.041344  0.041344      1.000000
 


--------------------------------------------------------------------------------------------------------




 Dimension of arrays:
   k-points           NKPTS =      8   k-points in BZ     NKDIM =      8   number of bands    NBANDS=    520
   number of dos      NEDOS =    301   number of ions     NIONS =    135
   non local maximal  LDIM  =      6   non local SUM 2l+1 LMDIM =     18
   total plane-waves  NPLWV = 941192
   max r-space proj   IRMAX =   7140   max aug-charges    IRDMAX= 203274
   dimension x,y,z NGX =    98 NGY =   98 NGZ =   98
   dimension x,y,z NGXF=   196 NGYF=  196 NGZF=  196
   support grid    NGXF=   392 NGYF=  392 NGZF=  392
   ions per type =              27  27  81
   NGX,Y,Z   is equivalent  to a cutoff of  13.47, 13.47, 13.47 a.u.
   NGXF,Y,Z  is equivalent  to a cutoff of  26.94, 26.94, 26.94 a.u.

 SYSTEM =  unknown system                          
 POSCAR =  Ca Si  O                                

 Startparameter for this run:
   NWRITE =      2    write-flag & timer
   PREC   = a         normal or accurate (medium, high low for compatibility)
   ISTART =      0    job   : 0-new  1-cont  2-samecut
   ICHARG =      2    charge: 1-file 2-atom 10-const
   ISPIN  =      1    spin polarized calculation?
   LNONCOLLINEAR =      F non collinear calculations
   LSORBIT =      F    spin-orbit coupling
   INIWAV =      1    electr: 0-lowe 1-rand  2-diag
   LASPH  =      F    aspherical Exc in radial PAW
   METAGGA=      F    non-selfconsistent MetaGGA calc.

 Electronic Relaxation 1
   ENCUT  =  600.0 eV  44.10 Ry    6.64 a.u.  24.15 24.15 24.15*2*pi/ulx,y,z
   ENINI  =  600.0     initial cutoff
   ENAUG  =  605.4 eV  augmentation charge cutoff
   NELM   =     60;   NELMIN=  2; NELMDL= -5     # of ELM steps 
   EDIFF  = 0.1E-05   stopping-criterion for ELM
   LREAL  =      T    real-space projection
   NLSPLINE    = F    spline interpolate recip. space projectors
   LCOMPAT=      F    compatible to vasp.4.4
   GGA_COMPAT  = T    GGA compatible to vasp.4.4-vasp.4.6
   LMAXPAW     = -100 max onsite density
   LMAXMIX     =    2 max onsite mixed and CHGCAR
   VOSKOWN=      0    Vosko Wilk Nusair interpolation
   ROPT   =   -0.00025  -0.00025  -0.00025
 Ionic relaxation
   EDIFFG = -.1E-01   stopping-criterion for IOM
   NSW    =      1    number of steps for IOM
   NBLOCK =      1;   KBLOCK =      1    inner block; outer block 
   IBRION =     -1    ionic relax: 0-MD 1-quasi-New 2-CG
   NFREE  =      0    steps in history (QN), initial steepest desc. (CG)
   ISIF   =      2    stress and relaxation
   IWAVPR =     10    prediction:  0-non 1-charg 2-wave 3-comb
   ISYM   =      0    0-nonsym 1-usesym 2-fastsym
   LCORR  =      T    Harris-Foulkes like correction to forces

   POTIM  = 1.0000    time-step for ionic-motion
   TEIN   =    0.0    initial temperature
   TEBEG  =    0.0;   TEEND  =   0.0 temperature during run
   SMASS  =  -3.00    Nose mass-parameter (am)
   estimated Nose-frequenzy (Omega)   =  0.10E-29 period in steps =****** mass=  -0.334E-26a.u.
   SCALEE = 1.0000    scale energy and forces
   NPACO  =    256;   APACO  = 16.0  distance and # of slots for P.C.
   PSTRESS=    0.0 pullay stress

  Mass of Ions in am
   POMASS =  40.08 28.09 16.00
  Ionic Valenz
   ZVAL   =  10.00  4.00  6.00
  Atomic Wigner-Seitz radii
   RWIGS  =  -1.00 -1.00 -1.00
  virtual crystal weights 
   VCA    =   1.00  1.00  1.00
   NELECT =     864.0000    total number of electrons
   NUPDOWN=      -1.0000    fix difference up-down

 DOS related values:
   EMIN   =  10.00;   EMAX   =-10.00  energy-range for DOS
   EFERMI =   0.00
   ISMEAR =     0;   SIGMA  =   0.05  broadening in eV -4-tet -1-fermi 0-gaus

 Electronic relaxation 2 (details)
   IALGO  =     38    algorithm
   LDIAG  =      T    sub-space diagonalisation (order eigenvalues)
   LSUBROT=      F    optimize rotation matrix (better conditioning)
   TURBO    =      0    0=normal 1=particle mesh
   IRESTART =      0    0=no restart 2=restart with 2 vectors
   NREBOOT  =      0    no. of reboots
   NMIN     =      0    reboot dimension
   EREF     =   0.00    reference energy to select bands
   IMIX   =      4    mixing-type and parameters
     AMIX     =   0.40;   BMIX     =  1.00
     AMIX_MAG =   1.60;   BMIX_MAG =  1.00
     AMIN     =   0.10
     WC   =   100.;   INIMIX=   1;  MIXPRE=   1;  MAXMIX= -45

 Intra band minimization:
   WEIMIN = 0.0000     energy-eigenvalue tresh-hold
   EBREAK =  0.48E-09  absolut break condition
   DEPER  =   0.30     relativ break condition  

   TIME   =   0.40     timestep for ELM

  volume/ion in A,a.u.               =      13.10        88.42
  Fermi-wavevector in a.u.,A,eV,Ry     =   1.289289  2.436404 22.616517  1.662267
  Thomas-Fermi vector in A             =   2.421191
 
 Write flags
   LWAVE        =      F    write WAVECAR
   LDOWNSAMPLE  =      F    k-point downsampling of WAVECAR
   LCHARG       =      F    write CHGCAR
   LVTOT        =      F    write LOCPOT, total local potential
   LVHAR        =      F    write LOCPOT, Hartree potential only
   LELF         =      F    write electronic localiz. function (ELF)
   LORBIT       =      0    0 simple, 1 ext, 2 COOP (PROOUT), +10 PAW based schemes


 Dipole corrections
   LMONO  =      F    monopole corrections only (constant potential shift)
   LDIPOL =      F    correct potential (dipole corrections)
   IDIPOL =      0    1-x, 2-y, 3-z, 4-all directions 
   EPSILON=  1.0000000 bulk dielectric constant

 Exchange correlation treatment:
   GGA     =    --    GGA type
   LEXCH   =     8    internal setting for exchange type
   VOSKOWN=      0    Vosko Wilk Nusair interpolation
   LHFCALC =     F    Hartree Fock is set to
   LHFONE  =     F    Hartree Fock one center treatment
   AEXX    =    0.0000 exact exchange contribution

 Linear response parameters
   LEPSILON=     F    determine dielectric tensor
   LRPA    =     F    only Hartree local field effects (RPA)
   LNABLA  =     F    use nabla operator in PAW spheres
   LVEL    =     F    velocity operator in full k-point grid
   LINTERFAST=   F  fast interpolation
   KINTER  =     0    interpolate to denser k-point grid
   CSHIFT  =0.1000    complex shift for real part using Kramers Kronig
   OMEGAMAX=  -1.0    maximum frequency
   DEG_THRESHOLD= 0.2000000E-02 threshold for treating states as degnerate
   RTIME   =   -0.100 relaxation time in fs
  (WPLASMAI=    0.000 imaginary part of plasma frequency in eV, 0.658/RTIME)
   DFIELD  = 0.0000000 0.0000000 0.0000000 field for delta impulse in time
 
 Orbital magnetization related:
   ORBITALMAG=     F  switch on orbital magnetization
   LCHIMAG   =     F  perturbation theory with respect to B field
   DQ        =  0.001000  dq finite difference perturbation B field
   LLRAUG    =     F  two centre corrections for induced B field



--------------------------------------------------------------------------------------------------------


 Static calculation
 charge density and potential will be updated during run
 non-spin polarized calculation
 Variant of blocked Davidson
 Davidson routine will perform the subspace rotation
 perform sub-space diagonalisation
    after iterative eigenvector-optimisation
 modified Broyden-mixing scheme, WC =      100.0
 initial mixing is a Kerker type mixing with AMIX =  0.4000 and BMIX =      1.0000
 Hartree-type preconditioning will be used
 using additional bands           88
 real space projection scheme for non local part
 use partial core corrections
 calculate Harris-corrections to forces 
   (improved forces if not selfconsistent)
 use gradient corrections 
 use of overlap-Matrix (Vanderbilt PP)
 Gauss-broadening in eV      SIGMA  =   0.05


--------------------------------------------------------------------------------------------------------


  energy-cutoff  :      600.00
  volume of cell :     1768.83
      direct lattice vectors                 reciprocal lattice vectors
    12.093787620  0.000000000  0.000000000     0.082687081  0.000000000  0.000000000
     0.000000000 12.093787620  0.000000000     0.000000000  0.082687081  0.000000000
     0.000000000  0.000000000 12.093787620     0.000000000  0.000000000  0.082687081

  length of vectors
    12.093787620 12.093787620 12.093787620     0.082687081  0.082687081  0.082687081


 
 k-points in units of 2pi/SCALE and weight: read from INCAR                         
   0.00000000  0.00000000  0.00000000       0.125
   0.04134354  0.00000000  0.00000000       0.125
   0.00000000  0.04134354  0.00000000       0.125
   0.04134354  0.04134354  0.00000000       0.125
   0.00000000  0.00000000  0.04134354       0.125
   0.04134354  0.00000000  0.04134354       0.125
   0.00000000  0.04134354  0.04134354       0.125
   0.04134354  0.04134354  0.04134354       0.125
 
 k-points in reciprocal lattice and weights: read from INCAR                         
   0.00000000  0.00000000  0.00000000       0.125
   0.50000000  0.00000000  0.00000000       0.125
   0.00000000  0.50000000  0.00000000       0.125
   0.50000000  0.50000000  0.00000000       0.125
   0.00000000  0.00000000  0.50000000       0.125
   0.50000000  0.00000000  0.50000000       0.125
   0.00000000  0.50000000  0.50000000       0.125
   0.50000000  0.50000000  0.50000000       0.125
 
 position of ions in fractional coordinates (direct lattice) 
   0.09609178  0.52204854  0.05554769
   0.32406138  0.57246281  0.17230536
   0.27285128  0.83648635  0.00722584
   0.05623787  0.61307406  0.66104646
   0.30843668  0.60583869  0.48671478
   0.90103507  0.56964973  0.92009639
   0.07490477  0.20287055  0.11550767
   0.77975613  0.77779131  0.14139513
   0.90635922  0.78352175  0.45442919
   0.21876316  0.60470001  0.84370356
   0.93877954  0.93671297  0.99084021
   0.56243723  0.51107799  0.94800876
   0.29085529  0.10016440  0.06557434
   0.24810772  0.34494431  0.37729656
   0.83619486  0.03543659  0.54888761
   0.53895016  0.40094012  0.40019282
   0.47960266  0.88054400  0.72782558
   0.56646800  0.64467655  0.32006761
   0.59305541  0.10972754  0.47103579
   0.71116081  0.16844952  0.28515335
   0.09634035  0.71380902  0.22051078
   0.74733176  0.70871194  0.77879132
   0.84393855  0.21643421  0.89398478
   0.54096733  0.34339832  0.74542231
   0.29255183  0.86281423  0.53332305
   0.10563756  0.12410700  0.72843841
   0.12813520  0.99494408  0.28543872
   0.53360259  0.96663407  0.10034471
   0.95158437  0.85080937  0.74634969
   0.37917203  0.13931634  0.59282916
   0.64902447  0.87928293  0.30915737
   0.04437527  0.37507325  0.79651353
   0.05161289  0.93037812  0.52080365
   0.66647331  0.38388325  0.11715328
   0.38035077  0.13586262  0.83069922
   0.64623931  0.76538058  0.52752197
   0.11005358  0.46579515  0.34815635
   0.74831976  0.54517713  0.57471884
   0.39054199  0.09950647  0.34496101
   0.19696600  0.84918485  0.76802310
   0.41279040  0.51201290  0.69878546
   0.33117008  0.37928048  0.93926682
   0.85370116  0.35119037  0.13059749
   0.88304174  0.00548491  0.25927558
   0.47996004  0.68873969  0.85141791
   0.53471070  0.72044637  0.06946281
   0.94264084  0.22153815  0.36241657
   0.85386685  0.38797353  0.70704951
   0.36107307  0.83346181  0.29240333
   0.90983268  0.57116507  0.19950332
   0.50547691  0.20846981  0.14763845
   0.72153930  0.33503529  0.53455257
   0.08302666  0.37834422  0.58731361
   0.60781007  0.10246066  0.89150588
   0.14876357  0.87295212  0.46531093
   0.51019103  0.74896519  0.50788721
   0.71724546  0.01627537  0.37681090
   0.77084732  0.28448823  0.70058909
   0.49851054  0.12827469  0.25775135
   0.10465125  0.03165874  0.04161627
   0.64719679  0.62101998  0.55572791
   0.93918473  0.97472835  0.46288267
   0.87788631  0.11048394  0.35596837
   0.78812176  0.03215964  0.17000904
   0.60788572  0.26969397  0.22525604
   0.66034677  0.84539629  0.65204335
   0.38142647  0.80366123  0.84496925
   0.31795934  0.73349971  0.35068209
   0.05776764  0.92591163  0.80926839
   0.17198432  0.76799253  0.87382569
   0.68469267  0.98896148  0.97498423
   0.28323054  0.07058576  0.87682357
   0.57819253  0.84803380  0.06610891
   0.19878528  0.63225126  0.10844743
   0.18242227  0.41359099  0.22239311
   0.32640963  0.07089864  0.48232876
   0.78572184  0.61767412  0.25042666
   0.08366845  0.05228350  0.57550392
   0.94382182  0.67904904  0.12661215
   0.73104794  0.24905371  0.44616164
   0.87169138  0.65014670  0.54866543
   0.40119554  0.98240400  0.08386612
   0.94516080  0.21820662  0.49409615
   0.44204290  0.25252515  0.53697541
   0.01506858  0.23981302  0.82507170
   0.98146865  0.42288328  0.63244778
   0.18947571  0.41094410  0.87287052
   0.79818303  0.42590387  0.50792485
   0.20005967  0.75145031  0.63643398
   0.03253498  0.52451870  0.80112959
   0.07026373  0.39124482  0.45726854
   0.54005358  0.54600839  0.77573437
   0.71991954  0.80250300  0.40938353
   0.38616607  0.96792281  0.35284222
   0.67118183  0.19377836  0.85316936
   0.46288271  0.04306280  0.61332073
   0.36146211  0.63053362  0.74204481
   0.34071642  0.18827137  0.71225586
   0.87548464  0.37834973  0.83806881
   0.45356642  0.70176647  0.19532489
   0.50857258  0.81982573  0.32982487
   0.59942951  0.34324533  0.55407429
   0.65108509  0.69490380  0.06646968
   0.30216681  0.83885201  0.18619137
   0.67707311  0.89716657  0.16765566
   0.43541730  0.64703927  0.96356918
   0.75153095  0.28108537  0.11795731
   0.89619868  0.49222043  0.08931028
   0.36963310  0.23998248  0.93156610
   0.50934128  0.10817855  0.81321646
   0.14760251  0.58115654  0.38158613
   0.01544901  0.52036482  0.26608279
   0.32221643  0.47095625  0.01331822
   0.60990939  0.75852165  0.87933203
   0.94497720  0.05140668  0.14833136
   0.28713283  0.16291866  0.31197984
   0.95874782  0.90521143  0.27915312
   0.08899885  0.90295377  0.07937290
   0.30065085  0.91948771  0.70110085
   0.48811247  0.30690275  0.06050332
   0.37053100  0.51157166  0.35769109
   0.80227888  0.52192300  0.71005928
   0.87215335  0.32191094  0.27754477
   0.39210144  0.43889909  0.81876853
   0.99661499  0.84069747  0.61321197
   0.53407285  0.10264969  0.02678615
   0.69044002  0.44675532  0.99380561
   0.05842014  0.14881286  0.29478442
   0.94524649  0.71216936  0.78376090
   0.19418502  0.53072090  0.61412528
   0.42761857  0.51113341  0.57966890
   0.13663140  0.32736884  0.69882514
   0.85427793  0.90778344  0.82089992
   0.91879077  0.29005988  0.04777508
   0.55028647  0.50941841  0.19196064
 
 position of ions in cartesian coordinates  (Angst):
   1.16211355  6.31354422  0.67178201
   3.91912952  6.92324364  2.08382437
   3.29980541 10.11628825  0.08738780
   0.68012888  7.41438747  7.99455551
   3.73016770  7.32688445  5.88622513
  10.89692682  6.88922285 11.12745036
   0.90588234  2.45347339  1.39692525
   9.43020501  9.40644292  1.71000269
  10.96131590  9.47574569  5.49577011
   2.64567518  7.31311351 10.20357172
  11.35340032 11.32840766 11.98301101
   6.80199642  6.18086871 11.46501660
   3.51754213  1.21136694  0.79304214
   3.00056207  4.17168328  4.56294450
  10.11276302  0.42856256  6.63813016
   6.51794875  4.84888469  4.83984702
   5.80021269 10.64911216  8.80216798
   6.85074372  7.79658122  3.87082967
   7.17228621  1.32702157  5.69660676
   8.60062785  2.03719278  3.44858407
   1.16511978  8.63265472  2.66681060
   9.03807158  8.57101169  9.41853678
  10.20641360  2.61750931 10.81166204
   6.54234401  4.15298638  9.01497910
   3.53805966 10.43469211  6.44989568
   1.27755819  1.50092366  8.80957938
   1.54963992 12.03264235  3.45203522
   6.45327639 11.69026719  1.21354761
  11.50825925 10.28950788  9.02619465
   4.58562600  1.68486222  7.16954993
   7.84916405 10.63386101  3.73888354
   0.53666506  4.53605627  9.63286552
   0.62419539 11.25179544  6.29848877
   8.06018668  4.64260244  1.41682684
   4.59988140  1.64309371 10.04629999
   7.81548094  9.25635024  6.37973871
   1.33096465  5.63322758  4.21052896
   9.05002026  6.59325645  6.95052757
   4.72313184  1.20341017  4.17188514
   2.38206497 10.26986122  9.28830820
   4.99219946  6.19217530  8.45096293
   4.00510067  4.58693756 11.35929339
  10.32448047  4.24722179  1.57941826
  10.67931932  0.06633337  3.13562385
   5.80453474  8.32947158 10.29686741
   6.46667767  8.71292541  0.84006847
  11.40009816  2.67923536  4.38298901
  10.32648438  4.69206942  8.55090660
   4.36674100 10.07971008  3.53626374
  11.00332324  6.90754902  2.41275084
   6.11313037  2.52118966  1.78550804
   8.72614304  4.05184563  6.46476525
   1.00410681  4.57561464  7.10284610
   7.35072586  1.23913749 10.78168272
   1.79911507 10.55729753  5.62737161
   6.17014196  9.05782594  6.14228007
   8.67421422  0.19683092  4.55707102
   9.32246375  3.44054029  8.47277563
   6.02888056  1.55132680  3.11719004
   1.26563000  0.38287405  0.50329832
   7.82706057  7.51048376  6.72085532
  11.35830064 11.78815769  5.59800476
  10.61697057  1.33616935  4.30500591
   9.53137719  0.38893180  2.05605322
   7.35164074  3.26162157  2.72419870
   7.98609354 10.22404314  7.88567384
   4.61289072  9.71930826 10.21887863
   3.84533273  8.87078973  4.24107469
   0.69862954 11.19777864  9.78712006
   2.07994178  9.28793853 10.56786236
   8.28052778 11.96029009 11.79125222
   3.42532996  0.85364913 10.60411802
   6.99253762 10.25594069  0.79950710
   2.40406698  7.64631249  1.31154017
   2.20617620  5.00188161  2.68957502
   3.94752879  0.85743312  5.83318155
   9.50235308  7.47001959  3.02860681
   1.01186851  0.63230554  6.96002217
  11.41438069  8.21227483  1.53122045
   8.84113854  3.01200266  5.39578412
  10.54205041  7.86273617  6.63544314
   4.85197362 11.88098539  1.01425908
  11.43057393  2.63894452  5.97549392
   5.34597300  3.05398558  6.49406662
   0.18223625  2.90024768  9.97824186
  11.86967343  5.11426058  7.64868910
   2.29147903  4.96987067 10.55631071
   9.65305606  5.15079096  6.14273521
   2.41947918  9.08788046  7.69689734
   0.39347109  6.34341778  9.68869106
   0.84975461  4.73163177  5.53010866
   6.53129334  6.60330952  9.38156670
   8.70655404  9.70530081  4.95099752
   4.67021040 11.70585291  4.26719888
   8.11713051  2.34351432 10.31804908
   5.59800513  0.52079238  7.41737070
   4.37144598  7.62553972  8.97413230
   4.12055207  2.27691401  8.61387115
  10.58792531  4.57568130 10.13542617
   5.48533591  8.48701467  2.36221777
   6.15056874  9.91479822  3.98883191
   7.24937321  4.15113612  6.70085675
   7.87408485  8.40401895  0.80387024
   3.65434118 10.14489803  2.25175887
   8.18837840 10.85014193  2.02759189
   5.26584439  7.82515548 11.65320099
   9.08885571  3.39938678  1.42655069
  10.83843649  5.95280933  1.08009956
   4.47026422  2.90229714 11.26616255
   6.15986524  1.30828839  9.83486710
   1.78507344  7.02838372  4.61482156
   0.18683710  6.29318156  3.21794876
   3.89681707  5.69564482  0.16106769
   7.37611462  9.17339980 10.63445476
  11.42835356  0.62170145  1.79388792
   3.47252342  1.97030362  3.77301792
  11.59489252 10.94743482  3.37601849
   1.07633317 10.92013108  0.95991896
   3.63600752 11.12008910  8.47896484
   5.90312856  3.71161673  0.73171428
   4.48112321  6.18683902  4.32584007
   9.70259034  6.31202587  8.58730615
  10.54763736  3.89312254  3.35656749
   4.74199158  5.30795233  9.90201274
  12.05285007 10.16721670  7.41605531
   6.45896357  1.24142360  0.32394601
   8.35003501  5.40296394 12.01887401
   0.70652074  1.79971114  3.56506022
  11.43161027  8.61282500  9.47863784
   2.34843243  6.41842579  7.42710066
   5.17152812  6.18153889  7.01039255
   1.65239109  3.95912927  8.45144288
  10.33145590 10.97854013  9.92778933
  11.11166050  3.50792257  0.57778169
   6.65504769  6.16079809  2.32153122
 


--------------------------------------------------------------------------------------------------------


 k-point  1 :   0.0000 0.0000 0.0000  plane waves:   58893
 k-point  2 :   0.5000 0.0000 0.0000  plane waves:   59080
 k-point  3 :   0.0000 0.5000 0.0000  plane waves:   59080
 k-point  4 :   0.5000 0.5000 0.0000  plane waves:   58996
 k-point  5 :   0.0000 0.0000 0.5000  plane waves:   59080
 k-point  6 :   0.5000 0.0000 0.5000  plane waves:   58996
 k-point  7 :   0.0000 0.5000 0.5000  plane waves:   58996
 k-point  8 :   0.5000 0.5000 0.5000  plane waves:   59152

 maximum and minimum number of plane-waves per node :      4596     4500

 maximum number of plane-waves:     59152
 maximum index in each direction: 
   IXMAX=   24   IYMAX=   24   IZMAX=   24
   IXMIN=  -24   IYMIN=  -24   IZMIN=  -24


 real space projection operators:
  total allocation   :      48972.84 KBytes
  max/ min on nodes  :       4016.52       3548.77


 parallel 3D FFT for wavefunctions:
    minimum data exchange during FFTs selected (reduces bandwidth)
 parallel 3D FFT for charge:
    minimum data exchange during FFTs selected (reduces bandwidth)


 total amount of memory used by VASP MPI-rank0   166809. kBytes
=======================================================================

   base      :      30000. kBytes
   nonlr-proj:      21320. kBytes
   fftplans  :      24448. kBytes
   grid      :      12995. kBytes
   one-center:        171. kBytes
   wavefun   :      77875. kBytes
 
     INWAV:  cpu time    0.0001: real time    0.0000
 Broyden mixing: mesh for mixing (old mesh)
   NGX = 49   NGY = 49   NGZ = 49
  (NGX  =196   NGY  =196   NGZ  =196)
  gives a total of 117649 points

 initial charge density was supplied:
 charge density of overlapping atoms calculated
 number of electron     864.0000000 magnetization 
 keeping initial charge density in first step


--------------------------------------------------------------------------------------------------------


 Maximum index for non-local projection operator          756
 Maximum index for augmentation-charges         6333 (set IRDMAX)


--------------------------------------------------------------------------------------------------------


 First call to EWALD:  gamma=   0.147
 Maximum number of real-space cells 3x 3x 3
 Maximum number of reciprocal cells 3x 3x 3

    FEWALD:  cpu time    0.0071: real time    0.0090


--------------------------------------- Iteration      1(   1)  ---------------------------------------


    POTLOK:  cpu time    0.1410: real time    0.1484
    SETDIJ:  cpu time    0.3352: real time    0.3353
     EDDAV:  cpu time   36.4194: real time   36.4206
       DOS:  cpu time    0.0029: real time    0.0028
    --------------------------------------------
      LOOP:  cpu time   36.8984: real time   36.9072

 eigenvalue-minimisations  :  8320
 total energy-change (2. order) : 0.9594315E+04  (-0.4782940E+05)
 number of electron     864.0000000 magnetization 
 augmentation part      864.0000000 magnetization 

 Free energy of the ion-electron system (eV)
  ---------------------------------------------------
  alpha Z        PSCENC =      2701.53174423
  Ewald energy   TEWEN  =    -44501.86479573
  -Hartree energ DENC   =    -18863.53908754
  -exchange      EXHF   =         0.00000000
  -V(xc)+E(xc)   XCENC  =      3172.00649824
  PAW double counting   =     50594.51003143   -49994.65612350
  entropy T*S    EENTRO =        -0.04612180
  eigenvalues    EBANDS =      1517.83309027
  atomic energy  EATOM  =     64968.54023382
  Solvation  Ediel_sol  =         0.00000000
  ---------------------------------------------------
  free energy    TOTEN  =      9594.31546943 eV

  energy without entropy =     9594.36159122  energy(sigma->0) =     9594.33853032


--------------------------------------------------------------------------------------------------------




--------------------------------------- Iteration      1(   2)  ---------------------------------------


     EDDAV:  cpu time   41.8602: real time   41.8762
       DOS:  cpu time    0.0026: real time    0.0026
    --------------------------------------------
      LOOP:  cpu time   41.8629: real time   41.8789

 eigenvalue-minimisations  :  9888
 total energy-change (2. order) :-0.9503111E+04  (-0.9198376E+04)
 number of electron     864.0000000 magnetization 
 augmentation part      864.0000000 magnetization 

 Free energy of the ion-electron system (eV)
  ---------------------------------------------------
  alpha Z        PSCENC =      2701.53174423
  Ewald energy   TEWEN  =    -44501.86479573
  -Hartree energ DENC   =    -18863.53908754
  -exchange      EXHF   =         0.00000000
  -V(xc)+E(xc)   XCENC  =      3172.00649824
  PAW double counting   =     50594.51003143   -49994.65612350
  entropy T*S    EENTRO =        -0.00468570
  eigenvalues    EBANDS =     -7985.31937014
  atomic energy  EATOM  =     64968.54023382
  Solvation  Ediel_sol  =         0.00000000
  ---------------------------------------------------
  free energy    TOTEN  =        91.20444511 eV

  energy without entropy =       91.20913081  energy(sigma->0) =       91.20678796


--------------------------------------------------------------------------------------------------------




--------------------------------------- Iteration      1(   3)  ---------------------------------------


     EDDAV:  cpu time   42.9360: real time   42.9386
       DOS:  cpu time    0.0017: real time    0.0017
    --------------------------------------------
      LOOP:  cpu time   42.9377: real time   42.9403

 eigenvalue-minimisations  : 10320
 total energy-change (2. order) :-0.1063463E+04  (-0.1053616E+04)
 number of electron     864.0000000 magnetization 
 augmentation part      864.0000000 magnetization 

 Free energy of the ion-electron system (eV)
  ---------------------------------------------------
  alpha Z        PSCENC =      2701.53174423
  Ewald energy   TEWEN  =    -44501.86479573
  -Hartree energ DENC   =    -18863.53908754
  -exchange      EXHF   =         0.00000000
  -V(xc)+E(xc)   XCENC  =      3172.00649824
  PAW double counting   =     50594.51003143   -49994.65612350
  entropy T*S    EENTRO =        -0.00000083
  eigenvalues    EBANDS =     -9048.78704050
  atomic energy  EATOM  =     64968.54023382
  Solvation  Ediel_sol  =         0.00000000
  ---------------------------------------------------
  free energy    TOTEN  =      -972.25854038 eV

  energy without entropy =     -972.25853955  energy(sigma->0) =     -972.25853996


--------------------------------------------------------------------------------------------------------




--------------------------------------- Iteration      1(   4)  ---------------------------------------


     EDDAV:  cpu time   46.0541: real time   46.0672
       DOS:  cpu time    0.0017: real time    0.0017
    --------------------------------------------
      LOOP:  cpu time   46.0558: real time   46.0689

 eigenvalue-minimisations  : 11272
 total energy-change (2. order) :-0.5297773E+02  (-0.5274777E+02)
 number of electron     864.0000000 magnetization 
 augmentation part      864.0000000 magnetization 

 Free energy of the ion-electron system (eV)
  ---------------------------------------------------
  alpha Z        PSCENC =      2701.53174423
  Ewald energy   TEWEN  =    -44501.86479573
  -Hartree energ DENC   =    -18863.53908754
  -exchange      EXHF   =         0.00000000
  -V(xc)+E(xc)   XCENC  =      3172.00649824
  PAW double counting   =     50594.51003143   -49994.65612350
  entropy T*S    EENTRO =        -0.00000006
  eigenvalues    EBANDS =     -9101.76477528
  atomic energy  EATOM  =     64968.54023382
  Solvation  Ediel_sol  =         0.00000000
  ---------------------------------------------------
  free energy    TOTEN  =     -1025.23627439 eV

  energy without entropy =    -1025.23627433  energy(sigma->0) =    -1025.23627436


--------------------------------------------------------------------------------------------------------




--------------------------------------- Iteration      1(   5)  ---------------------------------------


     EDDAV:  cpu time   56.6421: real time   56.6444
       DOS:  cpu time    0.0019: real time    0.0019
    CHARGE:  cpu time    1.4034: real time    1.4033
    MIXING:  cpu time    0.0076: real time    0.0079
    --------------------------------------------
      LOOP:  cpu time   58.0551: real time   58.0575

 eigenvalue-minimisations  : 14632
 total energy-change (2. order) :-0.5776276E+01  (-0.5772894E+01)
 number of electron     864.0000007 magnetization 
 augmentation part      133.9229531 magnetization 

 Broyden mixing:
  rms(total) = 0.88233E+01    rms(broyden)= 0.88226E+01
  rms(prec ) = 0.10602E+02
  weight for this iteration     100.00

 Free energy of the ion-electron system (eV)
  ---------------------------------------------------
  alpha Z        PSCENC =      2701.53174423
  Ewald energy   TEWEN  =    -44501.86479573
  -Hartree energ DENC   =    -18863.53908754
  -exchange      EXHF   =         0.00000000
  -V(xc)+E(xc)   XCENC  =      3172.00649824
  PAW double counting   =     50594.51003143   -49994.65612350
  entropy T*S    EENTRO =        -0.00000007
  eigenvalues    EBANDS =     -9107.54105120
  atomic energy  EATOM  =     64968.54023382
  Solvation  Ediel_sol  =         0.00000000
  ---------------------------------------------------
  free energy    TOTEN  =     -1031.01255032 eV

  energy without entropy =    -1031.01255025  energy(sigma->0) =    -1031.01255028


--------------------------------------------------------------------------------------------------------




--------------------------------------- Iteration      1(   6)  ---------------------------------------


    POTLOK:  cpu time    0.1277: real time    0.1418
    SETDIJ:  cpu time    0.3339: real time    0.3339
     EDDAV:  cpu time   41.5583: real time   41.5574
       DOS:  cpu time    0.0026: real time    0.0026
    CHARGE:  cpu time    1.4116: real time    1.4116
    MIXING:  cpu time    0.0059: real time    0.0059
    --------------------------------------------
      LOOP:  cpu time   43.4401: real time   43.4532

 eigenvalue-minimisations  :  9968
 total energy-change (2. order) : 0.1525488E+03  (-0.7861983E+02)
 number of electron     864.0000006 magnetization 
 augmentation part      118.0197422 magnetization 

 Broyden mixing:
  rms(total) = 0.45523E+01    rms(broyden)= 0.45511E+01
  rms(prec ) = 0.55720E+01
  weight for this iteration     100.00

 eigenvalues of (default mixing * dielectric matrix)
  average eigenvalue GAMMA=   0.8744
  0.8744

 Free energy of the ion-electron system (eV)
  ---------------------------------------------------
  alpha Z        PSCENC =      2701.53174423
  Ewald energy   TEWEN  =    -44501.86479573
  -Hartree energ DENC   =    -20360.26254390
  -exchange      EXHF   =         0.00000000
  -V(xc)+E(xc)   XCENC  =      3267.05921457
  PAW double counting   =     65821.15538581   -65361.91685438
  entropy T*S    EENTRO =        -0.02761592
  eigenvalues    EBANDS =     -7412.67854888
  atomic energy  EATOM  =     64968.54023382
  Solvation  Ediel_sol  =         0.00000000
  ---------------------------------------------------
  free energy    TOTEN  =      -878.46378037 eV

  energy without entropy =     -878.43616446  energy(sigma->0) =     -878.44997242


--------------------------------------------------------------------------------------------------------




--------------------------------------- Iteration      1(   7)  ---------------------------------------


    POTLOK:  cpu time    0.1244: real time    0.1279
    SETDIJ:  cpu time    0.3331: real time    0.3331
     EDDAV:  cpu time   44.2440: real time   44.2450
       DOS:  cpu time    0.0014: real time    0.0014
    CHARGE:  cpu time    1.3912: real time    1.3912
    MIXING:  cpu time    0.0052: real time    0.0052
    --------------------------------------------
      LOOP:  cpu time   46.0994: real time   46.1039

 eigenvalue-minimisations  : 10800
 total energy-change (2. order) :-0.2937613E+01  (-0.1273060E+02)
 number of electron     864.0000006 magnetization 
 augmentation part      119.2739472 magnetization 

 Broyden mixing:
  rms(total) = 0.29034E+01    rms(broyden)= 0.29029E+01
  rms(prec ) = 0.36858E+01
  weight for this iteration     100.00

 eigenvalues of (default mixing * dielectric matrix)
  average eigenvalue GAMMA=   0.8291
  1.0476  0.6107

 Free energy of the ion-electron system (eV)
  ---------------------------------------------------
  alpha Z        PSCENC =      2701.53174423
  Ewald energy   TEWEN  =    -44501.86479573
  -Hartree energ DENC   =    -20342.61806705
  -exchange      EXHF   =         0.00000000
  -V(xc)+E(xc)   XCENC  =      3264.68990887
  PAW double counting   =     76226.59166955   -75807.16485864
  entropy T*S    EENTRO =        -0.00000000
  eigenvalues    EBANDS =     -7391.10722861
  atomic energy  EATOM  =     64968.54023382
  Solvation  Ediel_sol  =         0.00000000
  ---------------------------------------------------
  free energy    TOTEN  =      -881.40139356 eV

  energy without entropy =     -881.40139356  energy(sigma->0) =     -881.40139356


--------------------------------------------------------------------------------------------------------




--------------------------------------- Iteration      1(   8)  ---------------------------------------


    POTLOK:  cpu time    0.1264: real time    0.1402
    SETDIJ:  cpu time    0.3347: real time    0.3347
     EDDAV:  cpu time   49.6884: real time   49.6891
       DOS:  cpu time    0.0023: real time    0.0023
    CHARGE:  cpu time    1.4112: real time    1.4111
    MIXING:  cpu time    0.0063: real time    0.0063
    --------------------------------------------
      LOOP:  cpu time   51.5691: real time   51.5836

 eigenvalue-minimisations  : 12504
 total energy-change (2. order) : 0.1282787E+02  (-0.4118753E+01)
 number of electron     864.0000006 magnetization 
 augmentation part      117.8945950 magnetization 

 Broyden mixing:
  rms(total) = 0.16438E+01    rms(broyden)= 0.16431E+01
  rms(prec ) = 0.18890E+01
  weight for this iteration     100.00

 eigenvalues of (default mixing * dielectric matrix)
  average eigenvalue GAMMA=   0.9512
  1.2844  1.0883  0.4809

 Free energy of the ion-electron system (eV)
  ---------------------------------------------------
  alpha Z        PSCENC =      2701.53174423
  Ewald energy   TEWEN  =    -44501.86479573
  -Hartree energ DENC   =    -20395.73395792
  -exchange      EXHF   =         0.00000000
  -V(xc)+E(xc)   XCENC  =      3266.31330154
  PAW double counting   =     82455.69800677   -82064.67825422
  entropy T*S    EENTRO =        -0.00084451
  eigenvalues    EBANDS =     -7298.37896057
  atomic energy  EATOM  =     64968.54023382
  Solvation  Ediel_sol  =         0.00000000
  ---------------------------------------------------
  free energy    TOTEN  =      -868.57352659 eV

  energy without entropy =     -868.57268208  energy(sigma->0) =     -868.57310433


--------------------------------------------------------------------------------------------------------




--------------------------------------- Iteration      1(   9)  ---------------------------------------


    POTLOK:  cpu time    0.1277: real time    0.1313
    SETDIJ:  cpu time    0.3352: real time    0.3353
     EDDAV:  cpu time   44.0625: real time   44.0617
       DOS:  cpu time    0.0024: real time    0.0024
    CHARGE:  cpu time    1.4457: real time    1.4457
    MIXING:  cpu time    0.0056: real time    0.0056
    --------------------------------------------
      LOOP:  cpu time   45.9791: real time   45.9818

 eigenvalue-minimisations  : 10752
 total energy-change (2. order) :-0.1510376E+01  (-0.1479142E+01)
 number of electron     864.0000006 magnetization 
 augmentation part      118.2082595 magnetization 

 Broyden mixing:
  rms(total) = 0.12243E+01    rms(broyden)= 0.12238E+01
  rms(prec ) = 0.16044E+01
  weight for this iteration     100.00

 eigenvalues of (default mixing * dielectric matrix)
  average eigenvalue GAMMA=   0.9332
  1.7318  0.9888  0.5060  0.5060

 Free energy of the ion-electron system (eV)
  ---------------------------------------------------
  alpha Z        PSCENC =      2701.53174423
  Ewald energy   TEWEN  =    -44501.86479573
  -Hartree energ DENC   =    -20425.98192342
  -exchange      EXHF   =         0.00000000
  -V(xc)+E(xc)   XCENC  =      3267.42752564
  PAW double counting   =     88545.10353517   -88176.61103162
  entropy T*S    EENTRO =        -0.00111439
  eigenvalues    EBANDS =     -7248.22807657
  atomic energy  EATOM  =     64968.54023382
  Solvation  Ediel_sol  =         0.00000000
  ---------------------------------------------------
  free energy    TOTEN  =      -870.08390286 eV

  energy without entropy =     -870.08278847  energy(sigma->0) =     -870.08334567


--------------------------------------------------------------------------------------------------------




--------------------------------------- Iteration      1(  10)  ---------------------------------------


    POTLOK:  cpu time    0.1091: real time    0.1233
    SETDIJ:  cpu time    0.3271: real time    0.3271
     EDDAV:  cpu time   47.3133: real time   47.3132
       DOS:  cpu time    0.0025: real time    0.0025
    CHARGE:  cpu time    1.3976: real time    1.3975
    MIXING:  cpu time    0.0061: real time    0.0061
    --------------------------------------------
      LOOP:  cpu time   49.1558: real time   49.1698

 eigenvalue-minimisations  : 11752
 total energy-change (2. order) : 0.2882045E+01  (-0.3672860E+00)
 number of electron     864.0000006 magnetization 
 augmentation part      117.7777494 magnetization 

 Broyden mixing:
  rms(total) = 0.49920E+00    rms(broyden)= 0.49894E+00
  rms(prec ) = 0.62698E+00
  weight for this iteration     100.00

 eigenvalues of (default mixing * dielectric matrix)
  average eigenvalue GAMMA=   1.0142
  2.1312  0.9318  0.8875  0.6943  0.4261

 Free energy of the ion-electron system (eV)
  ---------------------------------------------------
  alpha Z        PSCENC =      2701.53174423
  Ewald energy   TEWEN  =    -44501.86479573
  -Hartree energ DENC   =    -20468.61986126
  -exchange      EXHF   =         0.00000000
  -V(xc)+E(xc)   XCENC  =      3269.33027801
  PAW double counting   =     92072.09013338   -91716.31463734
  entropy T*S    EENTRO =        -0.02985896
  eigenvalues    EBANDS =     -7191.86509449
  atomic energy  EATOM  =     64968.54023382
  Solvation  Ediel_sol  =         0.00000000
  ---------------------------------------------------
  free energy    TOTEN  =      -867.20185833 eV

  energy without entropy =     -867.17199938  energy(sigma->0) =     -867.18692885


--------------------------------------------------------------------------------------------------------




--------------------------------------- Iteration      1(  11)  ---------------------------------------


    POTLOK:  cpu time    0.1313: real time    0.1360
    SETDIJ:  cpu time    0.3353: real time    0.3353
     EDDAV:  cpu time   41.3799: real time   41.3803
       DOS:  cpu time    0.0026: real time    0.0026
    CHARGE:  cpu time    1.4101: real time    1.4101
    MIXING:  cpu time    0.0058: real time    0.0058
    --------------------------------------------
      LOOP:  cpu time   43.2650: real time   43.2701

 eigenvalue-minimisations  :  9912
 total energy-change (2. order) :-0.1309213E+00  (-0.3018270E+00)
 number of electron     864.0000006 magnetization 
 augmentation part      117.6818457 magnetization 

 Broyden mixing:
  rms(total) = 0.51338E+00    rms(broyden)= 0.51309E+00
  rms(prec ) = 0.75743E+00
  weight for this iteration     100.00

 eigenvalues of (default mixing * dielectric matrix)
  average eigenvalue GAMMA=   0.9669
  2.2428  1.0038  1.0038  0.5447  0.5032  0.5032

 Free energy of the ion-electron system (eV)
  ---------------------------------------------------
  alpha Z        PSCENC =      2701.53174423
  Ewald energy   TEWEN  =    -44501.86479573
  -Hartree energ DENC   =    -20496.51036990
  -exchange      EXHF   =         0.00000000
  -V(xc)+E(xc)   XCENC  =      3270.70253101
  PAW double counting   =     94020.98191452   -93671.43704901
  entropy T*S    EENTRO =        -0.00484830
  eigenvalues    EBANDS =     -7159.27214031
  atomic energy  EATOM  =     64968.54023382
  Solvation  Ediel_sol  =         0.00000000
  ---------------------------------------------------
  free energy    TOTEN  =      -867.33277967 eV

  energy without entropy =     -867.32793138  energy(sigma->0) =     -867.33035552


--------------------------------------------------------------------------------------------------------




--------------------------------------- Iteration      1(  12)  ---------------------------------------


    POTLOK:  cpu time    0.1254: real time    0.1392
    SETDIJ:  cpu time    0.3341: real time    0.3341
     EDDAV:  cpu time   42.4432: real time   42.4441
       DOS:  cpu time    0.0030: real time    0.0030
    CHARGE:  cpu time    1.4093: real time    1.4092
    MIXING:  cpu time    0.0062: real time    0.0062
    --------------------------------------------
      LOOP:  cpu time   44.3211: real time   44.3357

 eigenvalue-minimisations  : 10256
 total energy-change (2. order) : 0.1249081E+00  (-0.7157577E-01)
 number of electron     864.0000006 magnetization 
 augmentation part      117.8440044 magnetization 

 Broyden mixing:
  rms(total) = 0.48404E+00    rms(broyden)= 0.48334E+00
  rms(prec ) = 0.68513E+00
  weight for this iteration     100.00

 eigenvalues of (default mixing * dielectric matrix)
  average eigenvalue GAMMA=   0.9086
  2.2885  1.0729  1.0287  0.6538  0.5324  0.3919  0.3919

 Free energy of the ion-electron system (eV)
  ---------------------------------------------------
  alpha Z        PSCENC =      2701.53174423
  Ewald energy   TEWEN  =    -44501.86479573
  -Hartree energ DENC   =    -20508.44548525
  -exchange      EXHF   =         0.00000000
  -V(xc)+E(xc)   XCENC  =      3271.36517996
  PAW double counting   =     94596.71088421   -94249.62120634
  entropy T*S    EENTRO =        -0.01339037
  eigenvalues    EBANDS =     -7145.41103616
  atomic energy  EATOM  =     64968.54023382
  Solvation  Ediel_sol  =         0.00000000
  ---------------------------------------------------
  free energy    TOTEN  =      -867.20787161 eV

  energy without entropy =     -867.19448125  energy(sigma->0) =     -867.20117643


--------------------------------------------------------------------------------------------------------




--------------------------------------- Iteration      1(  13)  ---------------------------------------


    POTLOK:  cpu time    0.1084: real time    0.1120
    SETDIJ:  cpu time    0.3284: real time    0.3284
     EDDAV:  cpu time   46.0241: real time   46.0295
       DOS:  cpu time    0.0024: real time    0.0024
    CHARGE:  cpu time    1.4265: real time    1.4265
    MIXING:  cpu time    0.0060: real time    0.0060
    --------------------------------------------
      LOOP:  cpu time   47.8958: real time   47.9049

 eigenvalue-minimisations  : 11368
 total energy-change (2. order) :-0.2857103E-01  (-0.4646981E-01)
 number of electron     864.0000006 magnetization 
 augmentation part      117.5054225 magnetization 

 Broyden mixing:
  rms(total) = 0.49404E+00    rms(broyden)= 0.49328E+00
  rms(prec ) = 0.68898E+00
  weight for this iteration     100.00

 eigenvalues of (default mixing * dielectric matrix)
  average eigenvalue GAMMA=   0.8823
  2.2970  1.3196  0.8931  0.6857  0.6857  0.5003  0.3977  0.2791

 Free energy of the ion-electron system (eV)
  ---------------------------------------------------
  alpha Z        PSCENC =      2701.53174423
  Ewald energy   TEWEN  =    -44501.86479573
  -Hartree energ DENC   =    -20514.55531002
  -exchange      EXHF   =         0.00000000
  -V(xc)+E(xc)   XCENC  =      3271.61611270
  PAW double counting   =     94646.82478368   -94299.82726605
  entropy T*S    EENTRO =        -0.00912357
  eigenvalues    EBANDS =     -7139.49282170
  atomic energy  EATOM  =     64968.54023382
  Solvation  Ediel_sol  =         0.00000000
  ---------------------------------------------------
  free energy    TOTEN  =      -867.23644264 eV

  energy without entropy =     -867.22731907  energy(sigma->0) =     -867.23188086


--------------------------------------------------------------------------------------------------------




--------------------------------------- Iteration      1(  14)  ---------------------------------------


    POTLOK:  cpu time    0.1320: real time    0.1461
    SETDIJ:  cpu time    0.3324: real time    0.3324
     EDDAV:  cpu time   47.2941: real time   47.2939
       DOS:  cpu time    0.0028: real time    0.0028
    CHARGE:  cpu time    1.3978: real time    1.3978
    MIXING:  cpu time    0.0057: real time    0.0057
    --------------------------------------------
      LOOP:  cpu time   49.1649: real time   49.1787

 eigenvalue-minimisations  : 11768
 total energy-change (2. order) : 0.1336496E+00  (-0.1407700E-01)
 number of electron     864.0000006 magnetization 
 augmentation part      117.6551287 magnetization 

 Broyden mixing:
  rms(total) = 0.86482E-01    rms(broyden)= 0.85734E-01
  rms(prec ) = 0.10669E+00
  weight for this iteration     100.00

 eigenvalues of (default mixing * dielectric matrix)
  average eigenvalue GAMMA=   0.9454
  2.2387  1.9640  0.8700  0.8700  0.8889  0.5019  0.4638  0.4638  0.2474

 Free energy of the ion-electron system (eV)
  ---------------------------------------------------
  alpha Z        PSCENC =      2701.53174423
  Ewald energy   TEWEN  =    -44501.86479573
  -Hartree energ DENC   =    -20515.70917637
  -exchange      EXHF   =         0.00000000
  -V(xc)+E(xc)   XCENC  =      3271.65803924
  PAW double counting   =     94574.53350701   -94227.26108781
  entropy T*S    EENTRO =        -0.02731179
  eigenvalues    EBANDS =     -7138.50394566
  atomic energy  EATOM  =     64968.54023382
  Solvation  Ediel_sol  =         0.00000000
  ---------------------------------------------------
  free energy    TOTEN  =      -867.10279306 eV

  energy without entropy =     -867.07548128  energy(sigma->0) =     -867.08913717


--------------------------------------------------------------------------------------------------------




--------------------------------------- Iteration      1(  15)  ---------------------------------------


    POTLOK:  cpu time    0.1264: real time    0.1299
    SETDIJ:  cpu time    0.3329: real time    0.3329
     EDDAV:  cpu time   41.5810: real time   41.5801
       DOS:  cpu time    0.0026: real time    0.0026
    CHARGE:  cpu time    1.4017: real time    1.4017
    MIXING:  cpu time    0.0063: real time    0.0063
    --------------------------------------------
      LOOP:  cpu time   43.4510: real time   43.4535

 eigenvalue-minimisations  :  9984
 total energy-change (2. order) :-0.2027368E-01  (-0.6969726E-02)
 number of electron     864.0000006 magnetization 
 augmentation part      117.6936111 magnetization 

 Broyden mixing:
  rms(total) = 0.18523E+00    rms(broyden)= 0.18507E+00
  rms(prec ) = 0.26365E+00
  weight for this iteration     100.00

 eigenvalues of (default mixing * dielectric matrix)
  average eigenvalue GAMMA=   0.9638
  2.3081  2.3081  0.8823  0.8823  0.7449  0.7449  0.6558  0.4247  0.4247  0.2622

 Free energy of the ion-electron system (eV)
  ---------------------------------------------------
  alpha Z        PSCENC =      2701.53174423
  Ewald energy   TEWEN  =    -44501.86479573
  -Hartree energ DENC   =    -20520.50811725
  -exchange      EXHF   =         0.00000000
  -V(xc)+E(xc)   XCENC  =      3271.84312437
  PAW double counting   =     94423.71298942   -94075.74268310
  entropy T*S    EENTRO =        -0.02625782
  eigenvalues    EBANDS =     -7134.60930469
  atomic energy  EATOM  =     64968.54023382
  Solvation  Ediel_sol  =         0.00000000
  ---------------------------------------------------
  free energy    TOTEN  =      -867.12306674 eV

  energy without entropy =     -867.09680892  energy(sigma->0) =     -867.10993783


--------------------------------------------------------------------------------------------------------




--------------------------------------- Iteration      1(  16)  ---------------------------------------


    POTLOK:  cpu time    0.1379: real time    0.1542
    SETDIJ:  cpu time    0.3523: real time    0.3523
     EDDAV:  cpu time   44.1113: real time   44.1111
       DOS:  cpu time    0.0026: real time    0.0026
    CHARGE:  cpu time    1.4532: real time    1.4532
    MIXING:  cpu time    0.0066: real time    0.0066
    --------------------------------------------
      LOOP:  cpu time   46.0638: real time   46.0800

 eigenvalue-minimisations  : 10752
 total energy-change (2. order) : 0.5635902E-02  (-0.2496833E-02)
 number of electron     864.0000006 magnetization 
 augmentation part      117.6084391 magnetization 

 Broyden mixing:
  rms(total) = 0.10039E+00    rms(broyden)= 0.10005E+00
  rms(prec ) = 0.14416E+00
  weight for this iteration     100.00

 eigenvalues of (default mixing * dielectric matrix)
  average eigenvalue GAMMA=   0.9795
  2.4559  2.3565  0.8853  0.8853  0.9288  0.9288  0.6096  0.6096  0.4610  0.3886
  0.2653

 Free energy of the ion-electron system (eV)
  ---------------------------------------------------
  alpha Z        PSCENC =      2701.53174423
  Ewald energy   TEWEN  =    -44501.86479573
  -Hartree energ DENC   =    -20523.51117810
  -exchange      EXHF   =         0.00000000
  -V(xc)+E(xc)   XCENC  =      3271.94780386
  PAW double counting   =     94372.35073128   -94024.10322694
  entropy T*S    EENTRO =        -0.02827512
  eigenvalues    EBANDS =     -7131.98046813
  atomic energy  EATOM  =     64968.54023382
  Solvation  Ediel_sol  =         0.00000000
  ---------------------------------------------------
  free energy    TOTEN  =      -867.11743084 eV

  energy without entropy =     -867.08915572  energy(sigma->0) =     -867.10329328


--------------------------------------------------------------------------------------------------------




--------------------------------------- Iteration      1(  17)  ---------------------------------------


    POTLOK:  cpu time    0.1477: real time    0.1528
    SETDIJ:  cpu time    0.3469: real time    0.3469
     EDDAV:  cpu time   41.8020: real time   41.8011
       DOS:  cpu time    0.0027: real time    0.0027
    CHARGE:  cpu time    1.3978: real time    1.3978
    MIXING:  cpu time    0.0071: real time    0.0071
    --------------------------------------------
      LOOP:  cpu time   43.7043: real time   43.7084

 eigenvalue-minimisations  : 10040
 total energy-change (2. order) :-0.1800505E-02  (-0.8210656E-03)
 number of electron     864.0000006 magnetization 
 augmentation part      117.6734875 magnetization 

 Broyden mixing:
  rms(total) = 0.97834E-01    rms(broyden)= 0.97688E-01
  rms(prec ) = 0.14114E+00
  weight for this iteration     100.00

 eigenvalues of (default mixing * dielectric matrix)
  average eigenvalue GAMMA=   0.9805
  2.6060  2.3388  1.0215  1.0215  0.9184  0.9184  0.7060  0.5669  0.5669  0.4660
  0.3679  0.2672

 Free energy of the ion-electron system (eV)
  ---------------------------------------------------
  alpha Z        PSCENC =      2701.53174423
  Ewald energy   TEWEN  =    -44501.86479573
  -Hartree energ DENC   =    -20524.84742144
  -exchange      EXHF   =         0.00000000
  -V(xc)+E(xc)   XCENC  =      3272.00039215
  PAW double counting   =     94343.36650854   -93995.00064037
  entropy T*S    EENTRO =        -0.02839995
  eigenvalues    EBANDS =     -7130.81685259
  atomic energy  EATOM  =     64968.54023382
  Solvation  Ediel_sol  =         0.00000000
  ---------------------------------------------------
  free energy    TOTEN  =      -867.11923134 eV

  energy without entropy =     -867.09083139  energy(sigma->0) =     -867.10503137


--------------------------------------------------------------------------------------------------------




--------------------------------------- Iteration      1(  18)  ---------------------------------------


    POTLOK:  cpu time    0.1396: real time    0.1541
    SETDIJ:  cpu time    0.3528: real time    0.3528
     EDDAV:  cpu time   42.1023: real time   42.1014
       DOS:  cpu time    0.0026: real time    0.0026
    CHARGE:  cpu time    1.4152: real time    1.4152
    MIXING:  cpu time    0.0069: real time    0.0069
    --------------------------------------------
      LOOP:  cpu time   44.0194: real time   44.0330

 eigenvalue-minimisations  : 10056
 total energy-change (2. order) : 0.1912346E-02  (-0.4064096E-03)
 number of electron     864.0000006 magnetization 
 augmentation part      117.6242190 magnetization 

 Broyden mixing:
  rms(total) = 0.49421E-01    rms(broyden)= 0.49249E-01
  rms(prec ) = 0.70265E-01
  weight for this iteration     100.00

 eigenvalues of (default mixing * dielectric matrix)
  average eigenvalue GAMMA=   0.9902
  2.6531  2.2720  1.4298  1.0020  0.9014  0.9014  0.7784  0.7784  0.5224  0.5224
  0.4863  0.3566  0.2680

 Free energy of the ion-electron system (eV)
  ---------------------------------------------------
  alpha Z        PSCENC =      2701.53174423
  Ewald energy   TEWEN  =    -44501.86479573
  -Hartree energ DENC   =    -20526.07957398
  -exchange      EXHF   =         0.00000000
  -V(xc)+E(xc)   XCENC  =      3272.04311654
  PAW double counting   =     94334.84152340   -93986.42109995
  entropy T*S    EENTRO =        -0.02935941
  eigenvalues    EBANDS =     -7129.67910792
  atomic energy  EATOM  =     64968.54023382
  Solvation  Ediel_sol  =         0.00000000
  ---------------------------------------------------
  free energy    TOTEN  =      -867.11731900 eV
[...]
   -.828E+02 -.858E+02 0.135E+03   0.118E+03 0.977E+02 -.159E+03   -.313E+02 -.361E+01 0.228E+02   -.321E-03 -.154E-04 0.148E-03
   0.307E+02 0.181E+02 0.123E+02   -.299E+02 -.274E+02 -.208E+02   -.264E+01 0.997E+01 0.123E+02   -.607E-04 -.339E-05 0.163E-03
   0.143E+02 0.357E+02 -.820E+02   -.158E+02 -.217E+02 0.819E+02   0.168E+01 -.178E+02 0.359E+01   -.361E-03 0.413E-04 0.240E-03
   0.599E+02 0.759E+02 0.229E+02   -.779E+02 -.846E+02 -.300E+02   0.192E+02 0.805E+01 0.349E+01   0.162E-03 0.976E-04 0.215E-03
   -.175E+03 -.207E+02 0.124E+03   0.189E+03 0.219E+02 -.126E+03   -.126E+02 -.201E+00 0.531E+00   0.131E-03 -.185E-03 0.165E-03
   -.353E+02 0.405E+02 -.541E+02   0.545E+02 -.443E+02 0.503E+02   -.202E+02 0.297E+01 0.418E+01   -.511E-03 -.789E-03 0.728E-03
   -.277E+02 -.241E+02 -.166E+02   0.320E+02 0.117E+02 0.285E+02   -.515E+01 0.843E+01 -.146E+02   0.377E-03 0.217E-03 0.403E-03
   -.435E+02 0.984E+01 0.804E+02   0.634E+02 0.230E+02 -.963E+02   -.145E+02 -.244E+02 0.132E+02   0.260E-03 -.365E-04 -.153E-02
   -.150E+03 0.349E+02 -.410E+02   0.166E+03 -.577E+02 0.453E+02   -.120E+02 0.210E+02 -.338E+01   0.774E-03 0.123E-03 0.351E-03
   -.498E+02 -.604E+02 0.107E+03   0.364E+02 0.847E+02 -.110E+03   0.150E+02 -.238E+02 0.409E+01   -.194E-03 0.479E-04 0.272E-04
   0.925E+02 -.979E+02 0.438E+02   -.109E+03 0.120E+03 -.433E+02   0.153E+02 -.216E+02 -.150E+00   0.242E-03 -.652E-04 -.698E-04
   0.643E+02 0.527E+01 -.693E+02   -.681E+02 -.513E+01 0.976E+02   0.619E+01 0.280E+01 -.280E+02   -.144E-03 0.188E-03 -.101E-03
   -.155E+02 0.660E+01 0.470E+02   0.570E+01 -.616E+01 -.343E+02   0.118E+02 -.477E+00 -.180E+02   -.800E-05 -.110E-02 0.227E-03
   -.568E+02 -.110E+03 -.780E+02   0.524E+02 0.104E+03 0.886E+02   0.910E+01 0.948E+01 -.121E+02   -.387E-03 -.518E-03 0.114E-03
   0.414E+02 -.805E+01 -.895E+02   -.789E+02 0.603E+01 0.966E+02   0.348E+02 0.469E+01 -.332E+01   0.817E-04 -.163E-03 0.716E-04
   -.142E+03 0.149E+03 0.706E+02   0.178E+03 -.158E+03 -.743E+02   -.276E+02 0.174E+01 0.325E+01   0.285E-04 -.178E-02 -.174E-03
   0.731E+02 -.773E+02 0.200E+02   -.876E+02 0.770E+02 -.504E+02   0.937E+01 0.222E+01 0.252E+02   0.750E-03 -.815E-03 0.146E-03
   -.508E+01 -.973E+02 -.217E+02   0.100E+02 0.106E+03 0.512E+01   -.510E+01 -.559E+01 0.259E+02   -.369E-02 -.298E-02 -.981E-04
   0.409E+02 0.253E+01 -.631E+02   -.653E+02 -.162E+02 0.840E+02   0.251E+02 0.132E+02 -.153E+02   0.612E-04 -.503E-03 0.224E-03
   0.418E+02 0.661E+02 0.101E+03   -.524E+02 -.105E+03 -.105E+03   0.622E+01 0.345E+02 0.155E+01   -.754E-03 0.538E-02 0.443E-04
   0.725E+02 0.523E+02 -.231E+01   -.759E+02 -.542E+02 -.183E+02   0.339E+01 -.757E+00 0.211E+02   -.164E-02 -.983E-03 0.633E-03
   0.466E+02 -.302E+02 -.170E+02   -.394E+02 0.236E+02 0.323E+02   -.845E+01 0.865E+01 -.168E+02   0.708E-04 0.461E-03 -.128E-03
   -.900E+02 0.579E+02 0.990E+02   0.928E+02 -.609E+02 -.127E+03   -.720E+01 0.169E+01 0.257E+02   0.796E-03 0.114E-03 -.848E-03
   0.893E+02 -.716E+02 -.810E+02   -.802E+02 0.104E+03 0.905E+02   -.738E+01 -.296E+02 -.765E+01   0.330E-03 -.322E-03 -.174E-04
   0.127E+03 0.721E+02 -.105E+03   -.122E+03 -.731E+02 0.105E+03   -.865E+01 0.132E+01 -.173E+01   -.296E-03 -.275E-03 -.207E-03
   -.612E+01 0.112E+03 -.913E+02   0.354E+01 -.781E+02 0.116E+03   0.247E+01 -.280E+02 -.187E+02   0.191E-03 0.388E-04 0.262E-03
   -.999E+02 -.123E+03 0.559E+02   0.113E+03 0.138E+03 -.457E+02   -.164E+02 -.175E+02 -.126E+02   0.409E-03 -.302E-03 -.509E-03
   -.975E+01 -.790E+02 0.151E+03   0.199E+02 0.870E+02 -.169E+03   -.770E+01 -.575E+01 0.164E+02   0.339E-02 0.351E-03 -.492E-03
   0.626E+02 -.120E+03 0.416E+02   -.921E+02 0.135E+03 -.470E+02   0.265E+02 -.116E+02 0.186E+01   0.984E-03 0.593E-03 0.616E-03
   -.138E+02 0.185E+03 0.709E+01   0.318E+02 -.209E+03 -.468E+01   -.173E+02 0.185E+02 -.139E+01   0.727E-03 -.257E-02 0.275E-02
   0.838E+00 0.121E+03 0.109E+02   -.126E+01 -.138E+03 -.441E+01   0.183E+01 0.176E+02 -.638E+01   0.176E-02 -.261E-02 -.125E-02
   0.168E+02 -.157E+03 -.389E+02   -.272E+01 0.171E+03 0.324E+02   -.169E+02 -.125E+02 0.866E+01   -.594E-05 -.946E-04 -.129E-03
   0.432E+02 -.544E+02 0.167E+01   -.498E+02 0.725E+02 -.207E+02   0.778E+01 -.163E+02 0.195E+02   0.369E-03 0.848E-03 0.410E-03
   -.694E+02 0.153E+03 0.230E+02   0.700E+02 -.150E+03 -.272E+02   0.577E+00 -.522E+01 0.363E+01   0.439E-03 -.599E-04 -.396E-03
   0.102E+03 -.231E+02 -.201E+02   -.100E+03 0.386E+02 0.377E+02   -.373E+01 -.168E+02 -.195E+02   0.106E-03 -.121E-03 0.265E-03
   -.382E+02 -.163E+03 -.644E+02   0.272E+02 0.175E+03 0.737E+02   0.131E+02 -.124E+02 -.988E+01   -.955E-03 0.276E-02 -.552E-03
   0.431E+02 0.148E+03 0.361E+02   -.431E+02 -.145E+03 -.303E+02   -.254E+00 -.608E+01 -.571E+01   0.138E-03 0.599E-04 0.203E-03
   0.650E+02 -.841E+01 -.692E+02   -.611E+02 -.942E+01 0.661E+02   -.551E+01 0.180E+02 0.418E+01   -.614E-04 0.108E-03 0.640E-03
   -.445E+02 -.548E+02 0.560E+02   0.382E+02 0.578E+02 -.572E+02   0.704E+01 -.139E+01 0.315E+01   -.725E-03 0.224E-03 -.146E-03
   -.120E+03 0.454E+02 0.366E+02   0.135E+03 -.400E+02 -.516E+02   -.953E+01 -.900E+01 0.175E+02   0.445E-03 -.577E-04 0.181E-02
   -.123E+03 -.165E+03 -.783E+02   0.132E+03 0.159E+03 0.772E+02   -.930E+01 0.101E+02 0.168E+01   0.151E-02 0.195E-02 0.250E-02
   0.609E+02 -.772E+02 -.691E+02   -.574E+02 0.588E+02 0.735E+02   -.458E+01 0.206E+02 -.408E+01   -.293E-03 -.224E-03 0.219E-03
   -.675E+02 0.147E+03 0.515E+02   0.758E+02 -.143E+03 -.508E+02   -.886E+01 -.764E+01 -.122E+01   -.917E-04 -.214E-04 0.970E-05
   -.851E+02 0.101E+03 0.682E+02   0.930E+02 -.101E+03 -.109E+03   -.558E+01 -.264E+01 0.350E+02   0.853E-04 -.972E-04 -.310E-03
   -.159E+03 0.141E+03 0.619E+02   0.190E+03 -.155E+03 -.493E+02   -.299E+02 0.127E+02 -.146E+02   -.307E-03 0.350E-04 -.140E-03
   0.160E+03 -.142E+03 0.342E+02   -.184E+03 0.155E+03 -.201E+02   0.238E+02 -.132E+02 -.159E+02   -.512E-03 0.300E-03 -.135E-02
   -.109E+03 0.371E+02 0.700E+02   0.125E+03 -.537E+02 -.951E+02   -.901E+01 0.135E+02 0.209E+02   -.707E-03 0.293E-02 -.657E-03
   -.535E+02 0.132E+03 -.808E+01   0.475E+02 -.129E+03 0.709E+01   0.837E+01 -.559E+01 0.298E+00   0.865E-03 -.563E-03 -.716E-04
 -----------------------------------------------------------------------------------------------
   -.729E+02 0.560E+02 -.109E+03   -.483E-12 -.284E-12 0.119E-12   0.730E+02 -.560E+02 0.109E+03   0.100E-02 -.333E-02 0.140E-01
 
 
 POSITION                                       TOTAL-FORCE (eV/Angst)
 -----------------------------------------------------------------------------------
      1.16211      6.31354      0.67178         0.445309     -3.273638     -0.280594
      3.91913      6.92324      2.08382         5.964954     -3.097987      3.805820
      3.29981     10.11629      0.08739         0.608051      0.254698      0.644779
      0.68013      7.41439      7.99456        -1.523775      3.575550     -3.056800
      3.73017      7.32688      5.88623        -0.794045      1.401945      0.230303
     10.89693      6.88922     11.12745        -0.972089     -0.186561     -1.056993
      0.90588      2.45347      1.39693        -2.149021     -0.235690      0.639647
      9.43021      9.40644      1.71000         3.190372     -2.957804     -0.804211
     10.96132      9.47575      5.49577        -0.282877     -0.578382     -2.049752
      2.64568      7.31311     10.20357         0.968001     -1.500565     -0.469696
     11.35340     11.32841     11.98301        -0.112041      1.127283     -0.223760
      6.80200      6.18087     11.46502        -4.660211      1.135126      0.887424
      3.51754      1.21137      0.79304        -0.326508      0.819915     -1.149264
      3.00056      4.17168      4.56294         5.777282     -3.750559      0.200742
     10.11276      0.42856      6.63813        -3.614344      4.010905      2.683659
      6.51795      4.84888      4.83985        -3.027200      0.494915     -1.871217
      5.80021     10.64911      8.80217         1.071939      1.848768     -1.491969
      6.85074      7.79658      3.87083        -0.581306     -1.098560     -0.489924
      7.17229      1.32702      5.69661        -1.951360     -0.139386      2.322997
      8.60063      2.03719      3.44858         4.006450     -1.925325     -1.009821
      1.16512      8.63265      2.66681         1.611288      1.881361      1.668591
      9.03807      8.57101      9.41854        -0.689207      1.891191     -1.218270
     10.20641      2.61751     10.81166        -0.216602     -1.179310      1.132779
      6.54234      4.15299      9.01498         1.420247     -2.102591     -0.931369
      3.53806     10.43469      6.44990         4.389994      0.401989      0.198175
      1.27756      1.50092      8.80958         1.956040     -0.878358      0.656848
      1.54964     12.03264      3.45204         0.889084     -0.893147      0.038109
      6.45328     11.69027      1.21355         0.749861      2.481430     -2.716649
     11.50826     10.28951      9.02619         1.796688     -1.166878      2.784265
      4.58563      1.68486      7.16955         1.196969      0.956688     -3.871737
      7.84916     10.63386      3.73888        -2.442855      2.892438      0.761986
      0.53667      4.53606      9.63287         3.640502      0.091068      3.406765
      0.62420     11.25180      6.29849        -0.116161      5.924616      4.230010
      8.06019      4.64260      1.41683        -6.049575      3.304853      1.801657
      4.59988      1.64309     10.04630        -1.432496      2.562453      0.045687
      7.81548      9.25635      6.37974        -4.714538      1.238602      3.198995
      1.33096      5.63323      4.21053        -3.623013      3.372533     -5.005979
      9.05002      6.59326      6.95053         8.421926      1.828577      0.463297
      4.72313      1.20341      4.17189        -0.200366     -2.243071      2.969187
      2.38206     10.26986      9.28831         1.263035     -1.510782     -3.901540
      4.99220      6.19218      8.45096        -1.029576      4.795563      8.244844
      4.00510      4.58694     11.35929        -1.485492     -7.178654     -9.033994
     10.32448      4.24722      1.57942         3.245997      5.139251      5.988237
     10.67932      0.06633      3.13562        -0.443384      4.215846     -0.080478
      5.80453      8.32947     10.29687        -0.975748      4.335444     -5.131559
      6.46668      8.71293      0.84007        -9.348774      1.438805      3.137522
     11.40010      2.67924      4.38299         2.738568      0.155099     -1.044725
     10.32648      4.69207      8.55091        -0.301699      2.427662      0.450871
      4.36674     10.07971      3.53626         7.506352      2.935852      2.327255
     11.00332      6.90755      2.41275        -5.362197      1.388132      1.720286
      6.11313      2.52119      1.78551         2.234416      1.812599     -2.107873
      8.72614      4.05185      6.46477        -0.197106     -6.347383      4.021668
      1.00411      4.57561      7.10285         9.156708     -0.512088     -1.793212
      7.35073      1.23914     10.78168         0.898885    -10.465859     10.931317
      1.79912     10.55730      5.62737        -2.279403     -0.886383     -5.102957
      6.17014      9.05783      6.14228         1.814108      0.837330      1.012729
      8.67421      0.19683      4.55707        -2.983571     -4.552179      0.265740
      9.32246      3.44054      8.47278        -0.457948      0.628050     -4.390833
      6.02888      1.55133      3.11719        -1.602295     -2.727048      1.934669
      1.26563      0.38287      0.50330         1.678355     -1.190684      0.236384
      7.82706      7.51048      6.72086        -0.661984      0.521186     -0.617145
     11.35830     11.78816      5.59800         3.571763     -5.224108     -2.290010
     10.61697      1.33617      4.30501        -2.825241     -2.889659     -2.987481
      9.53138      0.38893      2.05605        -2.467723      0.122103     -0.102608
      7.35164      3.26162      2.72420        -4.631697      5.171090     -1.918013
      7.98609     10.22404      7.88567         1.503906     -2.241280     -3.401784
      4.61289      9.71931     10.21888         2.399275     -1.650580      1.545517
      3.84533      8.87079      4.24107        -2.367945     -2.506676      4.527105
      0.69863     11.19778      9.78712         1.464482     -0.730862     -2.339272
      2.07994      9.28794     10.56786        -0.326014      0.914355     -0.250813
      8.28053     11.96029     11.79125        -1.416706      3.003634     -3.406425
      3.42533      0.85365     10.60412        -2.331992     -3.065913      1.691494
      6.99254     10.25594      0.79951        -7.667291     -0.265865     -4.290676
      2.40407      7.64631      1.31154        -4.173014      3.958270     -2.702526
      2.20618      5.00188      2.68958        -1.672966     -0.670273      2.785252
      3.94753      0.85743      5.83318        -1.312751      2.803922      1.798256
      9.50235      7.47002      3.02861         2.657284     -0.951899      0.420753
      1.01187      0.63231      6.96002        -0.002724     -1.852355      0.074348
     11.41438      8.21227      1.53122         1.812230      0.855563     -1.209398
      8.84114      3.01200      5.39578        -0.203633     -4.509646     -2.811921
     10.54205      7.86274      6.63544        -3.313542     -3.193639      0.911737
      4.85197     11.88099      1.01426         0.322445     -2.102347      0.515975
     11.43057      2.63894      5.97549         1.004734      2.267051      1.987985
      5.34597      3.05399      6.49407        -1.769594     -1.558173     -0.524154
      0.18224      2.90025      9.97824        -0.210087      1.092752      0.709351
     11.86967      5.11426      7.64869       -11.332358      2.238783      4.640354
      2.29148      4.96987     10.55631        -1.222502     -1.455374      1.892991
      9.65306      5.15079      6.14274         3.695153      8.218045     -0.337080
      2.41948      9.08788      7.69690        -1.796962      0.650752      3.743278
      0.39347      6.34342      9.68869         0.120371     -3.811804      3.505478
      0.84975      4.73163      5.53011         1.262524     -0.654475     -3.625317
      6.53129      6.60331      9.38157         1.385883      0.978943     -1.347526
      8.70655      9.70530      4.95100        -0.972584     -0.752455      0.373293
      4.67021     11.70585      4.26720        -0.811598     -3.953670     -2.805705
      8.11713      2.34351     10.31805         5.400654      8.401513     -2.724129
      5.59801      0.52079      7.41737         3.983323     -1.901772      0.969055
      4.37145      7.62554      8.97413         1.503215      0.468244      0.665571
      4.12055      2.27691      8.61387        -1.013953      0.766399      0.381785
     10.58793      4.57568     10.13543         2.314085      2.939169      0.202499
      5.48534      8.48701      2.36222         2.001762     -0.034894     -5.359503
      6.15057      9.91480      3.98883         4.675152      3.281451     -1.474165
      7.24937      4.15114      6.70086        -2.691790      2.671162      3.794700
      7.87408      8.40402      0.80387         8.554241     -7.159977     -0.437633
      3.65434     10.14490      2.25176        -5.099037      1.959431     -5.169975
      8.18838     10.85014      2.02759        -0.167073      2.753819      9.303214
      5.26584      7.82516     11.65320         0.605083     -0.518269      5.621533
      9.08886      3.39939      1.42655        -4.353285     -4.263921     -2.212384
     10.83844      5.95281      1.08010        -0.025826     -2.680441      0.499892
      4.47026      2.90230     11.26616        -1.219434      2.106096     -1.571834
      6.15987      1.30829      9.83487        -4.375537     -1.268964     -2.605952
      1.78507      7.02838      4.61482         1.750721      2.623757      1.845548
      0.18684      6.29318      3.21795        -3.343173      0.315691     -1.581041
      3.89682      5.69564      0.16107        -0.097562      5.545063      6.347962
      7.37611      9.17340     10.63445        -3.644233     -2.628250     -2.509620
     11.42835      0.62170      1.79389         2.437847      2.236799     -1.911450
      3.47252      1.97030      3.77302        -3.026060      3.115325     -3.525049
     11.59489     10.94743      3.37602         0.745560     -4.982925      1.021989
      1.07633     10.92013      0.95992         1.406508      1.025637      0.068822
      3.63601     11.12009      8.47896        -2.834060      1.090345      2.165710
      5.90313      3.71162      0.73171         1.198272      1.864706      0.498004
      4.48112      6.18684      4.32584         1.213287     -3.093793     -0.539648
      9.70259      6.31203      8.58731        -1.783296     -1.232304     -1.864642
     10.54764      3.89312      3.35657         2.109782     -0.563316     -0.519511
      4.74199      5.30795      9.90201        -0.333926     -3.165213      0.160974
     12.05285     10.16722      7.41606        -1.658797      0.154380      1.144977
      6.45896      1.24142      0.32395         0.722656      1.629747      1.961750
      8.35004      5.40296     12.01887         4.910345     -3.625972      2.459166
      0.70652      1.79971      3.56506        -0.625654      4.410838      0.611094
     11.43161      8.61282      9.47864        -1.018990      2.283516      0.241748
      2.34843      6.41843      7.42710        -0.580220     -4.172251     -0.566976
      5.17153      6.18154      7.01039         2.242469     -2.773869     -5.545136
      1.65239      3.95913      8.45144         0.636751     -1.377049     -2.051000
     10.33146     10.97854      9.92779        -0.321717     -0.272987     -1.817191
     11.11166      3.50792      0.57778         7.073007     -3.085347     -4.194305
      6.65505      6.16080      2.32153         2.325161     -2.624636     -0.698230
 -----------------------------------------------------------------------------------
    total drift:                                0.041571     -0.000086      0.011056


--------------------------------------------------------------------------------------------------------



  FREE ENERGIE OF THE ION-ELECTRON SYSTEM (eV)
  ---------------------------------------------------
  free  energy   TOTEN  =      -867.11718359 eV

  energy  without entropy=     -867.08767339  energy(sigma->0) =     -867.10242849
 


--------------------------------------------------------------------------------------------------------


    POTLOK:  cpu time    0.4345: real time    0.4345


--------------------------------------------------------------------------------------------------------


     LOOP+:  cpu time 1160.8146: real time 1161.0649
    4ORBIT:  cpu time    0.0000: real time    0.0000

 total amount of memory used by VASP MPI-rank0   166809. kBytes
=======================================================================

   base      :      30000. kBytes
   nonlr-proj:      21320. kBytes
   fftplans  :      24448. kBytes
   grid      :      12995. kBytes
   one-center:        171. kBytes
   wavefun   :      77875. kBytes
 
  
  
 General timing and accounting informations for this job:
 ========================================================
  
                  Total CPU time used (sec):     1184.410
                            User time (sec):     1179.117
                          System time (sec):        5.293
                         Elapsed time (sec):     1184.831
  
                   Maximum memory used (kb):      313768.
                   Average memory used (kb):           0.
  
                          Minor page faults:       135707
                          Major page faults:            0
                 Voluntary context switches:         1871
