135
Time=99999.99999996 pbc="T T T" Lattice="11.12194768 0.00000000 0.00000000 0.00000000 11.12194768 0.00000000 0.00000000 0.00000000 11.12194768" energy=-882.68140827 virial="255.13820630 -18.42913037 -45.09786435 -18.42913037 304.38281233 13.15460547 -45.09786435 13.15460547 283.31186534" stress="0.21927658 -0.01339560 -0.03278034 -0.01339560 0.25507107 0.00956170 -0.03278034 0.00956170 0.23975520" Properties=species:S:1:pos:R:3
Ca 10.98290753 4.35899709 3.41740444
Ca 2.61760092 7.13371849 4.83591613
Ca 0.42003833 7.71390905 9.05276396
Ca 3.28578145 4.04576178 4.07529744
Ca 8.83179718 7.13939004 6.71314789
Ca 2.17423089 5.42057165 8.07776761
Ca 1.29297340 2.91665019 6.59146109
Ca 9.02737494 6.20643460 3.48324078
Ca 9.51659369 7.85473832 10.75430267
Ca 2.75949114 3.45338821 10.54583274
Ca 5.93956708 2.45181129 11.09957380
Ca 4.07675291 10.75034619 0.40963122
Ca 7.69086281 4.61335817 9.68337288
Ca 3.24101081 9.67143264 7.13877729
Ca 1.88554005 2.29347476 1.24461554
Ca 0.01153572 1.80739152 10.25947296
Ca 9.29799777 9.46970928 3.01287767
Ca 11.05161810 9.42660031 6.03743902
Ca 7.36228913 9.77346953 5.37112240
Ca 6.79999611 4.94530158 1.98044667
Ca 1.14178667 10.11639995 10.56466264
Ca 5.25643172 7.44781028 4.13382302
Ca 8.15585613 1.93770680 9.43237125
Ca 7.75130514 2.05744763 4.03441015
Ca 6.18178603 10.78504557 8.26352530
Ca 2.83254285 8.00289129 0.88002002
Ca 10.38554994 4.74440678 0.04313038
Si 9.12744507 1.35351102 7.04848943
Si 4.54702606 3.09968033 7.86152673
Si 0.47231965 7.19388767 1.62725925
Si 5.12296485 0.99574173 5.78370929
Si 9.29499109 4.47740819 6.02934226
Si 10.46249657 4.55320747 8.52213078
Si 6.72080982 8.13246393 8.84091948
Si 2.11553358 1.03874965 4.59042859
Si 3.12419356 0.79721637 9.14045837
Si 9.72492636 11.10741928 0.82978741
Si 7.09158700 3.09908721 6.44662778
Si 2.39058597 5.48720161 1.67186987
Si 9.25561009 2.59668962 1.32842847
Si 3.52443142 10.00667638 4.06800451
Si 5.78435197 6.19232012 7.48742768
Si 5.34695410 2.41582836 2.89694401
Si 0.34671335 6.38611994 5.73639082
Si 10.29200720 0.92773247 3.66784315
Si 6.43870185 7.93718064 1.82968091
Si 3.55738408 7.76526917 9.02039581
Si 7.35483268 10.17615035 0.07379485
Si 4.92378088 5.31637690 0.08878925
Si 6.01059717 4.83083529 4.76785084
Si 0.58577457 0.41339455 7.54709449
Si 6.19769542 10.41002502 2.73146600
Si 8.89122058 10.14481384 8.41815266
Si 1.12346525 10.43090262 2.17973674
O 6.67483840 2.83804124 2.19348907
O 0.68413352 0.54340907 6.07739873
O 6.42208939 0.41572247 10.65587787
O 4.27411431 1.93333776 6.82973370
O 3.78049087 2.42382582 1.99302577
O 11.11686874 2.98591682 0.67597247
O 0.06294044 7.57903455 4.80981396
O 7.00166603 6.05203809 6.33024062
O 6.48977484 2.71100864 8.26724625
O 8.78060505 8.37336658 5.00598923
O 6.19073296 9.53920379 1.15421196
O 8.00837774 3.39976993 0.33235653
O 5.14315943 3.99266654 10.06489085
O 0.50130312 7.22072470 7.10406902
O 0.15269471 0.38274850 0.99766175
O 4.31490380 5.69677092 4.27977180
O 6.63252801 8.84897669 3.18036464
O 10.90833756 10.73068006 3.44086176
O 7.65843923 9.05149058 7.82539180
O 2.24620821 0.43882305 3.00040513
O 1.92826946 0.98504745 8.06767026
O 5.62536155 0.56240379 1.92875010
O 9.84211513 0.74995699 5.20344619
O 10.02147991 5.84638714 9.25553232
O 7.72566099 3.89213928 5.21867040
O 9.72656015 5.93419200 5.38780112
O 10.49079297 6.09450180 1.65394577
O 7.08465867 8.36233246 10.44997726
O 5.18474038 8.43168651 8.44618394
O 5.48771294 3.78121145 3.51869206
O 6.61554594 6.09380911 3.85839611
O 9.51635638 1.43295180 2.47370330
O 4.08841924 10.77864412 8.71073511
O 6.68420469 1.39244340 6.14079017
O 0.23375003 8.80809078 2.31346528
O 6.91891280 6.55491790 8.60461910
O 0.89516434 9.96927606 7.83832331
O 2.39816359 2.42668950 5.10803238
O 9.55817778 10.47803896 7.06544789
O 8.22578050 10.26714193 9.99025832
O 2.48720514 0.92778610 10.57355064
O 1.77089476 4.22896784 2.18362696
O 8.68605205 5.12740696 7.44006319
O 10.84292284 4.45514387 6.96089277
O 6.26370724 6.23250683 0.03878555
O 8.13569432 7.44319077 1.59301630
O 0.89224055 4.43557234 9.52096572
O 8.38389279 10.55194490 1.46015667
O 5.44860670 10.21872997 6.33993954
O 9.70518891 3.25795357 9.48161396
O 1.66605781 5.32044470 5.64139025
O 8.36527983 2.69123581 7.06305842
O 2.33723389 9.14038281 3.23811279
O 1.99050050 7.03110680 2.53155417
O 9.51165166 8.52748612 8.79969392
O 2.64539639 8.82041583 9.93275331
O 5.40981549 4.78613065 7.97761338
O 0.29818532 2.03178702 3.29246145
O 3.50789941 6.62325371 10.15873827
O 4.50765654 1.74544373 9.34353135
O 9.86513774 3.71708891 4.78914630
O 10.59409967 1.83676877 7.39894251
O 1.68685576 6.07234099 0.41243762
O 2.45326205 7.52117379 8.04546189
O 4.94711543 1.54404656 4.23780946
O 3.91573325 4.79590528 1.36333909
O 4.12294056 8.76768959 5.05730381
O 9.28967226 1.30183699 0.11046423
O 8.24987397 0.43368718 7.94707589
O 9.06673761 3.83803650 2.86959955
O 2.85423600 3.06268993 8.18256214
O 10.73118733 0.23122170 9.08852648
O 10.32036250 9.63552592 0.55463000
O 2.27320017 9.99817128 1.10346292
O 3.02115318 11.09610268 5.29774687
O 7.18415172 0.14390428 3.84532949
O 0.51756483 7.94813923 0.06866536
O 3.94435683 6.38101904 7.12047130
O 5.58435521 3.79208940 5.92207591
O 4.99681116 7.06636081 1.58062688
O 4.63171426 10.16934715 3.10675034
135
Time=199999.99999918 pbc="T T T" Lattice="11.12194768 0.00000000 0.00000000 0.00000000 11.12194768 0.00000000 0.00000000 0.00000000 11.12194768" energy=-866.92105132 virial="245.60049866 1.64236062 -7.56190292 1.64236062 333.82124178 -22.28833444 -7.56190292 -22.28833444 250.68427482" stress="0.21234390 0.00119378 -0.00549653 0.00119378 0.27646902 -0.01620075 -0.00549653 -0.01620075 0.21603915" Properties=species:S:1:pos:R:3
Ca 9.31991850 8.89959488 0.04075906
Ca 8.37670541 6.39488219 10.45561014
Ca 2.02629339 2.51108350 8.25852079
Ca 1.49926380 4.94112457 6.71050206
Ca 6.37136016 9.12103828 1.08366731
Ca 10.25255885 3.80230817 5.32476319
Ca 5.44398776 3.87094199 9.81263402
Ca 4.26556632 6.20820332 0.73726095
Ca 8.47957653 6.02074160 7.03976163
Ca 8.54910492 0.00118512 5.76502146
Ca 9.95157571 7.14456290 2.50166128
Ca 2.42185819 5.38736339 4.11691156
Ca 7.07276732 3.66432663 3.94222184
Ca 10.12940996 3.06829415 10.89389195
Ca 7.59251339 0.71251300 0.41263968
Ca 5.79050524 6.61493107 5.18603999
Ca 1.58357824 8.86157013 3.92313204
Ca 2.58240318 10.55303192 8.89417345
Ca 6.76515637 9.22740951 8.06892062
Ca 10.80667498 8.21191494 8.09676222
Ca 8.75221062 2.92106085 7.64005353
Ca 3.57608133 0.07758875 6.05927294
Ca 1.51438616 8.61983281 1.12222495
Ca 10.81548895 10.52590822 4.69163473
Ca 5.49418592 0.32315756 9.96089458
Ca 10.55202200 4.29488486 2.48698428
Ca 2.93703097 8.25039141 6.46303698
Si 1.94490155 2.52447694 3.94516170
Si 6.01385195 1.18955219 7.23920396
Si 4.11403140 7.15796649 3.06564745
Si 0.41054091 5.59196059 0.42714369
Si 10.62155362 10.86684751 7.45429353
Si 10.93152311 7.02693799 5.18214760
Si 4.17115686 3.69835123 2.29152462
Si 7.07566931 3.69139488 1.03086204
Si 1.72309880 7.21703967 9.79609435
Si 7.50569391 10.70609223 2.90574700
Si 5.76835020 3.94274812 6.32863060
Si 7.45077139 8.71960632 4.61738999
Si 4.40303683 8.75104223 9.89547679
Si 8.87559869 0.17062773 9.01728380
Si 2.60384858 0.55664150 1.74015601
Si 10.73314730 4.97642017 9.11541518
Si 9.26408692 2.11061730 2.68285177
Si 0.25040961 0.45455543 10.52831702
Si 5.66375997 1.24203434 4.58057253
Si 4.85370834 1.71351463 1.55548954
Si 4.16466185 9.92418238 3.19400184
Si 7.12497682 6.42075481 2.44043915
Si 3.91986630 5.45995452 8.06038063
Si 0.97991783 1.25927379 6.16473035
Si 2.35819291 3.13033561 0.19258089
Si 6.19036233 6.65241093 8.87912254
Si 11.09893919 0.58634679 1.77551824
O 3.74107283 7.19731830 4.76911494
O 4.20635530 0.37580202 1.01182348
O 1.49559003 6.90698103 5.40332398
O 6.28813667 0.05879412 2.05291052
O 3.17120280 4.43725688 0.89511987
O 1.60305098 8.83702372 9.62816264
O 0.75257888 0.83281821 7.70027339
O 6.49106667 9.55626105 3.50222760
O 7.10420457 8.54215096 6.10264099
O 7.74582361 3.96255936 10.64939206
O 0.98867654 3.67181508 0.81205327
O 5.24928108 4.47536925 4.97474180
O 1.95087367 6.16143090 0.01538936
O 4.05148169 9.67867441 4.85918588
O 6.01922991 10.95498540 5.47017519
O 7.35038647 5.45027207 8.88825680
O 3.21217033 2.14593927 10.01712677
O 10.72979874 2.10791008 1.84742681
O 4.50109428 8.49475737 2.24407366
O 4.42018382 0.34540354 3.75235430
O 3.11280000 3.67069737 3.33996978
O 9.31041296 4.10175279 9.24267058
O 7.25778346 5.23262317 5.59657487
O 7.80822181 10.25984177 9.89401623
O 4.04663788 8.91833939 8.19637761
O 2.70869412 10.07228286 2.20971401
O 3.70777663 7.40650633 10.12926284
O 0.36876592 10.16101257 2.58123293
O 9.07680956 1.61467120 9.21693772
O 0.44122647 9.69646094 6.92713691
O 3.49490542 2.34636563 1.25894349
O 6.66354853 6.12221812 0.79391167
O 4.61974810 0.59093984 8.04582589
O 5.12371184 2.12450629 5.84283049
O 10.04234120 5.80229511 4.19055698
O 7.84712846 7.01876909 3.76811127
O 0.84166219 4.11844231 9.59701323
O 5.34982381 6.47307095 2.60250853
O 9.53782313 7.65349864 6.53779301
O 0.50743337 6.01688986 1.87338869
O 2.65484505 1.63101387 2.97470848
O 9.01529362 3.18416140 3.77900244
O 7.79227015 5.08527883 2.32724548
O 1.07253647 3.85782406 4.68005153
O 5.35562578 4.20011771 7.72431388
O 4.24819366 10.14270938 10.76578810
O 5.09862581 2.38376653 2.92319045
O 9.04809961 10.20948499 7.46483193
O 2.90060332 4.38431045 8.25257709
O 8.55264902 2.69598407 1.50264843
O 5.69744528 2.13079310 0.05904807
O 7.40995239 1.38349547 3.88737390
O 8.13052103 7.90458868 1.46846189
O 10.71158029 4.89468320 7.39616944
O 0.38298999 2.86026169 7.02507171
O 2.38326667 2.11969493 5.77242819
O 10.58359849 7.80661897 0.54027073
O 4.71984913 5.59068148 9.64295215
O 10.29382340 0.95743771 6.22670830
O 5.17809512 6.61166374 7.46659212
O 8.60190499 9.90219719 4.15424916
O 8.23425720 10.11581880 1.32243889
O 7.83821676 7.46726228 8.11967975
O 1.90876839 10.62178576 5.18459533
O 10.15938915 0.14715453 0.38749028
O 10.45010380 10.56471052 9.35239863
O 6.33676343 2.46044231 8.26891029
O 7.19605316 0.12422709 7.78862281
O 10.98213249 6.50568182 9.46770150
O 0.55369995 1.50529124 4.14645533
O 5.71085750 4.00171891 1.69016943
O 0.46202148 1.95698307 9.86171030
O 5.98810569 7.91731683 10.17891428
O 2.33754599 6.57721631 8.27984567
O 10.93663252 8.23423234 4.09585689
O 1.16641795 1.15732586 0.88012318
O 9.81168644 0.52471101 3.16518418
O 7.26108913 2.71230697 5.71807348
O 2.83637533 6.63886189 2.18359223
O 1.64542447 10.68739291 10.79355055
O 9.79514772 5.11330249 0.50683639
135
Time=299999.99999840 pbc="T T T" Lattice="11.12194768 0.00000000 0.00000000 0.00000000 11.12194768 0.00000000 0.00000000 0.00000000 11.12194768" energy=-877.37560288 virial="311.98118026 -31.98679431 59.67117648 -31.98679431 306.80210378 31.62475599 59.67117648 31.62475599 291.83464290" stress="0.26059410 -0.02325028 0.04337326 -0.02325028 0.25682958 0.02298712 0.04337326 0.02298712 0.24595017" Properties=species:S:1:pos:R:3
Ca 5.16494359 9.84421073 8.23074874
Ca 0.59832103 3.15254418 7.90365876
Ca 7.18077221 3.43610981 0.50494340
Ca 3.41479124 3.33416936 1.15447216
Ca 10.02350839 6.43285340 4.83680937
Ca 3.61254197 8.27412852 5.10343434
Ca 8.27606652 3.99345359 7.12047810
Ca 4.05520922 5.20449549 5.90852379
Ca 9.70371130 1.14425799 5.96297483
Ca 5.76296806 10.53266216 5.27799927
Ca 0.57059979 1.28199712 3.28409692
Ca 1.62113235 10.93926515 5.34574052
Ca 5.59528113 0.79637626 10.88743264
Ca 7.22258856 7.58625355 5.65653267
Ca 2.77427516 1.39200204 7.26215863
Ca 11.01533157 0.79282619 9.35074810
Ca 1.94074660 6.56596895 0.89024237
Ca 9.20623204 9.36123020 8.72923689
Ca 8.70353525 9.40438690 0.86179318
Ca 10.85135455 6.90387484 7.92302914
Ca 7.58485497 6.56096952 2.01091501
Ca 4.18003431 8.99457963 1.11402166
Ca 0.62148114 11.07364460 0.91239357
Ca 4.52761608 5.55174836 11.04923461
Ca 5.76641256 2.97424747 5.16797388
Ca 2.44551062 5.37175914 9.51045043
Ca 10.58132635 4.09958652 2.30943939
Si 1.35043409 5.63560377 6.29386354
Si 5.98625176 4.90565952 8.18809522
Si 9.19221094 10.51895742 3.70592790
Si 0.89101855 8.69364218 2.97914461
Si 6.48567195 8.34355602 10.44210088
Si 3.68170823 0.06537128 2.97758544
Si 0.71997303 3.93549228 4.69471080
Si 10.73162035 7.18578904 0.79255849
Si 0.47391734 2.84863847 11.05168003
Si 7.99970735 2.21199673 3.55654449
Si 1.42503918 9.09634422 7.27780013
Si 7.66037590 4.48311946 4.13592143
Si 9.58821648 4.52111314 9.90488130
Si 3.23045427 2.71907150 4.45933892
Si 6.22156769 1.09535543 2.33629193
Si 1.31668949 8.59418408 10.55195865
Si 5.02384194 5.08045510 3.08899191
Si 3.03677422 0.28112546 10.34484993
Si 9.30520451 0.99210692 1.06847855
Si 2.69535156 6.12541361 3.50055958
Si 7.75315281 6.24337378 10.00998385
Si 5.79161520 1.24524683 7.78693744
Si 10.23088864 9.06564081 5.59272656
Si 6.66020765 9.02419873 2.85221870
Si 3.91893436 2.67171308 8.99871620
Si 8.07651994 1.59445702 8.71933727
Si 5.00920355 7.05394903 8.41244016
O 1.51013634 7.72017029 6.28289315
O 6.73487465 0.84493515 9.09323966
O 0.56940653 7.19233724 10.63828643
O 6.69792536 9.52941085 6.72584679
O 8.01047692 5.34281276 5.50265298
O 9.55526532 3.40245071 8.72354541
O 4.09552377 10.50326392 10.66758984
O 8.78766825 4.95007327 2.99526754
O 2.81507180 1.55353643 11.09672378
O 6.62980382 1.03338684 3.90341681
O 1.12599783 2.33943807 9.71598747
O 5.64586069 4.99260678 1.67025661
O 9.33008537 2.21633539 2.22607837
O 6.27262406 4.88453503 3.94518738
O 2.74876927 3.72784111 8.53125981
O 7.69681480 1.12758339 1.26406794
O 1.03891032 10.18028524 2.78329953
O 2.19442385 6.12551423 5.08597013
O 10.95813078 8.29667414 4.22744709
O 4.37760212 5.37151723 8.56482213
O 5.14439992 0.70462405 6.46455711
O 3.26334159 9.64784558 3.16629841
O 2.16421046 1.73497169 4.84136245
O 7.64018530 2.00964946 7.09034188
O 6.78855250 6.68743769 11.04458294
O 0.41452011 0.94952229 6.92208587
O 1.99891148 8.92146322 0.81963092
O 8.04760993 3.03702262 4.76171085
O 10.12674190 3.25060838 11.08791803
O 5.34894338 2.82853487 8.20719541
O 10.93007799 5.26670146 6.45513306
O 9.03165500 0.28743437 8.39583244
O 7.30449631 4.54249262 8.98008632
O 10.00762634 0.07243992 10.99444129
O 5.65577795 8.51253162 4.05007893
O 10.92904843 9.11681756 10.49622394
O 8.32142386 4.82276954 10.77086750
O 4.13164535 3.79916073 3.80932508
O 3.94896688 0.96533241 8.88112607
O 11.09928640 5.75243772 1.30622013
O 7.72677208 10.29099571 2.73025794
O 3.91197634 2.92620953 6.09520400
O 4.12681598 3.60714081 10.34778241
O 7.15727827 3.45070394 2.79227243
O 10.36697460 3.02352014 4.83991206
O 4.22787964 1.15980882 3.87766004
O 6.30886025 8.05989316 1.73088811
O 6.80416201 9.96178265 10.62092515
O 2.45754003 7.64336365 2.92553463
O 4.48205630 7.73708678 7.07773080
O 8.80295153 0.95513673 4.32360957
O 0.58052162 5.35907484 3.87317690
O 1.77810944 4.02136303 6.23605417
O 8.59063330 9.89662291 5.40114313
O 7.81059167 7.92284827 9.58335206
O 0.96307696 1.94798836 1.24429307
O 6.66136563 6.53218947 7.65640064
O 3.37236805 7.24120780 10.61101644
O 10.21993460 11.11456449 2.36827911
O 3.60087172 5.82864065 2.02234333
O 2.08096728 3.63388484 3.58170875
O 9.59328022 7.93129450 6.51411843
O 1.83552736 8.50297771 9.00689311
O 5.29496479 10.57579870 2.26582389
O 4.30115667 6.39872324 3.98718827
O 1.80646208 5.93534617 7.74621841
O 11.07226308 9.65954228 7.68434807
O 5.61242969 2.10288452 1.24906696
O 8.24230114 1.41104657 10.30032130
O 2.61739473 0.79013347 2.30052692
O 5.47264389 8.18203943 9.27529111
O 6.06882993 4.65345960 6.59013065
O 9.11028602 7.45571444 0.42366943
O 8.32003105 8.05945188 3.68363499
O 10.89886234 10.69886331 4.85775895
O 1.56703572 4.32285366 0.35761572
O 2.90703157 10.24419017 6.99832390
O 1.61786992 10.90427939 9.77518955
O 0.02390193 7.76554027 2.04093461
O 0.10517938 4.95645419 9.51924262
O 9.21150150 6.13075046 9.06786262
135
Time=400000.00000008 pbc="T T T" Lattice="11.12194768 0.00000000 0.00000000 0.00000000 11.12194768 0.00000000 0.00000000 0.00000000 11.12194768" energy=-864.57827350 virial="275.51266826 -0.41118818 -17.59117378 -0.41118818 245.52082893 0.16749537 -17.59117378 0.16749537 289.99642362" stress="0.23408619 -0.00029888 -0.01278652 -0.00029888 0.21228599 0.00012175 -0.01278652 0.00012175 0.24461402" Properties=species:S:1:pos:R:3
Ca 7.12221529 6.79639108 0.10995273
Ca 5.57777730 1.26392542 10.03114104
Ca 0.28217047 7.19357173 0.87479605
Ca 3.87227115 7.16327412 1.65858512
Ca 10.66026863 9.48373673 10.18777351
Ca 2.94626156 6.34992366 5.48055391
Ca 5.22233861 4.02025158 2.71024515
Ca 1.45919869 10.83208625 0.48001239
Ca 10.73035641 10.93989673 3.86450070
Ca 3.27152887 0.70782479 3.79003804
Ca 1.04606999 8.32971363 8.42719066
Ca 3.26191577 2.11148978 0.98973870
Ca 1.88177540 4.98638948 10.91046127
Ca 7.23972705 2.52588371 1.02255498
Ca 7.94681851 1.72633876 8.88334178
Ca 4.92927510 6.28671829 9.40348199
Ca 8.09819675 7.25018659 3.80694748
Ca 8.54837807 7.97003762 8.68981164
Ca 4.75488333 3.19986604 7.07775753
Ca 8.02018527 4.24884628 9.01527267
Ca 8.22969982 4.59469581 6.11074438
Ca 7.42681389 11.07054523 3.63749741
Ca 11.01058779 1.99992647 9.65315431
Ca 2.06685950 3.87164528 8.06042772
Ca 6.18437402 0.15545817 7.05036955
Ca 9.44088172 2.75558611 4.18069945
Ca 0.08678022 6.12538554 3.17698058
Si 5.40849840 6.31698640 4.11251952
Si 0.54048887 8.52294795 5.49050391
Si 1.96034946 1.45421611 6.54067002
Si 5.17549585 9.52493276 4.48990638
Si 5.93442918 2.16751780 4.79734791
Si 10.15783311 0.20577081 6.25785643
Si 6.51415897 9.10264098 1.73066978
Si 7.88397225 4.86717443 2.37020688
Si 0.57659628 2.72258230 2.21356195
Si 7.93869472 9.02096144 6.12981416
Si 5.70934795 5.43463980 6.33179705
Si 2.68132198 0.34025602 8.97587973
Si 10.52872018 5.75722025 9.00431966
Si 3.07102867 8.13894706 9.87046694
Si 9.41376150 9.49896048 1.71121573
Si 3.05929640 9.87819946 6.59734350
Si 9.61840869 4.43869014 0.07494665
Si 5.42391065 8.91082264 8.53058975
Si 10.06086637 1.43484808 1.09176059
Si 2.75532448 4.66193537 2.70365681
Si 10.71377800 2.78111312 7.24206180
Si 10.89304675 6.11614439 6.23117703
Si 4.27789125 10.10170588 0.91848307
Si 4.76690907 4.12774178 10.77317575
Si 7.49609009 10.29347477 10.38654225
Si 1.53943838 8.76995701 2.73386508
Si 1.13164876 4.16117350 5.16733157
O 0.79241576 9.54936838 4.19238836
O 9.00564007 5.94016960 10.22205535
O 1.00198489 2.06130261 7.75844281
O 1.71268233 5.85213126 1.86565514
O 1.17128863 5.16031712 6.77190980
O 10.46793987 5.23191998 5.14151358
O 6.24804339 5.04409253 0.29217882
O 0.46713757 3.23403363 3.87784648
O 10.29123516 0.69031255 7.86103418
O 1.92579544 10.09709166 7.99556985
O 10.07035166 3.28685134 1.71786743
O 10.50859028 7.46619971 9.16797819
O 4.20102645 0.21982516 1.78018088
O 2.76044770 9.26191912 1.95284119
O 6.73020545 6.01708936 5.29057687
O 2.34878868 2.88801208 5.73476787
O 8.32497092 7.53687983 6.30071971
O 9.48515746 3.20123108 10.23547564
O 9.26452338 5.84140207 2.33407097
O 11.10160563 5.17232975 0.30968609
O 5.79157381 1.94637377 3.25031782
O 1.64575068 3.74409019 1.45719221
O 10.27607132 10.67759952 0.91653005
O 7.51607854 7.75468456 2.15743548
O 8.33272347 4.33428222 0.81066460
O 6.27019202 7.78215187 9.67448484
O 2.47955891 0.00109109 5.68162940
O 0.10929737 4.00933194 8.69680328
O 4.10215758 9.29427705 10.29781859
O 7.28954172 1.99954132 5.87033067
O 3.66604301 6.65400657 10.73222580
O 1.76718451 7.58715400 3.61009361
O 6.67181418 8.85622974 7.46211228
O 7.88310100 0.92713303 10.67830615
O 3.55547280 3.61592707 9.77396166
O 6.29160952 5.51574333 7.69996305
O 5.70148473 1.71988077 8.11812375
O 10.91904531 8.88117373 2.21853155
O 3.93335219 4.76142852 6.85270390
O 5.09445014 2.58367898 0.48887327
O 1.38757285 0.26916880 9.63278052
O 4.69093936 6.59893224 5.52389844
O 5.67389479 8.03247842 3.43264208
O 9.61197541 5.49265303 7.57746618
O 5.05742794 11.05554545 4.09337775
O 3.99416012 4.79412197 1.25857364
O 7.58579736 3.78686812 3.36443435
O 3.13345900 3.06643191 3.52852913
O 8.85544766 1.11241799 2.34149911
O 6.24169166 5.76822682 2.90671116
O 6.08290353 3.95783533 5.56009318
O 3.52043263 0.21330473 10.70171174
O 4.45714411 1.88377299 5.26006457
O 3.19162971 1.45392805 7.81416286
O 1.75881393 5.20479146 4.01006898
O 9.02849330 10.20170708 9.33244910
O 10.42072208 9.48386920 6.31824158
O 8.96551003 0.32267625 4.80917921
O 6.49266805 10.68479924 1.86522111
O 9.12287875 9.26372054 3.35631222
O 8.30869750 10.65199653 6.92035099
O 6.55203468 9.54701088 5.23976900
O 10.74452842 3.25792309 5.62776938
O 1.65066348 6.23817172 8.78186875
O 4.41466062 9.92164598 7.72986133
O 3.86043627 9.10303652 5.44131628
O 3.34699659 7.88533395 8.39923660
O 6.22882229 10.26775764 9.27936407
O 1.91333683 8.69666219 6.08628607
O 9.36198583 8.13383390 0.78986964
O 0.46322321 2.20314538 0.51326524
O 0.57086625 0.80691920 2.36183114
O 6.68670666 3.10846873 10.09271041
O 3.90496198 5.76558623 3.50093117
O 10.41925494 7.55153903 4.60301483
O 6.66861561 8.97319428 0.18313958
O 0.22747005 0.98913449 5.54146803
O 1.46539731 8.63209769 10.54986599
O 0.32073734 7.50581131 6.82723702
O 9.20760857 2.98603104 7.81511295
O 5.02120755 8.82560204 1.80614650
135
Time=500000.00000301 pbc="T T T" Lattice="11.12194768 0.00000000 0.00000000 0.00000000 11.12194768 0.00000000 0.00000000 0.00000000 11.12194768" energy=-881.23598313 virial="283.17979694 -26.48032886 -12.16354017 -26.48032886 263.26198278 -4.84551538 -12.16354017 -4.84551538 219.36096904" stress="0.23965921 -0.01924779 -0.00884133 -0.01924779 0.22518152 -0.00352207 -0.00884133 -0.00352207 0.19327114" Properties=species:S:1:pos:R:3
Ca 5.43872602 8.91423537 2.61023305
Ca 8.47275134 5.38584199 2.91338894
Ca 6.77079989 0.14130156 10.77232922
Ca 5.61904420 10.65265137 5.52995768
Ca 2.51521948 7.29532537 2.22300365
Ca 2.84659814 0.91819393 7.24295713
Ca 9.76097716 2.99859185 1.75134462
Ca 4.16965645 5.30773298 3.51354841
Ca 8.50274510 8.96299386 4.58930909
Ca 2.80878985 8.13683066 8.30071510
Ca 3.88635764 8.34742000 5.84140943
Ca 3.81463516 2.57536056 4.76217642
Ca 4.41826968 2.21561691 10.39260750
Ca 7.19399116 1.82970638 7.76645639
Ca 4.86599403 5.99209492 7.56855173
Ca 10.97614491 10.73820781 2.58919637
Ca 0.67450063 4.78996382 2.67240426
Ca 9.49007435 10.88805129 7.89835996
Ca 10.63803009 1.89926432 6.03196475
Ca 10.82316313 7.87827067 7.39861756
Ca 6.20074232 2.61641850 2.57707026
Ca 6.89882708 3.77822132 9.88884032
Ca 1.82232205 4.28719240 6.70916379
Ca 1.35879955 4.90485830 10.24851628
Ca 5.77209055 5.49199278 1.31475371
Ca 3.10377478 10.89074862 11.01252074
Ca 7.32745150 6.86182948 10.40905396
Si 9.54388553 4.29382107 8.73431773
Si 1.09164992 1.88849320 8.60753097
Si 1.33024269 1.90915877 3.92863014
Si 5.00484259 8.27974474 10.71964931
Si 4.90595414 0.50892937 2.26629859
Si 3.90980571 5.37104513 10.72922562
Si 7.92061826 5.60048113 7.19569746
Si 1.05579223 10.65108127 8.71416124
Si 10.14353502 5.13057866 5.46637940
Si 0.85831193 9.48761269 5.55627215
Si 8.80383317 8.75329237 1.49604380
Si 10.83419370 7.91762302 3.82970429
Si 3.05180252 10.31879312 3.68182795
Si 6.46564663 6.84384596 4.99137951
Si 7.89262295 10.74384545 2.43539828
Si 8.90129827 9.31298502 9.94190460
Si 4.31346293 3.07898766 7.38229046
Si 7.30041848 3.50171618 5.36343395
Si 5.09221140 10.42746224 8.39990919
Si 10.39868012 6.29553995 0.25712524
Si 1.92616053 6.76045195 5.49299405
Si 7.44744609 8.17004273 7.22494536
Si 0.97511227 8.86918089 0.07304992
Si 3.07346803 3.03409764 1.47765168
Si 0.44235816 1.42921044 0.40312067
Si 8.16256220 0.86209867 4.60668294
Si 9.66189901 1.90512200 9.95572976
O 7.89401121 8.70514785 0.10136956
O 2.01223675 0.71656500 9.32796198
O 9.37344752 2.56711417 8.10095420
O 6.75427656 2.23203365 10.88867239
O 3.53883684 7.39597243 0.12076983
O 10.67763160 8.65144824 5.18689078
O 10.44984733 5.55487768 9.17991189
O 8.50093968 0.71720708 9.54588719
O 9.00923750 11.01754198 1.15346671
O 9.10654399 10.85401755 3.83183717
O 10.75337318 4.53215275 0.63770931
O 7.59363143 5.94745160 5.51352093
O 5.07570366 10.01105617 10.69620790
O 0.86508767 6.79210140 3.94121749
O 6.79996612 7.50375190 3.35905312
O 6.61493660 8.40474183 5.50706150
O 10.81625022 0.12560509 9.55889880
O 2.12027795 9.09603648 1.15451705
O 7.31015610 4.25230719 1.84739932
O 1.78239806 9.53268082 9.57776010
O 1.55086817 9.26763836 3.59823324
O 4.15304973 4.09435969 6.25051879
O 8.83758895 3.97098155 5.04576278
O 6.57355198 6.73584758 7.83644966
O 4.65690639 3.87882931 1.70344854
O 0.48882328 6.05092393 5.86379015
O 7.18458101 4.21543307 6.89051913
O 4.64360509 1.64826569 6.62918169
O 1.24572086 9.70542373 7.45023392
O 8.38287365 1.82491879 3.26138937
O 2.70605650 5.31829566 1.14561213
O 9.95817366 1.46429001 0.32375612
O 5.00735457 6.31450814 5.35989298
O 8.19038265 9.59240614 7.11747420
O 10.80314368 6.94225076 1.66398776
O 1.98113029 2.51642959 5.29323559
O 2.94542316 6.35209047 7.01769985
O 4.82488404 0.93164287 3.85016165
O 3.12076802 5.65591332 9.33864873
O 8.81604616 0.68902068 5.93038646
O 9.31907398 3.50755358 10.06645211
O 7.15781436 1.91457473 5.50587864
O 9.97300776 4.68789966 7.05491119
O 10.40167785 8.76550813 9.25459217
O 2.34082266 3.31864176 2.99027553
O 3.41351639 10.67442703 5.19773377
O 4.27818239 1.60986708 1.38928695
O 0.92496289 0.09854695 0.64183852
O 3.00016400 2.96450134 8.30747042
O 8.66567568 7.00494407 7.10761784
O 5.34772865 2.98196543 8.58703255
O 2.50345242 3.04962026 11.05661432
O 4.89774323 8.50144103 8.63923835
O 0.58656264 2.49158157 10.09286737
O 10.29013994 9.06335987 0.38149964
O 10.87277828 1.86721087 3.64690842
O 7.38528364 8.77947998 9.14122227
O 7.03915266 10.64525741 4.00134474
O 0.65103600 0.61493953 7.13828467
O 3.78819789 10.35287448 2.10777635
O 8.19220243 5.27842163 8.95912117
O 7.57993494 9.30752641 2.25509052
O 8.70925732 6.78612019 0.77908908
O 9.89906566 6.51712302 4.40741071
O 6.20382873 4.06987484 4.14089051
O 0.08293587 10.80569091 4.94559549
O 0.79176335 7.31023969 10.38657542
O 2.90006582 6.22992831 4.66949791
O 2.27864591 0.75127410 3.40447074
O 5.91799558 8.06160497 0.81908656
O 4.38482942 0.50630874 9.45545691
O 6.26274822 0.25751263 1.66933889
O 1.73375131 8.18125904 6.18361952
O 0.66031333 3.27865277 7.90594806
O 6.51557601 11.11153836 7.82780159
O 1.10057063 1.99989175 1.80040723
O 3.89066465 8.89294152 3.92595393
O 5.52703201 5.74389885 10.37072562
O 3.87258051 9.90890973 7.23618416
O 9.92092514 8.53989288 2.78342311
O 0.00827979 4.08331537 4.47749564
135
Time=600000.00000594 pbc="T T T" Lattice="11.12194768 0.00000000 0.00000000 0.00000000 11.12194768 0.00000000 0.00000000 0.00000000 11.12194768" energy=-870.87620464 virial="256.78829699 14.37986247 -6.90331286 14.37986247 254.05320288 4.62410417 -6.90331286 4.62410417 245.70422335" stress="0.22047599 0.01045231 -0.00501782 0.01045231 0.21848793 0.00336113 -0.00501782 0.00336113 0.21241929" Properties=species:S:1:pos:R:3
Ca 11.09159223 10.64063012 7.43213508
Ca 5.74812127 4.89369866 0.04733672
Ca 0.82253160 1.03508053 9.70874263
Ca 5.44475604 3.48143252 2.55779673
Ca 11.05866072 3.40755934 10.96650214
Ca 0.63098567 6.63301464 8.34640844
Ca 0.26068414 6.78068770 0.07919487
Ca 6.22791641 1.13351625 7.16010730
Ca 9.01834724 1.07667557 3.22596922
Ca 9.17001634 3.98253626 8.67002688
Ca 7.00068578 4.59671062 7.75821989
Ca 4.52118949 8.53120267 9.17107558
Ca 2.27507368 4.92231374 2.34205150
Ca 9.51556948 6.47080914 6.54115747
Ca 3.51410496 5.73710105 8.99164851
Ca 3.61738826 9.00233647 0.15502432
Ca 10.09065829 2.64767081 6.33964134
Ca 5.86721331 9.09722363 3.24181705
Ca 6.67494477 7.53350356 7.15609956
Ca 3.56191868 5.71959481 5.90670327
Ca 8.99952530 0.18240494 0.94520568
Ca 3.85908229 0.00429354 8.56424794
Ca 5.61375540 0.26031176 1.28713446
Ca 8.75475529 5.04369393 2.20083692
Ca 1.03651571 10.53187036 4.12004790
Ca 4.89124223 8.98064291 6.21156852
Ca 6.13808026 5.46567957 3.87220626
Si 9.02601630 9.07365015 3.02578257
Si 2.51533952 2.75693042 4.06934991
Si 8.29218807 9.90416148 5.88980429
Si 0.23884759 4.47329181 4.53421327
Si 2.87478711 3.50684826 10.97132806
Si 2.79565163 1.17553349 1.35826953
Si 7.34409368 2.53469554 11.00867214
Si 6.45874397 1.04112944 4.50736269
Si 0.52619515 8.80892085 1.95766808
Si 6.65027812 10.70306417 9.52004901
Si 0.22581537 2.20089223 2.79409289
Si 4.81724788 3.34422709 5.89576203
Si 8.30012184 3.41815200 5.01588972
Si 10.90042919 6.83111019 3.76290282
Si 1.11632049 3.74150066 7.55688880
Si 3.21774633 7.73964522 3.98301373
Si 3.71065357 0.11148082 3.67625873
Si 8.28911915 7.32543999 4.46133353
Si 6.75626839 8.59789991 11.09341949
Si 9.06900256 0.55826245 8.85488839
Si 9.07193980 8.88416497 9.24442136
Si 1.70377783 8.65897351 6.61945812
Si 2.38406368 1.11893199 6.28626516
Si 4.97559477 2.71834847 9.45164171
Si 4.79648479 6.86484788 1.36874891
Si 8.57228240 5.94291674 10.33520232
Si 1.48925658 8.87297713 10.07936243
O 8.60298426 4.08120562 6.51437706
O 3.53342900 3.75969562 1.23238412
O 1.68744674 2.39043748 0.22661160
O 5.66341085 2.37089174 0.30672349
O 3.87141000 0.55798174 6.43050398
O 9.53436067 10.51636999 9.84485001
O 1.97054375 7.21303637 10.05607530
O 0.01687614 8.37385883 7.13125248
O 5.24223192 10.93694383 4.21121081
O 5.77967374 2.18659847 5.33573547
O 7.37999977 9.27339605 9.72823238
O 7.52670707 7.73037025 2.98169132
O 10.74958604 1.24333110 1.46027317
O 4.61629757 6.75793307 10.84371141
O 5.13128881 5.36049392 1.81178421
O 3.60070513 5.60507853 3.63273489
O 8.73567272 7.75984193 8.13898266
O 7.98890840 8.63526936 1.14303416
O 5.59025243 10.14864971 8.28362315
O 7.93072840 2.38758840 1.33627006
O 7.49317933 0.35748235 8.40009793
O 8.36606365 5.71542406 8.83728500
O 3.07383082 7.81332369 7.37373671
O 2.72891256 1.12380284 4.66500144
O 1.46772382 8.12956869 2.87401426
O 10.43141655 8.36974986 4.23267887
O 7.38851473 3.96774183 3.78340526
O 2.93422355 9.62617701 9.55554073
O 3.36547531 2.47366044 9.43064271
O 9.54387128 0.87730996 7.32796840
O 8.07267477 4.32905805 10.98222583
O 7.68287630 6.26895983 5.63885855
O 6.88669675 1.27780941 3.04218507
O 7.88928283 8.67477192 5.28828874
O 6.80334026 10.85202516 5.77190768
O 3.84902902 1.76059730 2.51510155
O 4.09522795 3.67111846 4.39910861