<?xml version="1.0" encoding="ISO-8859-1"?>
<modeling>
 <generator>
  <i name="program" type="string">vasp </i>
  <i name="version" type="string">5.4.4.18Apr17-6-g9f103f2a35  </i>
  <i name="subversion" type="string">(build Oct 31 2019 15:01:46) complex            parallel </i>
  <i name="platform" type="string">LinuxIFC </i>
  <i name="date" type="string">2024 04 30 </i>
  <i name="time" type="string">02:52:43 </i>
 </generator>
 <incar>
  <i type="int" name="ISTART">     0</i>
  <i type="string" name="PREC">a</i>
  <i type="logical" name="ADDGRID"> T  </i>
  <i type="int" name="IBRION">    -1</i>
  <i name="EDIFF">      0.00000100</i>
  <i name="EDIFFG">     -0.01000000</i>
  <i type="int" name="NSW">     1</i>
  <i type="int" name="ISIF">     2</i>
  <i type="int" name="ISYM">     0</i>
  <i name="ENCUT">    600.00000000</i>
  <i name="POTIM">      1.00000000</i>
  <i type="string" name="LREAL">  Auto</i>
  <i type="int" name="ISMEAR">     0</i>
  <i name="SIGMA">      0.05000000</i>
  <i name="KSPACING">      0.30000000</i>
  <i type="logical" name="KGAMMA"> T  </i>
  <i type="logical" name="LWAVE"> F  </i>
  <i type="logical" name="LCHARG"> F  </i>
  <i type="logical" name="LSCALAPACK"> F  </i>
  <v type="int" name="KPOINT_BSE">    -1     0     0     0</v>
 </incar>
 <structure name="primitive_cell" >
  <crystal>
   <varray name="basis" >
    <v>       9.94194835       0.00000000       0.00000000 </v>
    <v>       0.00000000       9.94194835       0.00000000 </v>
    <v>       0.00000000       0.00000000       9.94194835 </v>
   </varray>
   <i name="volume">    982.68540919 </i>
   <varray name="rec_basis" >
    <v>       0.10058391       0.00000000       0.00000000 </v>
    <v>       0.00000000       0.10058391       0.00000000 </v>
    <v>       0.00000000       0.00000000       0.10058391 </v>
   </varray>
  </crystal>
  <varray name="positions" >
   <v>       0.20878242       0.45475218      -0.42221010 </v>
   <v>       0.30558064       0.32340584      -0.33768748 </v>
   <v>       0.12064632       0.46604342      -0.24559303 </v>
   <v>       0.32407170       0.32183164       0.47243855 </v>
   <v>       0.18468435      -0.39881441       0.42681645 </v>
   <v>       0.08714105       0.42709712       0.39803554 </v>
   <v>      -0.00504950       0.40700415      -0.37624271 </v>
   <v>       0.35065996      -0.42862638      -0.28779041 </v>
   <v>       0.27961895       0.44749005      -0.20421626 </v>
   <v>       0.09891629      -0.35240257      -0.36279124 </v>
   <v>       0.43125024      -0.47533511       0.48605101 </v>
   <v>       0.25760457       0.20333874      -0.43248456 </v>
   <v>       0.29829130      -0.29347772      -0.44749363 </v>
   <v>       0.12791847       0.20366965      -0.49182257 </v>
   <v>      -0.03068711      -0.43776778       0.47133338 </v>
   <v>      -0.01364336      -0.43836548      -0.27432274 </v>
   <v>       0.02084752       0.28919819       0.43513165 </v>
   <v>       0.31045846       0.44667091       0.30782652 </v>
   <v>       0.18662602       0.49989207       0.29269340 </v>
   <v>       0.07304223       0.27292759      -0.23854018 </v>
   <v>       0.44844357      -0.34232862      -0.39621517 </v>
   <v>      -0.48543640       0.38071118      -0.37099174 </v>
   <v>       0.13457410      -0.22360811      -0.44506687 </v>
   <v>       0.45214687       0.39808857       0.35828855 </v>
   <v>       0.21105673       0.12781710      -0.32295670 </v>
   <v>       0.41615081       0.18018487      -0.38978937 </v>
   <v>       0.23486054       0.35362268      -0.08958023 </v>
   <v>       0.24294476       0.20385720       0.32028631 </v>
   <v>       0.39268741      -0.33396824       0.34538214 </v>
   <v>       0.43663109       0.42216720      -0.13997186 </v>
   <v>       0.28059725      -0.41253287      -0.08400493 </v>
   <v>       0.23826667      -0.24301460      -0.20599706 </v>
   <v>       0.04629446       0.22364500       0.32581046 </v>
   <v>      -0.11024263       0.25028238      -0.48899943 </v>
   <v>      -0.01793530      -0.23370460      -0.47580626 </v>
   <v>      -0.42211823      -0.42964794      -0.33764320 </v>
   <v>      -0.18841533       0.44692921      -0.46467367 </v>
   <v>      -0.07765917       0.47606545      -0.14436220 </v>
   <v>       0.02061299      -0.49959578       0.22725244 </v>
   <v>      -0.00174074      -0.33789366      -0.14280616 </v>
   <v>       0.28983121       0.07259263       0.46115161 </v>
   <v>       0.19231137      -0.17171326       0.40391748 </v>
   <v>      -0.40506666       0.36384541       0.44581680 </v>
   <v>      -0.17019073      -0.38131045      -0.34151336 </v>
   <v>       0.25054361      -0.40651230       0.18103279 </v>
   <v>       0.15994224       0.16422489      -0.11570533 </v>
   <v>       0.10909885      -0.48757365      -0.00536093 </v>
   <v>       0.45654111      -0.22552665      -0.25860015 </v>
   <v>      -0.49919522      -0.40746667      -0.12724159 </v>
   <v>      -0.20456074       0.38491972      -0.28771509 </v>
   <v>       0.37638416       0.15693880      -0.14284835 </v>
   <v>       0.49887389      -0.46875109       0.25306413 </v>
   <v>       0.15009147       0.34898346       0.14559972 </v>
   <v>       0.10035209      -0.26119178       0.24197275 </v>
   <v>      -0.46767460      -0.22162326      -0.46967033 </v>
   <v>       0.08063219       0.02231619       0.46993262 </v>
   <v>       0.15442562      -0.08425511      -0.37194001 </v>
   <v>      -0.09598410      -0.30054360       0.31921637 </v>
   <v>      -0.06442913      -0.18544528      -0.29719267 </v>
   <v>      -0.40960097       0.25383755      -0.23584061 </v>
   <v>      -0.19681660       0.45012340       0.33910171 </v>
   <v>       0.00019282       0.03479912      -0.34139286 </v>
   <v>      -0.01051939       0.29584743      -0.02626401 </v>
   <v>       0.15695767       0.01145659      -0.24277172 </v>
   <v>      -0.49219173       0.27623609       0.23667293 </v>
   <v>      -0.05755335       0.32421103       0.18979154 </v>
   <v>       0.37049780      -0.08370571      -0.41249654 </v>
   <v>      -0.24429682       0.33937609       0.43216509 </v>
   <v>       0.15736984       0.24144105       0.01576142 </v>
   <v>      -0.41656111       0.13050356      -0.35858224 </v>
   <v>      -0.42300522       0.15061638       0.39566478 </v>
   <v>       0.36025020       0.38933509       0.09195782 </v>
   <v>      -0.40033603       0.34934448      -0.10649262 </v>
   <v>      -0.33512494       0.48855144      -0.18138471 </v>
   <v>      -0.30593742      -0.39998774       0.44802024 </v>
   <v>      -0.15316344       0.37410891      -0.05037426 </v>
   <v>      -0.11209652      -0.40253568       0.18685309 </v>
   <v>      -0.11513730      -0.15654561       0.42219655 </v>
   <v>       0.06958239      -0.10788601      -0.15518645 </v>
   <v>      -0.16656533       0.08277280      -0.36511769 </v>
   <v>      -0.17723986       0.14158968      -0.23084662 </v>
   <v>       0.39831300       0.08032417       0.24694599 </v>
   <v>       0.33688927      -0.17455979       0.21110675 </v>
   <v>       0.31710582      -0.31415099       0.05217357 </v>
   <v>       0.15204652      -0.25358431       0.02858467 </v>
   <v>       0.29760613       0.19385703       0.10466970 </v>
   <v>      -0.48709817       0.24898578      -0.01306376 </v>
   <v>       0.29614097      -0.03877045      -0.18561859 </v>
   <v>      -0.20685385      -0.38848490      -0.07989811 </v>
   <v>       0.33674690      -0.17218316      -0.02070715 </v>
   <v>      -0.27294601       0.16257614      -0.45215285 </v>
   <v>      -0.32782685      -0.22923826      -0.34446753 </v>
   <v>       0.31247256      -0.04713540       0.32580270 </v>
   <v>      -0.49901035       0.01552230      -0.21186864 </v>
   <v>      -0.00127838      -0.20482040      -0.01842313 </v>
   <v>       0.08685027       0.14377966       0.11375657 </v>
   <v>       0.43841440      -0.05729387       0.38557279 </v>
   <v>       0.46812971      -0.11002696      -0.15062962 </v>
   <v>      -0.25533185       0.29114029      -0.11931571 </v>
   <v>      -0.13200175      -0.00741299      -0.48863311 </v>
   <v>       0.02926218       0.03962305       0.21380713 </v>
   <v>      -0.39941468      -0.39161575       0.17304174 </v>
   <v>      -0.41042947      -0.22738815       0.26907367 </v>
   <v>      -0.40118527      -0.14219980       0.40761963 </v>
   <v>      -0.44029273       0.48124097       0.04717929 </v>
   <v>      -0.03223305      -0.08711497       0.29906026 </v>
   <v>      -0.06155915       0.07851620      -0.05576805 </v>
   <v>      -0.13628288      -0.18622391      -0.10338225 </v>
   <v>       0.17097959      -0.01687907       0.22293246 </v>
   <v>      -0.26805035      -0.20937367       0.47287158 </v>
   <v>      -0.28089141       0.23607466       0.31710435 </v>
   <v>       0.47393963      -0.33043226       0.07190882 </v>
   <v>      -0.15139556       0.48424193       0.05791608 </v>
   <v>      -0.12099571       0.07783751       0.24504136 </v>
   <v>      -0.33342087      -0.26221695      -0.15344498 </v>
   <v>       0.45754147       0.14267435       0.12538771 </v>
   <v>      -0.05817398      -0.30996969       0.08210402 </v>
   <v>      -0.26748394      -0.44380154       0.18829709 </v>
   <v>      -0.38211236      -0.01912773      -0.43845751 </v>
   <v>      -0.34182769       0.35989287       0.12289113 </v>
   <v>      -0.34518696       0.08855745      -0.10384588 </v>
   <v>       0.41875371       0.02611966       0.03486977 </v>
   <v>       0.21431890      -0.03783946       0.02752851 </v>
   <v>      -0.19368965       0.23343460       0.08353065 </v>
   <v>      -0.19079541      -0.16083971       0.17867289 </v>
   <v>      -0.25401444       0.12624680       0.19192690 </v>
   <v>      -0.43375896      -0.09649125      -0.04030668 </v>
   <v>      -0.39124965       0.10841105       0.11096955 </v>
   <v>      -0.26560944      -0.03417765      -0.23175176 </v>
   <v>      -0.32607113      -0.00814294       0.30914920 </v>
   <v>      -0.45305331      -0.08545775       0.14584610 </v>
   <v>       0.00289543      -0.07168450       0.08050231 </v>
   <v>      -0.29546128      -0.14742355      -0.08848651 </v>
   <v>      -0.29752786      -0.27110003       0.06020762 </v>
   <v>      -0.23798852      -0.04214247       0.05574475 </v>
  </varray>
 </structure>
 <varray name="primitive_index" >
  <v type="int" >        1 </v>
  <v type="int" >      128 </v>
  <v type="int" >      129 </v>
  <v type="int" >       88 </v>
  <v type="int" >      106 </v>
  <v type="int" >       95 </v>
  <v type="int" >       69 </v>
  <v type="int" >       70 </v>
  <v type="int" >       29 </v>
  <v type="int" >       66 </v>
  <v type="int" >       56 </v>
  <v type="int" >       43 </v>
  <v type="int" >      123 </v>
  <v type="int" >      122 </v>
  <v type="int" >        9 </v>
  <v type="int" >       45 </v>
  <v type="int" >       35 </v>
  <v type="int" >       96 </v>
  <v type="int" >       46 </v>
  <v type="int" >       12 </v>
  <v type="int" >       54 </v>
  <v type="int" >        5 </v>
  <v type="int" >       30 </v>
  <v type="int" >       53 </v>
  <v type="int" >       84 </v>
  <v type="int" >      109 </v>
  <v type="int" >      103 </v>
  <v type="int" >       10 </v>
  <v type="int" >        2 </v>
  <v type="int" >       62 </v>
  <v type="int" >       82 </v>
  <v type="int" >       23 </v>
  <v type="int" >       92 </v>
  <v type="int" >       91 </v>
  <v type="int" >       75 </v>
  <v type="int" >       98 </v>
  <v type="int" >      113 </v>
  <v type="int" >      108 </v>
  <v type="int" >       63 </v>
  <v type="int" >      131 </v>
  <v type="int" >      107 </v>
  <v type="int" >       68 </v>
  <v type="int" >       74 </v>
  <v type="int" >      102 </v>
  <v type="int" >       79 </v>
  <v type="int" >      130 </v>
  <v type="int" >        8 </v>
  <v type="int" >      126 </v>
  <v type="int" >       20 </v>
  <v type="int" >        4 </v>
  <v type="int" >       22 </v>
  <v type="int" >      119 </v>
  <v type="int" >      132 </v>
  <v type="int" >       18 </v>
  <v type="int" >      121 </v>
  <v type="int" >       15 </v>
  <v type="int" >      115 </v>
  <v type="int" >       55 </v>
  <v type="int" >       19 </v>
  <v type="int" >       59 </v>
  <v type="int" >      133 </v>
  <v type="int" >       90 </v>
  <v type="int" >      135 </v>
  <v type="int" >       38 </v>
  <v type="int" >       57 </v>
  <v type="int" >       21 </v>
  <v type="int" >       13 </v>
  <v type="int" >       42 </v>
  <v type="int" >       47 </v>
  <v type="int" >       52 </v>
  <v type="int" >       17 </v>
  <v type="int" >        6 </v>
  <v type="int" >       33 </v>
  <v type="int" >       73 </v>
  <v type="int" >        3 </v>
  <v type="int" >       37 </v>
  <v type="int" >       31 </v>
  <v type="int" >       49 </v>
  <v type="int" >       65 </v>
  <v type="int" >       34 </v>
  <v type="int" >       78 </v>
  <v type="int" >       72 </v>
  <v type="int" >       80 </v>
  <v type="int" >       48 </v>
  <v type="int" >      110 </v>
  <v type="int" >      114 </v>
  <v type="int" >       81 </v>
  <v type="int" >       71 </v>
  <v type="int" >       24 </v>
  <v type="int" >       89 </v>
  <v type="int" >       76 </v>
  <v type="int" >       25 </v>
  <v type="int" >       28 </v>
  <v type="int" >       64 </v>
  <v type="int" >       51 </v>
  <v type="int" >      101 </v>
  <v type="int" >      127 </v>
  <v type="int" >       44 </v>
  <v type="int" >       94 </v>
  <v type="int" >      116 </v>
  <v type="int" >       39 </v>
  <v type="int" >       40 </v>
  <v type="int" >       60 </v>
  <v type="int" >       32 </v>
  <v type="int" >       87 </v>
  <v type="int" >      105 </v>
  <v type="int" >       14 </v>
  <v type="int" >      120 </v>
  <v type="int" >      124 </v>
  <v type="int" >       61 </v>
  <v type="int" >      118 </v>
  <v type="int" >      111 </v>
  <v type="int" >      100 </v>
  <v type="int" >      104 </v>
  <v type="int" >      117 </v>
  <v type="int" >       50 </v>
  <v type="int" >       77 </v>
  <v type="int" >       86 </v>
  <v type="int" >       99 </v>
  <v type="int" >       16 </v>
  <v type="int" >       26 </v>
  <v type="int" >       58 </v>
  <v type="int" >       11 </v>
  <v type="int" >       67 </v>
  <v type="int" >       27 </v>
  <v type="int" >       41 </v>
  <v type="int" >       97 </v>
  <v type="int" >       93 </v>
  <v type="int" >       85 </v>
  <v type="int" >      125 </v>
  <v type="int" >        7 </v>
  <v type="int" >      112 </v>
  <v type="int" >       36 </v>
  <v type="int" >      134 </v>
  <v type="int" >       83 </v>
 </varray>
 <kpoints>
  <generation param="Gamma">
   <v type="int" name="divisions">       3        3        3 </v>
   <v name="usershift">      0.00000000       0.00000000       0.00000000 </v>
   <v name="genvec1">      0.33333333       0.00000000       0.00000000 </v>
   <v name="genvec2">      0.00000000       0.33333333       0.00000000 </v>
   <v name="genvec3">      0.00000000       0.00000000       0.33333333 </v>
   <v name="shift">      0.00000000       0.00000000       0.00000000 </v>
  </generation>
  <varray name="kpointlist" >
   <v>       0.00000000       0.00000000       0.00000000 </v>
   <v>       0.33333333       0.00000000       0.00000000 </v>
   <v>       0.00000000       0.33333333       0.00000000 </v>
   <v>       0.33333333       0.33333333       0.00000000 </v>
   <v>      -0.33333333       0.33333333       0.00000000 </v>
   <v>       0.00000000       0.00000000       0.33333333 </v>
   <v>       0.33333333       0.00000000       0.33333333 </v>
   <v>      -0.33333333       0.00000000       0.33333333 </v>
   <v>       0.00000000       0.33333333       0.33333333 </v>
   <v>       0.33333333       0.33333333       0.33333333 </v>
   <v>      -0.33333333       0.33333333       0.33333333 </v>
   <v>       0.00000000      -0.33333333       0.33333333 </v>
   <v>       0.33333333      -0.33333333       0.33333333 </v>
   <v>      -0.33333333      -0.33333333       0.33333333 </v>
  </varray>
  <varray name="weights" >
   <v>       0.03703704 </v>
   <v>       0.07407407 </v>
   <v>       0.07407407 </v>
   <v>       0.07407407 </v>
   <v>       0.07407407 </v>
   <v>       0.07407407 </v>
   <v>       0.07407407 </v>
   <v>       0.07407407 </v>
   <v>       0.07407407 </v>
   <v>       0.07407407 </v>
   <v>       0.07407407 </v>
   <v>       0.07407407 </v>
   <v>       0.07407407 </v>
   <v>       0.07407407 </v>
  </varray>
 </kpoints>
 <parameters>
  <separator name="general" >
   <i type="string" name="SYSTEM">unknown system</i>
   <i type="logical" name="LCOMPAT"> F  </i>
  </separator>
  <separator name="electronic" >
   <i type="string" name="PREC">a</i>
   <i name="ENMAX">    600.00000000</i>
   <i name="ENAUG">    605.39200000</i>
   <i name="EDIFF">      0.00000100</i>
   <i type="int" name="IALGO">    38</i>
   <i type="int" name="IWAVPR">    10</i>
   <i type="int" name="NBANDS">   520</i>
   <i name="NELECT">    864.00000000</i>
   <i type="int" name="TURBO">     0</i>
   <i type="int" name="IRESTART">     0</i>
   <i type="int" name="NREBOOT">     0</i>
   <i type="int" name="NMIN">     0</i>
   <i name="EREF">      0.00000000</i>
   <separator name="electronic smearing" >
    <i type="int" name="ISMEAR">     0</i>
    <i name="SIGMA">      0.05000000</i>
    <i name="KSPACING">      0.30000000</i>
    <i type="logical" name="KGAMMA"> T  </i>
   </separator>
   <separator name="electronic projectors" >
    <i type="logical" name="LREAL"> T  </i>
    <v name="ROPT">     -0.00025000     -0.00025000     -0.00025000</v>
    <i type="int" name="LMAXPAW">  -100</i>
    <i type="int" name="LMAXMIX">     2</i>
    <i type="logical" name="NLSPLINE"> F  </i>
   </separator>
   <separator name="electronic startup" >
    <i type="int" name="ISTART">     0</i>
    <i type="int" name="ICHARG">     2</i>
    <i type="int" name="INIWAV">     1</i>
   </separator>
   <separator name="electronic spin" >
    <i type="int" name="ISPIN">     1</i>
    <i type="logical" name="LNONCOLLINEAR"> F  </i>
    <v name="MAGMOM">      1.00000000      1.00000000      1.00000000      1.00000000      1.00000000      1.00000000      1.00000000      1.00000000      1.00000000      1.00000000      1.00000000      1.00000000      1.00000000      1.00000000      1.00000000      1.00000000      1.00000000      1.00000000      1.00000000      1.00000000
      1.00000000      1.00000000      1.00000000      1.00000000      1.00000000      1.00000000      1.00000000      1.00000000      1.00000000      1.00000000      1.00000000      1.00000000      1.00000000      1.00000000      1.00000000      1.00000000      1.00000000      1.00000000      1.00000000      1.00000000
      1.00000000      1.00000000      1.00000000      1.00000000      1.00000000      1.00000000      1.00000000      1.00000000      1.00000000      1.00000000      1.00000000      1.00000000      1.00000000      1.00000000      1.00000000      1.00000000      1.00000000      1.00000000      1.00000000      1.00000000
      1.00000000      1.00000000      1.00000000      1.00000000      1.00000000      1.00000000      1.00000000      1.00000000      1.00000000      1.00000000      1.00000000      1.00000000      1.00000000      1.00000000      1.00000000      1.00000000      1.00000000      1.00000000      1.00000000      1.00000000
      1.00000000      1.00000000      1.00000000      1.00000000      1.00000000      1.00000000      1.00000000      1.00000000      1.00000000      1.00000000      1.00000000      1.00000000      1.00000000      1.00000000      1.00000000      1.00000000      1.00000000      1.00000000      1.00000000      1.00000000
      1.00000000      1.00000000      1.00000000      1.00000000      1.00000000      1.00000000      1.00000000      1.00000000      1.00000000      1.00000000      1.00000000      1.00000000      1.00000000      1.00000000      1.00000000      1.00000000      1.00000000      1.00000000      1.00000000      1.00000000
      1.00000000      1.00000000      1.00000000      1.00000000      1.00000000      1.00000000      1.00000000      1.00000000      1.00000000      1.00000000      1.00000000      1.00000000      1.00000000      1.00000000      1.00000000</v>
    <i name="NUPDOWN">     -1.00000000</i>
    <i type="logical" name="LSORBIT"> F  </i>
    <v name="SAXIS">      0.00000000      0.00000000      1.00000000</v>
    <i type="logical" name="LSPIRAL"> F  </i>
    <v name="QSPIRAL">      0.00000000      0.00000000      0.00000000</v>
    <i type="logical" name="LZEROZ"> F  </i>
   </separator>
   <separator name="electronic exchange-correlation" >
    <i type="logical" name="LASPH"> F  </i>
    <i type="logical" name="LMETAGGA"> F  </i>
   </separator>
   <separator name="electronic convergence" >
    <i type="int" name="NELM">    60</i>
    <i type="int" name="NELMDL">    -5</i>
    <i type="int" name="NELMIN">     2</i>
    <i name="ENINI">    600.00000000</i>
    <separator name="electronic convergence detail" >
     <i type="logical" name="LDIAG"> T  </i>
     <i type="logical" name="LSUBROT"> F  </i>
     <i name="WEIMIN">      0.00000000</i>
     <i name="EBREAK">      0.00000000</i>
     <i name="DEPER">      0.30000000</i>
     <i type="int" name="NRMM">     4</i>
     <i name="TIME">      0.40000000</i>
    </separator>
   </separator>
   <separator name="electronic mixer" >
    <i name="AMIX">      0.40000000</i>
    <i name="BMIX">      1.00000000</i>
    <i name="AMIN">      0.10000000</i>
    <i name="AMIX_MAG">      1.60000000</i>
    <i name="BMIX_MAG">      1.00000000</i>
    <separator name="electronic mixer details" >
     <i type="int" name="IMIX">     4</i>
     <i type="logical" name="MIXFIRST"> F  </i>
     <i type="int" name="MAXMIX">   -45</i>
     <i name="WC">    100.00000000</i>
     <i type="int" name="INIMIX">     1</i>
     <i type="int" name="MIXPRE">     1</i>
     <i type="int" name="MREMOVE">     5</i>
    </separator>
   </separator>
   <separator name="electronic dipolcorrection" >
    <i type="logical" name="LDIPOL"> F  </i>
    <i type="logical" name="LMONO"> F  </i>
    <i type="int" name="IDIPOL">     0</i>
    <i name="EPSILON">      1.00000000</i>
    <v name="DIPOL">   -100.00000000   -100.00000000   -100.00000000</v>
    <i name="EFIELD">      0.00000000</i>
   </separator>
  </separator>
  <separator name="grids" >
   <i type="int" name="NGX">    80</i>
   <i type="int" name="NGY">    80</i>
   <i type="int" name="NGZ">    80</i>
   <i type="int" name="NGXF">   160</i>
   <i type="int" name="NGYF">   160</i>
   <i type="int" name="NGZF">   160</i>
   <i type="logical" name="ADDGRID"> T  </i>
  </separator>
  <separator name="ionic" >
   <i type="int" name="NSW">     1</i>
   <i type="int" name="IBRION">    -1</i>
   <i type="int" name="MDALGO">     0</i>
   <i type="int" name="ISIF">     2</i>
   <i name="PSTRESS">      0.00000000</i>
   <i name="EDIFFG">     -0.01000000</i>
   <i type="int" name="NFREE">     0</i>
   <i name="POTIM">      1.00000000</i>
   <i name="SMASS">     -3.00000000</i>
   <i name="SCALEE">      1.00000000</i>
  </separator>
  <separator name="ionic md" >
   <i name="TEBEG">      0.00010000</i>
   <i name="TEEND">      0.00010000</i>
   <i type="int" name="NBLOCK">     1</i>
   <i type="int" name="KBLOCK">     1</i>
   <i type="int" name="NPACO">   256</i>
   <i name="APACO">     16.00000000</i>
  </separator>
  <separator name="symmetry" >
   <i type="int" name="ISYM">     0</i>
   <i name="SYMPREC">      0.00001000</i>
  </separator>
  <separator name="dos" >
   <i type="int" name="LORBIT">     0</i>
   <v name="RWIGS">     -1.00000000     -1.00000000     -1.00000000</v>
   <i type="int" name="NEDOS">   301</i>
   <i name="EMIN">     10.00000000</i>
   <i name="EMAX">    -10.00000000</i>
   <i name="EFERMI">      0.00000000</i>
  </separator>
  <separator name="writing" >
   <i type="int" name="NWRITE">     2</i>
   <i type="logical" name="LWAVE"> F  </i>
   <i type="logical" name="LDOWNSAMPLE"> F  </i>
   <i type="logical" name="LCHARG"> F  </i>
   <i type="logical" name="LPARD"> F  </i>
   <i type="logical" name="LVTOT"> F  </i>
   <i type="logical" name="LVHAR"> F  </i>
   <i type="logical" name="LELF"> F  </i>
   <i type="logical" name="LOPTICS"> F  </i>
   <v name="STM">      0.00000000      0.00000000      0.00000000      0.00000000      0.00000000      0.00000000      0.00000000</v>
  </separator>
  <separator name="performance" >
   <i type="int" name="NPAR">     4</i>
   <i type="int" name="NSIM">     4</i>
   <i type="int" name="NBLK">    -1</i>
   <i type="logical" name="LPLANE"> T  </i>
   <i type="logical" name="LSCALAPACK"> F  </i>
   <i type="logical" name="LSCAAWARE"> F  </i>
   <i type="logical" name="LSCALU"> F  </i>
   <i type="logical" name="LASYNC"> F  </i>
   <i type="logical" name="LORBITALREAL"> F  </i>
  </separator>
  <separator name="miscellaneous" >
   <i type="int" name="IDIOT">     3</i>
   <i type="int" name="ISPECIAL">     0</i>
   <i type="logical" name="LMUSIC"> F  </i>
   <v name="POMASS">     40.07800000     28.08500000     16.00000000</v>
   <v name="DARWINR">      0.00000000      0.00000000      0.00000000</v>
   <v name="DARWINV">      1.00000000      1.00000000      1.00000000</v>
   <i type="logical" name="LCORR"> T  </i>
  </separator>
  <i type="logical" name="GGA_COMPAT"> T  </i>
  <i type="logical" name="LBERRY"> F  </i>
  <i type="int" name="ICORELEVEL">     0</i>
  <i type="logical" name="LDAU"> F  </i>
  <i type="int" name="I_CONSTRAINED_M">     0</i>
  <separator name="electronic exchange-correlation" >
   <i type="string" name="GGA">--</i>
   <i type="int" name="VOSKOWN">     0</i>
   <i type="logical" name="LHFCALC"> F  </i>
   <i type="string" name="PRECFOCK"></i>
   <i type="logical" name="LSYMGRAD"> F  </i>
   <i type="logical" name="LHFONE"> F  </i>
   <i type="logical" name="LRHFCALC"> F  </i>
   <i type="logical" name="LTHOMAS"> F  </i>
   <i type="logical" name="LMODELHF"> F  </i>
   <i name="ENCUT4O">     -1.00000000</i>
   <i type="int" name="EXXOEP">     0</i>
   <i type="int" name="FOURORBIT">     0</i>
   <i name="AEXX">      0.00000000</i>
   <i name="HFALPHA">      0.00000000</i>
   <i name="MCALPHA">      0.00000000</i>
   <i name="ALDAX">      1.00000000</i>
   <i name="AGGAX">      1.00000000</i>
   <i name="ALDAC">      1.00000000</i>
   <i name="AGGAC">      1.00000000</i>
   <i type="int" name="NKREDX">     1</i>
   <i type="int" name="NKREDY">     1</i>
   <i type="int" name="NKREDZ">     1</i>
   <i type="logical" name="SHIFTRED"> F  </i>
   <i type="logical" name="ODDONLY"> F  </i>
   <i type="logical" name="EVENONLY"> F  </i>
   <i type="int" name="LMAXFOCK">     0</i>
   <i type="int" name="NMAXFOCKAE">     0</i>
   <i type="logical" name="LFOCKAEDFT"> F  </i>
   <i name="HFSCREEN">      0.00000000</i>
   <i name="HFSCREENC">      0.00000000</i>
   <i type="int" name="NBANDSGWLOW">     0</i>
  </separator>
  <separator name="vdW DFT" >
   <i type="logical" name="LUSE_VDW"> F  </i>
   <i name="Zab_VDW">     -0.84910000</i>
   <i name="PARAM1">      0.12340000</i>
   <i name="PARAM2">      1.00000000</i>
   <i name="PARAM3">      0.00000000</i>
  </separator>
  <separator name="model GW" >
   <i type="int" name="MODEL_GW">     0</i>
   <i name="MODEL_EPS0">      4.36749071</i>
   <i name="MODEL_ALPHA">      1.00000000</i>
  </separator>
  <separator name="linear response parameters" >
   <i type="logical" name="LEPSILON"> F  </i>
   <i type="logical" name="LRPA"> F  </i>
   <i type="logical" name="LNABLA"> F  </i>
   <i type="logical" name="LVEL"> F  </i>
   <i type="int" name="KINTER">     0</i>
   <i name="CSHIFT">      0.10000000</i>
   <i name="OMEGAMAX">     -1.00000000</i>
   <i name="DEG_THRESHOLD">      0.00200000</i>
   <i name="RTIME">     -0.10000000</i>
   <i name="WPLASMAI">      0.00000000</i>
   <v name="DFIELD">      0.00000000      0.00000000      0.00000000</v>
   <v name="WPLASMA">      0.00000000      0.00000000      0.00000000      0.00000000      0.00000000      0.00000000      0.00000000      0.00000000      0.00000000</v>
  </separator>
  <separator name="orbital magnetization" >
   <i type="logical" name="NUCIND"> F  </i>
   <v name="MAGPOS">      0.00000000      0.00000000      0.00000000</v>
   <i type="logical" name="LNICSALL"> T  </i>
   <i type="logical" name="ORBITALMAG"> F  </i>
   <i type="logical" name="LMAGBLOCH"> F  </i>
   <i type="logical" name="LCHIMAG"> F  </i>
   <i type="logical" name="LGAUGE"> T  </i>
   <i type="int" name="MAGATOM">     0</i>
   <v name="MAGDIPOL">      0.00000000      0.00000000      0.00000000</v>
   <v name="AVECCONST">      0.00000000      0.00000000      0.00000000</v>
  </separator>
  <separator name="response functions" >
   <i type="logical" name="LADDER"> F  </i>
   <i type="logical" name="LRPAFORCE"> F  </i>
   <i type="logical" name="LFXC"> F  </i>
   <i type="logical" name="LHARTREE"> T  </i>
   <i type="int" name="IBSE">     0</i>
   <v type="int" name="KPOINT">    -1     0     0     0</v>
   <i type="logical" name="LTCTE"> F  </i>
   <i type="logical" name="LTETE"> F  </i>
   <i type="logical" name="LTRIPLET"> F  </i>
   <i type="logical" name="LFXCEPS"> F  </i>
   <i type="logical" name="LFXHEG"> F  </i>
   <i type="int" name="NATURALO">     2</i>
   <i type="logical" name="L2ORDER"> F  </i>
   <i type="logical" name="LMP2LT"> F  </i>
   <i type="logical" name="LUSEW"> F  </i>
   <i name="ENCUTGW">     -2.00000000</i>
   <i name="ENCUTGWSOFT">     -2.00000000</i>
   <i name="ENCUTLF">     -1.00000000</i>
   <i type="int" name="LMAXMP2">    -1</i>
   <i name="SCISSOR">      0.00000000</i>
   <i type="int" name="NOMEGA">     0</i>
   <i type="int" name="NOMEGAR">     0</i>
   <i type="int" name="NBANDSGW">    -1</i>
   <i type="int" name="NBANDSO">    -1</i>
   <i type="int" name="NBANDSV">    -1</i>
   <i type="int" name="NELM">     1</i>
   <i type="int" name="NELMHF">     1</i>
   <i type="int" name="DIM">     3</i>
   <i type="int" name="ANTIRES">     0</i>
   <i name="OMEGAMAX">    -30.00000000</i>
   <i name="OMEGAMIN">    -30.00000000</i>
   <i name="OMEGATL">   -200.00000000</i>
   <i type="int" name="OMEGAGRID">   140</i>
   <i name="CSHIFT">     -0.10000000</i>
   <i type="logical" name="SELFENERGY"> F  </i>
   <i type="logical" name="LSPECTRAL"> F  </i>
   <i type="logical" name="LSPECTRALGW"> F  </i>
   <i type="logical" name="LSINGLES"> F  </i>
   <i type="logical" name="LFERMIGW"> F  </i>
   <i type="logical" name="ODDONLYGW"> F  </i>
   <i type="logical" name="EVENONLYGW"> F  </i>
   <i type="int" name="NKREDLFX">     1</i>
   <i type="int" name="NKREDLFY">     1</i>
   <i type="int" name="NKREDLFZ">     1</i>
   <i type="int" name="MAXMEM">  2800</i>
   <i type="int" name="TELESCOPE">     0</i>
   <i type="int" name="TAUPAR">     1</i>
   <i type="int" name="OMEGAPAR">    -1</i>
   <i name="LAMBDA">      1.00000000</i>
  </separator>
  <separator name="External order field" >
   <i name="OFIELD_KAPPA">      0.00000000</i>
   <v name="OFIELD_K">      0.00000000      0.00000000      0.00000000</v>
   <i name="OFIELD_Q6_NEAR">      0.00000000</i>
   <i name="OFIELD_Q6_FAR">      0.00000000</i>
   <i name="OFIELD_A">      0.00000000</i>
  </separator>
 </parameters>
 <atominfo>
  <atoms>     135 </atoms>
  <types>       3 </types>
  <array name="atoms" >
   <dimension dim="1">ion</dimension>
   <field type="string">element</field>
   <field type="int">atomtype</field>
   <set>
    <rc><c>Ca</c><c>   1</c></rc>
    <rc><c>Ca</c><c>   1</c></rc>
    <rc><c>Ca</c><c>   1</c></rc>
    <rc><c>Ca</c><c>   1</c></rc>
    <rc><c>Ca</c><c>   1</c></rc>
    <rc><c>Ca</c><c>   1</c></rc>
    <rc><c>Ca</c><c>   1</c></rc>
    <rc><c>Ca</c><c>   1</c></rc>
    <rc><c>Ca</c><c>   1</c></rc>
    <rc><c>Ca</c><c>   1</c></rc>
    <rc><c>Ca</c><c>   1</c></rc>
    <rc><c>Ca</c><c>   1</c></rc>
    <rc><c>Ca</c><c>   1</c></rc>
    <rc><c>Ca</c><c>   1</c></rc>
    <rc><c>Ca</c><c>   1</c></rc>
    <rc><c>Ca</c><c>   1</c></rc>
    <rc><c>Ca</c><c>   1</c></rc>
    <rc><c>Ca</c><c>   1</c></rc>
    <rc><c>Ca</c><c>   1</c></rc>
    <rc><c>Ca</c><c>   1</c></rc>
    <rc><c>Ca</c><c>   1</c></rc>
    <rc><c>Ca</c><c>   1</c></rc>
    <rc><c>Ca</c><c>   1</c></rc>
    <rc><c>Ca</c><c>   1</c></rc>
    <rc><c>Ca</c><c>   1</c></rc>
    <rc><c>Ca</c><c>   1</c></rc>
    <rc><c>Ca</c><c>   1</c></rc>
    <rc><c>Si</c><c>   2</c></rc>
    <rc><c>Si</c><c>   2</c></rc>
    <rc><c>Si</c><c>   2</c></rc>
    <rc><c>Si</c><c>   2</c></rc>
    <rc><c>Si</c><c>   2</c></rc>
    <rc><c>Si</c><c>   2</c></rc>
    <rc><c>Si</c><c>   2</c></rc>
    <rc><c>Si</c><c>   2</c></rc>
    <rc><c>Si</c><c>   2</c></rc>
    <rc><c>Si</c><c>   2</c></rc>
    <rc><c>Si</c><c>   2</c></rc>
    <rc><c>Si</c><c>   2</c></rc>
    <rc><c>Si</c><c>   2</c></rc>
    <rc><c>Si</c><c>   2</c></rc>
    <rc><c>Si</c><c>   2</c></rc>
    <rc><c>Si</c><c>   2</c></rc>
    <rc><c>Si</c><c>   2</c></rc>
    <rc><c>Si</c><c>   2</c></rc>
    <rc><c>Si</c><c>   2</c></rc>
    <rc><c>Si</c><c>   2</c></rc>
    <rc><c>Si</c><c>   2</c></rc>
    <rc><c>Si</c><c>   2</c></rc>
    <rc><c>Si</c><c>   2</c></rc>
    <rc><c>Si</c><c>   2</c></rc>
    <rc><c>Si</c><c>   2</c></rc>
    <rc><c>Si</c><c>   2</c></rc>
    <rc><c>Si</c><c>   2</c></rc>
    <rc><c>O </c><c>   3</c></rc>
    <rc><c>O </c><c>   3</c></rc>
    <rc><c>O </c><c>   3</c></rc>
    <rc><c>O </c><c>   3</c></rc>
    <rc><c>O </c><c>   3</c></rc>
    <rc><c>O </c><c>   3</c></rc>
    <rc><c>O </c><c>   3</c></rc>
    <rc><c>O </c><c>   3</c></rc>
    <rc><c>O </c><c>   3</c></rc>
    <rc><c>O </c><c>   3</c></rc>
    <rc><c>O </c><c>   3</c></rc>
    <rc><c>O </c><c>   3</c></rc>
    <rc><c>O </c><c>   3</c></rc>
    <rc><c>O </c><c>   3</c></rc>
    <rc><c>O </c><c>   3</c></rc>
    <rc><c>O </c><c>   3</c></rc>
    <rc><c>O </c><c>   3</c></rc>
    <rc><c>O </c><c>   3</c></rc>
    <rc><c>O </c><c>   3</c></rc>
    <rc><c>O </c><c>   3</c></rc>
    <rc><c>O </c><c>   3</c></rc>
    <rc><c>O </c><c>   3</c></rc>
    <rc><c>O </c><c>   3</c></rc>
    <rc><c>O </c><c>   3</c></rc>
    <rc><c>O </c><c>   3</c></rc>
    <rc><c>O </c><c>   3</c></rc>
    <rc><c>O </c><c>   3</c></rc>
    <rc><c>O </c><c>   3</c></rc>
    <rc><c>O </c><c>   3</c></rc>
    <rc><c>O </c><c>   3</c></rc>
    <rc><c>O </c><c>   3</c></rc>
    <rc><c>O </c><c>   3</c></rc>
    <rc><c>O </c><c>   3</c></rc>
    <rc><c>O </c><c>   3</c></rc>
    <rc><c>O </c><c>   3</c></rc>
    <rc><c>O </c><c>   3</c></rc>
    <rc><c>O </c><c>   3</c></rc>
    <rc><c>O </c><c>   3</c></rc>
    <rc><c>O </c><c>   3</c></rc>
    <rc><c>O </c><c>   3</c></rc>
    <rc><c>O </c><c>   3</c></rc>
    <rc><c>O </c><c>   3</c></rc>
    <rc><c>O </c><c>   3</c></rc>
    <rc><c>O </c><c>   3</c></rc>
    <rc><c>O </c><c>   3</c></rc>
    <rc><c>O </c><c>   3</c></rc>
    <rc><c>O </c><c>   3</c></rc>
    <rc><c>O </c><c>   3</c></rc>
    <rc><c>O </c><c>   3</c></rc>
    <rc><c>O </c><c>   3</c></rc>
    <rc><c>O </c><c>   3</c></rc>
    <rc><c>O </c><c>   3</c></rc>
    <rc><c>O </c><c>   3</c></rc>
    <rc><c>O </c><c>   3</c></rc>
    <rc><c>O </c><c>   3</c></rc>
    <rc><c>O </c><c>   3</c></rc>
    <rc><c>O </c><c>   3</c></rc>
    <rc><c>O </c><c>   3</c></rc>
    <rc><c>O </c><c>   3</c></rc>
    <rc><c>O </c><c>   3</c></rc>
    <rc><c>O </c><c>   3</c></rc>
    <rc><c>O </c><c>   3</c></rc>
    <rc><c>O </c><c>   3</c></rc>
    <rc><c>O </c><c>   3</c></rc>
    <rc><c>O </c><c>   3</c></rc>
    <rc><c>O </c><c>   3</c></rc>
    <rc><c>O </c><c>   3</c></rc>
    <rc><c>O </c><c>   3</c></rc>
    <rc><c>O </c><c>   3</c></rc>
    <rc><c>O </c><c>   3</c></rc>
    <rc><c>O </c><c>   3</c></rc>
    <rc><c>O </c><c>   3</c></rc>
    <rc><c>O </c><c>   3</c></rc>
    <rc><c>O </c><c>   3</c></rc>
    <rc><c>O </c><c>   3</c></rc>
    <rc><c>O </c><c>   3</c></rc>
    <rc><c>O </c><c>   3</c></rc>
    <rc><c>O </c><c>   3</c></rc>
    <rc><c>O </c><c>   3</c></rc>
    <rc><c>O </c><c>   3</c></rc>
    <rc><c>O </c><c>   3</c></rc>
   </set>
  </array>
  <array name="atomtypes" >
   <dimension dim="1">type</dimension>
   <field type="int">atomspertype</field>
   <field type="string">element</field>
   <field>mass</field>
   <field>valence</field>
   <field type="string">pseudopotential</field>
   <set>
    <rc><c>  27</c><c>Ca</c><c>     40.07800000</c><c>     10.00000000</c><c>  PAW_PBE Ca_sv 06Sep2000               </c></rc>
    <rc><c>  27</c><c>Si</c><c>     28.08500000</c><c>      4.00000000</c><c>  PAW_PBE Si 05Jan2001                  </c></rc>
    <rc><c>  81</c><c>O </c><c>     16.00000000</c><c>      6.00000000</c><c>  PAW_PBE O 08Apr2002                   </c></rc>
   </set>
  </array>
 </atominfo>
 <structure name="initialpos" >
  <crystal>
   <varray name="basis" >
    <v>       9.94194835       0.00000000       0.00000000 </v>
    <v>       0.00000000       9.94194835       0.00000000 </v>
    <v>       0.00000000       0.00000000       9.94194835 </v>
   </varray>
   <i name="volume">    982.68540919 </i>
   <varray name="rec_basis" >
    <v>       0.10058391       0.00000000       0.00000000 </v>
    <v>       0.00000000       0.10058391       0.00000000 </v>
    <v>       0.00000000       0.00000000       0.10058391 </v>
   </varray>
  </crystal>
  <varray name="positions" >
   <v>       0.20878242       0.45475218       0.57778990 </v>
   <v>       0.39268741       0.66603176       0.34538214 </v>
   <v>       0.69406258       0.60001226       0.44802024 </v>
   <v>       0.79543926       0.38491972       0.71228491 </v>
   <v>       0.51456360       0.38071118       0.62900826 </v>
   <v>       0.36025020       0.38933509       0.09195782 </v>
   <v>       0.54694669       0.91454225       0.14584610 </v>
   <v>       0.10909885       0.51242635       0.99463907 </v>
   <v>       0.96931289       0.56223222       0.47133338 </v>
   <v>       0.24294476       0.20385720       0.32028631 </v>
   <v>       0.21431890       0.96216054       0.02752851 </v>
   <v>       0.07304223       0.27292759       0.76145982 </v>
   <v>       0.37049780       0.91629429       0.58750346 </v>
   <v>       0.93844085       0.07851620       0.94423195 </v>
   <v>       0.08063219       0.02231619       0.46993262 </v>
   <v>       0.65817231       0.35989287       0.12289113 </v>
   <v>       0.57699478       0.15061638       0.39566478 </v>
   <v>       0.10035209       0.73880822       0.24197275 </v>
   <v>       0.93557087       0.81455472       0.70280733 </v>
   <v>       0.50080478       0.59253333       0.87275841 </v>
   <v>       0.94244665       0.32421103       0.18979154 </v>
   <v>       0.37638416       0.15693880       0.85715165 </v>
   <v>       0.23826667       0.75698540       0.79400294 </v>
   <v>       0.79314615       0.61151510       0.92010189 </v>
   <v>       0.67217315       0.77076174       0.65553247 </v>
   <v>       0.65481304       0.08855745       0.89615412 </v>
   <v>       0.80920459       0.83916029       0.17867289 </v>
   <v>       0.31247256       0.95286460       0.32580270 </v>
   <v>       0.27961895       0.44749005       0.79578374 </v>
   <v>       0.13457410       0.77639189       0.55493313 </v>
   <v>       0.88790348       0.59746432       0.18685309 </v>
   <v>       0.59881473       0.85780020       0.40761963 </v>
   <v>       0.59966397       0.34934448       0.89350738 </v>
   <v>       0.83343467       0.08277280       0.63488231 </v>
   <v>       0.02084752       0.28919819       0.43513165 </v>
   <v>       0.70453872       0.85257645       0.91151349 </v>
   <v>       0.84683656       0.37410891       0.94962574 </v>
   <v>       0.15695767       0.01145659       0.75722828 </v>
   <v>       0.02926218       0.03962305       0.21380713 </v>
   <v>       0.60058532       0.60838425       0.17304174 </v>
   <v>       0.74598556       0.12624680       0.19192690 </v>
   <v>       0.75570318       0.33937609       0.43216509 </v>
   <v>       0.25760457       0.20333874       0.56751544 </v>
   <v>       0.46812971       0.88997304       0.84937038 </v>
   <v>       0.98635664       0.56163452       0.72567726 </v>
   <v>       0.18662602       0.49989207       0.29269340 </v>
   <v>       0.15736984       0.24144105       0.01576142 </v>
   <v>       0.31710582       0.68584901       0.05217357 </v>
   <v>       0.88486270       0.84345439       0.42219655 </v>
   <v>       0.45754147       0.14267435       0.12538771 </v>
   <v>       0.99872162       0.79517960       0.98157687 </v>
   <v>       0.58343889       0.13050356       0.64141776 </v>
   <v>       0.45214687       0.39808857       0.35828855 </v>
   <v>       0.44844357       0.65767138       0.60378483 </v>
   <v>       0.90401590       0.69945640       0.31921637 </v>
   <v>       0.43125024       0.52466489       0.48605101 </v>
   <v>       0.50780827       0.27623609       0.23667293 </v>
   <v>       0.41875371       0.02611966       0.03486977 </v>
   <v>       0.59039903       0.25383755       0.76415939 </v>
   <v>       0.58957053       0.77261185       0.26907367 </v>
   <v>       0.73194965       0.79062633       0.47287158 </v>
   <v>       0.43663109       0.42216720       0.86002814 </v>
   <v>       0.02061299       0.50040422       0.22725244 </v>
   <v>       0.50098965       0.01552230       0.78813136 </v>
   <v>       0.06958239       0.89211399       0.84481355 </v>
   <v>       0.09891629       0.64759743       0.63720876 </v>
   <v>       0.80631035       0.23343460       0.08353065 </v>
   <v>       0.19231137       0.82828674       0.40391748 </v>
   <v>       0.99495050       0.40700415       0.62375729 </v>
   <v>       0.35065996       0.57137362       0.71220959 </v>
   <v>       0.29614097       0.96122955       0.81438141 </v>
   <v>       0.39831300       0.08032417       0.24694599 </v>
   <v>       0.66487506       0.48855144       0.81861529 </v>
   <v>       0.59493334       0.36384541       0.44581680 </v>
   <v>       0.98206470       0.76629540       0.52419374 </v>
   <v>       0.72705399       0.16257614       0.54784715 </v>
   <v>       0.94182602       0.69003031       0.08210402 </v>
   <v>       0.82276014       0.14158968       0.76915338 </v>
   <v>       0.25054361       0.59348770       0.18103279 </v>
   <v>       0.33688927       0.82544021       0.21110675 </v>
   <v>       0.51290183       0.24898578       0.98693624 </v>
   <v>       0.28059725       0.58746713       0.91599507 </v>
   <v>       0.76201148       0.95785753       0.05574475 </v>
   <v>       0.21105673       0.12781710       0.67704330 </v>
   <v>       0.73439056       0.96582235       0.76824824 </v>
   <v>       0.73251606       0.55619846       0.18829709 </v>
   <v>       0.55970727       0.48124097       0.04717929 </v>
   <v>       0.32407170       0.32183164       0.47243855 </v>
   <v>       0.33674690       0.82781684       0.97929285 </v>
   <v>       0.00019282       0.03479912       0.65860714 </v>
   <v>       0.88975737       0.25028238       0.51100057 </v>
   <v>       0.04629446       0.22364500       0.32581046 </v>
   <v>       0.60875035       0.10841105       0.11096955 </v>
   <v>       0.74466815       0.29114029       0.88068429 </v>
   <v>       0.08714105       0.42709712       0.39803554 </v>
   <v>       0.31045846       0.44667091       0.30782652 </v>
   <v>       0.56624104       0.90350875       0.95969332 </v>
   <v>       0.57788177       0.57035206       0.66235680 </v>
   <v>       0.61788764       0.98087227       0.56154249 </v>
   <v>       0.84860444       0.48424193       0.05791608 </v>
   <v>       0.08685027       0.14377966       0.11375657 </v>
   <v>       0.82980927       0.61868955       0.65848664 </v>
   <v>       0.23486054       0.35362268       0.91041977 </v>
   <v>       0.87900429       0.07783751       0.24504136 </v>
   <v>       0.96776695       0.91288503       0.29906026 </v>
   <v>       0.18468435       0.60118559       0.42681645 </v>
   <v>       0.28983121       0.07259263       0.46115161 </v>
   <v>       0.92234083       0.47606545       0.85563780 </v>
   <v>       0.41615081       0.18018487       0.61021063 </v>
   <v>       0.15204652       0.74641569       0.02858467 </v>
   <v>       0.47393963       0.66956774       0.07190882 </v>
   <v>       0.00289543       0.92831550       0.08050231 </v>
   <v>       0.81158467       0.44692921       0.53532633 </v>
   <v>       0.29760613       0.19385703       0.10466970 </v>
   <v>       0.15442562       0.91574489       0.62805999 </v>
   <v>       0.86799825       0.99258701       0.51136689 </v>
   <v>       0.66657913       0.73778305       0.84655502 </v>
   <v>       0.71910859       0.23607466       0.31710435 </v>
   <v>       0.49887389       0.53124891       0.25306413 </v>
   <v>       0.86371712       0.81377609       0.89661775 </v>
   <v>       0.53232540       0.77837674       0.53032967 </v>
   <v>       0.12791847       0.20366965       0.50817743 </v>
   <v>       0.29829130       0.70652228       0.55250637 </v>
   <v>       0.17097959       0.98312093       0.22293246 </v>
   <v>       0.67392887       0.99185706       0.30914920 </v>
   <v>       0.45654111       0.77447335       0.74139985 </v>
   <v>       0.43841440       0.94270613       0.38557279 </v>
   <v>       0.30558064       0.32340584       0.66231252 </v>
   <v>       0.12064632       0.46604342       0.75440697 </v>
   <v>       0.15994224       0.16422489       0.88429467 </v>
   <v>       0.99825926       0.66210634       0.85719384 </v>
   <v>       0.15009147       0.34898346       0.14559972 </v>
   <v>       0.80318340       0.45012340       0.33910171 </v>
   <v>       0.70247214       0.72889997       0.06020762 </v>
   <v>       0.98948061       0.29584743       0.97373599 </v>
  </varray>
  <varray name="velocities" >
   <v>       0.00000000       0.00000000       0.00000000 </v>
   <v>       0.00000000       0.00000000       0.00000000 </v>
   <v>       0.00000000       0.00000000       0.00000000 </v>
   <v>       0.00000000       0.00000000       0.00000000 </v>
   <v>       0.00000000       0.00000000       0.00000000 </v>
   <v>       0.00000000       0.00000000       0.00000000 </v>
   <v>       0.00000000       0.00000000       0.00000000 </v>
   <v>       0.00000000       0.00000000       0.00000000 </v>
   <v>       0.00000000       0.00000000       0.00000000 </v>
   <v>       0.00000000       0.00000000       0.00000000 </v>
   <v>       0.00000000       0.00000000       0.00000000 </v>
   <v>       0.00000000       0.00000000       0.00000000 </v>
   <v>       0.00000000       0.00000000       0.00000000 </v>
   <v>       0.00000000       0.00000000       0.00000000 </v>
   <v>       0.00000000       0.00000000       0.00000000 </v>
   <v>       0.00000000       0.00000000       0.00000000 </v>
   <v>       0.00000000       0.00000000       0.00000000 </v>
   <v>       0.00000000       0.00000000       0.00000000 </v>
   <v>       0.00000000       0.00000000       0.00000000 </v>
   <v>       0.00000000       0.00000000       0.00000000 </v>
   <v>       0.00000000       0.00000000       0.00000000 </v>
   <v>       0.00000000       0.00000000       0.00000000 </v>
   <v>       0.00000000       0.00000000       0.00000000 </v>
   <v>       0.00000000       0.00000000       0.00000000 </v>
   <v>       0.00000000       0.00000000       0.00000000 </v>
   <v>       0.00000000       0.00000000       0.00000000 </v>
   <v>       0.00000000       0.00000000       0.00000000 </v>
   <v>       0.00000000       0.00000000       0.00000000 </v>
   <v>       0.00000000       0.00000000       0.00000000 </v>
   <v>       0.00000000       0.00000000       0.00000000 </v>
   <v>       0.00000000       0.00000000       0.00000000 </v>
   <v>       0.00000000       0.00000000       0.00000000 </v>
   <v>       0.00000000       0.00000000       0.00000000 </v>
   <v>       0.00000000       0.00000000       0.00000000 </v>
   <v>       0.00000000       0.00000000       0.00000000 </v>
   <v>       0.00000000       0.00000000       0.00000000 </v>
   <v>       0.00000000       0.00000000       0.00000000 </v>
   <v>       0.00000000       0.00000000       0.00000000 </v>
   <v>       0.00000000       0.00000000       0.00000000 </v>
   <v>       0.00000000       0.00000000       0.00000000 </v>
   <v>       0.00000000       0.00000000       0.00000000 </v>
   <v>       0.00000000       0.00000000       0.00000000 </v>
   <v>       0.00000000       0.00000000       0.00000000 </v>
   <v>       0.00000000       0.00000000       0.00000000 </v>
   <v>       0.00000000       0.00000000       0.00000000 </v>
   <v>       0.00000000       0.00000000       0.00000000 </v>
   <v>       0.00000000       0.00000000       0.00000000 </v>
   <v>       0.00000000       0.00000000       0.00000000 </v>
   <v>       0.00000000       0.00000000       0.00000000 </v>
   <v>       0.00000000       0.00000000       0.00000000 </v>
   <v>       0.00000000       0.00000000       0.00000000 </v>
   <v>       0.00000000       0.00000000       0.00000000 </v>
   <v>       0.00000000       0.00000000       0.00000000 </v>
   <v>       0.00000000       0.00000000       0.00000000 </v>
   <v>       0.00000000       0.00000000       0.00000000 </v>
   <v>       0.00000000       0.00000000       0.00000000 </v>
   <v>       0.00000000       0.00000000       0.00000000 </v>
   <v>       0.00000000       0.00000000       0.00000000 </v>
   <v>       0.00000000       0.00000000       0.00000000 </v>
   <v>       0.00000000       0.00000000       0.00000000 </v>
   <v>       0.00000000       0.00000000       0.00000000 </v>
   <v>       0.00000000       0.00000000       0.00000000 </v>
   <v>       0.00000000       0.00000000       0.00000000 </v>
   <v>       0.00000000       0.00000000       0.00000000 </v>
   <v>       0.00000000       0.00000000       0.00000000 </v>
   <v>       0.00000000       0.00000000       0.00000000 </v>
   <v>       0.00000000       0.00000000       0.00000000 </v>
   <v>       0.00000000       0.00000000       0.00000000 </v>
   <v>       0.00000000       0.00000000       0.00000000 </v>
   <v>       0.00000000       0.00000000       0.00000000 </v>
   <v>       0.00000000       0.00000000       0.00000000 </v>
   <v>       0.00000000       0.00000000       0.00000000 </v>
   <v>       0.00000000       0.00000000       0.00000000 </v>
   <v>       0.00000000       0.00000000       0.00000000 </v>
   <v>       0.00000000       0.00000000       0.00000000 </v>
   <v>       0.00000000       0.00000000       0.00000000 </v>
   <v>       0.00000000       0.00000000       0.00000000 </v>
   <v>       0.00000000       0.00000000       0.00000000 </v>
   <v>       0.00000000       0.00000000       0.00000000 </v>
   <v>       0.00000000       0.00000000       0.00000000 </v>
   <v>       0.00000000       0.00000000       0.00000000 </v>
   <v>       0.00000000       0.00000000       0.00000000 </v>
   <v>       0.00000000       0.00000000       0.00000000 </v>
   <v>       0.00000000       0.00000000       0.00000000 </v>
   <v>       0.00000000       0.00000000       0.00000000 </v>
   <v>       0.00000000       0.00000000       0.00000000 </v>
   <v>       0.00000000       0.00000000       0.00000000 </v>
   <v>       0.00000000       0.00000000       0.00000000 </v>
   <v>       0.00000000       0.00000000       0.00000000 </v>
   <v>       0.00000000       0.00000000       0.00000000 </v>
   <v>       0.00000000       0.00000000       0.00000000 </v>
   <v>       0.00000000       0.00000000       0.00000000 </v>
   <v>       0.00000000       0.00000000       0.00000000 </v>
   <v>       0.00000000       0.00000000       0.00000000 </v>
   <v>       0.00000000       0.00000000       0.00000000 </v>
   <v>       0.00000000       0.00000000       0.00000000 </v>
   <v>       0.00000000       0.00000000       0.00000000 </v>
   <v>       0.00000000       0.00000000       0.00000000 </v>
   <v>       0.00000000       0.00000000       0.00000000 </v>
   <v>       0.00000000       0.00000000       0.00000000 </v>
   <v>       0.00000000       0.00000000       0.00000000 </v>
   <v>       0.00000000       0.00000000       0.00000000 </v>
   <v>       0.00000000       0.00000000       0.00000000 </v>
   <v>       0.00000000       0.00000000       0.00000000 </v>
   <v>       0.00000000       0.00000000       0.00000000 </v>
   <v>       0.00000000       0.00000000       0.00000000 </v>
   <v>       0.00000000       0.00000000       0.00000000 </v>
   <v>       0.00000000       0.00000000       0.00000000 </v>
   <v>       0.00000000       0.00000000       0.00000000 </v>
   <v>       0.00000000       0.00000000       0.00000000 </v>
   <v>       0.00000000       0.00000000       0.00000000 </v>
   <v>       0.00000000       0.00000000       0.00000000 </v>
   <v>       0.00000000       0.00000000       0.00000000 </v>
   <v>       0.00000000       0.00000000       0.00000000 </v>
   <v>       0.00000000       0.00000000       0.00000000 </v>
   <v>       0.00000000       0.00000000       0.00000000 </v>
   <v>       0.00000000       0.00000000       0.00000000 </v>
   <v>       0.00000000       0.00000000       0.00000000 </v>
   <v>       0.00000000       0.00000000       0.00000000 </v>
   <v>       0.00000000       0.00000000       0.00000000 </v>
   <v>       0.00000000       0.00000000       0.00000000 </v>
   <v>       0.00000000       0.00000000       0.00000000 </v>
   <v>       0.00000000       0.00000000       0.00000000 </v>
   <v>       0.00000000       0.00000000       0.00000000 </v>
   <v>       0.00000000       0.00000000       0.00000000 </v>
   <v>       0.00000000       0.00000000       0.00000000 </v>
   <v>       0.00000000       0.00000000       0.00000000 </v>
   <v>       0.00000000       0.00000000       0.00000000 </v>
   <v>       0.00000000       0.00000000       0.00000000 </v>
   <v>       0.00000000       0.00000000       0.00000000 </v>
   <v>       0.00000000       0.00000000       0.00000000 </v>
   <v>       0.00000000       0.00000000       0.00000000 </v>
   <v>       0.00000000       0.00000000       0.00000000 </v>
   <v>       0.00000000       0.00000000       0.00000000 </v>
   <v>       0.00000000       0.00000000       0.00000000 </v>
  </varray>
 </structure>
 <calculation>
  <scstep>
   <time name="dav">   39.37   39.38</time>
   <time name="total">   39.75   39.77</time>
   <energy>
    <i name="alphaZ">   4862.75714100 </i>
    <i name="ewald"> -59998.54371557 </i>
    <i name="hartreedc"> -10667.21516528 </i>
    <i name="XCdc">   3347.13908511 </i>
    <i name="pawpsdc">  50594.51003143 </i>
    <i name="pawaedc"> -49994.65612350 </i>
    <i name="eentropy">     -0.02590288 </i>
    <i name="bandstr">   7947.41165532 </i>
    <i name="atom">  64968.54023382 </i>
    <i name="e_fr_energy">  11059.91723946 </i>
    <i name="e_wo_entrp">  11059.94314234 </i>
    <i name="e_0_energy">  11059.93019090 </i>
   </energy>
  </scstep>
  <scstep>
   <time name="dav">   42.68   42.70</time>
   <time name="total">   42.68   42.70</time>
   <energy>
    <i name="e_fr_energy">    390.85930435 </i>
    <i name="e_wo_entrp">    390.85930435 </i>
    <i name="e_0_energy">    390.85930435 </i>
   </energy>
  </scstep>
  <scstep>
   <time name="dav">   43.43   43.44</time>
   <time name="total">   43.43   43.44</time>
   <energy>
    <i name="e_fr_energy">   -830.85730089 </i>
    <i name="e_wo_entrp">   -830.85730089 </i>
    <i name="e_0_energy">   -830.85730089 </i>
   </energy>
  </scstep>
  <scstep>
   <time name="dav">   54.61   54.63</time>
   <time name="total">   54.61   54.63</time>
   <energy>
    <i name="e_fr_energy">   -900.84440991 </i>
    <i name="e_wo_entrp">   -900.84440991 </i>
    <i name="e_0_energy">   -900.84440991 </i>
   </energy>
  </scstep>
  <scstep>
   <time name="dav">   54.55   54.56</time>
   <time name="total">   55.59   55.60</time>
   <energy>
    <i name="e_fr_energy">   -904.89109308 </i>
    <i name="e_wo_entrp">   -904.89109308 </i>
    <i name="e_0_energy">   -904.89109308 </i>
   </energy>
  </scstep>
  <scstep>
   <time name="dav">   45.29   45.30</time>
   <time name="total">   46.70   46.73</time>
   <energy>
    <i name="e_fr_energy">   -760.97877103 </i>
    <i name="e_wo_entrp">   -760.97877103 </i>
    <i name="e_0_energy">   -760.97877103 </i>
   </energy>
  </scstep>
  <scstep>
   <time name="dav">   44.52   44.53</time>
   <time name="total">   45.91   45.92</time>
   <energy>
    <i name="e_fr_energy">   -761.51353642 </i>
    <i name="e_wo_entrp">   -761.51353642 </i>
    <i name="e_0_energy">   -761.51353642 </i>
   </energy>
  </scstep>
  <scstep>
   <time name="dav">   48.95   48.95</time>
   <time name="total">   50.34   50.36</time>
   <energy>
    <i name="e_fr_energy">   -761.09159046 </i>
    <i name="e_wo_entrp">   -761.09159046 </i>
    <i name="e_0_energy">   -761.09159046 </i>
   </energy>
  </scstep>
  <scstep>
   <time name="dav">   44.29   44.29</time>
   <time name="total">   45.69   45.71</time>
   <energy>
    <i name="e_fr_energy">   -760.95625965 </i>
    <i name="e_wo_entrp">   -760.95625965 </i>
    <i name="e_0_energy">   -760.95625965 </i>
   </energy>
  </scstep>
  <scstep>
   <time name="dav">   53.55   53.55</time>
   <time name="total">   54.93   54.95</time>
   <energy>
    <i name="e_fr_energy">   -761.01404608 </i>
    <i name="e_wo_entrp">   -761.01404608 </i>
    <i name="e_0_energy">   -761.01404608 </i>
   </energy>
  </scstep>
  <scstep>
   <time name="dav">   45.86   45.86</time>
   <time name="total">   47.25   47.26</time>
   <energy>
    <i name="e_fr_energy">   -761.01743436 </i>
    <i name="e_wo_entrp">   -761.01743436 </i>
    <i name="e_0_energy">   -761.01743436 </i>
   </energy>
  </scstep>
  <scstep>
   <time name="dav">   46.12   46.12</time>
   <time name="total">   47.55   47.57</time>
   <energy>
    <i name="e_fr_energy">   -761.01726609 </i>
    <i name="e_wo_entrp">   -761.01726609 </i>
    <i name="e_0_energy">   -761.01726609 </i>
   </energy>
  </scstep>
  <scstep>
   <time name="dav">   46.25   46.25</time>
   <time name="total">   47.63   47.64</time>
   <energy>
    <i name="e_fr_energy">   -761.01748793 </i>
    <i name="e_wo_entrp">   -761.01748793 </i>
    <i name="e_0_energy">   -761.01748793 </i>
   </energy>
  </scstep>
  <scstep>
   <time name="dav">   54.12   54.13</time>
   <time name="total">   55.50   55.52</time>
   <energy>
    <i name="e_fr_energy">   -761.01755663 </i>
    <i name="e_wo_entrp">   -761.01755663 </i>
    <i name="e_0_energy">   -761.01755663 </i>
   </energy>
  </scstep>
  <scstep>
   <time name="dav">   45.59   45.60</time>
   <time name="total">   46.97   46.99</time>
   <energy>
    <i name="e_fr_energy">   -761.01755742 </i>
    <i name="e_wo_entrp">   -761.01755742 </i>
    <i name="e_0_energy">   -761.01755742 </i>
   </energy>
  </scstep>
  <scstep>
   <time name="dav">   47.04   47.04</time>
   <time name="total">   48.43   48.45</time>
   <energy>
    <i name="e_fr_energy">   -761.01755818 </i>
    <i name="e_wo_entrp">   -761.01755818 </i>
    <i name="e_0_energy">   -761.01755818 </i>
   </energy>
  </scstep>
  <scstep>
   <time name="dav">   45.21   45.22</time>
   <time name="total">   46.60   46.61</time>
   <energy>
    <i name="e_fr_energy">   -761.01755740 </i>
    <i name="e_wo_entrp">   -761.01755740 </i>
    <i name="e_0_energy">   -761.01755740 </i>
   </energy>
  </scstep>
  <scstep>
   <time name="dav">   28.74   28.74</time>
   <time name="total">   29.11   29.14</time>
   <energy>
    <i name="alphaZ">   4862.75714100 </i>
    <i name="ewald"> -59998.54371557 </i>
    <i name="hartreedc"> -12024.29941610 </i>
    <i name="XCdc">   3447.70156271 </i>
    <i name="pawpsdc"> 136520.29161931 </i>
    <i name="pawaedc">-136152.60990276 </i>
    <i name="eentropy">     -0.00000000 </i>
    <i name="bandstr">  -2384.85507964 </i>
    <i name="atom">  64968.54023382 </i>
    <i name="e_fr_energy">   -761.01755722 </i>
    <i name="e_wo_entrp">   -761.01755722 </i>
    <i name="e_0_energy">   -761.01755722 </i>
   </energy>
  </scstep>
  <structure>
   <crystal>
    <varray name="basis" >
     <v>       9.94194835       0.00000000       0.00000000 </v>
     <v>       0.00000000       9.94194835       0.00000000 </v>
     <v>       0.00000000       0.00000000       9.94194835 </v>
    </varray>
    <i name="volume">    982.68540919 </i>
    <varray name="rec_basis" >
     <v>       0.10058391       0.00000000       0.00000000 </v>
     <v>       0.00000000       0.10058391       0.00000000 </v>
     <v>       0.00000000       0.00000000       0.10058391 </v>
    </varray>
   </crystal>
   <varray name="positions" >
    <v>       0.20878242       0.45475218       0.57778990 </v>
    <v>       0.39268741       0.66603176       0.34538214 </v>
    <v>       0.69406258       0.60001226       0.44802024 </v>
    <v>       0.79543926       0.38491972       0.71228491 </v>
    <v>       0.51456360       0.38071118       0.62900826 </v>
    <v>       0.36025020       0.38933509       0.09195782 </v>
    <v>       0.54694669       0.91454225       0.14584610 </v>
    <v>       0.10909885       0.51242635       0.99463907 </v>
    <v>       0.96931289       0.56223222       0.47133338 </v>
    <v>       0.24294476       0.20385720       0.32028631 </v>
    <v>       0.21431890       0.96216054       0.02752851 </v>
    <v>       0.07304223       0.27292759       0.76145982 </v>
    <v>       0.37049780       0.91629429       0.58750346 </v>
    <v>       0.93844085       0.07851620       0.94423195 </v>
    <v>       0.08063219       0.02231619       0.46993262 </v>
    <v>       0.65817231       0.35989287       0.12289113 </v>
    <v>       0.57699478       0.15061638       0.39566478 </v>
    <v>       0.10035209       0.73880822       0.24197275 </v>
    <v>       0.93557087       0.81455472       0.70280733 </v>
    <v>       0.50080478       0.59253333       0.87275841 </v>
    <v>       0.94244665       0.32421103       0.18979154 </v>
    <v>       0.37638416       0.15693880       0.85715165 </v>
    <v>       0.23826667       0.75698540       0.79400294 </v>
    <v>       0.79314615       0.61151510       0.92010189 </v>
    <v>       0.67217315       0.77076174       0.65553247 </v>
    <v>       0.65481304       0.08855745       0.89615412 </v>
    <v>       0.80920459       0.83916029       0.17867289 </v>
    <v>       0.31247256       0.95286460       0.32580270 </v>
    <v>       0.27961895       0.44749005       0.79578374 </v>
    <v>       0.13457410       0.77639189       0.55493313 </v>
    <v>       0.88790348       0.59746432       0.18685309 </v>
    <v>       0.59881473       0.85780020       0.40761963 </v>
    <v>       0.59966397       0.34934448       0.89350738 </v>
    <v>       0.83343467       0.08277280       0.63488231 </v>
    <v>       0.02084752       0.28919819       0.43513165 </v>
    <v>       0.70453872       0.85257645       0.91151349 </v>
    <v>       0.84683656       0.37410891       0.94962574 </v>
    <v>       0.15695767       0.01145659       0.75722828 </v>
    <v>       0.02926218       0.03962305       0.21380713 </v>
    <v>       0.60058532       0.60838425       0.17304174 </v>
    <v>       0.74598556       0.12624680       0.19192690 </v>
    <v>       0.75570318       0.33937609       0.43216509 </v>
    <v>       0.25760457       0.20333874       0.56751544 </v>
    <v>       0.46812971       0.88997304       0.84937038 </v>
    <v>       0.98635664       0.56163452       0.72567726 </v>
    <v>       0.18662602       0.49989207       0.29269340 </v>
    <v>       0.15736984       0.24144105       0.01576142 </v>
    <v>       0.31710582       0.68584901       0.05217357 </v>
    <v>       0.88486270       0.84345439       0.42219655 </v>
    <v>       0.45754147       0.14267435       0.12538771 </v>
    <v>       0.99872162       0.79517960       0.98157687 </v>
    <v>       0.58343889       0.13050356       0.64141776 </v>
    <v>       0.45214687       0.39808857       0.35828855 </v>
    <v>       0.44844357       0.65767138       0.60378483 </v>
    <v>       0.90401590       0.69945640       0.31921637 </v>
    <v>       0.43125024       0.52466489       0.48605101 </v>
    <v>       0.50780827       0.27623609       0.23667293 </v>
    <v>       0.41875371       0.02611966       0.03486977 </v>
    <v>       0.59039903       0.25383755       0.76415939 </v>
    <v>       0.58957053       0.77261185       0.26907367 </v>
    <v>       0.73194965       0.79062633       0.47287158 </v>
    <v>       0.43663109       0.42216720       0.86002814 </v>
    <v>       0.02061299       0.50040422       0.22725244 </v>
    <v>       0.50098965       0.01552230       0.78813136 </v>
    <v>       0.06958239       0.89211399       0.84481355 </v>
    <v>       0.09891629       0.64759743       0.63720876 </v>
    <v>       0.80631035       0.23343460       0.08353065 </v>
    <v>       0.19231137       0.82828674       0.40391748 </v>
    <v>       0.99495050       0.40700415       0.62375729 </v>
    <v>       0.35065996       0.57137362       0.71220959 </v>
    <v>       0.29614097       0.96122955       0.81438141 </v>
    <v>       0.39831300       0.08032417       0.24694599 </v>
    <v>       0.66487506       0.48855144       0.81861529 </v>
    <v>       0.59493334       0.36384541       0.44581680 </v>
    <v>       0.98206470       0.76629540       0.52419374 </v>
    <v>       0.72705399       0.16257614       0.54784715 </v>
    <v>       0.94182602       0.69003031       0.08210402 </v>
    <v>       0.82276014       0.14158968       0.76915338 </v>
    <v>       0.25054361       0.59348770       0.18103279 </v>
    <v>       0.33688927       0.82544021       0.21110675 </v>
    <v>       0.51290183       0.24898578       0.98693624 </v>
    <v>       0.28059725       0.58746713       0.91599507 </v>
    <v>       0.76201148       0.95785753       0.05574475 </v>
    <v>       0.21105673       0.12781710       0.67704330 </v>
    <v>       0.73439056       0.96582235       0.76824824 </v>
    <v>       0.73251606       0.55619846       0.18829709 </v>
    <v>       0.55970727       0.48124097       0.04717929 </v>
    <v>       0.32407170       0.32183164       0.47243855 </v>
    <v>       0.33674690       0.82781684       0.97929285 </v>
    <v>       0.00019282       0.03479912       0.65860714 </v>
    <v>       0.88975737       0.25028238       0.51100057 </v>
    <v>       0.04629446       0.22364500       0.32581046 </v>
    <v>       0.60875035       0.10841105       0.11096955 </v>
    <v>       0.74466815       0.29114029       0.88068429 </v>
    <v>       0.08714105       0.42709712       0.39803554 </v>
    <v>       0.31045846       0.44667091       0.30782652 </v>
    <v>       0.56624104       0.90350875       0.95969332 </v>
    <v>       0.57788177       0.57035206       0.66235680 </v>
    <v>       0.61788764       0.98087227       0.56154249 </v>
    <v>       0.84860444       0.48424193       0.05791608 </v>
    <v>       0.08685027       0.14377966       0.11375657 </v>
    <v>       0.82980927       0.61868955       0.65848664 </v>
    <v>       0.23486054       0.35362268       0.91041977 </v>
    <v>       0.87900429       0.07783751       0.24504136 </v>
    <v>       0.96776695       0.91288503       0.29906026 </v>
    <v>       0.18468435       0.60118559       0.42681645 </v>
    <v>       0.28983121       0.07259263       0.46115161 </v>
    <v>       0.92234083       0.47606545       0.85563780 </v>
    <v>       0.41615081       0.18018487       0.61021063 </v>
    <v>       0.15204652       0.74641569       0.02858467 </v>
    <v>       0.47393963       0.66956774       0.07190882 </v>
    <v>       0.00289543       0.92831550       0.08050231 </v>
    <v>       0.81158467       0.44692921       0.53532633 </v>
    <v>       0.29760613       0.19385703       0.10466970 </v>
    <v>       0.15442562       0.91574489       0.62805999 </v>
    <v>       0.86799825       0.99258701       0.51136689 </v>
    <v>       0.66657913       0.73778305       0.84655502 </v>
    <v>       0.71910859       0.23607466       0.31710435 </v>
    <v>       0.49887389       0.53124891       0.25306413 </v>
    <v>       0.86371712       0.81377609       0.89661775 </v>
    <v>       0.53232540       0.77837674       0.53032967 </v>
    <v>       0.12791847       0.20366965       0.50817743 </v>
    <v>       0.29829130       0.70652228       0.55250637 </v>
    <v>       0.17097959       0.98312093       0.22293246 </v>
    <v>       0.67392887       0.99185706       0.30914920 </v>
    <v>       0.45654111       0.77447335       0.74139985 </v>
    <v>       0.43841440       0.94270613       0.38557279 </v>
    <v>       0.30558064       0.32340584       0.66231252 </v>
    <v>       0.12064632       0.46604342       0.75440697 </v>
    <v>       0.15994224       0.16422489       0.88429467 </v>
    <v>       0.99825926       0.66210634       0.85719384 </v>
    <v>       0.15009147       0.34898346       0.14559972 </v>
    <v>       0.80318340       0.45012340       0.33910171 </v>
    <v>       0.70247214       0.72889997       0.06020762 </v>
    <v>       0.98948061       0.29584743       0.97373599 </v>
   </varray>
  </structure>
  <varray name="forces" >
   <v>      -2.37492388       7.71172504      -7.92735167 </v>
   <v>      -3.85247843       5.22281893       0.37974876 </v>
   <v>      -2.03490020      -4.84139926      -0.11268438 </v>
   <v>       0.97304436      -2.09895493      -5.05618945 </v>
   <v>      -3.15777988       3.04363845       0.93843662 </v>
   <v>       1.71022413       3.63935882      -0.93334410 </v>
   <v>      -2.76583773      -1.99793556       2.17903622 </v>
   <v>      -3.84032463       0.70980546       1.16699184 </v>
   <v>      -2.31718902       0.46199795      -0.30402804 </v>
   <v>       2.00661622       3.50654980      -6.49477712 </v>
   <v>       0.02721421       2.68695052      -0.05369057 </v>
   <v>      -5.35694056       1.04213874      -4.10279670 </v>
   <v>       2.01186776       2.51130635       0.50709572 </v>
   <v>      -1.64797132      -0.58519170      -0.31438047 </v>
   <v>      -2.61197372      -2.66617546      -2.45851469 </v>
   <v>       3.90535319      -3.89393717       8.77293294 </v>
   <v>      -8.46280709      -5.18893726       2.21951214 </v>
   <v>       2.36282497       2.23740501      -0.22107979 </v>
   <v>      -3.25638018       3.27268145       4.24925982 </v>
   <v>       1.78024471       8.02095464       0.28447906 </v>
   <v>      -0.01404334      -0.97789678       0.79816995 </v>
   <v>      -1.68831935       3.51443642      -1.17437498 </v>
   <v>      -1.21383454      -3.18522781       0.57515161 </v>
   <v>      -0.90143069       3.75356509      -1.82087256 </v>
   <v>       3.17385593       1.25118911       5.96373190 </v>
   <v>       1.31479238       4.20148283       4.86683378 </v>
   <v>      -0.15112027      -0.25561919       4.49413208 </v>
   <v>     -11.66025966      -1.37342080      -8.69078117 </v>
   <v>       5.16218837       2.30881701       0.64314173 </v>
   <v>       8.99087777      -3.67819881      -7.03466223 </v>
   <v>      -1.38881300      -7.36843581       4.11455756 </v>
   <v>      -1.52950169       8.10343450      -1.21927935 </v>
   <v>      -7.12124672       7.15742612      -1.61581002 </v>
   <v>       4.35114850      -3.44325263      -2.67308390 </v>
   <v>      -6.07847386      13.08202762      21.35135052 </v>
   <v>       9.92575872       9.20363452       9.43005816 </v>
   <v>       7.51053862      -1.74939423       4.10750775 </v>
   <v>      -5.63044572      -1.19057211       3.12513138 </v>
   <v>      -4.27380359      -0.27254429      -1.75042818 </v>
   <v>      -6.57787265      10.33661965      -9.81711786 </v>
   <v>      -1.63264442      -2.22358160       0.11044221 </v>
   <v>       2.75110919      -2.58627290       3.39651589 </v>
   <v>      16.34855817       2.82476190      -4.77609014 </v>
   <v>     -10.74861855      -7.17294493       3.77022478 </v>
   <v>      -0.72364155      -1.92531615       0.00195389 </v>
   <v>     -16.83317082       4.73607564      -1.38502349 </v>
   <v>       1.01249423       5.18237182       5.28462179 </v>
   <v>      -1.72042366       2.36443087       2.25441578 </v>
   <v>      -1.91618274       2.76231975       0.12929755 </v>
   <v>      -1.99250112       6.81779157      -3.20306268 </v>
   <v>       3.86914613       1.03283094      -4.59509721 </v>
   <v>      -3.38758909      -4.45019851       1.65148055 </v>
   <v>       1.15008599       0.67936439       2.59189624 </v>
   <v>      -2.52967819      -5.22330823       1.59245899 </v>
   <v>      -2.71133580      -1.05328676       0.80292393 </v>
   <v>       1.38039814       0.26865381       0.16583938 </v>
   <v>      -4.76625699       3.21240135       1.28460429 </v>
   <v>      -2.89460397      -1.05316560      -5.93762007 </v>
   <v>      -1.91885370      -5.81999076      -5.41850901 </v>
   <v>       1.41280325      -6.85286686       3.82658544 </v>
   <v>       7.46544984       3.46573661      -5.00092047 </v>
   <v>      -0.38090848      -7.92667743      -1.81235099 </v>
   <v>      -1.18905851       8.59232942      -2.80607767 </v>
   <v>       3.88883549       9.06315339      -9.88814333 </v>
   <v>       1.14371797       2.68353645       1.82010872 </v>
   <v>       0.09680669      -0.70525774       4.10614803 </v>
   <v>      -0.10965339      -3.25637221      -2.83427531 </v>
   <v>       0.28984739       4.57625554       1.39899396 </v>
   <v>      -0.56069292       1.22996088      -2.35713850 </v>
   <v>      -1.71445849      -1.69638035      -0.79261687 </v>
   <v>       0.90103652      -0.44323921      -0.70205989 </v>
   <v>      -1.14879960      -2.84230218       6.64689191 </v>
   <v>       0.50950666      -3.57612401       3.87107084 </v>
   <v>      -1.61723407       0.67025765      -0.90564227 </v>
   <v>      -3.01413004       3.02477491      -6.55790798 </v>
   <v>      -8.56023399       4.50810936       1.93329536 </v>
   <v>       0.46581769       0.70171320       0.24529985 </v>
   <v>       3.30433593       7.56480894       4.79708682 </v>
   <v>       0.48048328       2.67537633      -5.56607441 </v>
   <v>      -0.78235623       0.35010261      -0.27736393 </v>
   <v>      -0.05044023       0.45003516       1.08396719 </v>
   <v>       1.01535985       0.11544172       2.85995589 </v>
   <v>      -0.65826120       6.58997088      -6.68449874 </v>
   <v>      -1.07839378      -5.13800617       8.81562762 </v>
   <v>       0.54049907      -6.73681626      -1.74614451 </v>
   <v>       3.80284757       1.05591195       5.68751942 </v>
   <v>      -1.64544672       2.59945921      -5.79867405 </v>
   <v>       4.49553407      -1.99655656      -6.90882920 </v>
   <v>       6.74371690      -3.05570532      -6.03645394 </v>
   <v>      -1.61659795       3.82568755       5.64044075 </v>
   <v>       2.14181133      -1.94611452      -2.07110317 </v>
   <v>       1.01851466     -16.68933426     -21.87960715 </v>
   <v>       4.13927215       0.98563894       2.48112964 </v>
   <v>      -0.07284704      -3.78596816       4.77427765 </v>
   <v>       0.55745363      -7.15734912       2.56265036 </v>
   <v>      13.44288063      -9.76527093      -0.31056001 </v>
   <v>       3.04469544      -1.28709651       0.02783608 </v>
   <v>       0.21885729       4.41183368      -3.94743701 </v>
   <v>      -3.23735135       0.05275310       0.11854639 </v>
   <v>       2.85813596      -4.20243887       2.37605010 </v>
   <v>      -4.43060399      -1.24979759      -1.61075196 </v>
   <v>       3.77715242       1.31518483       2.29473134 </v>
   <v>      -1.53128703      -2.55671547       4.70176336 </v>
   <v>       1.54370803       2.81675772       0.05749260 </v>
   <v>       2.02582048      -4.15126750       6.10004048 </v>
   <v>      -1.43379359       2.65910583      -5.74056658 </v>
   <v>      -0.51505829      -3.42178787      -0.79670743 </v>
   <v>       0.48804239      -4.62582773      -3.65822016 </v>
   <v>      11.94061027      -6.78416640       0.26548748 </v>
   <v>      -1.50675758      -0.82395531       0.61792936 </v>
   <v>      -0.09316386       1.75940726       1.87439998 </v>
   <v>      -1.01671866      -0.88468054      -0.68541085 </v>
   <v>      -5.98644864       1.27054739       0.82119069 </v>
   <v>       0.00130953       1.67888102      -3.45210618 </v>
   <v>       3.35888064      -6.20206229      -0.57992071 </v>
   <v>      -1.33648998      -5.90030835      -5.57171762 </v>
   <v>      -7.66291806     -11.57899963      -8.82915422 </v>
   <v>       5.45416292      -0.58522920      -5.55091863 </v>
   <v>       0.75753364      -6.14962044       4.49703228 </v>
   <v>      -1.24893465       3.59578732       1.69030904 </v>
   <v>      -6.17821621      -3.51419425      -4.63421845 </v>
   <v>      -8.85137078       5.98850615       0.64999658 </v>
   <v>       2.20478787       5.17842218       2.82149115 </v>
   <v>       5.32641762      -0.54897586       7.06128188 </v>
   <v>       1.11243399      -2.60873137       0.75990990 </v>
   <v>      -0.65811334       0.50611002       0.06337174 </v>
   <v>      16.81397973      -6.92353313       8.98320304 </v>
   <v>      -1.43519773       4.38813553      14.07327739 </v>
   <v>       5.13745943       3.18520519       7.71302825 </v>
   <v>       0.55849384     -12.23915085       0.06796155 </v>
   <v>       4.63760419       1.89131532      -0.60174122 </v>
   <v>       1.34208570       3.53637336      -0.10514851 </v>
   <v>       4.69462354       0.52291197      -6.72295973 </v>
   <v>      -3.23841411      -0.25237878       1.10608334 </v>
   <v>       1.37285557      -0.01004621      -1.98332674 </v>
  </varray>
  <varray name="stress" >
   <v>    1340.13980751    -122.14225264     108.59130702 </v>
   <v>    -122.14225271    1367.91201949    -128.54926712 </v>
   <v>     108.59130705    -128.54926709    1409.26499247 </v>
  </varray>
  <energy>
   <i name="e_fr_energy">   -761.01755722 </i>
   <i name="e_wo_entrp">   -761.01755722 </i>
   <i name="e_0_energy">     -0.00000000 </i>
  </energy>
  <time name="totalsc">  890.77  891.12</time>
  <eigenvalues>
   <array>
    <dimension dim="1">band</dimension>
    <dimension dim="2">kpoint</dimension>
    <dimension dim="3">spin</dimension>
    <field>eigene</field>
    <field>occ</field>
    <set>
     <set comment="spin 1">
      <set comment="kpoint 1">
       <r>  -29.4275    1.0000 </r>
       <r>  -29.1137    1.0000 </r>
       <r>  -28.9900    1.0000 </r>
       <r>  -28.9177    1.0000 </r>
       <r>  -28.8887    1.0000 </r>
       <r>  -28.8315    1.0000 </r>
       <r>  -28.7816    1.0000 </r>
       <r>  -28.6241    1.0000 </r>
       <r>  -28.6159    1.0000 </r>
       <r>  -28.5997    1.0000 </r>
       <r>  -28.5480    1.0000 </r>
       <r>  -28.3472    1.0000 </r>
       <r>  -28.2957    1.0000 </r>
       <r>  -28.2114    1.0000 </r>
       <r>  -28.1195    1.0000 </r>
       <r>  -28.0175    1.0000 </r>
       <r>  -27.9753    1.0000 </r>
       <r>  -27.8913    1.0000 </r>
       <r>  -27.8483    1.0000 </r>
       <r>  -27.8000    1.0000 </r>
       <r>  -27.6788    1.0000 </r>
       <r>  -27.6076    1.0000 </r>
       <r>  -27.5048    1.0000 </r>
       <r>  -27.4154    1.0000 </r>
       <r>  -27.0676    1.0000 </r>
       <r>  -26.9188    1.0000 </r>
       <r>  -26.5112    1.0000 </r>
[...]
       <r>    12.8818     0.0000   864.0000 </r>
       <r>    13.0564     0.0730   864.0128 </r>
       <r>    13.2310    10.9791   865.9294 </r>
       <r>    13.4055     0.4218   866.0030 </r>
       <r>    13.5801    11.1215   867.9445 </r>
       <r>    13.7547    11.2968   869.9166 </r>
       <r>    13.9292    11.2080   871.8731 </r>
       <r>    14.1038     2.3068   872.2758 </r>
       <r>    14.2784    20.6075   875.8733 </r>
       <r>    14.4529    11.0155   877.7963 </r>
       <r>    14.6275    13.6898   880.1861 </r>
       <r>    14.8021    19.5280   883.5951 </r>
       <r>    14.9766    24.4097   887.8563 </r>
       <r>    15.1512    27.6737   892.6873 </r>
       <r>    15.3258    28.8183   897.7181 </r>
       <r>    15.5004    28.3248   902.6627 </r>
       <r>    15.6749    31.4874   908.1595 </r>
       <r>    15.8495    40.0482   915.1507 </r>
       <r>    16.0241    42.8639   922.6334 </r>
       <r>    16.1986    51.0182   931.5396 </r>
       <r>    16.3732    52.6292   940.7271 </r>
       <r>    16.5478    51.3845   949.6973 </r>
       <r>    16.7223    51.8695   958.7521 </r>
       <r>    16.8969    55.4015   968.4235 </r>
       <r>    17.0715    55.1010   978.0425 </r>
       <r>    17.2461    57.5419   988.0875 </r>
       <r>    17.4206    53.9486   997.5053 </r>
       <r>    17.5952    56.7589  1007.4137 </r>
       <r>    17.7698    65.5153  1018.8507 </r>
       <r>    17.9443    63.1249  1029.8704 </r>
       <r>    18.1189    48.7115  1038.3739 </r>
       <r>    18.2935     9.3138  1039.9998 </r>
       <r>    18.4680     0.0009  1040.0000 </r>
       <r>    18.6426     0.0000  1040.0000 </r>
       <r>    18.8172     0.0000  1040.0000 </r>
       <r>    18.9917     0.0000  1040.0000 </r>
       <r>    19.1663     0.0000  1040.0000 </r>
       <r>    19.3409     0.0000  1040.0000 </r>
       <r>    19.5155     0.0000  1040.0000 </r>
       <r>    19.6900     0.0000  1040.0000 </r>
       <r>    19.8646     0.0000  1040.0000 </r>
       <r>    20.0392     0.0000  1040.0000 </r>
       <r>    20.2137     0.0000  1040.0000 </r>
       <r>    20.3883     0.0000  1040.0000 </r>
       <r>    20.5629     0.0000  1040.0000 </r>
      </set>
     </set>
    </array>
   </total>
  </dos>
 </calculation>
 <structure name="finalpos" >
  <crystal>
   <varray name="basis" >
    <v>       9.94194835       0.00000000       0.00000000 </v>
    <v>       0.00000000       9.94194835       0.00000000 </v>
    <v>       0.00000000       0.00000000       9.94194835 </v>
   </varray>
   <i name="volume">    982.68540919 </i>
   <varray name="rec_basis" >
    <v>       0.10058391       0.00000000       0.00000000 </v>
    <v>       0.00000000       0.10058391       0.00000000 </v>
    <v>       0.00000000       0.00000000       0.10058391 </v>
   </varray>
  </crystal>
  <varray name="positions" >
   <v>       0.20878242       0.45475218       0.57778990 </v>
   <v>       0.39268741       0.66603176       0.34538214 </v>
   <v>       0.69406258       0.60001226       0.44802024 </v>
   <v>       0.79543926       0.38491972       0.71228491 </v>
   <v>       0.51456360       0.38071118       0.62900826 </v>
   <v>       0.36025020       0.38933509       0.09195782 </v>
   <v>       0.54694669       0.91454225       0.14584610 </v>
   <v>       0.10909885       0.51242635       0.99463907 </v>
   <v>       0.96931289       0.56223222       0.47133338 </v>
   <v>       0.24294476       0.20385720       0.32028631 </v>
   <v>       0.21431890       0.96216054       0.02752851 </v>
   <v>       0.07304223       0.27292759       0.76145982 </v>
   <v>       0.37049780       0.91629429       0.58750346 </v>
   <v>       0.93844085       0.07851620       0.94423195 </v>
   <v>       0.08063219       0.02231619       0.46993262 </v>
   <v>       0.65817231       0.35989287       0.12289113 </v>
   <v>       0.57699478       0.15061638       0.39566478 </v>
   <v>       0.10035209       0.73880822       0.24197275 </v>
   <v>       0.93557087       0.81455472       0.70280733 </v>
   <v>       0.50080478       0.59253333       0.87275841 </v>
   <v>       0.94244665       0.32421103       0.18979154 </v>
   <v>       0.37638416       0.15693880       0.85715165 </v>
   <v>       0.23826667       0.75698540       0.79400294 </v>
   <v>       0.79314615       0.61151510       0.92010189 </v>
   <v>       0.67217315       0.77076174       0.65553247 </v>
   <v>       0.65481304       0.08855745       0.89615412 </v>
   <v>       0.80920459       0.83916029       0.17867289 </v>
   <v>       0.31247256       0.95286460       0.32580270 </v>
   <v>       0.27961895       0.44749005       0.79578374 </v>
   <v>       0.13457410       0.77639189       0.55493313 </v>
   <v>       0.88790348       0.59746432       0.18685309 </v>
   <v>       0.59881473       0.85780020       0.40761963 </v>
   <v>       0.59966397       0.34934448       0.89350738 </v>
   <v>       0.83343467       0.08277280       0.63488231 </v>
   <v>       0.02084752       0.28919819       0.43513165 </v>
   <v>       0.70453872       0.85257645       0.91151349 </v>
   <v>       0.84683656       0.37410891       0.94962574 </v>
   <v>       0.15695767       0.01145659       0.75722828 </v>
   <v>       0.02926218       0.03962305       0.21380713 </v>
   <v>       0.60058532       0.60838425       0.17304174 </v>
   <v>       0.74598556       0.12624680       0.19192690 </v>
   <v>       0.75570318       0.33937609       0.43216509 </v>
   <v>       0.25760457       0.20333874       0.56751544 </v>
   <v>       0.46812971       0.88997304       0.84937038 </v>
   <v>       0.98635664       0.56163452       0.72567726 </v>
   <v>       0.18662602       0.49989207       0.29269340 </v>
   <v>       0.15736984       0.24144105       0.01576142 </v>
   <v>       0.31710582       0.68584901       0.05217357 </v>
   <v>       0.88486270       0.84345439       0.42219655 </v>
   <v>       0.45754147       0.14267435       0.12538771 </v>
   <v>       0.99872162       0.79517960       0.98157687 </v>
   <v>       0.58343889       0.13050356       0.64141776 </v>
   <v>       0.45214687       0.39808857       0.35828855 </v>
   <v>       0.44844357       0.65767138       0.60378483 </v>
   <v>       0.90401590       0.69945640       0.31921637 </v>
   <v>       0.43125024       0.52466489       0.48605101 </v>
   <v>       0.50780827       0.27623609       0.23667293 </v>
   <v>       0.41875371       0.02611966       0.03486977 </v>
   <v>       0.59039903       0.25383755       0.76415939 </v>
   <v>       0.58957053       0.77261185       0.26907367 </v>
   <v>       0.73194965       0.79062633       0.47287158 </v>
   <v>       0.43663109       0.42216720       0.86002814 </v>
   <v>       0.02061299       0.50040422       0.22725244 </v>
   <v>       0.50098965       0.01552230       0.78813136 </v>
   <v>       0.06958239       0.89211399       0.84481355 </v>
   <v>       0.09891629       0.64759743       0.63720876 </v>
   <v>       0.80631035       0.23343460       0.08353065 </v>
   <v>       0.19231137       0.82828674       0.40391748 </v>
   <v>       0.99495050       0.40700415       0.62375729 </v>
   <v>       0.35065996       0.57137362       0.71220959 </v>
   <v>       0.29614097       0.96122955       0.81438141 </v>
   <v>       0.39831300       0.08032417       0.24694599 </v>
   <v>       0.66487506       0.48855144       0.81861529 </v>
   <v>       0.59493334       0.36384541       0.44581680 </v>
   <v>       0.98206470       0.76629540       0.52419374 </v>
   <v>       0.72705399       0.16257614       0.54784715 </v>
   <v>       0.94182602       0.69003031       0.08210402 </v>
   <v>       0.82276014       0.14158968       0.76915338 </v>
   <v>       0.25054361       0.59348770       0.18103279 </v>
   <v>       0.33688927       0.82544021       0.21110675 </v>
   <v>       0.51290183       0.24898578       0.98693624 </v>
   <v>       0.28059725       0.58746713       0.91599507 </v>
   <v>       0.76201148       0.95785753       0.05574475 </v>
   <v>       0.21105673       0.12781710       0.67704330 </v>
   <v>       0.73439056       0.96582235       0.76824824 </v>
   <v>       0.73251606       0.55619846       0.18829709 </v>
   <v>       0.55970727       0.48124097       0.04717929 </v>
   <v>       0.32407170       0.32183164       0.47243855 </v>
   <v>       0.33674690       0.82781684       0.97929285 </v>
   <v>       0.00019282       0.03479912       0.65860714 </v>
   <v>       0.88975737       0.25028238       0.51100057 </v>
   <v>       0.04629446       0.22364500       0.32581046 </v>
   <v>       0.60875035       0.10841105       0.11096955 </v>
   <v>       0.74466815       0.29114029       0.88068429 </v>
   <v>       0.08714105       0.42709712       0.39803554 </v>
   <v>       0.31045846       0.44667091       0.30782652 </v>
   <v>       0.56624104       0.90350875       0.95969332 </v>
   <v>       0.57788177       0.57035206       0.66235680 </v>
   <v>       0.61788764       0.98087227       0.56154249 </v>
   <v>       0.84860444       0.48424193       0.05791608 </v>
   <v>       0.08685027       0.14377966       0.11375657 </v>
   <v>       0.82980927       0.61868955       0.65848664 </v>
   <v>       0.23486054       0.35362268       0.91041977 </v>
   <v>       0.87900429       0.07783751       0.24504136 </v>
   <v>       0.96776695       0.91288503       0.29906026 </v>
   <v>       0.18468435       0.60118559       0.42681645 </v>
   <v>       0.28983121       0.07259263       0.46115161 </v>
   <v>       0.92234083       0.47606545       0.85563780 </v>
   <v>       0.41615081       0.18018487       0.61021063 </v>
   <v>       0.15204652       0.74641569       0.02858467 </v>
   <v>       0.47393963       0.66956774       0.07190882 </v>
   <v>       0.00289543       0.92831550       0.08050231 </v>
   <v>       0.81158467       0.44692921       0.53532633 </v>
   <v>       0.29760613       0.19385703       0.10466970 </v>
   <v>       0.15442562       0.91574489       0.62805999 </v>
   <v>       0.86799825       0.99258701       0.51136689 </v>
   <v>       0.66657913       0.73778305       0.84655502 </v>
   <v>       0.71910859       0.23607466       0.31710435 </v>
   <v>       0.49887389       0.53124891       0.25306413 </v>
   <v>       0.86371712       0.81377609       0.89661775 </v>
   <v>       0.53232540       0.77837674       0.53032967 </v>
   <v>       0.12791847       0.20366965       0.50817743 </v>
   <v>       0.29829130       0.70652228       0.55250637 </v>
   <v>       0.17097959       0.98312093       0.22293246 </v>
   <v>       0.67392887       0.99185706       0.30914920 </v>
   <v>       0.45654111       0.77447335       0.74139985 </v>
   <v>       0.43841440       0.94270613       0.38557279 </v>
   <v>       0.30558064       0.32340584       0.66231252 </v>
   <v>       0.12064632       0.46604342       0.75440697 </v>
   <v>       0.15994224       0.16422489       0.88429467 </v>
   <v>       0.99825926       0.66210634       0.85719384 </v>
   <v>       0.15009147       0.34898346       0.14559972 </v>
   <v>       0.80318340       0.45012340       0.33910171 </v>
   <v>       0.70247214       0.72889997       0.06020762 </v>
   <v>       0.98948061       0.29584743       0.97373599 </v>
  </varray>
  <varray name="velocities" >
   <v>       0.00000000       0.00000000       0.00000000 </v>
   <v>       0.00000000       0.00000000       0.00000000 </v>
   <v>       0.00000000       0.00000000       0.00000000 </v>
   <v>       0.00000000       0.00000000       0.00000000 </v>
   <v>       0.00000000       0.00000000       0.00000000 </v>
   <v>       0.00000000       0.00000000       0.00000000 </v>
   <v>       0.00000000       0.00000000       0.00000000 </v>
   <v>       0.00000000       0.00000000       0.00000000 </v>
   <v>       0.00000000       0.00000000       0.00000000 </v>
   <v>       0.00000000       0.00000000       0.00000000 </v>
   <v>       0.00000000       0.00000000       0.00000000 </v>
   <v>       0.00000000       0.00000000       0.00000000 </v>
   <v>       0.00000000       0.00000000       0.00000000 </v>
   <v>       0.00000000       0.00000000       0.00000000 </v>
   <v>       0.00000000       0.00000000       0.00000000 </v>
   <v>       0.00000000       0.00000000       0.00000000 </v>
   <v>       0.00000000       0.00000000       0.00000000 </v>
   <v>       0.00000000       0.00000000       0.00000000 </v>
   <v>       0.00000000       0.00000000       0.00000000 </v>
   <v>       0.00000000       0.00000000       0.00000000 </v>
   <v>       0.00000000       0.00000000       0.00000000 </v>
   <v>       0.00000000       0.00000000       0.00000000 </v>
   <v>       0.00000000       0.00000000       0.00000000 </v>
   <v>       0.00000000       0.00000000       0.00000000 </v>
   <v>       0.00000000       0.00000000       0.00000000 </v>
   <v>       0.00000000       0.00000000       0.00000000 </v>
   <v>       0.00000000       0.00000000       0.00000000 </v>
   <v>       0.00000000       0.00000000       0.00000000 </v>
   <v>       0.00000000       0.00000000       0.00000000 </v>
   <v>       0.00000000       0.00000000       0.00000000 </v>
   <v>       0.00000000       0.00000000       0.00000000 </v>
   <v>       0.00000000       0.00000000       0.00000000 </v>
   <v>       0.00000000       0.00000000       0.00000000 </v>
   <v>       0.00000000       0.00000000       0.00000000 </v>
   <v>       0.00000000       0.00000000       0.00000000 </v>
   <v>       0.00000000       0.00000000       0.00000000 </v>
   <v>       0.00000000       0.00000000       0.00000000 </v>
   <v>       0.00000000       0.00000000       0.00000000 </v>
   <v>       0.00000000       0.00000000       0.00000000 </v>
   <v>       0.00000000       0.00000000       0.00000000 </v>
   <v>       0.00000000       0.00000000       0.00000000 </v>
   <v>       0.00000000       0.00000000       0.00000000 </v>
   <v>       0.00000000       0.00000000       0.00000000 </v>
   <v>       0.00000000       0.00000000       0.00000000 </v>
   <v>       0.00000000       0.00000000       0.00000000 </v>
   <v>       0.00000000       0.00000000       0.00000000 </v>
   <v>       0.00000000       0.00000000       0.00000000 </v>
   <v>       0.00000000       0.00000000       0.00000000 </v>
   <v>       0.00000000       0.00000000       0.00000000 </v>
   <v>       0.00000000       0.00000000       0.00000000 </v>
   <v>       0.00000000       0.00000000       0.00000000 </v>
   <v>       0.00000000       0.00000000       0.00000000 </v>
   <v>       0.00000000       0.00000000       0.00000000 </v>
   <v>       0.00000000       0.00000000       0.00000000 </v>
   <v>       0.00000000       0.00000000       0.00000000 </v>
   <v>       0.00000000       0.00000000       0.00000000 </v>
   <v>       0.00000000       0.00000000       0.00000000 </v>
   <v>       0.00000000       0.00000000       0.00000000 </v>
   <v>       0.00000000       0.00000000       0.00000000 </v>
   <v>       0.00000000       0.00000000       0.00000000 </v>
   <v>       0.00000000       0.00000000       0.00000000 </v>
   <v>       0.00000000       0.00000000       0.00000000 </v>
   <v>       0.00000000       0.00000000       0.00000000 </v>
   <v>       0.00000000       0.00000000       0.00000000 </v>
   <v>       0.00000000       0.00000000       0.00000000 </v>
   <v>       0.00000000       0.00000000       0.00000000 </v>
   <v>       0.00000000       0.00000000       0.00000000 </v>
   <v>       0.00000000       0.00000000       0.00000000 </v>
   <v>       0.00000000       0.00000000       0.00000000 </v>
   <v>       0.00000000       0.00000000       0.00000000 </v>
   <v>       0.00000000       0.00000000       0.00000000 </v>
   <v>       0.00000000       0.00000000       0.00000000 </v>
   <v>       0.00000000       0.00000000       0.00000000 </v>
   <v>       0.00000000       0.00000000       0.00000000 </v>
   <v>       0.00000000       0.00000000       0.00000000 </v>
   <v>       0.00000000       0.00000000       0.00000000 </v>
   <v>       0.00000000       0.00000000       0.00000000 </v>
   <v>       0.00000000       0.00000000       0.00000000 </v>
   <v>       0.00000000       0.00000000       0.00000000 </v>
   <v>       0.00000000       0.00000000       0.00000000 </v>
   <v>       0.00000000       0.00000000       0.00000000 </v>
   <v>       0.00000000       0.00000000       0.00000000 </v>
   <v>       0.00000000       0.00000000       0.00000000 </v>
   <v>       0.00000000       0.00000000       0.00000000 </v>
   <v>       0.00000000       0.00000000       0.00000000 </v>
   <v>       0.00000000       0.00000000       0.00000000 </v>
   <v>       0.00000000       0.00000000       0.00000000 </v>
   <v>       0.00000000       0.00000000       0.00000000 </v>
   <v>       0.00000000       0.00000000       0.00000000 </v>
   <v>       0.00000000       0.00000000       0.00000000 </v>
   <v>       0.00000000       0.00000000       0.00000000 </v>
   <v>       0.00000000       0.00000000       0.00000000 </v>
   <v>       0.00000000       0.00000000       0.00000000 </v>
   <v>       0.00000000       0.00000000       0.00000000 </v>
   <v>       0.00000000       0.00000000       0.00000000 </v>
   <v>       0.00000000       0.00000000       0.00000000 </v>
   <v>       0.00000000       0.00000000       0.00000000 </v>
   <v>       0.00000000       0.00000000       0.00000000 </v>
   <v>       0.00000000       0.00000000       0.00000000 </v>
   <v>       0.00000000       0.00000000       0.00000000 </v>
   <v>       0.00000000       0.00000000       0.00000000 </v>
   <v>       0.00000000       0.00000000       0.00000000 </v>
   <v>       0.00000000       0.00000000       0.00000000 </v>
   <v>       0.00000000       0.00000000       0.00000000 </v>
   <v>       0.00000000       0.00000000       0.00000000 </v>
   <v>       0.00000000       0.00000000       0.00000000 </v>
   <v>       0.00000000       0.00000000       0.00000000 </v>
   <v>       0.00000000       0.00000000       0.00000000 </v>
   <v>       0.00000000       0.00000000       0.00000000 </v>
   <v>       0.00000000       0.00000000       0.00000000 </v>
   <v>       0.00000000       0.00000000       0.00000000 </v>
   <v>       0.00000000       0.00000000       0.00000000 </v>
   <v>       0.00000000       0.00000000       0.00000000 </v>
   <v>       0.00000000       0.00000000       0.00000000 </v>
   <v>       0.00000000       0.00000000       0.00000000 </v>
   <v>       0.00000000       0.00000000       0.00000000 </v>
   <v>       0.00000000       0.00000000       0.00000000 </v>
   <v>       0.00000000       0.00000000       0.00000000 </v>
   <v>       0.00000000       0.00000000       0.00000000 </v>
   <v>       0.00000000       0.00000000       0.00000000 </v>
   <v>       0.00000000       0.00000000       0.00000000 </v>
   <v>       0.00000000       0.00000000       0.00000000 </v>
   <v>       0.00000000       0.00000000       0.00000000 </v>
   <v>       0.00000000       0.00000000       0.00000000 </v>
   <v>       0.00000000       0.00000000       0.00000000 </v>
   <v>       0.00000000       0.00000000       0.00000000 </v>
   <v>       0.00000000       0.00000000       0.00000000 </v>
   <v>       0.00000000       0.00000000       0.00000000 </v>
   <v>       0.00000000       0.00000000       0.00000000 </v>
   <v>       0.00000000       0.00000000       0.00000000 </v>
   <v>       0.00000000       0.00000000       0.00000000 </v>
   <v>       0.00000000       0.00000000       0.00000000 </v>
   <v>       0.00000000       0.00000000       0.00000000 </v>
   <v>       0.00000000       0.00000000       0.00000000 </v>
   <v>       0.00000000       0.00000000       0.00000000 </v>
  </varray>
 </structure>
</modeling>
