 running on   52 total cores
 distrk:  each k-point on   52 cores,    1 groups
 distr:  one band on   13 cores,    4 groups
 using from now: INCAR     
 vasp.5.4.4.18Apr17-6-g9f103f2a35 (build Oct 31 2019 15:01:46) complex          
  
 POSCAR found type information on POSCAR  Sc Cl C 
 POSCAR found :  3 types and      80 ions
 scaLAPACK is switched off
 LDA part: xc-table for Pade appr. of Perdew
 generate k-points for:    3    3    1
 POSCAR, INCAR and KPOINTS ok, starting setup
 FFT: planning ...
 WAVECAR not read
 entering main loop
       N       E                     dE             d eps       ncg     rms          rms(c)
DAV:   1     0.121659776969E+05    0.12166E+05   -0.26795E+05  4432   0.152E+03
DAV:   2     0.173534261387E+04   -0.10431E+05   -0.10167E+05  5200   0.522E+02
DAV:   3    -0.402576630920E+03   -0.21379E+04   -0.20517E+04  6800   0.284E+02
DAV:   4    -0.640664091299E+03   -0.23809E+03   -0.23336E+03  6096   0.993E+01
DAV:   5    -0.651241844050E+03   -0.10578E+02   -0.10522E+02  6080   0.282E+01    0.691E+01
DAV:   6    -0.520342534063E+03    0.13090E+03   -0.70397E+02  5856   0.498E+01    0.307E+01
DAV:   7    -0.525262821717E+03   -0.49203E+01   -0.90227E+01  5912   0.233E+01    0.155E+01
DAV:   8    -0.522973664866E+03    0.22892E+01   -0.10213E+01  5840   0.766E+00    0.935E+00
DAV:   9    -0.522450023603E+03    0.52364E+00   -0.37226E+00  5432   0.390E+00    0.282E+00
DAV:  10    -0.522320569083E+03    0.12945E+00   -0.58303E-01  5800   0.209E+00    0.174E+00
DAV:  11    -0.522300835595E+03    0.19733E-01   -0.20096E-01  5752   0.863E-01    0.779E-01
DAV:  12    -0.522288280347E+03    0.12555E-01   -0.31031E-02  6128   0.479E-01    0.310E-01
DAV:  13    -0.522285225944E+03    0.30544E-02   -0.93134E-03  5488   0.269E-01    0.188E-01
DAV:  14    -0.522283841185E+03    0.13848E-02   -0.54579E-03  5480   0.144E-01    0.165E-01
DAV:  15    -0.522285151001E+03   -0.13098E-02   -0.18477E-03  5504   0.888E-02    0.952E-02
DAV:  16    -0.522286747301E+03   -0.15963E-02   -0.10767E-03  5744   0.560E-02    0.577E-02
DAV:  17    -0.522289629362E+03   -0.28821E-02   -0.65767E-04  5448   0.486E-02    0.347E-02
DAV:  18    -0.522291925253E+03   -0.22959E-02   -0.22885E-04  4936   0.289E-02    0.247E-02
DAV:  19    -0.522293034040E+03   -0.11088E-02   -0.12011E-04  4912   0.179E-02    0.151E-02
DAV:  20    -0.522294311454E+03   -0.12774E-02   -0.78399E-05  4352   0.150E-02    0.107E-02
DAV:  21    -0.522294781949E+03   -0.47050E-03   -0.23957E-05  4560   0.925E-03    0.751E-03
DAV:  22    -0.522295115831E+03   -0.33388E-03   -0.41160E-06  3824   0.465E-03    0.538E-03
DAV:  23    -0.522295689158E+03   -0.57333E-03   -0.11198E-05  3552   0.487E-03    0.380E-03
DAV:  24    -0.522295906315E+03   -0.21716E-03   -0.62901E-06  3784   0.351E-03    0.373E-03
DAV:  25    -0.522295969931E+03   -0.63616E-04   -0.75298E-07  2768   0.208E-03    0.220E-03
DAV:  26    -0.522296058752E+03   -0.88822E-04   -0.27359E-06  3312   0.244E-03    0.171E-03
DAV:  27    -0.522296086984E+03   -0.28231E-04   -0.44619E-07  2792   0.174E-03    0.165E-03
DAV:  28    -0.522296096420E+03   -0.94361E-05   -0.23911E-07  2552   0.145E-03    0.115E-03
DAV:  29    -0.522296110709E+03   -0.14290E-04   -0.35982E-07  2704   0.128E-03    0.494E-04
DAV:  30    -0.522296122444E+03   -0.11734E-04   -0.36287E-07  2752   0.147E-03    0.635E-04
DAV:  31    -0.522296127219E+03   -0.47751E-05   -0.30299E-07  2568   0.129E-03    0.475E-04
DAV:  32    -0.522296128392E+03   -0.11734E-05   -0.17531E-07  2400   0.112E-03    0.376E-04
DAV:  33    -0.522296128969E+03   -0.57719E-06   -0.11338E-07  2376   0.741E-04
   1 F= -.52229613E+03 E0= -.52229613E+03  d E =-.145932E-18
