 vasp.5.4.4.18Apr17-6-g9f103f2a35 (build Oct 31 2019 15:01:46) complex          
  
 executed on             LinuxIFC date 2024.04.30  19:37:57
 running on   52 total cores
 distrk:  each k-point on   52 cores,    1 groups
 distr:  one band on NCORES_PER_BAND=  13 cores,    4 groups


--------------------------------------------------------------------------------------------------------


 INCAR:
 POTCAR:    PAW_PBE Sc_sv 07Sep2000               
 POTCAR:    PAW_PBE Cl 06Sep2000                  
 POTCAR:    PAW_PBE C 08Apr2002                   
 POTCAR:    PAW_PBE Sc_sv 07Sep2000               
   VRHFIN =Sc: 3p4s3d                                                           
   LEXCH  = PE                                                                  
   EATOM  =  1273.2868 eV,   93.5839 Ry                                         
                                                                                
   TITEL  = PAW_PBE Sc_sv 07Sep2000                                             
   LULTRA =        F    use ultrasoft PP ?                                      
   IUNSCR =        1    unscreen: 0-lin 1-nonlin 2-no                           
   RPACOR =    2.200    partial core radius                                     
   POMASS =   44.956; ZVAL   =   11.000    mass and valenz                      
   RCORE  =    2.500    outmost cutoff radius                                   
   RWIGS  =    2.700; RWIGS  =    1.429    wigner-seitz radius (au A)           
   ENMAX  =  222.660; ENMIN  =  166.995 eV                                      
   RCLOC  =    1.805    cutoff for local pot                                    
   LCOR   =        T    correct aug charges                                     
   LPAW   =        T    paw PP                                                  
   EAUG   =  443.063                                                            
   RMAX   =    2.551    core radius for proj-oper                               
   RAUG   =    1.300    factor for augmentation sphere                          
   RDEP   =    2.650    radius for radial grids                                 
   RDEPT  =    2.038    core radius for aug-charge                              
                                                                                
   Atomic configuration                                                         
    8 entries                                                                   
     n  l   j            E        occ.                                          
     1  0  0.50     -4394.2533   2.0000                                         
     2  0  0.50      -471.0040   2.0000                                         
     2  1  1.50      -384.9788   6.0000                                         
     3  0  0.50       -52.1410   2.0000                                         
     4  0  0.50        -3.5584   1.0000                                         
     3  1  1.50       -30.8841   6.0000                                         
     3  2  2.50        -1.3655   2.0000                                         
     4  3  2.50        -1.3606   0.0000                                         
   Description                                                                  
     l       E           TYP  RCUT    TYP  RCUT                                 
     0    -52.1409870     23  1.800                                             
     0     -3.5583698     23  2.500                                             
     1    -30.8840697     23  2.300                                             
     1      4.0817478     23  2.300                                             
     2     -1.3655397     23  2.500                                             
     2      0.3564476     23  2.500                                             
  local pseudopotential read in
  partial core-charges read in
  partial kinetic energy density read in
  atomic valenz-charges read in
  non local Contribution for L=           0  read in
    real space projection operators read in
  non local Contribution for L=           0  read in
    real space projection operators read in
  non local Contribution for L=           1  read in
    real space projection operators read in
  non local Contribution for L=           1  read in
    real space projection operators read in
  non local Contribution for L=           2  read in
    real space projection operators read in
  non local Contribution for L=           2  read in
    real space projection operators read in
    PAW grid and wavefunctions read in
 
   number of l-projection  operators is LMAX  =           6
   number of lm-projection operators is LMMAX =          18
 
 POTCAR:    PAW_PBE Cl 06Sep2000                  
   VRHFIN =Cl: s2p5                                                             
   LEXCH  = PE                                                                  
   EATOM  =   409.7259 eV,   30.1140 Ry                                         
                                                                                
   TITEL  = PAW_PBE Cl 06Sep2000                                                
   LULTRA =        F    use ultrasoft PP ?                                      
   IUNSCR =        1    unscreen: 0-lin 1-nonlin 2-no                           
   RPACOR =    1.500    partial core radius                                     
   POMASS =   35.453; ZVAL   =    7.000    mass and valenz                      
   RCORE  =    1.900    outmost cutoff radius                                   
   RWIGS  =    2.100; RWIGS  =    1.111    wigner-seitz radius (au A)           
   ENMAX  =  262.472; ENMIN  =  196.854 eV                                      
   ICORE  =        2    local potential                                         
   LCOR   =        T    correct aug charges                                     
   LPAW   =        T    paw PP                                                  
   EAUG   =  356.192                                                            
   DEXC   =    0.000                                                            
   RMAX   =    1.945    core radius for proj-oper                               
   RAUG   =    1.300    factor for augmentation sphere                          
   RDEP   =    2.020    radius for radial grids                                 
   RDEPT  =    1.678    core radius for aug-charge                              
                                                                                
   Atomic configuration                                                         
    6 entries                                                                   
     n  l   j            E        occ.                                          
     1  0  0.50     -2751.1850   2.0000                                         
     2  0  0.50      -252.6861   2.0000                                         
     2  1  1.50      -191.6157   6.0000                                         
     3  0  0.50       -20.6916   2.0000                                         
     3  1  0.50        -8.5949   5.0000                                         
     3  2  1.50        -8.1635   0.0000                                         
   Description                                                                  
     l       E           TYP  RCUT    TYP  RCUT                                 
     0    -20.6915656     23  1.900                                             
     0    -22.0521482     23  1.900                                             
     1     -8.5948577     23  1.900                                             
     1     -5.3847331     23  1.900                                             
     2     -8.1634956     23  1.900                                             
  local pseudopotential read in
  partial core-charges read in
  partial kinetic energy density read in
  atomic valenz-charges read in
  non local Contribution for L=           0  read in
    real space projection operators read in
  non local Contribution for L=           0  read in
    real space projection operators read in
  non local Contribution for L=           1  read in
    real space projection operators read in
  non local Contribution for L=           1  read in
    real space projection operators read in
    PAW grid and wavefunctions read in
 
   number of l-projection  operators is LMAX  =           4
   number of lm-projection operators is LMMAX =           8
 
 POTCAR:    PAW_PBE C 08Apr2002                   
   VRHFIN =C: s2p2                                                              
   LEXCH  = PE                                                                  
   EATOM  =   147.1560 eV,   10.8157 Ry                                         
                                                                                
   TITEL  = PAW_PBE C 08Apr2002                                                 
   LULTRA =        F    use ultrasoft PP ?                                      
   IUNSCR =        1    unscreen: 0-lin 1-nonlin 2-no                           
   RPACOR =    1.200    partial core radius                                     
   POMASS =   12.011; ZVAL   =    4.000    mass and valenz                      
   RCORE  =    1.500    outmost cutoff radius                                   
   RWIGS  =    1.630; RWIGS  =    0.863    wigner-seitz radius (au A)           
   ENMAX  =  400.000; ENMIN  =  300.000 eV                                      
   ICORE  =        2    local potential                                         
   LCOR   =        T    correct aug charges                                     
   LPAW   =        T    paw PP                                                  
   EAUG   =  644.873                                                            
   DEXC   =    0.000                                                            
   RMAX   =    1.529    core radius for proj-oper                               
   RAUG   =    1.300    factor for augmentation sphere                          
   RDEP   =    1.501    radius for radial grids                                 
   RDEPT  =    1.300    core radius for aug-charge                              
                                                                                
   Atomic configuration                                                         
    4 entries                                                                   
     n  l   j            E        occ.                                          
     1  0  0.50      -273.3789   2.0000                                         
     2  0  0.50       -13.7508   2.0000                                         
     2  1  0.50        -5.2854   2.0000                                         
     3  2  1.50        -5.4423   0.0000                                         
   Description                                                                  
     l       E           TYP  RCUT    TYP  RCUT                                 
     0    -13.7508458     23  1.200                                             
     0     -8.2022199     23  1.200                                             
     1     -5.2854383     23  1.500                                             
     1     34.0145650     23  1.500                                             
     2     -5.4423304      7  1.500                                             
  local pseudopotential read in
  partial core-charges read in
  partial kinetic energy density read in
  atomic valenz-charges read in
  non local Contribution for L=           0  read in
    real space projection operators read in
  non local Contribution for L=           0  read in
    real space projection operators read in
  non local Contribution for L=           1  read in
    real space projection operators read in
  non local Contribution for L=           1  read in
    real space projection operators read in
    PAW grid and wavefunctions read in
 
   number of l-projection  operators is LMAX  =           4
   number of lm-projection operators is LMMAX =           8
 
 Optimization of the real space projectors (new method)

 maximal supplied QI-value         = 15.12
 optimisation between [QCUT,QGAM] = [ 12.55, 25.10] = [ 44.09,176.36] Ry 
 Optimized for a Real-space Cutoff    1.56 Angstroem

   l    n(q)    QCUT    max X(q) W(low)/X(q) W(high)/X(q)  e(spline) 
   0     12    12.548     2.962    0.12E-05    0.11E-06    0.46E-07
   0     12    12.548    26.414    0.30E-04    0.15E-05    0.76E-07
   1     11    12.548     3.969    0.45E-05    0.12E-05    0.60E-07
   1     11    12.548     5.137    0.15E-04    0.18E-04    0.36E-06
   2     11    12.548   143.970    0.20E-03    0.19E-03    0.76E-06
   2     11    12.548   121.201    0.20E-03    0.19E-03    0.76E-06
 Optimization of the real space projectors (new method)

 maximal supplied QI-value         = 19.84
 optimisation between [QCUT,QGAM] = [ 12.50, 25.00] = [ 43.76,175.03] Ry 
 Optimized for a Real-space Cutoff    1.20 Angstroem

   l    n(q)    QCUT    max X(q) W(low)/X(q) W(high)/X(q)  e(spline) 
   0      9    12.501   168.010    0.44E-04    0.61E-04    0.77E-07
   0      9    12.501   164.674    0.43E-04    0.60E-04    0.75E-07
   1      8    12.501    69.222    0.11E-03    0.13E-03    0.91E-07
   1      8    12.501    56.786    0.11E-03    0.13E-03    0.90E-07
 Optimization of the real space projectors (new method)

 maximal supplied QI-value         = 25.13
 optimisation between [QCUT,QGAM] = [ 12.32, 24.88] = [ 42.47,173.37] Ry 
 Optimized for a Real-space Cutoff    1.16 Angstroem

   l    n(q)    QCUT    max X(q) W(low)/X(q) W(high)/X(q)  e(spline) 
   0      9    12.315   115.676    0.19E-03    0.80E-05    0.34E-06
   0      9    12.315    87.132    0.19E-03    0.82E-05    0.34E-06
   1      8    12.315     4.429    0.18E-03    0.13E-03    0.22E-06
   1      8    12.315     2.733    0.14E-03    0.10E-03    0.18E-06
  PAW_PBE Sc_sv 07Sep2000               :
 energy of atom  1       EATOM=-1273.2868
 kinetic energy error for atom=    0.0014 (will be added to EATOM!!)
  PAW_PBE Cl 06Sep2000                  :
 energy of atom  2       EATOM= -409.7259
 kinetic energy error for atom=    0.0013 (will be added to EATOM!!)
  PAW_PBE C 08Apr2002                   :
 energy of atom  3       EATOM= -147.1560
 kinetic energy error for atom=    0.0057 (will be added to EATOM!!)
 
 
 POSCAR: Sc Cl  C                                
  positions in cartesian coordinates
  No initial velocities read in
 exchange correlation table for  LEXCH =        8
   RHO(1)=    0.500       N(1)  =     2000
   RHO(2)=  100.500       N(2)  =     4000
 


--------------------------------------------------------------------------------------------------------


 ion  position               nearest neighbor table
   1  0.086  0.174  0.543-  70 2.29  66 2.33  65 2.48  50 2.57  61 2.61  49 2.69  17 3.21   2 3.24
                            29 3.27  18 3.29   5 3.30  16 3.37
   2  0.083  0.407  0.543-  66 2.29  71 2.45  50 2.46  67 2.48  51 2.60  62 2.73  30 3.12  19 3.21
                             1 3.24  18 3.25  13 3.39
   3  0.091  0.675  0.545-  72 2.20  68 2.28  52 2.44  67 2.46  51 2.70  63 2.82  20 3.11  19 3.22
                            31 3.35   8 3.40   4 3.41
   4  0.087  0.920  0.540-  69 2.11  65 2.34  68 2.38  49 2.40  64 2.49  17 2.94  52 2.96  20 3.15
                            32 3.17   5 3.28   3 3.41
   5  0.319  0.162  0.550-  49 2.33  69 2.39  53 2.48  70 2.51  74 2.51  54 2.54  17 3.19   4 3.28
                             1 3.30  22 3.38  21 3.43
   6  0.344  0.430  0.537-  71 2.26  75 2.32  70 2.42  55 2.71  50 2.86  54 2.87  23 2.90  22 3.12
                            18 3.20   7 3.34  10 3.43
   7  0.336  0.667  0.547-  71 2.23  76 2.35  72 2.44  55 2.45  51 2.52  56 2.95  23 3.11  24 3.21
                             6 3.34  19 3.36
   8  0.337  0.921  0.547-  73 2.31  72 2.32  69 2.37  56 2.65  52 2.65  53 2.72  21 3.22  24 3.28
                            20 3.35   3 3.40   9 3.42
   9  0.579  0.174  0.547-  78 2.32  74 2.33  73 2.47  58 2.62  53 2.65  57 2.74  26 3.02  21 3.12
                            10 3.30   8 3.42
  10  0.584  0.416  0.546-  79 2.33  75 2.33  74 2.34  59 2.39  58 2.68  54 2.79  26 3.23  27 3.25
                             9 3.30  22 3.32  14 3.42   6 3.43
  11  0.607  0.687  0.552-  80 2.18  76 2.43  60 2.50  75 2.64  55 2.66  59 2.75  28 3.10  16 3.30
                            23 3.32  15 3.34
  12  0.594  0.930  0.554-  77 2.28  73 2.51  57 2.56  76 2.67  56 2.70  60 2.70  13 3.29  28 3.34
                            16 3.38  24 3.42
  13  0.833  0.166  0.546-  66 2.17  77 2.34  78 2.49  62 2.63  57 2.75  61 2.79  30 3.12  16 3.27
                            29 3.28  12 3.29   2 3.39  25 3.39
  14  0.835  0.421  0.546-  79 2.39  78 2.41  62 2.44  67 2.51  63 2.55  58 2.77  31 3.02  30 3.09
                            26 3.27  15 3.42  10 3.42
  15  0.838  0.670  0.538-  68 2.26  79 2.28  80 2.34  63 2.59  64 2.59  59 2.70  32 3.06  31 3.07
                            27 3.27  11 3.34  14 3.42
  16  0.839  0.932  0.545-  77 2.15  65 2.28  61 2.47  80 2.52  60 2.68  64 2.77  28 3.20  29 3.24
                            13 3.27  32 3.28  11 3.30   1 3.37  12 3.38
  17  0.163  0.071  0.457-  69 2.24  65 2.31  70 2.43  36 2.72  37 2.80  33 2.93   4 2.94   5 3.19
                             1 3.21  32 3.35  20 3.40
  18  0.174  0.339  0.448-  70 2.27  33 2.47  38 2.54  71 2.55  34 2.65  66 2.72   6 3.20   2 3.25
                             1 3.29  22 3.36  19 3.40
  19  0.157  0.577  0.454-  67 2.11  71 2.38  34 2.54  72 2.55  35 2.66  39 2.77   2 3.21   3 3.22
                             7 3.36  20 3.38  30 3.39  18 3.40  31 3.42
  20  0.161  0.824  0.454-  68 2.26  72 2.31  69 2.46  40 2.56  35 2.67  36 2.79   3 3.11   4 3.15
                             8 3.35  19 3.38  17 3.40
  21  0.427  0.086  0.456-  73 2.23  74 2.35  41 2.50  40 2.56  69 2.58  37 2.64   9 3.12  26 3.17
                             8 3.22  25 3.27   5 3.43
  22  0.412  0.329  0.452-  74 2.34  70 2.36  38 2.46  75 2.47  37 2.47  42 2.63   6 3.12  10 3.32
                            18 3.36  27 3.36   5 3.38
  23  0.427  0.594  0.461-  76 2.11  71 2.27  75 2.35  39 2.60  43 2.65   6 2.90  38 2.99   7 3.11
                            28 3.25  24 3.32  11 3.32  27 3.38
  24  0.422  0.832  0.456-  73 2.34  76 2.35  72 2.47  44 2.56  40 2.73  39 2.77   7 3.21   8 3.28
                            23 3.32  28 3.33  25 3.41  12 3.42
  25  0.663  0.085  0.448-  78 2.45  41 2.46  73 2.47  45 2.48  44 2.53  77 2.62  26 3.24  21 3.27
                            13 3.39  24 3.41  30 3.43
  26  0.657  0.316  0.457-  78 2.12  74 2.29  41 2.32  79 2.53  42 2.71  46 2.86   9 3.02  21 3.17
                            10 3.23  25 3.24  14 3.27  30 3.38  31 3.42
  27  0.659  0.571  0.450-  75 2.19  79 2.33  42 2.45  43 2.52  80 2.55  47 2.75  10 3.25  15 3.27
                            22 3.36  23 3.38  31 3.42
  28  0.662  0.830  0.459-  80 2.25  76 2.27  77 2.36  44 2.57  48 2.64  43 2.74  11 3.10  16 3.20
                            23 3.25  24 3.33  12 3.34
  29  0.917  0.090  0.450-  66 2.32  65 2.44  48 2.46  77 2.56  33 2.57  45 2.83  16 3.24   1 3.27
                            13 3.28  30 3.41
  30  0.910  0.333  0.459-  67 2.29  66 2.32  78 2.33  46 2.51  34 2.59  45 2.96  14 3.09   2 3.12
                            13 3.12  31 3.24  26 3.38  19 3.39  29 3.41  25 3.43
  31  0.903  0.565  0.456-  79 2.23  67 2.25  68 2.47  46 2.51  47 2.60  35 2.76  14 3.02  15 3.07
                            30 3.24   3 3.35  26 3.42  27 3.42  19 3.42
  32  0.915  0.835  0.454-  65 2.27  80 2.42  68 2.48  48 2.66  47 2.71  36 2.73  15 3.06   4 3.17
                            16 3.28  17 3.35
  33  0.082  0.181  0.391-  18 2.47  29 2.57  17 2.93
  34  0.066  0.415  0.395-  19 2.54  30 2.59  18 2.65
  35  0.073  0.658  0.390-  19 2.66  20 2.67  31 2.76
  36  0.080  0.915  0.386-  17 2.72  32 2.73  20 2.79
  37  0.346  0.173  0.395-  22 2.47  21 2.64  17 2.80
  38  0.338  0.403  0.391-  22 2.46  18 2.54  23 2.99
  39  0.339  0.654  0.392-  23 2.60  24 2.77  19 2.77
  40  0.329  0.922  0.397-  21 2.56  20 2.56  24 2.73
  41  0.587  0.178  0.398-  26 2.32  25 2.46  21 2.50
  42  0.584  0.414  0.393-  27 2.45  22 2.63  26 2.71
  43  0.583  0.660  0.393-  27 2.52  23 2.65  28 2.74
  44  0.585  0.911  0.396-  25 2.53  24 2.56  28 2.57
  45  0.807  0.158  0.384-  25 2.48  29 2.83  30 2.96
  46  0.845  0.414  0.394-  30 2.51  31 2.51  26 2.86
  47  0.844  0.661  0.391-  31 2.60  32 2.71  27 2.75
  48  0.829  0.927  0.396-  29 2.46  28 2.64  32 2.66
  49  0.162  0.067  0.599-   5 2.33   4 2.40   1 2.69
  50  0.161  0.336  0.604-   2 2.46   1 2.57   6 2.86
  51  0.171  0.574  0.603-   7 2.52   2 2.60   3 2.70
  52  0.170  0.814  0.609-   3 2.44   8 2.65   4 2.96
  53  0.411  0.098  0.609-   5 2.48   9 2.65   8 2.72
  54  0.405  0.322  0.610-   5 2.54  10 2.79   6 2.87
  55  0.420  0.595  0.604-   7 2.45  11 2.66   6 2.71
  56  0.421  0.854  0.617-   8 2.65  12 2.70   7 2.95
  57  0.666  0.093  0.614-  12 2.56   9 2.74  13 2.75
  58  0.662  0.331  0.612-   9 2.62  10 2.68  14 2.77
  59  0.675  0.563  0.604-  10 2.39  15 2.70  11 2.75
  60  0.683  0.839  0.613-  11 2.50  16 2.68  12 2.70
  61  0.929  0.078  0.608-  16 2.47   1 2.61  13 2.79
  62  0.905  0.339  0.604-  14 2.44  13 2.63   2 2.73
  63  0.900  0.583  0.605-  14 2.55  15 2.59   3 2.82
  64  0.932  0.832  0.600-   4 2.49  15 2.59  16 2.77
  65  0.994  0.995  0.498-  32 2.27  16 2.28  17 2.31   4 2.34  29 2.44   1 2.48
  66  0.984  0.241  0.503-  13 2.17   2 2.29  29 2.32  30 2.32   1 2.33  18 2.72
  67  0.008  0.506  0.495-  19 2.11  31 2.25  30 2.29   3 2.46   2 2.48  14 2.51
  68  0.004  0.745  0.499-  15 2.26  20 2.26   3 2.28   4 2.38  31 2.47  32 2.48
  69  0.241  0.995  0.503-   4 2.11  17 2.24   8 2.37   5 2.39  20 2.46  21 2.58
  70  0.243  0.253  0.496-  18 2.27   1 2.29  22 2.36   6 2.42  17 2.43   5 2.51
  71  0.261  0.515  0.500-   7 2.23   6 2.26  23 2.27  19 2.38   2 2.45  18 2.55
  72  0.247  0.756  0.504-   3 2.20  20 2.31   8 2.32   7 2.44  24 2.47  19 2.55
  73  0.496  0.999  0.500-  21 2.23   8 2.31  24 2.34  25 2.47   9 2.47  12 2.51
  74  0.495  0.252  0.500-  26 2.29   9 2.33  22 2.34  10 2.34  21 2.35   5 2.51
  75  0.514  0.505  0.498-  27 2.19   6 2.32  10 2.33  23 2.35  22 2.47  11 2.64
  76  0.500  0.744  0.501-  23 2.11  28 2.27  24 2.35   7 2.35  11 2.43  12 2.67
  77  0.747  0.994  0.506-  16 2.15  12 2.28  13 2.34  28 2.36  29 2.56  25 2.62
  78  0.739  0.251  0.500-  26 2.12   9 2.32  30 2.33  14 2.41  25 2.45  13 2.49
  79  0.746  0.502  0.500-  31 2.23  15 2.28  10 2.33  27 2.33  14 2.39  26 2.53
  80  0.744  0.749  0.500-  11 2.18  28 2.25  15 2.34  32 2.42  16 2.52  27 2.55
 
  LATTYP: Found a hexagonal cell.
 ALAT       =    13.7939866762
 C/A-ratio  =     2.0161119278
  
  Lattice vectors:
  
 A1 = (  13.7939866800,   0.0000000000,   0.0000000000)
 A2 = (  -6.8969933400,  11.9459428800,   0.0000000000)
 A3 = (   0.0000000000,   0.0000000000,  27.8102210700)


Analysis of symmetry for initial positions (statically):
=====================================================================
 Subroutine PRICEL returns:
 Original cell was already a primitive cell.
 

 Routine SETGRP: Setting up the symmetry group for a 
 hexagonal supercell.


 Subroutine GETGRP returns: Found  1 space group operations
 (whereof  1 operations were pure point group operations)
 out of a pool of 24 trial point group operations.


The static configuration has the point symmetry C_1 .


Analysis of symmetry for dynamics (positions and initial velocities):
=====================================================================
 Subroutine PRICEL returns:
 Original cell was already a primitive cell.
 

 Routine SETGRP: Setting up the symmetry group for a 
 hexagonal supercell.


 Subroutine GETGRP returns: Found  1 space group operations
 (whereof  1 operations were pure point group operations)
 out of a pool of 24 trial point group operations.


The dynamic configuration has the point symmetry C_1 .


 Subroutine INISYM returns: Found  1 space group operations
 (whereof  1 operations are pure point group operations),
 and found     1 'primitive' translations

 
 

Automatic generation of k-mesh.
 generate k-points for:    3    3    1
Space group operators:
 irot       det(A)        alpha          n_x          n_y          n_z        tau_x        tau_y        tau_z
    1     1.000000     0.000000     1.000000     0.000000     0.000000     0.000000     0.000000     0.000000
 
 Subroutine IBZKPT returns following result:
 ===========================================
 
 Found      5 irreducible k-points:
 
 Following reciprocal coordinates:
            Coordinates               Weight
  0.000000  0.000000  0.000000      1.000000
  0.333333 -0.000000  0.000000      2.000000
  0.000000  0.333333  0.000000      2.000000
  0.333333  0.333333  0.000000      2.000000
 -0.333333  0.333333  0.000000      2.000000
 
 Following cartesian coordinates:
            Coordinates               Weight
  0.000000  0.000000  0.000000      1.000000
  0.024165  0.013952  0.000000      2.000000
  0.000000  0.027903  0.000000      2.000000
  0.024165  0.041855  0.000000      2.000000
 -0.024165  0.013952  0.000000      2.000000
 


--------------------------------------------------------------------------------------------------------




 Dimension of arrays:
   k-points           NKPTS =      5   k-points in BZ     NKDIM =      5   number of bands    NBANDS=    384
   number of dos      NEDOS =    301   number of ions     NIONS =     80
   non local maximal  LDIM  =      6   non local SUM 2l+1 LMDIM =     18
   total plane-waves  NPLWV = ******
   max r-space proj   IRMAX =   9806   max aug-charges    IRDMAX= 216835
   dimension x,y,z NGX =   112 NGY =  112 NGZ =  224
   dimension x,y,z NGXF=   224 NGYF=  224 NGZF=  448
   support grid    NGXF=   448 NGYF=  448 NGZF=  896
   ions per type =              32  32  16
   NGX,Y,Z   is equivalent  to a cutoff of  13.50, 13.50, 13.39 a.u.
   NGXF,Y,Z  is equivalent  to a cutoff of  27.00, 27.00, 26.78 a.u.

 SYSTEM =  unknown system                          
 POSCAR =  Sc Cl  C                                

 Startparameter for this run:
   NWRITE =      2    write-flag & timer
   PREC   = anorma    normal or accurate (medium, high low for compatibility)
   ISTART =      0    job   : 0-new  1-cont  2-samecut
   ICHARG =      2    charge: 1-file 2-atom 10-const
   ISPIN  =      1    spin polarized calculation?
   LNONCOLLINEAR =      F non collinear calculations
   LSORBIT =      F    spin-orbit coupling
   INIWAV =      1    electr: 0-lowe 1-rand  2-diag
   LASPH  =      F    aspherical Exc in radial PAW
   METAGGA=      F    non-selfconsistent MetaGGA calc.

 Electronic Relaxation 1
   ENCUT  =  600.0 eV  44.10 Ry    6.64 a.u.  27.55 27.55 55.54*2*pi/ulx,y,z
   ENINI  =  600.0     initial cutoff
   ENAUG  =  644.9 eV  augmentation charge cutoff
   NELM   =     60;   NELMIN=  2; NELMDL= -5     # of ELM steps 
   EDIFF  = 0.1E-05   stopping-criterion for ELM
   LREAL  =      T    real-space projection
   NLSPLINE    = F    spline interpolate recip. space projectors
   LCOMPAT=      F    compatible to vasp.4.4
   GGA_COMPAT  = T    GGA compatible to vasp.4.4-vasp.4.6
   LMAXPAW     = -100 max onsite density
   LMAXMIX     =    2 max onsite mixed and CHGCAR
   VOSKOWN=      0    Vosko Wilk Nusair interpolation
   ROPT   =   -0.00025  -0.00025  -0.00025
 Ionic relaxation
   EDIFFG = -.1E-01   stopping-criterion for IOM
   NSW    =      1    number of steps for IOM
   NBLOCK =      1;   KBLOCK =      1    inner block; outer block 
   IBRION =     -1    ionic relax: 0-MD 1-quasi-New 2-CG
   NFREE  =      0    steps in history (QN), initial steepest desc. (CG)
   ISIF   =      2    stress and relaxation
   IWAVPR =     10    prediction:  0-non 1-charg 2-wave 3-comb
   ISYM   =      2    0-nonsym 1-usesym 2-fastsym
   LCORR  =      T    Harris-Foulkes like correction to forces

   POTIM  = 1.0000    time-step for ionic-motion
   TEIN   =    0.0    initial temperature
   TEBEG  =    0.0;   TEEND  =   0.0 temperature during run
   SMASS  =  -3.00    Nose mass-parameter (am)
   estimated Nose-frequenzy (Omega)   =  0.10E-29 period in steps =****** mass=  -0.435E-26a.u.
   SCALEE = 1.0000    scale energy and forces
   NPACO  =    256;   APACO  = 16.0  distance and # of slots for P.C.
   PSTRESS=    0.0 pullay stress

  Mass of Ions in am
   POMASS =  44.96 35.45 12.01
  Ionic Valenz
   ZVAL   =  11.00  7.00  4.00
  Atomic Wigner-Seitz radii
   RWIGS  =  -1.00 -1.00 -1.00
  virtual crystal weights 
   VCA    =   1.00  1.00  1.00
   NELECT =     640.0000    total number of electrons
   NUPDOWN=      -1.0000    fix difference up-down

 DOS related values:
   EMIN   =  10.00;   EMAX   =-10.00  energy-range for DOS
   EFERMI =   0.00
   ISMEAR =     0;   SIGMA  =   0.05  broadening in eV -4-tet -1-fermi 0-gaus

 Electronic relaxation 2 (details)
   IALGO  =     38    algorithm
   LDIAG  =      T    sub-space diagonalisation (order eigenvalues)
   LSUBROT=      F    optimize rotation matrix (better conditioning)
   TURBO    =      0    0=normal 1=particle mesh
   IRESTART =      0    0=no restart 2=restart with 2 vectors
   NREBOOT  =      0    no. of reboots
   NMIN     =      0    reboot dimension
   EREF     =   0.00    reference energy to select bands
   IMIX   =      4    mixing-type and parameters
     AMIX     =   0.40;   BMIX     =  1.00
     AMIX_MAG =   1.60;   BMIX_MAG =  1.00
     AMIN     =   0.10
     WC   =   100.;   INIMIX=   1;  MIXPRE=   1;  MAXMIX= -45

 Intra band minimization:
   WEIMIN = 0.0000     energy-eigenvalue tresh-hold
   EBREAK =  0.65E-09  absolut break condition
   DEPER  =   0.30     relativ break condition  

   TIME   =   0.40     timestep for ELM

  volume/ion in A,a.u.               =      57.28       386.56
  Fermi-wavevector in a.u.,A,eV,Ry     =   0.849369  1.605075  9.815628  0.721428
  Thomas-Fermi vector in A             =   1.965179
 
 Write flags
   LWAVE        =      F    write WAVECAR
   LDOWNSAMPLE  =      F    k-point downsampling of WAVECAR
   LCHARG       =      F    write CHGCAR
   LVTOT        =      F    write LOCPOT, total local potential
   LVHAR        =      F    write LOCPOT, Hartree potential only
   LELF         =      F    write electronic localiz. function (ELF)
   LORBIT       =      0    0 simple, 1 ext, 2 COOP (PROOUT), +10 PAW based schemes


 Dipole corrections
   LMONO  =      F    monopole corrections only (constant potential shift)
   LDIPOL =      F    correct potential (dipole corrections)
   IDIPOL =      0    1-x, 2-y, 3-z, 4-all directions 
   EPSILON=  1.0000000 bulk dielectric constant

 Exchange correlation treatment:
   GGA     =    --    GGA type
   LEXCH   =     8    internal setting for exchange type
   VOSKOWN=      0    Vosko Wilk Nusair interpolation
   LHFCALC =     F    Hartree Fock is set to
   LHFONE  =     F    Hartree Fock one center treatment
   AEXX    =    0.0000 exact exchange contribution

 Linear response parameters
   LEPSILON=     F    determine dielectric tensor
   LRPA    =     F    only Hartree local field effects (RPA)
   LNABLA  =     F    use nabla operator in PAW spheres
   LVEL    =     F    velocity operator in full k-point grid
   LINTERFAST=   F  fast interpolation
   KINTER  =     0    interpolate to denser k-point grid
   CSHIFT  =0.1000    complex shift for real part using Kramers Kronig
   OMEGAMAX=  -1.0    maximum frequency
   DEG_THRESHOLD= 0.2000000E-02 threshold for treating states as degnerate
   RTIME   =   -0.100 relaxation time in fs
  (WPLASMAI=    0.000 imaginary part of plasma frequency in eV, 0.658/RTIME)
   DFIELD  = 0.0000000 0.0000000 0.0000000 field for delta impulse in time
 
 Orbital magnetization related:
   ORBITALMAG=     F  switch on orbital magnetization
   LCHIMAG   =     F  perturbation theory with respect to B field
   DQ        =  0.001000  dq finite difference perturbation B field
   LLRAUG    =     F  two centre corrections for induced B field



--------------------------------------------------------------------------------------------------------


 Static calculation
 charge density and potential will be updated during run
 non-spin polarized calculation
 Variant of blocked Davidson
 Davidson routine will perform the subspace rotation
 perform sub-space diagonalisation
    after iterative eigenvector-optimisation
 modified Broyden-mixing scheme, WC =      100.0
 initial mixing is a Kerker type mixing with AMIX =  0.4000 and BMIX =      1.0000
 Hartree-type preconditioning will be used
 using additional bands           64
 real space projection scheme for non local part
 use partial core corrections
 calculate Harris-corrections to forces 
   (improved forces if not selfconsistent)
 use gradient corrections 
 use of overlap-Matrix (Vanderbilt PP)
 Gauss-broadening in eV      SIGMA  =   0.05


--------------------------------------------------------------------------------------------------------


  energy-cutoff  :      600.00
  volume of cell :     4582.63
      direct lattice vectors                 reciprocal lattice vectors
    13.793986680  0.000000000  0.000000000     0.072495358  0.041855214  0.000000000
    -6.896993340 11.945942880  0.000000000     0.000000000  0.083710429  0.000000000
     0.000000000  0.000000000 27.810221070     0.000000000  0.000000000  0.035958003

  length of vectors
    13.793986680 13.793986676 27.810221070     0.083710429  0.083710429  0.035958003


 
 k-points in units of 2pi/SCALE and weight: read from INCAR                         
   0.00000000  0.00000000  0.00000000       0.111
   0.02416512  0.01395174  0.00000000       0.222
   0.00000000  0.02790348  0.00000000       0.222
   0.02416512  0.04185521  0.00000000       0.222
  -0.02416512  0.01395174  0.00000000       0.222
 
 k-points in reciprocal lattice and weights: read from INCAR                         
   0.00000000  0.00000000  0.00000000       0.111
   0.33333333 -0.00000000  0.00000000       0.222
   0.00000000  0.33333333  0.00000000       0.222
   0.33333333  0.33333333  0.00000000       0.222
  -0.33333333  0.33333333  0.00000000       0.222
 
 position of ions in fractional coordinates (direct lattice) 
   0.08616318  0.17398962  0.54284588
   0.08288766  0.40695956  0.54319005
   0.09107494  0.67466956  0.54541950
   0.08707460  0.91983637  0.54034495
   0.31876914  0.16193195  0.54993708
   0.34381294  0.43018834  0.53748139
   0.33591919  0.66718002  0.54718085
   0.33662767  0.92137954  0.54745947
   0.57938858  0.17423763  0.54698946
   0.58439797  0.41607270  0.54598323
   0.60650773  0.68749990  0.55168027
   0.59382041  0.92974516  0.55430559
   0.83285626  0.16636487  0.54591639
   0.83456965  0.42108012  0.54576204
   0.83826658  0.67011528  0.53826115
   0.83928643  0.93236825  0.54508973
   0.16277409  0.07110456  0.45717798
   0.17376756  0.33933129  0.44843039
   0.15700076  0.57678576  0.45381934
   0.16086775  0.82389194  0.45375625
   0.42688897  0.08569355  0.45593228
   0.41230039  0.32940235  0.45228403
   0.42684201  0.59440283  0.46056658
   0.42172826  0.83232178  0.45607407
   0.66321423  0.08453219  0.44831024
   0.65652973  0.31555776  0.45700817
   0.65853400  0.57078398  0.44971304
   0.66229536  0.83032502  0.45875276
   0.91716252  0.08997391  0.45044267
   0.90968466  0.33294349  0.45946528
   0.90285067  0.56450755  0.45638511
   0.91458974  0.83459257  0.45384173
   0.08214479  0.18147537  0.39144032
   0.06638838  0.41500515  0.39496668
   0.07346829  0.65820476  0.38960540
   0.08022757  0.91512617  0.38611659
   0.34613764  0.17303379  0.39459822
   0.33797955  0.40319296  0.39107303
   0.33896137  0.65419072  0.39216380
   0.32901794  0.92190834  0.39697953
   0.58716835  0.17776127  0.39826444
   0.58412973  0.41387652  0.39316471
   0.58313648  0.65952804  0.39314971
   0.58464728  0.91077444  0.39618682
   0.80704486  0.15811017  0.38422688
   0.84548308  0.41355018  0.39405234
   0.84420335  0.66121638  0.39141209
   0.82880245  0.92698438  0.39648641
   0.16153759  0.06679491  0.59912965
   0.16119254  0.33568454  0.60397436
   0.17057864  0.57379186  0.60338853
   0.16975337  0.81400781  0.60938065
   0.41082604  0.09840210  0.60860456
   0.40486111  0.32230057  0.61003537
   0.41994458  0.59515162  0.60420165
   0.42072831  0.85368055  0.61660513
   0.66600620  0.09265805  0.61376275
   0.66226872  0.33148997  0.61242040
   0.67452563  0.56270047  0.60410293
   0.68262244  0.83910597  0.61344527
   0.92860446  0.07784579  0.60752204
   0.90500441  0.33889505  0.60407163
   0.90032143  0.58271438  0.60526146
   0.93172158  0.83175835  0.60001979
   0.99410411  0.99527066  0.49752174
   0.98390928  0.24119991  0.50262489
   0.00801865  0.50610697  0.49462850
   0.00387278  0.74548868  0.49934019
   0.24107336  0.99465177  0.50291417
   0.24288846  0.25330507  0.49562023
   0.26076049  0.51510172  0.50040537
   0.24731409  0.75611478  0.50353182
   0.49565797  0.99879017  0.50005432
   0.49472339  0.25164406  0.50043675
   0.51414180  0.50545034  0.49806094
   0.49986003  0.74401209  0.50074917
   0.74689224  0.99440856  0.50591814
   0.73886187  0.25073078  0.49965737
   0.74649722  0.50224532  0.49963232
   0.74352642  0.74939673  0.50017816
 
 position of ions in cartesian coordinates  (Angst):
  -0.01147151  2.07847007 15.09666387
  -1.66344604  4.86151562 15.10623551
  -3.39690495  8.05956407 15.16823698
  -5.14299947 10.98831268 15.02711248
   3.28025371  1.93442981 15.29387184
   1.77554505  5.13900530 14.94747621
   0.03212871  7.97009436 15.21722037
  -1.71131088 11.00674730 15.22496881
   6.79036260  2.08143274 15.21189768
   5.19152713  4.97038067 15.18391426
   3.62447729  8.21283449 15.34235032
   1.77870470 11.10668252 15.41536111
  10.34099069  1.98738523 15.18205543
   8.60785581  5.03019910 15.17776312
   6.94125742  8.00515891 14.96916168
   5.14656820 11.13801783 15.15906591
   1.75489591  0.84941102 12.71422061
   0.05658178  4.05363219 12.47094827
  -1.81242108  6.89024972 12.62081622
  -3.46336961  9.84216606 12.61906151
   5.29747285  1.02369026 12.67957748
   3.41538031  3.93502167 12.57811874
   1.78826069  7.10070226 12.80845846
   0.07679625  9.94286849 12.68352078
   8.56535039  1.00981667 12.46760679
   6.87976253  3.76963495 12.70949829
   5.14711585  6.81855288 12.50661895
   3.40894725  9.91901528 12.75801573
  12.03077817  1.07482314 12.52691032
  10.25186896  3.97732396 12.77783097
   8.56050529  6.74357492 12.69217078
   6.85965928  9.96999520 12.62143877
  -0.11853028  2.16789445 10.88604187
  -1.94652733  4.95762786 10.98411080
  -3.52621328  7.86287647 10.83501224
  -5.20496114 10.93204497 10.73798760
   3.58120507  2.06705177 10.97386380
   1.88126618  4.81652010 10.87582745
   0.16367953  7.81492503 10.90616194
  -1.81992667 11.01306438 11.04008844
   6.87337418  2.12352595 11.07582214
   5.20297411  4.94414521 10.93399758
   3.49501635  7.87868435 10.93358027
   1.78301151 10.88005944 11.01804298
  10.04188133  1.88877501 10.68543451
   8.81032953  4.94024681 10.95868266
   7.08452484  7.89885308 10.88525662
   5.03908488 11.07370248 11.02637484
   1.76756327  0.79792816 16.66192813
  -0.09172628  4.01006838 16.79666049
  -1.60447920  6.85448481 16.78036846
  -3.27263073  9.72409078 16.94701069
   4.98825033  1.17550590 16.92542746
   3.36174393  3.85018420 16.96521858
   1.68795318  7.10964723 16.80298138
  -0.08430840 10.19801905 17.14792494
   8.54781863  1.10688779 17.06887784
   6.84904180  3.95996029 17.03154671
   5.42345618  6.72198769 16.80023601
   3.62877655 10.02391200 17.06004850
  12.27225569  0.92994136 16.89532223
  10.14626189  4.04842087 16.79936553
   8.40004460  6.96107264 16.83245500
   7.11552322  9.93613779 16.68668292
   6.84828369 11.88944644 13.83618946
  11.90847735  2.88136034 13.97810918
  -3.38000722  6.04592491 13.75572805
  -5.08820942  8.90556514 13.88676096
  -3.53474396 11.88205324 13.98615428
   1.60335675  3.02596790 13.78330807
   0.04427366  6.15337572 13.91638407
  -1.80347135  9.03250401 14.00333115
  -0.05154978 11.93149035 13.90662121
   5.08862040  3.00612559 13.91725665
   3.60597759  6.03808084 13.85118487
   1.76361609  8.88792598 13.92594521
   3.44419238 11.87914781 14.06969538
   8.46256234  2.99521554 13.89558193
   6.83319001  5.99979392 13.89488516
   5.08760926  8.95225051 13.91006530
 


--------------------------------------------------------------------------------------------------------


 k-point  1 :   0.0000 0.0000 0.0000  plane waves:  153003
 k-point  2 :   0.3333-0.0000 0.0000  plane waves:  152954
 k-point  3 :   0.0000 0.3333 0.0000  plane waves:  152954
 k-point  4 :   0.3333 0.3333 0.0000  plane waves:  152898
 k-point  5 :  -0.3333 0.3333 0.0000  plane waves:  152954

 maximum and minimum number of plane-waves per node :     11814    11730

 maximum number of plane-waves:    153003
 maximum index in each direction: 
   IXMAX=   27   IYMAX=   27   IZMAX=   55
   IXMIN=  -27   IYMIN=  -27   IZMIN=  -55


 real space projection operators:
  total allocation   :      55002.78 KBytes
  max/ min on nodes  :       4413.89       3937.39


 parallel 3D FFT for wavefunctions:
    minimum data exchange during FFTs selected (reduces bandwidth)
 parallel 3D FFT for charge:
    minimum data exchange during FFTs selected (reduces bandwidth)


 total amount of memory used by VASP MPI-rank0   253971. kBytes
=======================================================================

   base      :      30000. kBytes
   nonlr-proj:      18787. kBytes
   fftplans  :      72602. kBytes
   grid      :      41267. kBytes
   one-center:        108. kBytes
   wavefun   :      91207. kBytes
 
     INWAV:  cpu time    0.0000: real time    0.0000
 Broyden mixing: mesh for mixing (old mesh)
   NGX = 55   NGY = 55   NGZ =111
  (NGX  =224   NGY  =224   NGZ  =448)
  gives a total of 335775 points

 initial charge density was supplied:
 charge density of overlapping atoms calculated
 number of electron     640.0000000 magnetization 
 keeping initial charge density in first step


--------------------------------------------------------------------------------------------------------


 Maximum index for non-local projection operator          950
 Maximum index for augmentation-charges         4584 (set IRDMAX)


--------------------------------------------------------------------------------------------------------


 First call to EWALD:  gamma=   0.107
 Maximum number of real-space cells 4x 4x 2
 Maximum number of reciprocal cells 2x 2x 4

    FEWALD:  cpu time    0.0034: real time    0.0034


--------------------------------------- Iteration      1(   1)  ---------------------------------------


    POTLOK:  cpu time    0.4096: real time    0.4151
    SETDIJ:  cpu time    0.4217: real time    0.4217
     EDDAV:  cpu time   50.4353: real time   50.4390
       DOS:  cpu time    0.0014: real time    0.0014
    --------------------------------------------
      LOOP:  cpu time   51.2680: real time   51.2773

 eigenvalue-minimisations  :  4432
 total energy-change (2. order) : 0.1216598E+05  (-0.2679518E+05)
 number of electron     640.0000000 magnetization 
 augmentation part      640.0000000 magnetization 

 Free energy of the ion-electron system (eV)
  ---------------------------------------------------
  alpha Z        PSCENC =       784.57699423
  Ewald energy   TEWEN  =    249028.15788163
  -Hartree energ DENC   =   -296717.68856331
  -exchange      EXHF   =         0.00000000
  -V(xc)+E(xc)   XCENC  =      2500.80952819
  PAW double counting   =     43679.68029659   -43417.33247688
  entropy T*S    EENTRO =        -0.06749493
  eigenvalues    EBANDS =        97.11759405
  atomic energy  EATOM  =     56210.72393729
  Solvation  Ediel_sol  =         0.00000000
  ---------------------------------------------------
  free energy    TOTEN  =     12165.97769686 eV

  energy without entropy =    12166.04519179  energy(sigma->0) =    12166.01144433


--------------------------------------------------------------------------------------------------------




--------------------------------------- Iteration      1(   2)  ---------------------------------------


     EDDAV:  cpu time   56.7409: real time   56.7516
       DOS:  cpu time    0.0014: real time    0.0014
    --------------------------------------------
      LOOP:  cpu time   56.7424: real time   56.7531

 eigenvalue-minimisations  :  5200
 total energy-change (2. order) :-0.1043064E+05  (-0.1016650E+05)
 number of electron     640.0000000 magnetization 
 augmentation part      640.0000000 magnetization 

 Free energy of the ion-electron system (eV)
  ---------------------------------------------------
  alpha Z        PSCENC =       784.57699423
  Ewald energy   TEWEN  =    249028.15788163
  -Hartree energ DENC   =   -296717.68856331
  -exchange      EXHF   =         0.00000000
  -V(xc)+E(xc)   XCENC  =      2500.80952819
  PAW double counting   =     43679.68029659   -43417.33247688
  entropy T*S    EENTRO =        -0.04543169
  eigenvalues    EBANDS =    -10333.53955218
  atomic energy  EATOM  =     56210.72393729
  Solvation  Ediel_sol  =         0.00000000
  ---------------------------------------------------
  free energy    TOTEN  =      1735.34261387 eV

  energy without entropy =     1735.38804557  energy(sigma->0) =     1735.36532972


--------------------------------------------------------------------------------------------------------




--------------------------------------- Iteration      1(   3)  ---------------------------------------


     EDDAV:  cpu time   70.8616: real time   70.8672
       DOS:  cpu time    0.0011: real time    0.0011
    --------------------------------------------
      LOOP:  cpu time   70.8627: real time   70.8683

 eigenvalue-minimisations  :  6800
 total energy-change (2. order) :-0.2137919E+04  (-0.2051685E+04)
 number of electron     640.0000000 magnetization 
 augmentation part      640.0000000 magnetization 

 Free energy of the ion-electron system (eV)
  ---------------------------------------------------
  alpha Z        PSCENC =       784.57699423
  Ewald energy   TEWEN  =    249028.15788163
  -Hartree energ DENC   =   -296717.68856331
  -exchange      EXHF   =         0.00000000
  -V(xc)+E(xc)   XCENC  =      2500.80952819
  PAW double counting   =     43679.68029659   -43417.33247688
  entropy T*S    EENTRO =        -0.00000370
  eigenvalues    EBANDS =    -12471.50422496
  atomic energy  EATOM  =     56210.72393729
  Solvation  Ediel_sol  =         0.00000000
  ---------------------------------------------------
  free energy    TOTEN  =      -402.57663092 eV

  energy without entropy =     -402.57662722  energy(sigma->0) =     -402.57662907


--------------------------------------------------------------------------------------------------------




--------------------------------------- Iteration      1(   4)  ---------------------------------------


     EDDAV:  cpu time   64.6738: real time   64.6831
       DOS:  cpu time    0.0007: real time    0.0007
    --------------------------------------------
      LOOP:  cpu time   64.6744: real time   64.6838

 eigenvalue-minimisations  :  6096
 total energy-change (2. order) :-0.2380875E+03  (-0.2333602E+03)
 number of electron     640.0000000 magnetization 
 augmentation part      640.0000000 magnetization 

 Free energy of the ion-electron system (eV)
  ---------------------------------------------------
  alpha Z        PSCENC =       784.57699423
  Ewald energy   TEWEN  =    249028.15788163
  -Hartree energ DENC   =   -296717.68856331
  -exchange      EXHF   =         0.00000000
  -V(xc)+E(xc)   XCENC  =      2500.80952819
  PAW double counting   =     43679.68029659   -43417.33247688
  entropy T*S    EENTRO =        -0.00000000
  eigenvalues    EBANDS =    -12709.59168904
  atomic energy  EATOM  =     56210.72393729
  Solvation  Ediel_sol  =         0.00000000
  ---------------------------------------------------
  free energy    TOTEN  =      -640.66409130 eV

  energy without entropy =     -640.66409130  energy(sigma->0) =     -640.66409130


--------------------------------------------------------------------------------------------------------




--------------------------------------- Iteration      1(   5)  ---------------------------------------


     EDDAV:  cpu time   64.5346: real time   64.5453
       DOS:  cpu time    0.0006: real time    0.0006
    CHARGE:  cpu time    3.8901: real time    3.8902
    MIXING:  cpu time    0.0130: real time    0.0131
    --------------------------------------------
      LOOP:  cpu time   68.4383: real time   68.4492

 eigenvalue-minimisations  :  6080
 total energy-change (2. order) :-0.1057775E+02  (-0.1052152E+02)
 number of electron     640.0000003 magnetization 
 augmentation part       59.1020496 magnetization 

 Broyden mixing:
  rms(total) = 0.69148E+01    rms(broyden)= 0.69147E+01
  rms(prec ) = 0.72812E+01
  weight for this iteration     100.00

 Free energy of the ion-electron system (eV)
  ---------------------------------------------------
  alpha Z        PSCENC =       784.57699423
  Ewald energy   TEWEN  =    249028.15788163
  -Hartree energ DENC   =   -296717.68856331
  -exchange      EXHF   =         0.00000000
  -V(xc)+E(xc)   XCENC  =      2500.80952819
  PAW double counting   =     43679.68029659   -43417.33247688
  entropy T*S    EENTRO =        -0.00000000
  eigenvalues    EBANDS =    -12720.16944179
  atomic energy  EATOM  =     56210.72393729
  Solvation  Ediel_sol  =         0.00000000
  ---------------------------------------------------
  free energy    TOTEN  =      -651.24184405 eV

  energy without entropy =     -651.24184405  energy(sigma->0) =     -651.24184405


--------------------------------------------------------------------------------------------------------




--------------------------------------- Iteration      1(   6)  ---------------------------------------


    POTLOK:  cpu time    0.3847: real time    0.3956
    SETDIJ:  cpu time    0.4188: real time    0.4188
     EDDAV:  cpu time   62.7064: real time   62.7143
       DOS:  cpu time    0.0008: real time    0.0008
    CHARGE:  cpu time    3.9058: real time    3.9059
    MIXING:  cpu time    0.0124: real time    0.0124
    --------------------------------------------
      LOOP:  cpu time   67.4290: real time   67.4479

 eigenvalue-minimisations  :  5856
 total energy-change (2. order) : 0.1308993E+03  (-0.7039693E+02)
 number of electron     640.0000004 magnetization 
 augmentation part       70.0860469 magnetization 

 Broyden mixing:
  rms(total) = 0.30697E+01    rms(broyden)= 0.30696E+01
  rms(prec ) = 0.31035E+01
  weight for this iteration     100.00

 eigenvalues of (default mixing * dielectric matrix)
  average eigenvalue GAMMA=   0.9406
  0.9406

 Free energy of the ion-electron system (eV)
  ---------------------------------------------------
  alpha Z        PSCENC =       784.57699423
  Ewald energy   TEWEN  =    249028.15788163
  -Hartree energ DENC   =   -296509.93362407
  -exchange      EXHF   =         0.00000000
  -V(xc)+E(xc)   XCENC  =      2490.59473341
  PAW double counting   =     49100.09232033   -48892.16214829
  entropy T*S    EENTRO =        -0.00000000
  eigenvalues    EBANDS =    -12732.39262860
  atomic energy  EATOM  =     56210.72393729
  Solvation  Ediel_sol  =         0.00000000
  ---------------------------------------------------
  free energy    TOTEN  =      -520.34253406 eV

  energy without entropy =     -520.34253406  energy(sigma->0) =     -520.34253406


--------------------------------------------------------------------------------------------------------




--------------------------------------- Iteration      1(   7)  ---------------------------------------


    POTLOK:  cpu time    0.3854: real time    0.3941
    SETDIJ:  cpu time    0.4193: real time    0.4193
     EDDAV:  cpu time   63.1787: real time   63.1799
       DOS:  cpu time    0.0006: real time    0.0006
    CHARGE:  cpu time    3.8860: real time    3.8861
    MIXING:  cpu time    0.0176: real time    0.0176
    --------------------------------------------
      LOOP:  cpu time   67.8876: real time   67.8977

 eigenvalue-minimisations  :  5912
 total energy-change (2. order) :-0.4920288E+01  (-0.9022742E+01)
 number of electron     640.0000004 magnetization 
 augmentation part       69.4549685 magnetization 

 Broyden mixing:
  rms(total) = 0.15470E+01    rms(broyden)= 0.15469E+01
  rms(prec ) = 0.15835E+01
  weight for this iteration     100.00

 eigenvalues of (default mixing * dielectric matrix)
  average eigenvalue GAMMA=   0.9878
  0.9878  0.9878

 Free energy of the ion-electron system (eV)
  ---------------------------------------------------
  alpha Z        PSCENC =       784.57699423
  Ewald energy   TEWEN  =    249028.15788163
  -Hartree energ DENC   =   -296604.71571861
  -exchange      EXHF   =         0.00000000
  -V(xc)+E(xc)   XCENC  =      2486.51087471
  PAW double counting   =     54028.61275379   -53834.29586357
  entropy T*S    EENTRO =        -0.00000000
  eigenvalues    EBANDS =    -12624.83368118
  atomic energy  EATOM  =     56210.72393729
  Solvation  Ediel_sol  =         0.00000000
  ---------------------------------------------------
  free energy    TOTEN  =      -525.26282172 eV

  energy without entropy =     -525.26282172  energy(sigma->0) =     -525.26282172


--------------------------------------------------------------------------------------------------------




--------------------------------------- Iteration      1(   8)  ---------------------------------------


    POTLOK:  cpu time    0.3863: real time    0.3952
    SETDIJ:  cpu time    0.4187: real time    0.4187
     EDDAV:  cpu time   62.5280: real time   62.5298
       DOS:  cpu time    0.0006: real time    0.0006
    CHARGE:  cpu time    3.8787: real time    3.8787
    MIXING:  cpu time    0.0168: real time    0.0168
    --------------------------------------------
      LOOP:  cpu time   67.2291: real time   67.2399

 eigenvalue-minimisations  :  5840
 total energy-change (2. order) : 0.2289157E+01  (-0.1021300E+01)
 number of electron     640.0000004 magnetization 
 augmentation part       69.2216634 magnetization 

 Broyden mixing:
  rms(total) = 0.93511E+00    rms(broyden)= 0.93511E+00
  rms(prec ) = 0.95100E+00
  weight for this iteration     100.00

 eigenvalues of (default mixing * dielectric matrix)
  average eigenvalue GAMMA=   1.3947
  2.4596  0.8622  0.8622

 Free energy of the ion-electron system (eV)
  ---------------------------------------------------
  alpha Z        PSCENC =       784.57699423
  Ewald energy   TEWEN  =    249028.15788163
  -Hartree energ DENC   =   -296665.97761263
  -exchange      EXHF   =         0.00000000
  -V(xc)+E(xc)   XCENC  =      2486.45397189
  PAW double counting   =     55896.76046576   -55712.88739668
  entropy T*S    EENTRO =        -0.00000000
  eigenvalues    EBANDS =    -12550.78190635
  atomic energy  EATOM  =     56210.72393729
  Solvation  Ediel_sol  =         0.00000000
  ---------------------------------------------------
  free energy    TOTEN  =      -522.97366487 eV

  energy without entropy =     -522.97366487  energy(sigma->0) =     -522.97366487


--------------------------------------------------------------------------------------------------------




--------------------------------------- Iteration      1(   9)  ---------------------------------------


    POTLOK:  cpu time    0.3856: real time    0.3944
    SETDIJ:  cpu time    0.4183: real time    0.4183
     EDDAV:  cpu time   58.9558: real time   58.9574
       DOS:  cpu time    0.0007: real time    0.0007
    CHARGE:  cpu time    3.8798: real time    3.8799
    MIXING:  cpu time    0.0184: real time    0.0184
    --------------------------------------------
      LOOP:  cpu time   63.6585: real time   63.6691

 eigenvalue-minimisations  :  5432
 total energy-change (2. order) : 0.5236413E+00  (-0.3722645E+00)
 number of electron     640.0000004 magnetization 
 augmentation part       69.9335418 magnetization 

 Broyden mixing:
  rms(total) = 0.28186E+00    rms(broyden)= 0.28185E+00
  rms(prec ) = 0.29599E+00
  weight for this iteration     100.00

 eigenvalues of (default mixing * dielectric matrix)
  average eigenvalue GAMMA=   1.2170
  2.1549  0.8579  0.8579  0.9973

 Free energy of the ion-electron system (eV)
  ---------------------------------------------------
  alpha Z        PSCENC =       784.57699423
  Ewald energy   TEWEN  =    249028.15788163
  -Hartree energ DENC   =   -296781.57733394
  -exchange      EXHF   =         0.00000000
  -V(xc)+E(xc)   XCENC  =      2485.89241415
  PAW double counting   =     59481.26509859   -59313.90882482
  entropy T*S    EENTRO =        -0.00000000
  eigenvalues    EBANDS =    -12417.58019073
  atomic energy  EATOM  =     56210.72393729
  Solvation  Ediel_sol  =         0.00000000
  ---------------------------------------------------
  free energy    TOTEN  =      -522.45002360 eV

  energy without entropy =     -522.45002360  energy(sigma->0) =     -522.45002360


--------------------------------------------------------------------------------------------------------




--------------------------------------- Iteration      1(  10)  ---------------------------------------


    POTLOK:  cpu time    0.3859: real time    0.3950
    SETDIJ:  cpu time    0.4179: real time    0.4179
     EDDAV:  cpu time   62.2046: real time   62.2091
       DOS:  cpu time    0.0006: real time    0.0006
    CHARGE:  cpu time    3.8825: real time    3.8826
    MIXING:  cpu time    0.0191: real time    0.0191
    --------------------------------------------
      LOOP:  cpu time   66.9106: real time   66.9243

 eigenvalue-minimisations  :  5800
 total energy-change (2. order) : 0.1294545E+00  (-0.5830250E-01)
 number of electron     640.0000004 magnetization 
 augmentation part       69.7552713 magnetization 

 Broyden mixing:
  rms(total) = 0.17444E+00    rms(broyden)= 0.17444E+00
  rms(prec ) = 0.18112E+00
  weight for this iteration     100.00

 eigenvalues of (default mixing * dielectric matrix)
  average eigenvalue GAMMA=   1.2009
  2.1831  1.3524  0.9058  0.9058  0.6574

 Free energy of the ion-electron system (eV)
  ---------------------------------------------------
  alpha Z        PSCENC =       784.57699423
  Ewald energy   TEWEN  =    249028.15788163
  -Hartree energ DENC   =   -296813.09182261
  -exchange      EXHF   =         0.00000000
  -V(xc)+E(xc)   XCENC  =      2486.49652657
  PAW double counting   =     59084.41153951   -58915.28488364
  entropy T*S    EENTRO =        -0.00000000
  eigenvalues    EBANDS =    -12388.31074207
  atomic energy  EATOM  =     56210.72393729
  Solvation  Ediel_sol  =         0.00000000
  ---------------------------------------------------
  free energy    TOTEN  =      -522.32056908 eV

  energy without entropy =     -522.32056908  energy(sigma->0) =     -522.32056908


--------------------------------------------------------------------------------------------------------




--------------------------------------- Iteration      1(  11)  ---------------------------------------


    POTLOK:  cpu time    0.3852: real time    0.3934
    SETDIJ:  cpu time    0.4188: real time    0.4189
     EDDAV:  cpu time   61.8164: real time   61.8197
       DOS:  cpu time    0.0006: real time    0.0006
    CHARGE:  cpu time    3.8954: real time    3.8955
    MIXING:  cpu time    0.0191: real time    0.0191
    --------------------------------------------
      LOOP:  cpu time   66.5355: real time   66.5472

 eigenvalue-minimisations  :  5752
 total energy-change (2. order) : 0.1973349E-01  (-0.2009606E-01)
 number of electron     640.0000004 magnetization 
 augmentation part       69.7015371 magnetization 

 Broyden mixing:
  rms(total) = 0.77886E-01    rms(broyden)= 0.77884E-01
  rms(prec ) = 0.83572E-01
  weight for this iteration     100.00

 eigenvalues of (default mixing * dielectric matrix)
  average eigenvalue GAMMA=   1.2626
  2.4513  1.6977  0.8949  0.8949  0.8183  0.8183

 Free energy of the ion-electron system (eV)
  ---------------------------------------------------
  alpha Z        PSCENC =       784.57699423
  Ewald energy   TEWEN  =    249028.15788163
  -Hartree energ DENC   =   -296857.47740964
  -exchange      EXHF   =         0.00000000
  -V(xc)+E(xc)   XCENC  =      2487.02516875
  PAW double counting   =     59213.35694529   -59044.48827072
  entropy T*S    EENTRO =        -0.00000000
  eigenvalues    EBANDS =    -12344.17608243
  atomic energy  EATOM  =     56210.72393729
  Solvation  Ediel_sol  =         0.00000000
  ---------------------------------------------------
  free energy    TOTEN  =      -522.30083560 eV

  energy without entropy =     -522.30083560  energy(sigma->0) =     -522.30083560


--------------------------------------------------------------------------------------------------------




--------------------------------------- Iteration      1(  12)  ---------------------------------------


    POTLOK:  cpu time    0.3854: real time    0.3933
    SETDIJ:  cpu time    0.4193: real time    0.4193
     EDDAV:  cpu time   65.1191: real time   65.1227
       DOS:  cpu time    0.0005: real time    0.0005
    CHARGE:  cpu time    3.8946: real time    3.8946
    MIXING:  cpu time    0.0196: real time    0.0196
    --------------------------------------------
      LOOP:  cpu time   69.8386: real time   69.8501

 eigenvalue-minimisations  :  6128
 total energy-change (2. order) : 0.1255525E-01  (-0.3103114E-02)
 number of electron     640.0000004 magnetization 
 augmentation part       69.6920388 magnetization 

 Broyden mixing:
  rms(total) = 0.30987E-01    rms(broyden)= 0.30987E-01
  rms(prec ) = 0.37476E-01
  weight for this iteration     100.00

 eigenvalues of (default mixing * dielectric matrix)
  average eigenvalue GAMMA=   1.2664
  2.2256  2.2256  0.9216  0.9216  0.9328  0.9328  0.7049

 Free energy of the ion-electron system (eV)
  ---------------------------------------------------
  alpha Z        PSCENC =       784.57699423
  Ewald energy   TEWEN  =    249028.15788163
  -Hartree energ DENC   =   -296892.38224892
  -exchange      EXHF   =         0.00000000
  -V(xc)+E(xc)   XCENC  =      2487.45570285
  PAW double counting   =     59295.44258768   -59126.77137124
  entropy T*S    EENTRO =        -0.00000000
  eigenvalues    EBANDS =    -12309.49176386
  atomic energy  EATOM  =     56210.72393729
  Solvation  Ediel_sol  =         0.00000000
  ---------------------------------------------------
  free energy    TOTEN  =      -522.28828035 eV

  energy without entropy =     -522.28828035  energy(sigma->0) =     -522.28828035


--------------------------------------------------------------------------------------------------------




--------------------------------------- Iteration      1(  13)  ---------------------------------------


    POTLOK:  cpu time    0.3838: real time    0.3926
    SETDIJ:  cpu time    0.4189: real time    0.4189
     EDDAV:  cpu time   59.4808: real time   59.4836
       DOS:  cpu time    0.0006: real time    0.0006
    CHARGE:  cpu time    3.8917: real time    3.8918
    MIXING:  cpu time    0.0197: real time    0.0196
    --------------------------------------------
      LOOP:  cpu time   64.1954: real time   64.2071

 eigenvalue-minimisations  :  5488
 total energy-change (2. order) : 0.3054403E-02  (-0.9313447E-03)
 number of electron     640.0000004 magnetization 
 augmentation part       69.6965977 magnetization 

 Broyden mixing:
  rms(total) = 0.18833E-01    rms(broyden)= 0.18832E-01
  rms(prec ) = 0.24921E-01
  weight for this iteration     100.00

 eigenvalues of (default mixing * dielectric matrix)
  average eigenvalue GAMMA=   1.2947
  2.6706  1.9563  1.4574  0.9095  0.9095  0.8948  0.8948  0.6649

 Free energy of the ion-electron system (eV)
  ---------------------------------------------------
  alpha Z        PSCENC =       784.57699423
  Ewald energy   TEWEN  =    249028.15788163
  -Hartree energ DENC   =   -296913.88686644
  -exchange      EXHF   =         0.00000000
  -V(xc)+E(xc)   XCENC  =      2487.64642680
  PAW double counting   =     59266.59879615   -59097.79684556
  entropy T*S    EENTRO =        -0.00000000
  eigenvalues    EBANDS =    -12288.30555004
  atomic energy  EATOM  =     56210.72393729
  Solvation  Ediel_sol  =         0.00000000
  ---------------------------------------------------
  free energy    TOTEN  =      -522.28522594 eV

  energy without entropy =     -522.28522594  energy(sigma->0) =     -522.28522594


--------------------------------------------------------------------------------------------------------




--------------------------------------- Iteration      1(  14)  ---------------------------------------


    POTLOK:  cpu time    0.3846: real time    0.3952
    SETDIJ:  cpu time    0.4190: real time    0.4190
     EDDAV:  cpu time   59.4250: real time   59.4291
       DOS:  cpu time    0.0005: real time    0.0005
    CHARGE:  cpu time    3.8782: real time    3.8783
    MIXING:  cpu time    0.0203: real time    0.0203
    --------------------------------------------
      LOOP:  cpu time   64.1275: real time   64.1424

 eigenvalue-minimisations  :  5480
 total energy-change (2. order) : 0.1384758E-02  (-0.5457856E-03)
 number of electron     640.0000004 magnetization 
 augmentation part       69.7066941 magnetization 

 Broyden mixing:
  rms(total) = 0.16547E-01    rms(broyden)= 0.16547E-01
  rms(prec ) = 0.20214E-01
  weight for this iteration     100.00

 eigenvalues of (default mixing * dielectric matrix)
  average eigenvalue GAMMA=   1.3174
  2.5662  2.5662  1.5768  0.9292  0.9292  1.0145  0.7831  0.7831  0.7083

 Free energy of the ion-electron system (eV)
  ---------------------------------------------------
  alpha Z        PSCENC =       784.57699423
  Ewald energy   TEWEN  =    249028.15788163
  -Hartree energ DENC   =   -296935.61298356
  -exchange      EXHF   =         0.00000000
  -V(xc)+E(xc)   XCENC  =      2487.78256523
  PAW double counting   =     59269.11513777   -59100.34357652
  entropy T*S    EENTRO =        -0.00000000
  eigenvalues    EBANDS =    -12266.68379725
  atomic energy  EATOM  =     56210.72393729
  Solvation  Ediel_sol  =         0.00000000
  ---------------------------------------------------
  free energy    TOTEN  =      -522.28384119 eV

  energy without entropy =     -522.28384119  energy(sigma->0) =     -522.28384119


--------------------------------------------------------------------------------------------------------




--------------------------------------- Iteration      1(  15)  ---------------------------------------


    POTLOK:  cpu time    0.3845: real time    0.3938
    SETDIJ:  cpu time    0.4184: real time    0.4184
     EDDAV:  cpu time   59.6259: real time   59.6294
       DOS:  cpu time    0.0006: real time    0.0006
    CHARGE:  cpu time    3.8946: real time    3.8947
    MIXING:  cpu time    0.0202: real time    0.0202
    --------------------------------------------
      LOOP:  cpu time   64.3442: real time   64.3570

 eigenvalue-minimisations  :  5504
 total energy-change (2. order) :-0.1309815E-02  (-0.1847750E-03)
 number of electron     640.0000004 magnetization 
 augmentation part       69.7079200 magnetization 

 Broyden mixing:
  rms(total) = 0.95199E-02    rms(broyden)= 0.95198E-02
  rms(prec ) = 0.12800E-01
  weight for this iteration     100.00

 eigenvalues of (default mixing * dielectric matrix)
  average eigenvalue GAMMA=   1.3339
  2.7315  2.7315  1.5804  0.9705  0.9705  0.8752  0.8752  1.0460  0.9065  0.6521

 Free energy of the ion-electron system (eV)
  ---------------------------------------------------
  alpha Z        PSCENC =       784.57699423
  Ewald energy   TEWEN  =    249028.15788163
  -Hartree energ DENC   =   -296951.18757000
  -exchange      EXHF   =         0.00000000
  -V(xc)+E(xc)   XCENC  =      2487.86048769
  PAW double counting   =     59231.75236544   -59062.86056576
  entropy T*S    EENTRO =        -0.00000000
  eigenvalues    EBANDS =    -12251.30868152
  atomic energy  EATOM  =     56210.72393729
  Solvation  Ediel_sol  =         0.00000000
  ---------------------------------------------------
  free energy    TOTEN  =      -522.28515100 eV

  energy without entropy =     -522.28515100  energy(sigma->0) =     -522.28515100


--------------------------------------------------------------------------------------------------------




--------------------------------------- Iteration      1(  16)  ---------------------------------------


    POTLOK:  cpu time    0.3868: real time    0.3957
    SETDIJ:  cpu time    0.4184: real time    0.4184
     EDDAV:  cpu time   61.7374: real time   61.7391
       DOS:  cpu time    0.0007: real time    0.0007
    CHARGE:  cpu time    3.8806: real time    3.8806
    MIXING:  cpu time    0.0206: real time    0.0206
    --------------------------------------------
      LOOP:  cpu time   66.4445: real time   66.4552

 eigenvalue-minimisations  :  5744
 total energy-change (2. order) :-0.1596301E-02  (-0.1076663E-03)
 number of electron     640.0000004 magnetization 
 augmentation part       69.7083170 magnetization 

 Broyden mixing:
  rms(total) = 0.57686E-02    rms(broyden)= 0.57685E-02
  rms(prec ) = 0.82167E-02
  weight for this iteration     100.00

 eigenvalues of (default mixing * dielectric matrix)
  average eigenvalue GAMMA=   1.3807
  3.1420  2.6715  1.9309  1.4049  0.8969  0.8969  0.9466  0.9466  0.9385  0.6618
  0.7510

 Free energy of the ion-electron system (eV)
  ---------------------------------------------------
  alpha Z        PSCENC =       784.57699423
  Ewald energy   TEWEN  =    249028.15788163
  -Hartree energ DENC   =   -296964.02936798
  -exchange      EXHF   =         0.00000000
  -V(xc)+E(xc)   XCENC  =      2487.92324937
  PAW double counting   =     59227.33994772   -59058.46715098
  entropy T*S    EENTRO =        -0.00000000
  eigenvalues    EBANDS =    -12238.51223857
  atomic energy  EATOM  =     56210.72393729
  Solvation  Ediel_sol  =         0.00000000
  ---------------------------------------------------
  free energy    TOTEN  =      -522.28674730 eV

  energy without entropy =     -522.28674730  energy(sigma->0) =     -522.28674730


--------------------------------------------------------------------------------------------------------




--------------------------------------- Iteration      1(  17)  ---------------------------------------


    POTLOK:  cpu time    0.3874: real time    0.3973
    SETDIJ:  cpu time    0.4184: real time    0.4184
     EDDAV:  cpu time   59.1353: real time   59.1375
       DOS:  cpu time    0.0007: real time    0.0007
    CHARGE:  cpu time    3.8805: real time    3.8806
    MIXING:  cpu time    0.0210: real time    0.0210
    --------------------------------------------
      LOOP:  cpu time   63.8433: real time   63.8554

 eigenvalue-minimisations  :  5448
 total energy-change (2. order) :-0.2882061E-02  (-0.6576686E-04)
 number of electron     640.0000004 magnetization 
 augmentation part       69.7065711 magnetization 

 Broyden mixing:
  rms(total) = 0.34722E-02    rms(broyden)= 0.34720E-02
  rms(prec ) = 0.51043E-02
  weight for this iteration     100.00

 eigenvalues of (default mixing * dielectric matrix)
  average eigenvalue GAMMA=   1.4342
  3.9742  2.6666  2.3196  1.3037  1.1344  0.9057  0.9057  0.9070  0.9070  0.7687
  0.7687  0.6486

 Free energy of the ion-electron system (eV)
  ---------------------------------------------------
  alpha Z        PSCENC =       784.57699423
  Ewald energy   TEWEN  =    249028.15788163
  -Hartree energ DENC   =   -296975.94754559
  -exchange      EXHF   =         0.00000000
  -V(xc)+E(xc)   XCENC  =      2487.96812193
  PAW double counting   =     59222.47360905   -59053.62029914
  entropy T*S    EENTRO =        -0.00000000
  eigenvalues    EBANDS =    -12226.62232876
  atomic energy  EATOM  =     56210.72393729
  Solvation  Ediel_sol  =         0.00000000
  ---------------------------------------------------
  free energy    TOTEN  =      -522.28962936 eV

  energy without entropy =     -522.28962936  energy(sigma->0) =     -522.28962936


--------------------------------------------------------------------------------------------------------




--------------------------------------- Iteration      1(  18)  ---------------------------------------


    POTLOK:  cpu time    0.3906: real time    0.3998
    SETDIJ:  cpu time    0.4179: real time    0.4179
     EDDAV:  cpu time   54.6333: real time   54.6374
       DOS:  cpu time    0.0006: real time    0.0006
    CHARGE:  cpu time    3.8851: real time    3.8852
    MIXING:  cpu time    0.0211: real time    0.0211
    --------------------------------------------
      LOOP:  cpu time   59.3485: real time   59.3619

 eigenvalue-minimisations  :  4936
 total energy-change (2. order) :-0.2295892E-02  (-0.2288508E-04)
 number of electron     640.0000004 magnetization 
 augmentation part       69.7073484 magnetization 

 Broyden mixing:
  rms(total) = 0.24746E-02    rms(broyden)= 0.24746E-02
  rms(prec ) = 0.33581E-02
  weight for this iteration     100.00

 eigenvalues of (default mixing * dielectric matrix)
  average eigenvalue GAMMA=   1.4305
  4.1652  2.5338  2.3528  1.4616  1.0508  1.0508  0.9210  0.9210  1.0188  0.8871
  0.8871  0.6586  0.6885

 Free energy of the ion-electron system (eV)
  ---------------------------------------------------
  alpha Z        PSCENC =       784.57699423
  Ewald energy   TEWEN  =    249028.15788163
  -Hartree energ DENC   =   -296984.40966184
  -exchange      EXHF   =         0.00000000
  -V(xc)+E(xc)   XCENC  =      2487.99396340
  PAW double counting   =     59219.10461529   -59050.26510931
  entropy T*S    EENTRO =        -0.00000000
  eigenvalues    EBANDS =    -12218.17454594
  atomic energy  EATOM  =     56210.72393729
  Solvation  Ediel_sol  =         0.00000000
  ---------------------------------------------------
  free energy    TOTEN  =      -522.29192525 eV

  energy without entropy =     -522.29192525  energy(sigma->0) =     -522.29192525


--------------------------------------------------------------------------------------------------------




--------------------------------------- Iteration      1(  19)  ---------------------------------------


    POTLOK:  cpu time    0.3908: real time    0.3965
    SETDIJ:  cpu time    0.4204: real time    0.4204
     EDDAV:  cpu time   54.4944: real time   54.4965
       DOS:  cpu time    0.0006: real time    0.0006
    CHARGE:  cpu time    3.8889: real time    3.8889
    MIXING:  cpu time    0.0216: real time    0.0216
    --------------------------------------------
      LOOP:  cpu time   59.2167: real time   59.2246

 eigenvalue-minimisations  :  4912
 total energy-change (2. order) :-0.1108786E-02  (-0.1201135E-04)
 number of electron     640.0000004 magnetization 
 augmentation part       69.7074274 magnetization 

 Broyden mixing:
  rms(total) = 0.15143E-02    rms(broyden)= 0.15142E-02
  rms(prec ) = 0.22718E-02
  weight for this iteration     100.00

 eigenvalues of (default mixing * dielectric matrix)
  average eigenvalue GAMMA=   1.5225
  5.0238  2.8039  2.1792  2.1792  1.1986  1.1986  0.9772  0.9772  0.9047  0.9047
  0.8165  0.8165  0.6937  0.6411

 Free energy of the ion-electron system (eV)
  ---------------------------------------------------
  alpha Z        PSCENC =       784.57699423
  Ewald energy   TEWEN  =    249028.15788163
  -Hartree energ DENC   =   -296987.68376839
  -exchange      EXHF   =         0.00000000
  -V(xc)+E(xc)   XCENC  =      2488.00331703
  PAW double counting   =     59219.34205221   -59050.50547994
  entropy T*S    EENTRO =        -0.00000000
  eigenvalues    EBANDS =    -12214.90796810
  atomic energy  EATOM  =     56210.72393729
  Solvation  Ediel_sol  =         0.00000000
  ---------------------------------------------------
  free energy    TOTEN  =      -522.29303404 eV

  energy without entropy =     -522.29303404  energy(sigma->0) =     -522.29303404


--------------------------------------------------------------------------------------------------------




--------------------------------------- Iteration      1(  20)  ---------------------------------------


    POTLOK:  cpu time    0.3939: real time    0.4030
    SETDIJ:  cpu time    0.4186: real time    0.4186
     EDDAV:  cpu time   49.5993: real time   49.6017
       DOS:  cpu time    0.0007: real time    0.0007
    CHARGE:  cpu time    3.8878: real time    3.8878
    MIXING:  cpu time    0.0215: real time    0.0215
    --------------------------------------------
      LOOP:  cpu time   54.3217: real time   54.3333

 eigenvalue-minimisations  :  4352
 total energy-change (2. order) :-0.1277414E-02  (-0.7839940E-05)
 number of electron     640.0000004 magnetization 
 augmentation part       69.7067215 magnetization 

 Broyden mixing:
  rms(total) = 0.10677E-02    rms(broyden)= 0.10675E-02
  rms(prec ) = 0.14243E-02
  weight for this iteration     100.00

 eigenvalues of (default mixing * dielectric matrix)
  average eigenvalue GAMMA=   1.5674
  5.9942  2.9532  2.4114  2.0927  1.2562  1.0199  1.0199  0.8989  0.8989  0.9690
  0.9690  0.9444  0.7690  0.6831  0.6314

 Free energy of the ion-electron system (eV)
  ---------------------------------------------------
  alpha Z        PSCENC =       784.57699423
  Ewald energy   TEWEN  =    249028.15788163
  -Hartree energ DENC   =   -296992.13143613
  -exchange      EXHF   =         0.00000000
  -V(xc)+E(xc)   XCENC  =      2488.01225505
  PAW double counting   =     59217.70169584   -59048.86252072
  entropy T*S    EENTRO =        -0.00000000
  eigenvalues    EBANDS =    -12210.47311865
  atomic energy  EATOM  =     56210.72393729
  Solvation  Ediel_sol  =         0.00000000
  ---------------------------------------------------
  free energy    TOTEN  =      -522.29431145 eV

  energy without entropy =     -522.29431145  energy(sigma->0) =     -522.29431145


--------------------------------------------------------------------------------------------------------




--------------------------------------- Iteration      1(  21)  ---------------------------------------


    POTLOK:  cpu time    0.3940: real time    0.4000
    SETDIJ:  cpu time    0.4197: real time    0.4197
     EDDAV:  cpu time   51.6067: real time   51.6093
       DOS:  cpu time    0.0007: real time    0.0007
    CHARGE:  cpu time    3.8878: real time    3.8879
    MIXING:  cpu time    0.0236: real time    0.0236
    --------------------------------------------
      LOOP:  cpu time   56.3325: real time   56.3412

 eigenvalue-minimisations  :  4560
 total energy-change (2. order) :-0.4704952E-03  (-0.2395721E-05)
 number of electron     640.0000004 magnetization 
 augmentation part       69.7069784 magnetization 

 Broyden mixing:
  rms(total) = 0.75086E-03    rms(broyden)= 0.75068E-03
  rms(prec ) = 0.10071E-02
  weight for this iteration     100.00

 eigenvalues of (default mixing * dielectric matrix)
  average eigenvalue GAMMA=   1.5546
  6.2955  2.9579  2.4608  1.8785  1.4496  1.1340  1.1340  0.9931  0.9931  0.9040
  0.9040  0.8821  0.7961  0.7961  0.6649  0.6300

 Free energy of the ion-electron system (eV)
  ---------------------------------------------------
  alpha Z        PSCENC =       784.57699423
  Ewald energy   TEWEN  =    249028.15788163
  -Hartree energ DENC   =   -296993.73269618
  -exchange      EXHF   =         0.00000000
  -V(xc)+E(xc)   XCENC  =      2488.01342496
  PAW double counting   =     59218.19996404   -59049.36367113
[...]
    -6.896993340 11.945942880  0.000000000     0.000000000  0.083710429  0.000000000
     0.000000000  0.000000000 27.810221070     0.000000000  0.000000000  0.035958003

  length of vectors
    13.793986680 13.793986676 27.810221070     0.083710429  0.083710429  0.035958003


 FORCES acting on ions
    electron-ion (+dipol)            ewald-force                    non-local-force                 convergence-correction
 -----------------------------------------------------------------------------------------------
   -.855E+01 -.170E+02 -.101E+04   0.809E+01 0.172E+02 0.100E+04   0.371E+00 -.562E+00 0.453E+01   -.147E-05 -.467E-04 0.801E-04
   -.399E+01 -.257E+02 -.102E+04   0.390E+01 0.272E+02 0.102E+04   -.386E+00 -.602E-01 0.355E+01   0.322E-05 0.585E-04 0.515E-04
   -.124E+01 0.539E+02 -.109E+04   0.138E+01 -.528E+02 0.108E+04   -.484E+00 -.191E+01 0.436E+01   0.977E-05 0.383E-04 0.415E-04
   0.657E+01 0.514E+02 -.969E+03   -.697E+01 -.534E+02 0.965E+03   -.774E-01 -.237E-01 0.428E+01   -.132E-04 -.472E-04 0.831E-04
   -.491E+01 -.643E+02 -.109E+04   0.685E+01 0.651E+02 0.109E+04   -.436E+00 0.240E+00 0.264E+01   -.141E-04 -.465E-04 0.642E-04
   -.171E+02 0.347E+02 -.962E+03   0.174E+02 -.347E+02 0.958E+03   -.152E+00 -.809E+00 0.522E+01   -.591E-05 0.418E-04 0.153E-04
   0.169E+02 -.598E+02 -.111E+04   -.173E+02 0.592E+02 0.110E+04   -.205E+00 0.119E+01 0.439E+01   -.419E-04 -.177E-05 0.207E-04
   -.251E+02 0.849E+01 -.109E+04   0.247E+02 -.997E+01 0.109E+04   0.218E+00 0.813E+00 0.438E+01   -.599E-04 -.620E-04 0.193E-04
   -.219E+02 0.523E+02 -.112E+04   0.216E+02 -.518E+02 0.111E+04   0.403E+00 -.952E+00 0.439E+01   -.200E-04 -.345E-05 0.587E-04
   0.661E+02 0.581E+01 -.108E+04   -.664E+02 -.491E+01 0.108E+04   -.297E+00 -.102E+01 0.440E+01   0.240E-04 0.723E-04 0.302E-04
   0.149E+02 0.528E+02 -.122E+04   -.147E+02 -.536E+02 0.122E+04   -.560E+00 -.894E+00 0.472E+01   0.281E-04 -.117E-04 0.152E-04
   0.382E+02 0.403E+02 -.121E+04   -.386E+02 -.397E+02 0.120E+04   -.190E+00 -.944E+00 0.377E+01   -.717E-05 -.438E-04 0.422E-04
   0.187E+02 0.175E+02 -.110E+04   -.189E+02 -.178E+02 0.109E+04   -.305E+00 0.959E-01 0.488E+01   0.976E-05 0.208E-05 0.798E-04
   -.202E+02 -.920E+01 -.109E+04   0.188E+02 0.975E+01 0.108E+04   0.402E+00 -.434E+00 0.326E+01   -.701E-05 0.790E-04 0.480E-04
   0.329E+02 -.290E+02 -.917E+03   -.326E+02 0.288E+02 0.913E+03   -.616E+00 -.510E-01 0.413E+01   0.833E-05 0.138E-04 0.413E-04
   -.217E+02 0.360E+02 -.106E+04   0.226E+02 -.366E+02 0.105E+04   0.805E-01 -.837E+00 0.448E+01   0.716E-04 -.425E-04 0.584E-04
   0.483E+01 -.347E+02 0.109E+04   -.490E+01 0.347E+02 -.108E+04   0.377E-02 0.927E+00 -.528E+01   0.121E-04 -.295E-04 -.943E-05
   0.287E+02 -.219E+02 0.117E+04   -.267E+02 0.213E+02 -.116E+04   -.173E+01 0.691E+00 -.291E+01   -.166E-04 0.506E-04 -.488E-04
   -.731E+02 -.686E+02 0.109E+04   0.730E+02 0.690E+02 -.109E+04   0.898E+00 0.713E+00 -.406E+01   0.553E-06 0.382E-04 -.529E-04
   -.243E+02 -.118E+02 0.113E+04   0.242E+02 0.109E+02 -.112E+04   0.278E+00 0.958E+00 -.475E+01   0.248E-04 -.377E-04 -.510E-05
   0.667E+02 0.631E+02 0.102E+04   -.683E+02 -.637E+02 -.102E+04   -.179E+00 0.939E-01 -.440E+01   -.235E-04 -.162E-04 -.836E-04
   0.183E+02 0.249E+01 0.106E+04   -.178E+02 -.278E+01 -.105E+04   0.161E+00 0.483E+00 -.328E+01   0.273E-04 0.406E-04 -.925E-04
   0.959E+01 0.211E+02 0.978E+03   -.956E+01 -.207E+02 -.975E+03   0.232E+00 -.780E+00 -.459E+01   0.495E-05 -.553E-05 -.473E-04
   0.377E+02 0.231E+02 0.104E+04   -.385E+02 -.231E+02 -.103E+04   -.161E-01 -.109E+00 -.470E+01   -.394E-04 -.448E-04 -.377E-04
   -.438E+02 0.655E+02 0.112E+04   0.440E+02 -.656E+02 -.112E+04   0.239E+00 -.358E+00 -.309E+01   -.162E-04 -.228E-04 -.879E-04
   0.150E+02 -.816E+02 0.102E+04   -.156E+02 0.842E+02 -.101E+04   -.195E-01 0.599E+00 -.489E+01   -.389E-04 0.735E-04 -.127E-03
   -.116E+02 -.641E+02 0.116E+04   0.112E+02 0.639E+02 -.116E+04   0.849E+00 0.123E+01 -.396E+01   0.226E-04 0.103E-05 -.523E-04
   -.514E+01 -.889E+01 0.994E+03   0.602E+01 0.801E+01 -.988E+03   -.289E+00 0.897E+00 -.518E+01   0.249E-04 -.435E-04 -.337E-04
   0.341E+01 -.996E+01 0.115E+04   -.225E+01 0.924E+01 -.115E+04   -.103E+01 0.478E+00 -.404E+01   0.193E-04 -.285E-04 -.302E-04
   -.459E+02 0.558E+02 0.956E+03   0.458E+02 -.545E+02 -.953E+03   0.414E+00 -.125E+01 -.414E+01   0.133E-05 0.700E-04 -.903E-04
   0.579E+01 -.596E+02 0.103E+04   -.563E+01 0.611E+02 -.103E+04   0.202E+00 0.278E+00 -.371E+01   -.142E-04 0.155E-04 -.652E-04
   0.127E+02 0.177E+02 0.112E+04   -.127E+02 -.178E+02 -.112E+04   -.770E-02 -.290E+00 -.448E+01   -.601E-05 -.414E-04 0.503E-05
   -.215E+02 0.327E+02 0.145E+04   0.216E+02 -.326E+02 -.145E+04   -.895E-01 -.783E+00 0.211E+01   -.287E-06 0.106E-04 0.131E-04
   -.294E+02 0.667E+01 0.144E+04   0.290E+02 -.655E+01 -.144E+04   0.134E+01 -.377E+00 0.222E+01   -.231E-04 0.391E-04 -.685E-05
   -.188E+02 -.285E+02 0.146E+04   0.184E+02 0.283E+02 -.146E+04   0.897E+00 0.538E+00 0.291E+01   -.284E-05 -.219E-04 -.123E-04
   -.432E+00 -.118E+02 0.147E+04   0.507E+00 0.116E+02 -.148E+04   -.167E+00 0.423E+00 0.341E+01   0.188E-04 -.254E-04 -.109E-04
   0.270E+02 0.465E+02 0.144E+04   -.270E+02 -.464E+02 -.144E+04   -.357E+00 -.933E+00 0.215E+01   0.304E-04 0.114E-04 -.338E-04
   0.204E+02 -.405E+02 0.146E+04   -.202E+02 0.406E+02 -.146E+04   -.995E+00 0.551E+00 0.185E+01   0.222E-04 0.200E-04 -.112E-04
   0.207E+02 -.103E+02 0.144E+04   -.205E+02 0.101E+02 -.144E+04   -.700E+00 0.651E+00 0.281E+01   -.113E-04 -.351E-05 -.153E-04
   -.106E+02 0.230E+02 0.141E+04   0.102E+02 -.229E+02 -.142E+04   0.992E+00 -.271E+00 0.205E+01   0.271E-05 -.610E-05 -.345E-04
   0.176E+02 0.264E+02 0.147E+04   -.178E+02 -.260E+02 -.147E+04   -.614E-01 -.153E+01 -.726E-01   -.164E-04 0.213E-04 -.591E-04
   -.119E+02 0.181E+01 0.146E+04   0.119E+02 -.167E+01 -.146E+04   0.200E+00 -.482E+00 0.184E+01   0.197E-04 0.353E-05 -.297E-04
   0.825E+01 -.263E+02 0.145E+04   -.839E+01 0.261E+02 -.145E+04   -.258E-02 0.614E+00 0.229E+01   0.740E-05 -.173E-04 -.176E-04
   0.114E+02 0.277E+02 0.143E+04   -.112E+02 -.279E+02 -.143E+04   -.707E+00 0.213E+00 0.185E+01   -.112E-04 -.701E-05 -.338E-04
   -.404E+02 -.963E+01 0.149E+04   0.401E+02 0.969E+01 -.149E+04   0.111E+01 0.186E+00 0.286E+01   -.290E-04 0.853E-05 -.174E-04
   0.247E+02 0.342E+01 0.146E+04   -.244E+02 -.323E+01 -.146E+04   -.143E+01 -.520E+00 0.206E+01   -.164E-04 0.261E-04 -.392E-04
   0.188E+02 -.264E+02 0.145E+04   -.183E+02 0.264E+02 -.145E+04   -.116E+01 0.155E+00 0.272E+01   0.730E-05 -.347E-04 -.186E-04
   -.941E+01 0.300E+02 0.142E+04   0.925E+01 -.299E+02 -.143E+04   0.451E+00 -.733E+00 0.186E+01   -.920E-05 -.184E-04 -.171E-05
   0.414E+02 -.415E+01 -.143E+04   -.413E+02 0.395E+01 0.143E+04   -.116E+01 0.741E+00 -.211E+00   -.127E-04 -.349E-04 0.348E-04
   -.359E+02 -.796E+01 -.144E+04   0.359E+02 0.818E+01 0.144E+04   0.597E+00 -.561E+00 -.199E+01   -.128E-04 0.402E-05 0.355E-04
   0.149E+02 0.112E+02 -.142E+04   -.148E+02 -.112E+02 0.142E+04   -.690E+00 0.244E-01 -.209E+01   -.103E-04 0.777E-05 0.297E-04
   0.180E+02 -.103E+02 -.147E+04   -.179E+02 0.998E+01 0.147E+04   -.457E+00 0.120E+01 -.201E+01   -.333E-04 -.174E-04 0.244E-04
   -.130E+02 0.197E+02 -.146E+04   0.129E+02 -.195E+02 0.146E+04   0.658E+00 -.968E+00 -.236E+01   -.300E-04 -.809E-05 0.954E-05
   0.366E+02 -.502E+02 -.145E+04   -.365E+02 0.501E+02 0.145E+04   -.446E+00 0.827E+00 -.294E+01   -.471E-06 0.135E-05 0.319E-04
   -.256E+02 0.280E+02 -.143E+04   0.253E+02 -.281E+02 0.143E+04   0.923E+00 -.410E+00 -.183E+01   -.954E-05 -.902E-06 0.340E-04
   -.854E+01 0.301E+02 -.147E+04   0.818E+01 -.300E+02 0.147E+04   0.845E+00 -.382E+00 -.326E+01   -.256E-04 -.316E-04 0.419E-05
   -.112E+02 -.122E+02 -.147E+04   0.110E+02 0.124E+02 0.148E+04   0.480E+00 -.278E+00 -.294E+01   0.120E-04 0.582E-05 -.564E-05
   -.494E+01 -.515E+01 -.148E+04   0.489E+01 0.520E+01 0.148E+04   0.163E+00 -.234E+00 -.310E+01   -.458E-05 0.384E-04 0.148E-04
   0.337E+02 -.391E+02 -.143E+04   -.331E+02 0.387E+02 0.144E+04   -.175E+01 0.194E+01 -.157E+01   0.262E-04 0.129E-04 0.284E-04
   -.507E+01 0.718E+01 -.149E+04   0.529E+01 -.731E+01 0.150E+04   -.501E+00 0.252E+00 -.235E+01   0.330E-04 -.151E-04 0.136E-04
   -.136E+01 -.254E+02 -.147E+04   0.159E+01 0.251E+02 0.147E+04   -.728E+00 0.909E+00 -.205E+01   0.319E-04 -.150E-04 0.273E-04
   -.385E+02 -.372E+01 -.144E+04   0.381E+02 0.391E+01 0.144E+04   0.132E+01 -.467E+00 -.196E+01   0.140E-04 0.261E-04 0.329E-04
   -.317E+02 -.209E+02 -.144E+04   0.313E+02 0.210E+02 0.144E+04   0.152E+01 -.108E+00 -.240E+01   -.574E-05 0.324E-04 0.396E-04
   0.195E+02 0.989E+01 -.141E+04   -.192E+02 -.997E+01 0.141E+04   -.111E+01 0.413E-02 -.177E+01   0.235E-04 -.532E-05 0.403E-04
   0.131E+02 -.151E+02 0.301E+02   -.132E+02 0.147E+02 -.300E+02   0.420E+00 0.126E+01 -.444E+00   -.571E-07 -.120E-04 0.129E-04
   -.269E+02 -.442E+01 -.154E+01   0.265E+02 0.409E+01 0.191E+01   0.113E+01 0.902E+00 -.976E+00   0.167E-05 0.473E-06 0.279E-05
   -.676E+01 -.623E+01 0.350E+01   0.699E+01 0.676E+01 -.414E+01   -.103E+01 -.226E+01 0.228E+01   0.572E-05 0.176E-04 -.139E-04
   0.551E+01 0.124E+01 0.220E+02   -.518E+01 -.139E+01 -.218E+02   -.106E+01 0.484E+00 -.708E+00   0.256E-05 -.781E-06 0.614E-05
   -.474E+02 -.643E+01 0.344E+01   0.474E+02 0.632E+01 -.340E+01   0.757E+00 0.110E+01 -.817E+00   -.301E-05 -.144E-04 0.608E-05
   -.912E+01 0.250E+01 0.308E+02   0.881E+01 -.245E+01 -.311E+02   0.465E+00 -.677E-01 0.829E+00   -.923E-06 0.378E-06 -.367E-05
   0.241E+02 0.144E+02 0.899E+01   -.241E+02 -.137E+02 -.884E+01   -.268E+00 -.219E+01 -.482E+00   -.789E-05 0.127E-04 -.809E-05
   -.353E+02 0.256E+01 -.900E+01   0.349E+02 -.231E+01 0.933E+01   0.125E+01 -.301E+00 -.109E+01   -.708E-05 -.544E-05 -.330E-05
   -.285E+02 0.188E+02 -.149E+02   0.280E+02 -.191E+02 0.147E+02   0.116E+01 0.548E+00 0.361E+00   -.117E-04 -.103E-04 -.115E-04
   0.385E+02 0.429E+01 -.196E+02   -.387E+02 -.401E+01 0.195E+02   0.925E+00 -.965E+00 0.291E+00   0.172E-05 0.800E-05 -.151E-04
   0.777E+01 -.852E+01 -.860E+01   -.728E+01 0.859E+01 0.847E+01   -.182E+01 -.104E+01 0.626E+00   0.736E-05 0.440E-05 -.135E-04
   0.103E+02 -.334E+02 -.390E+02   -.104E+02 0.329E+02 0.387E+02   -.150E+00 0.190E+01 0.120E+01   -.291E-05 -.104E-04 -.103E-04
   0.229E+02 -.134E+02 -.170E+02   -.228E+02 0.129E+02 0.174E+02   -.811E+00 0.153E+01 -.103E+01   0.120E-04 -.959E-05 0.138E-05
   -.318E+02 0.267E+02 -.239E+02   0.315E+02 -.266E+02 0.239E+02   0.155E+01 -.579E+00 0.482E+00   -.559E-05 0.111E-04 -.118E-04
   0.154E+02 0.821E+01 0.449E+01   -.157E+02 -.790E+01 -.445E+01   0.111E+01 -.117E+01 -.167E+00   -.621E-05 0.994E-05 -.914E-05
   -.163E+02 0.267E+01 0.151E+02   0.160E+02 -.296E+01 -.150E+02   0.114E+01 0.951E+00 -.124E+00   0.715E-05 -.348E-05 -.204E-05
 -----------------------------------------------------------------------------------------------
   -.151E+01 0.133E+01 -.286E+00   0.000E+00 0.693E-13 0.467E-12   0.151E+01 -.133E+01 0.283E+00   -.556E-04 0.246E-04 -.116E-03
 
 
 POSITION                                       TOTAL-FORCE (eV/Angst)
 -----------------------------------------------------------------------------------
     -0.01147      2.07847     15.09666        -0.096391     -0.425928     -0.517259
     -1.66345      4.86152     15.10624        -0.483047      1.400632     -0.083558
     -3.39690      8.05956     15.16824        -0.343123     -0.770569     -0.274529
     -5.14300     10.98831     15.02711        -0.479562     -1.943037      0.348586
      3.28025      1.93443     15.29387         1.502106      1.001764     -1.983694
      1.77555      5.13901     14.94748         0.170921     -0.804864      1.466905
      0.03213      7.97009     15.21722        -0.588378      0.606330     -0.489692
     -1.71131     11.00675     15.22497        -0.244256     -0.667202     -0.218015
      6.79036      2.08143     15.21190         0.122204     -0.387071      0.196629
      5.19153      4.97038     15.18391        -0.599277     -0.119380     -0.853579
      3.62448      8.21283     15.34235        -0.310070     -1.725835     -0.989826
      1.77870     11.10668     15.41536        -0.601155     -0.346060     -0.969145
     10.34099      1.98739     15.18206        -0.513587     -0.255899      0.126230
      8.60786      5.03020     15.17776        -0.970817      0.111857     -0.024117
      6.94126      8.00516     14.96916        -0.263979     -0.255684      0.919415
      5.14657     11.13802     15.15907         1.008568     -1.418115     -0.182042
      1.75490      0.84941     12.71422        -0.067888      0.895115     -1.242376
      0.05658      4.05363     12.47095         0.247116      0.096388      0.568201
     -1.81242      6.89025     12.62082         0.822010      1.124710     -0.246131
     -3.46337      9.84217     12.61906         0.127491      0.065556      0.120484
      5.29747      1.02369     12.67958        -1.789957     -0.566694      0.782370
      3.41538      3.93502     12.57812         0.647050      0.196014      1.050289
      1.78826      7.10070     12.80846         0.261207     -0.418786     -1.659033
      0.07680      9.94287     12.68352        -0.832079     -0.149461      0.672351
      8.56535      1.00982     12.46761         0.411949     -0.472529      2.294382
      6.87976      3.76963     12.70950        -0.611708      3.193343      0.665962
      5.14712      6.81855     12.50662         0.493560      1.038662      1.061906
      3.40895      9.91902     12.75802         0.593050      0.010200      0.242249
     12.03078      1.07482     12.52691         0.138993     -0.245821      1.017158
     10.25187      3.97732     12.77783         0.238584      0.093628     -0.812703
      8.56051      6.74357     12.69217         0.365161      1.718828     -0.968134
      6.85966      9.97000     12.62144         0.003934     -0.357318     -0.481295
     -0.11853      2.16789     10.88604        -0.005592     -0.714004      0.059018
     -1.94653      4.95763     10.98411         0.930965     -0.257033      0.081137
     -3.52621      7.86288     10.83501         0.559782      0.422561      0.754424
     -5.20496     10.93204     10.73799        -0.091946      0.278846      1.157046
      3.58121      2.06705     10.97386        -0.369952     -0.822755      0.033497
      1.88127      4.81652     10.87583        -0.778068      0.620817     -0.072356
      0.16368      7.81493     10.90616        -0.444988      0.403144      0.588726
     -1.81993     11.01306     11.04009         0.629846     -0.243276     -0.134500
      6.87337      2.12353     11.07582        -0.188118     -1.158982     -1.843084
      5.20297      4.94415     10.93400         0.181066     -0.343676     -0.191375
      3.49502      7.87868     10.93358        -0.145997      0.455290      0.189957
      1.78301     10.88006     11.01804        -0.472806      0.016056     -0.216941
     10.04188      1.88878     10.68543         0.865234      0.253205      0.798780
      8.81033      4.94025     10.95868        -1.089659     -0.331179      0.080774
      7.08452      7.89885     10.88526        -0.713713      0.153994      0.504111
      5.03908     11.07370     11.02637         0.287751     -0.665559     -0.256567
      1.76756      0.79793     16.66193        -1.098490      0.548107      1.744698
     -0.09173      4.01007     16.79666         0.555456     -0.342402     -0.037850
     -1.60448      6.85448     16.78037        -0.574087      0.023583      0.076528
     -3.27263      9.72409     16.94701        -0.414676      0.844879     -0.059359
      4.98825      1.17551     16.92543         0.619585     -0.736752     -0.217873
      3.36174      3.85018     16.96522        -0.342888      0.772060     -0.726534
      1.68795      7.10965     16.80298         0.652237     -0.476066      0.310977
     -0.08431     10.19802     17.14792         0.490075     -0.313493     -1.016473
      8.54782      1.10689     17.06888         0.277468     -0.132974     -0.798047
      6.84904      3.95996     17.03155         0.116323     -0.179196     -0.939719
      5.42346      6.72199     16.80024        -1.140290      1.509241      0.428022
      3.62878     10.02391     17.06005        -0.283624      0.123803     -0.281628
     12.27226      0.92994     16.89532        -0.493230      0.620282     -0.006230
     10.14626      4.04842     16.79937         0.970443     -0.276249      0.164300
      8.40004      6.96107     16.83245         1.136367     -0.033749     -0.328084
      7.11552      9.93614     16.68668        -0.814132     -0.073563      0.328662
      6.84828     11.88945     13.83619         0.244263      0.850734     -0.352629
     11.90848      2.88136     13.97811         0.745448      0.569156     -0.605653
     -3.38001      6.04592     13.75573        -0.797095     -1.726749      1.643348
     -5.08821      8.90557     13.88676        -0.734470      0.328360     -0.444905
     -3.53474     11.88205     13.98615         0.732468      0.991824     -0.779682
      1.60336      3.02597     13.78331         0.154639     -0.016357      0.524100
      0.04427      6.15338     13.91638        -0.301815     -1.518903     -0.338925
     -1.80347      9.03250     14.00333         0.845155     -0.047814     -0.758688
     -0.05155     11.93149     13.90662         0.643818      0.279879      0.248710
      5.08862      3.00613     13.91726         0.770198     -0.680315      0.173731
      3.60598      6.03808     13.85118        -1.330528     -0.978429      0.498929
      1.76362      8.88793     13.92595        -0.212076      1.424756      0.870945
      3.44419     11.87915     14.06970        -0.760781      1.027464     -0.656982
      8.46256      2.99522     13.89558         1.238657     -0.471017      0.485416
      6.83319      5.99979     13.89489         0.831725     -0.865509     -0.122932
      5.08761      8.95225     13.91007         0.761424      0.665192     -0.096811
 -----------------------------------------------------------------------------------
    total drift:                               -0.003056      0.000713     -0.003876


--------------------------------------------------------------------------------------------------------



  FREE ENERGIE OF THE ION-ELECTRON SYSTEM (eV)
  ---------------------------------------------------
  free  energy   TOTEN  =      -522.29612897 eV

  energy  without entropy=     -522.29612897  energy(sigma->0) =     -522.29612897
 


--------------------------------------------------------------------------------------------------------


    POTLOK:  cpu time    0.8123: real time    0.8124


--------------------------------------------------------------------------------------------------------


     LOOP+:  cpu time 1904.5757: real time 1904.9407
    4ORBIT:  cpu time    0.0000: real time    0.0000

 total amount of memory used by VASP MPI-rank0   253971. kBytes
=======================================================================

   base      :      30000. kBytes
   nonlr-proj:      18787. kBytes
   fftplans  :      72602. kBytes
   grid      :      41267. kBytes
   one-center:        108. kBytes
   wavefun   :      91207. kBytes
 
  
  
 General timing and accounting informations for this job:
 ========================================================
  
                  Total CPU time used (sec):     1935.113
                            User time (sec):     1929.696
                          System time (sec):        5.417
                         Elapsed time (sec):     1935.591
  
                   Maximum memory used (kb):      458576.
                   Average memory used (kb):           0.
  
                          Minor page faults:       170289
                          Major page faults:            0
                 Voluntary context switches:         2134
