<?xml version="1.0" encoding="ISO-8859-1"?>
<modeling>
 <generator>
  <i name="program" type="string">vasp </i>
  <i name="version" type="string">5.4.4.18Apr17-6-g9f103f2a35  </i>
  <i name="subversion" type="string">(build Oct 31 2019 15:01:46) complex            parallel </i>
  <i name="platform" type="string">LinuxIFC </i>
  <i name="date" type="string">2024 04 30 </i>
  <i name="time" type="string">19:37:57 </i>
 </generator>
 <incar>
  <i type="int" name="ISTART">     0</i>
  <i type="string" name="PREC">anormal</i>
  <i type="logical" name="ADDGRID"> T  </i>
  <i type="int" name="IBRION">    -1</i>
  <i name="EDIFF">      0.00000100</i>
  <i name="EDIFFG">     -0.01000000</i>
  <i type="int" name="NSW">     1</i>
  <i type="int" name="ISIF">     2</i>
  <i type="int" name="ISYM">     2</i>
  <i name="ENCUT">    600.00000000</i>
  <i name="POTIM">      1.00000000</i>
  <i type="string" name="LREAL"> Auto.</i>
  <i type="int" name="ISMEAR">     0</i>
  <i name="SIGMA">      0.05000000</i>
  <i name="KSPACING">      0.25000000</i>
  <i type="logical" name="LWAVE"> F  </i>
  <i type="logical" name="LCHARG"> F  </i>
  <i type="logical" name="LSCALAPACK"> F  </i>
  <v type="int" name="KPOINT_BSE">    -1     0     0     0</v>
 </incar>
 <structure name="primitive_cell" >
  <crystal>
   <varray name="basis" >
    <v>      13.79398668       0.00000000       0.00000000 </v>
    <v>      -6.89699334      11.94594288       0.00000000 </v>
    <v>       0.00000000       0.00000000      27.81022107 </v>
   </varray>
   <i name="volume">   4582.62876984 </i>
   <varray name="rec_basis" >
    <v>       0.07249536       0.04185521       0.00000000 </v>
    <v>       0.00000000       0.08371043       0.00000000 </v>
    <v>       0.00000000       0.00000000       0.03595800 </v>
   </varray>
  </crystal>
  <varray name="positions" >
   <v>       0.08616318       0.17398962      -0.45715412 </v>
   <v>       0.24288846       0.25330507       0.49562023 </v>
   <v>      -0.01609072       0.24119991      -0.49737511 </v>
   <v>      -0.00589589      -0.00472934       0.49752174 </v>
   <v>       0.16119254       0.33568454      -0.39602564 </v>
   <v>      -0.07139554       0.07784579      -0.39247796 </v>
   <v>       0.16153759       0.06679491      -0.40087035 </v>
   <v>       0.16277409       0.07110456       0.45717798 </v>
   <v>       0.08288766       0.40695956      -0.45680995 </v>
   <v>      -0.08283748       0.08997391       0.45044267 </v>
   <v>       0.17376756       0.33933129       0.44843039 </v>
   <v>       0.31876914       0.16193195      -0.45006292 </v>
   <v>      -0.16071357      -0.06763175      -0.45491027 </v>
   <v>      -0.16714374       0.16636487      -0.45408361 </v>
   <v>       0.08707460      -0.08016363      -0.45965505 </v>
   <v>       0.34381294       0.43018834      -0.46251861 </v>
   <v>       0.24107336      -0.00534823      -0.49708583 </v>
   <v>      -0.25310776      -0.00559144      -0.49408186 </v>
   <v>       0.08214479       0.18147537       0.39144032 </v>
   <v>       0.26076049      -0.48489828      -0.49959463 </v>
   <v>       0.40486111       0.32230057      -0.38996463 </v>
   <v>      -0.06827842      -0.16824165      -0.39998021 </v>
   <v>      -0.09499559       0.33889505      -0.39592837 </v>
   <v>      -0.09031534       0.33294349       0.45946528 </v>
   <v>       0.41230039       0.32940235       0.45228403 </v>
   <v>      -0.08541026      -0.16540743       0.45384173 </v>
   <v>       0.17057864      -0.42620814      -0.39661147 </v>
   <v>       0.49472339       0.25164406      -0.49956325 </v>
   <v>      -0.17119755      -0.07301562       0.39648641 </v>
   <v>       0.00801865      -0.49389303       0.49462850 </v>
   <v>       0.33797955       0.40319296       0.39107303 </v>
   <v>       0.06638838       0.41500515       0.39496668 </v>
   <v>       0.41082604       0.09840210      -0.39139544 </v>
   <v>       0.34613764       0.17303379       0.39459822 </v>
   <v>      -0.48585820      -0.49454966       0.49806094 </v>
   <v>      -0.25647358      -0.25060327      -0.49982184 </v>
   <v>      -0.31737756      -0.16089403      -0.38655473 </v>
   <v>      -0.26113813       0.25073078       0.49965737 </v>
   <v>       0.00387278      -0.25451132       0.49934019 </v>
   <v>       0.41994458      -0.40484838      -0.39579835 </v>
   <v>       0.08022757      -0.08487383       0.38611659 </v>
   <v>      -0.33399380       0.09265805      -0.38623725 </v>
   <v>       0.15700076      -0.42321424       0.45381934 </v>
   <v>      -0.19295514       0.15811017       0.38422688 </v>
   <v>       0.42684201      -0.40559717       0.46056658 </v>
   <v>      -0.33770464      -0.16967498       0.45875276 </v>
   <v>      -0.40617959      -0.07025484      -0.44569441 </v>
   <v>       0.33591919      -0.33281998      -0.45281915 </v>
   <v>       0.16975337      -0.18599219      -0.39061935 </v>
   <v>       0.42688897       0.08569355       0.45593228 </v>
   <v>      -0.33678577       0.08453219       0.44831024 </v>
   <v>      -0.41560203       0.41607270      -0.45401677 </v>
   <v>      -0.16543035       0.42108012      -0.45423796 </v>
   <v>       0.16086775      -0.17610806       0.45375625 </v>
   <v>       0.33662767      -0.07862046      -0.45254053 </v>
   <v>      -0.16173342      -0.32988472      -0.46173885 </v>
   <v>      -0.39349227      -0.31250010      -0.44831973 </v>
   <v>      -0.42061142       0.17423763      -0.45301054 </v>
   <v>       0.09107494      -0.32533044      -0.45458050 </v>
   <v>      -0.15451692       0.41355018       0.39405234 </v>
   <v>       0.33896137      -0.34580928       0.39216380 </v>
   <v>       0.49986003      -0.25598791      -0.49925083 </v>
   <v>       0.32901794      -0.07809166       0.39697953 </v>
   <v>       0.24731409      -0.24388522      -0.49646818 </v>
   <v>      -0.41535272      -0.08922556       0.39618682 </v>
   <v>      -0.41587027       0.41387652       0.39316471 </v>
   <v>       0.49565797      -0.00120983      -0.49994568 </v>
   <v>      -0.32547437      -0.43729953      -0.39589707 </v>
   <v>      -0.33773128       0.33148997      -0.38757960 </v>
   <v>      -0.09714933      -0.43549245       0.45638511 </v>
   <v>      -0.09967857      -0.41728562      -0.39473854 </v>
   <v>      -0.15579665      -0.33878362       0.39141209 </v>
   <v>      -0.34146600      -0.42921602       0.44971304 </v>
   <v>      -0.34347027       0.31555776       0.45700817 </v>
   <v>      -0.41686352      -0.34047196       0.39314971 </v>
   <v>      -0.41283165       0.17776127       0.39826444 </v>
   <v>      -0.25350278      -0.49775468       0.49963232 </v>
   <v>       0.07346829      -0.34179524       0.38960540 </v>
   <v>       0.42072831      -0.14631945      -0.38339487 </v>
   <v>       0.42172826      -0.16767822       0.45607407 </v>
  </varray>
 </structure>
 <varray name="primitive_index" >
  <v type="int" >        1 </v>
  <v type="int" >       70 </v>
  <v type="int" >       66 </v>
  <v type="int" >       65 </v>
  <v type="int" >       50 </v>
  <v type="int" >       61 </v>
  <v type="int" >       49 </v>
  <v type="int" >       17 </v>
  <v type="int" >        2 </v>
  <v type="int" >       29 </v>
  <v type="int" >       18 </v>
  <v type="int" >        5 </v>
  <v type="int" >       16 </v>
  <v type="int" >       13 </v>
  <v type="int" >        4 </v>
  <v type="int" >        6 </v>
  <v type="int" >       69 </v>
  <v type="int" >       77 </v>
  <v type="int" >       33 </v>
  <v type="int" >       71 </v>
  <v type="int" >       54 </v>
  <v type="int" >       64 </v>
  <v type="int" >       62 </v>
  <v type="int" >       30 </v>
  <v type="int" >       22 </v>
  <v type="int" >       32 </v>
  <v type="int" >       51 </v>
  <v type="int" >       74 </v>
  <v type="int" >       48 </v>
  <v type="int" >       67 </v>
  <v type="int" >       38 </v>
  <v type="int" >       34 </v>
  <v type="int" >       53 </v>
  <v type="int" >       37 </v>
  <v type="int" >       75 </v>
  <v type="int" >       80 </v>
  <v type="int" >       60 </v>
  <v type="int" >       78 </v>
  <v type="int" >       68 </v>
  <v type="int" >       55 </v>
  <v type="int" >       36 </v>
  <v type="int" >       57 </v>
  <v type="int" >       19 </v>
  <v type="int" >       45 </v>
  <v type="int" >       23 </v>
  <v type="int" >       28 </v>
  <v type="int" >       12 </v>
  <v type="int" >        7 </v>
  <v type="int" >       52 </v>
  <v type="int" >       21 </v>
  <v type="int" >       25 </v>
  <v type="int" >       10 </v>
  <v type="int" >       14 </v>
  <v type="int" >       20 </v>
  <v type="int" >        8 </v>
  <v type="int" >       15 </v>
  <v type="int" >       11 </v>
  <v type="int" >        9 </v>
  <v type="int" >        3 </v>
  <v type="int" >       46 </v>
  <v type="int" >       39 </v>
  <v type="int" >       76 </v>
  <v type="int" >       40 </v>
  <v type="int" >       72 </v>
  <v type="int" >       44 </v>
  <v type="int" >       42 </v>
  <v type="int" >       73 </v>
  <v type="int" >       59 </v>
  <v type="int" >       58 </v>
  <v type="int" >       31 </v>
  <v type="int" >       63 </v>
  <v type="int" >       47 </v>
  <v type="int" >       27 </v>
  <v type="int" >       26 </v>
  <v type="int" >       43 </v>
  <v type="int" >       41 </v>
  <v type="int" >       79 </v>
  <v type="int" >       35 </v>
  <v type="int" >       56 </v>
  <v type="int" >       24 </v>
 </varray>
 <kpoints>
  <generation param="Gamma">
   <v type="int" name="divisions">       3        3        1 </v>
   <v name="usershift">      0.00000000       0.00000000       0.00000000 </v>
   <v name="genvec1">      0.33333333      -0.00000000       0.00000000 </v>
   <v name="genvec2">      0.00000000       0.33333333       0.00000000 </v>
   <v name="genvec3">      0.00000000       0.00000000       1.00000000 </v>
   <v name="shift">      0.00000000       0.00000000       0.00000000 </v>
  </generation>
  <varray name="kpointlist" >
   <v>       0.00000000       0.00000000       0.00000000 </v>
   <v>       0.33333333      -0.00000000       0.00000000 </v>
   <v>       0.00000000       0.33333333       0.00000000 </v>
   <v>       0.33333333       0.33333333       0.00000000 </v>
   <v>      -0.33333333       0.33333333       0.00000000 </v>
  </varray>
  <varray name="weights" >
   <v>       0.11111111 </v>
   <v>       0.22222222 </v>
   <v>       0.22222222 </v>
   <v>       0.22222222 </v>
   <v>       0.22222222 </v>
  </varray>
 </kpoints>
 <parameters>
  <separator name="general" >
   <i type="string" name="SYSTEM">unknown system</i>
   <i type="logical" name="LCOMPAT"> F  </i>
  </separator>
  <separator name="electronic" >
   <i type="string" name="PREC">anorma</i>
   <i name="ENMAX">    600.00000000</i>
   <i name="ENAUG">    644.87300000</i>
   <i name="EDIFF">      0.00000100</i>
   <i type="int" name="IALGO">    38</i>
   <i type="int" name="IWAVPR">    10</i>
   <i type="int" name="NBANDS">   384</i>
   <i name="NELECT">    640.00000000</i>
   <i type="int" name="TURBO">     0</i>
   <i type="int" name="IRESTART">     0</i>
   <i type="int" name="NREBOOT">     0</i>
   <i type="int" name="NMIN">     0</i>
   <i name="EREF">      0.00000000</i>
   <separator name="electronic smearing" >
    <i type="int" name="ISMEAR">     0</i>
    <i name="SIGMA">      0.05000000</i>
    <i name="KSPACING">      0.25000000</i>
    <i type="logical" name="KGAMMA"> T  </i>
   </separator>
   <separator name="electronic projectors" >
    <i type="logical" name="LREAL"> T  </i>
    <v name="ROPT">     -0.00025000     -0.00025000     -0.00025000</v>
    <i type="int" name="LMAXPAW">  -100</i>
    <i type="int" name="LMAXMIX">     2</i>
    <i type="logical" name="NLSPLINE"> F  </i>
   </separator>
   <separator name="electronic startup" >
    <i type="int" name="ISTART">     0</i>
    <i type="int" name="ICHARG">     2</i>
    <i type="int" name="INIWAV">     1</i>
   </separator>
   <separator name="electronic spin" >
    <i type="int" name="ISPIN">     1</i>
    <i type="logical" name="LNONCOLLINEAR"> F  </i>
    <v name="MAGMOM">      1.00000000      1.00000000      1.00000000      1.00000000      1.00000000      1.00000000      1.00000000      1.00000000      1.00000000      1.00000000      1.00000000      1.00000000      1.00000000      1.00000000      1.00000000      1.00000000      1.00000000      1.00000000      1.00000000      1.00000000
      1.00000000      1.00000000      1.00000000      1.00000000      1.00000000      1.00000000      1.00000000      1.00000000      1.00000000      1.00000000      1.00000000      1.00000000      1.00000000      1.00000000      1.00000000      1.00000000      1.00000000      1.00000000      1.00000000      1.00000000
      1.00000000      1.00000000      1.00000000      1.00000000      1.00000000      1.00000000      1.00000000      1.00000000      1.00000000      1.00000000      1.00000000      1.00000000      1.00000000      1.00000000      1.00000000      1.00000000      1.00000000      1.00000000      1.00000000      1.00000000
      1.00000000      1.00000000      1.00000000      1.00000000      1.00000000      1.00000000      1.00000000      1.00000000      1.00000000      1.00000000      1.00000000      1.00000000      1.00000000      1.00000000      1.00000000      1.00000000      1.00000000      1.00000000      1.00000000      1.00000000
</v>
    <i name="NUPDOWN">     -1.00000000</i>
    <i type="logical" name="LSORBIT"> F  </i>
    <v name="SAXIS">      0.00000000      0.00000000      1.00000000</v>
    <i type="logical" name="LSPIRAL"> F  </i>
    <v name="QSPIRAL">      0.00000000      0.00000000      0.00000000</v>
    <i type="logical" name="LZEROZ"> F  </i>
   </separator>
   <separator name="electronic exchange-correlation" >
    <i type="logical" name="LASPH"> F  </i>
    <i type="logical" name="LMETAGGA"> F  </i>
   </separator>
   <separator name="electronic convergence" >
    <i type="int" name="NELM">    60</i>
    <i type="int" name="NELMDL">    -5</i>
    <i type="int" name="NELMIN">     2</i>
    <i name="ENINI">    600.00000000</i>
    <separator name="electronic convergence detail" >
     <i type="logical" name="LDIAG"> T  </i>
     <i type="logical" name="LSUBROT"> F  </i>
     <i name="WEIMIN">      0.00000000</i>
     <i name="EBREAK">      0.00000000</i>
     <i name="DEPER">      0.30000000</i>
     <i type="int" name="NRMM">     4</i>
     <i name="TIME">      0.40000000</i>
    </separator>
   </separator>
   <separator name="electronic mixer" >
    <i name="AMIX">      0.40000000</i>
    <i name="BMIX">      1.00000000</i>
    <i name="AMIN">      0.10000000</i>
    <i name="AMIX_MAG">      1.60000000</i>
    <i name="BMIX_MAG">      1.00000000</i>
    <separator name="electronic mixer details" >
     <i type="int" name="IMIX">     4</i>
     <i type="logical" name="MIXFIRST"> F  </i>
     <i type="int" name="MAXMIX">   -45</i>
     <i name="WC">    100.00000000</i>
     <i type="int" name="INIMIX">     1</i>
     <i type="int" name="MIXPRE">     1</i>
     <i type="int" name="MREMOVE">     5</i>
    </separator>
   </separator>
   <separator name="electronic dipolcorrection" >
    <i type="logical" name="LDIPOL"> F  </i>
    <i type="logical" name="LMONO"> F  </i>
    <i type="int" name="IDIPOL">     0</i>
    <i name="EPSILON">      1.00000000</i>
    <v name="DIPOL">   -100.00000000   -100.00000000   -100.00000000</v>
    <i name="EFIELD">      0.00000000</i>
   </separator>
  </separator>
  <separator name="grids" >
   <i type="int" name="NGX">   112</i>
   <i type="int" name="NGY">   112</i>
   <i type="int" name="NGZ">   224</i>
   <i type="int" name="NGXF">   224</i>
   <i type="int" name="NGYF">   224</i>
   <i type="int" name="NGZF">   448</i>
   <i type="logical" name="ADDGRID"> T  </i>
  </separator>
  <separator name="ionic" >
   <i type="int" name="NSW">     1</i>
   <i type="int" name="IBRION">    -1</i>
   <i type="int" name="MDALGO">     0</i>
   <i type="int" name="ISIF">     2</i>
   <i name="PSTRESS">      0.00000000</i>
   <i name="EDIFFG">     -0.01000000</i>
   <i type="int" name="NFREE">     0</i>
   <i name="POTIM">      1.00000000</i>
   <i name="SMASS">     -3.00000000</i>
   <i name="SCALEE">      1.00000000</i>
  </separator>
  <separator name="ionic md" >
   <i name="TEBEG">      0.00010000</i>
   <i name="TEEND">      0.00010000</i>
   <i type="int" name="NBLOCK">     1</i>
   <i type="int" name="KBLOCK">     1</i>
   <i type="int" name="NPACO">   256</i>
   <i name="APACO">     16.00000000</i>
  </separator>
  <separator name="symmetry" >
   <i type="int" name="ISYM">     2</i>
   <i name="SYMPREC">      0.00001000</i>
  </separator>
  <separator name="dos" >
   <i type="int" name="LORBIT">     0</i>
   <v name="RWIGS">     -1.00000000     -1.00000000     -1.00000000</v>
   <i type="int" name="NEDOS">   301</i>
   <i name="EMIN">     10.00000000</i>
   <i name="EMAX">    -10.00000000</i>
   <i name="EFERMI">      0.00000000</i>
  </separator>
  <separator name="writing" >
   <i type="int" name="NWRITE">     2</i>
   <i type="logical" name="LWAVE"> F  </i>
   <i type="logical" name="LDOWNSAMPLE"> F  </i>
   <i type="logical" name="LCHARG"> F  </i>
   <i type="logical" name="LPARD"> F  </i>
   <i type="logical" name="LVTOT"> F  </i>
   <i type="logical" name="LVHAR"> F  </i>
   <i type="logical" name="LELF"> F  </i>
   <i type="logical" name="LOPTICS"> F  </i>
   <v name="STM">      0.00000000      0.00000000      0.00000000      0.00000000      0.00000000      0.00000000      0.00000000</v>
  </separator>
  <separator name="performance" >
   <i type="int" name="NPAR">     4</i>
   <i type="int" name="NSIM">     4</i>
   <i type="int" name="NBLK">    -1</i>
   <i type="logical" name="LPLANE"> T  </i>
   <i type="logical" name="LSCALAPACK"> F  </i>
   <i type="logical" name="LSCAAWARE"> F  </i>
   <i type="logical" name="LSCALU"> F  </i>
   <i type="logical" name="LASYNC"> F  </i>
   <i type="logical" name="LORBITALREAL"> F  </i>
  </separator>
  <separator name="miscellaneous" >
   <i type="int" name="IDIOT">     3</i>
   <i type="int" name="ISPECIAL">     0</i>
   <i type="logical" name="LMUSIC"> F  </i>
   <v name="POMASS">     44.95600000     35.45300000     12.01100000</v>
   <v name="DARWINR">      0.00000000      0.00000000      0.00000000</v>
   <v name="DARWINV">      1.00000000      1.00000000      1.00000000</v>
   <i type="logical" name="LCORR"> T  </i>
  </separator>
  <i type="logical" name="GGA_COMPAT"> T  </i>
  <i type="logical" name="LBERRY"> F  </i>
  <i type="int" name="ICORELEVEL">     0</i>
  <i type="logical" name="LDAU"> F  </i>
  <i type="int" name="I_CONSTRAINED_M">     0</i>
  <separator name="electronic exchange-correlation" >
   <i type="string" name="GGA">--</i>
   <i type="int" name="VOSKOWN">     0</i>
   <i type="logical" name="LHFCALC"> F  </i>
   <i type="string" name="PRECFOCK"></i>
   <i type="logical" name="LSYMGRAD"> F  </i>
   <i type="logical" name="LHFONE"> F  </i>
   <i type="logical" name="LRHFCALC"> F  </i>
   <i type="logical" name="LTHOMAS"> F  </i>
   <i type="logical" name="LMODELHF"> F  </i>
   <i name="ENCUT4O">     -1.00000000</i>
   <i type="int" name="EXXOEP">     0</i>
   <i type="int" name="FOURORBIT">     0</i>
   <i name="AEXX">      0.00000000</i>
   <i name="HFALPHA">      0.00000000</i>
   <i name="MCALPHA">      0.00000000</i>
   <i name="ALDAX">      1.00000000</i>
   <i name="AGGAX">      1.00000000</i>
   <i name="ALDAC">      1.00000000</i>
   <i name="AGGAC">      1.00000000</i>
   <i type="int" name="NKREDX">     1</i>
   <i type="int" name="NKREDY">     1</i>
   <i type="int" name="NKREDZ">     1</i>
   <i type="logical" name="SHIFTRED"> F  </i>
   <i type="logical" name="ODDONLY"> F  </i>
   <i type="logical" name="EVENONLY"> F  </i>
   <i type="int" name="LMAXFOCK">     0</i>
   <i type="int" name="NMAXFOCKAE">     0</i>
   <i type="logical" name="LFOCKAEDFT"> F  </i>
   <i name="HFSCREEN">      0.00000000</i>
   <i name="HFSCREENC">      0.00000000</i>
   <i type="int" name="NBANDSGWLOW">     0</i>
  </separator>
  <separator name="vdW DFT" >
   <i type="logical" name="LUSE_VDW"> F  </i>
   <i name="Zab_VDW">     -0.84910000</i>
   <i name="PARAM1">      0.12340000</i>
   <i name="PARAM2">      1.00000000</i>
   <i name="PARAM3">      0.00000000</i>
  </separator>
  <separator name="model GW" >
   <i type="int" name="MODEL_GW">     0</i>
   <i name="MODEL_EPS0">     34.36971577</i>
   <i name="MODEL_ALPHA">      1.00000000</i>
  </separator>
  <separator name="linear response parameters" >
   <i type="logical" name="LEPSILON"> F  </i>
   <i type="logical" name="LRPA"> F  </i>
   <i type="logical" name="LNABLA"> F  </i>
   <i type="logical" name="LVEL"> F  </i>
   <i type="int" name="KINTER">     0</i>
   <i name="CSHIFT">      0.10000000</i>
   <i name="OMEGAMAX">     -1.00000000</i>
   <i name="DEG_THRESHOLD">      0.00200000</i>
   <i name="RTIME">     -0.10000000</i>
   <i name="WPLASMAI">      0.00000000</i>
   <v name="DFIELD">      0.00000000      0.00000000      0.00000000</v>
   <v name="WPLASMA">      0.00000000      0.00000000      0.00000000      0.00000000      0.00000000      0.00000000      0.00000000      0.00000000      0.00000000</v>
  </separator>
  <separator name="orbital magnetization" >
   <i type="logical" name="NUCIND"> F  </i>
   <v name="MAGPOS">      0.00000000      0.00000000      0.00000000</v>
   <i type="logical" name="LNICSALL"> T  </i>
   <i type="logical" name="ORBITALMAG"> F  </i>
   <i type="logical" name="LMAGBLOCH"> F  </i>
   <i type="logical" name="LCHIMAG"> F  </i>
   <i type="logical" name="LGAUGE"> T  </i>
   <i type="int" name="MAGATOM">     0</i>
   <v name="MAGDIPOL">      0.00000000      0.00000000      0.00000000</v>
   <v name="AVECCONST">      0.00000000      0.00000000      0.00000000</v>
  </separator>
  <separator name="response functions" >
   <i type="logical" name="LADDER"> F  </i>
   <i type="logical" name="LRPAFORCE"> F  </i>
   <i type="logical" name="LFXC"> F  </i>
   <i type="logical" name="LHARTREE"> T  </i>
   <i type="int" name="IBSE">     0</i>
   <v type="int" name="KPOINT">    -1     0     0     0</v>
   <i type="logical" name="LTCTE"> F  </i>
   <i type="logical" name="LTETE"> F  </i>
   <i type="logical" name="LTRIPLET"> F  </i>
   <i type="logical" name="LFXCEPS"> F  </i>
   <i type="logical" name="LFXHEG"> F  </i>
   <i type="int" name="NATURALO">     2</i>
   <i type="logical" name="L2ORDER"> F  </i>
   <i type="logical" name="LMP2LT"> F  </i>
   <i type="logical" name="LUSEW"> F  </i>
   <i name="ENCUTGW">     -2.00000000</i>
   <i name="ENCUTGWSOFT">     -2.00000000</i>
   <i name="ENCUTLF">     -1.00000000</i>
   <i type="int" name="LMAXMP2">    -1</i>
   <i name="SCISSOR">      0.00000000</i>
   <i type="int" name="NOMEGA">     0</i>
   <i type="int" name="NOMEGAR">     0</i>
   <i type="int" name="NBANDSGW">    -1</i>
   <i type="int" name="NBANDSO">    -1</i>
   <i type="int" name="NBANDSV">    -1</i>
   <i type="int" name="NELM">     1</i>
   <i type="int" name="NELMHF">     1</i>
   <i type="int" name="DIM">     3</i>
   <i type="int" name="ANTIRES">     0</i>
   <i name="OMEGAMAX">    -30.00000000</i>
   <i name="OMEGAMIN">    -30.00000000</i>
   <i name="OMEGATL">   -200.00000000</i>
   <i type="int" name="OMEGAGRID">   140</i>
   <i name="CSHIFT">     -0.10000000</i>
   <i type="logical" name="SELFENERGY"> F  </i>
   <i type="logical" name="LSPECTRAL"> F  </i>
   <i type="logical" name="LSPECTRALGW"> F  </i>
   <i type="logical" name="LSINGLES"> F  </i>
   <i type="logical" name="LFERMIGW"> F  </i>
   <i type="logical" name="ODDONLYGW"> F  </i>
   <i type="logical" name="EVENONLYGW"> F  </i>
   <i type="int" name="NKREDLFX">     1</i>
   <i type="int" name="NKREDLFY">     1</i>
   <i type="int" name="NKREDLFZ">     1</i>
   <i type="int" name="MAXMEM">  2800</i>
   <i type="int" name="TELESCOPE">     0</i>
   <i type="int" name="TAUPAR">     1</i>
   <i type="int" name="OMEGAPAR">    -1</i>
   <i name="LAMBDA">      1.00000000</i>
  </separator>
  <separator name="External order field" >
   <i name="OFIELD_KAPPA">      0.00000000</i>
   <v name="OFIELD_K">      0.00000000      0.00000000      0.00000000</v>
   <i name="OFIELD_Q6_NEAR">      0.00000000</i>
   <i name="OFIELD_Q6_FAR">      0.00000000</i>
   <i name="OFIELD_A">      0.00000000</i>
  </separator>
 </parameters>
 <atominfo>
  <atoms>      80 </atoms>
  <types>       3 </types>
  <array name="atoms" >
   <dimension dim="1">ion</dimension>
   <field type="string">element</field>
   <field type="int">atomtype</field>
   <set>
    <rc><c>Sc</c><c>   1</c></rc>
    <rc><c>Sc</c><c>   1</c></rc>
    <rc><c>Sc</c><c>   1</c></rc>
    <rc><c>Sc</c><c>   1</c></rc>
    <rc><c>Sc</c><c>   1</c></rc>
    <rc><c>Sc</c><c>   1</c></rc>
    <rc><c>Sc</c><c>   1</c></rc>
    <rc><c>Sc</c><c>   1</c></rc>
    <rc><c>Sc</c><c>   1</c></rc>
    <rc><c>Sc</c><c>   1</c></rc>
    <rc><c>Sc</c><c>   1</c></rc>
    <rc><c>Sc</c><c>   1</c></rc>
    <rc><c>Sc</c><c>   1</c></rc>
    <rc><c>Sc</c><c>   1</c></rc>
    <rc><c>Sc</c><c>   1</c></rc>
    <rc><c>Sc</c><c>   1</c></rc>
    <rc><c>Sc</c><c>   1</c></rc>
    <rc><c>Sc</c><c>   1</c></rc>
    <rc><c>Sc</c><c>   1</c></rc>
    <rc><c>Sc</c><c>   1</c></rc>
    <rc><c>Sc</c><c>   1</c></rc>
    <rc><c>Sc</c><c>   1</c></rc>
    <rc><c>Sc</c><c>   1</c></rc>
    <rc><c>Sc</c><c>   1</c></rc>
    <rc><c>Sc</c><c>   1</c></rc>
    <rc><c>Sc</c><c>   1</c></rc>
    <rc><c>Sc</c><c>   1</c></rc>
    <rc><c>Sc</c><c>   1</c></rc>
    <rc><c>Sc</c><c>   1</c></rc>
    <rc><c>Sc</c><c>   1</c></rc>
    <rc><c>Sc</c><c>   1</c></rc>
    <rc><c>Sc</c><c>   1</c></rc>
    <rc><c>Cl</c><c>   2</c></rc>
    <rc><c>Cl</c><c>   2</c></rc>
    <rc><c>Cl</c><c>   2</c></rc>
    <rc><c>Cl</c><c>   2</c></rc>
    <rc><c>Cl</c><c>   2</c></rc>
    <rc><c>Cl</c><c>   2</c></rc>
    <rc><c>Cl</c><c>   2</c></rc>
    <rc><c>Cl</c><c>   2</c></rc>
    <rc><c>Cl</c><c>   2</c></rc>
    <rc><c>Cl</c><c>   2</c></rc>
    <rc><c>Cl</c><c>   2</c></rc>
    <rc><c>Cl</c><c>   2</c></rc>
    <rc><c>Cl</c><c>   2</c></rc>
    <rc><c>Cl</c><c>   2</c></rc>
    <rc><c>Cl</c><c>   2</c></rc>
    <rc><c>Cl</c><c>   2</c></rc>
    <rc><c>Cl</c><c>   2</c></rc>
    <rc><c>Cl</c><c>   2</c></rc>
    <rc><c>Cl</c><c>   2</c></rc>
    <rc><c>Cl</c><c>   2</c></rc>
    <rc><c>Cl</c><c>   2</c></rc>
    <rc><c>Cl</c><c>   2</c></rc>
    <rc><c>Cl</c><c>   2</c></rc>
    <rc><c>Cl</c><c>   2</c></rc>
    <rc><c>Cl</c><c>   2</c></rc>
    <rc><c>Cl</c><c>   2</c></rc>
    <rc><c>Cl</c><c>   2</c></rc>
    <rc><c>Cl</c><c>   2</c></rc>
    <rc><c>Cl</c><c>   2</c></rc>
    <rc><c>Cl</c><c>   2</c></rc>
    <rc><c>Cl</c><c>   2</c></rc>
    <rc><c>Cl</c><c>   2</c></rc>
    <rc><c>C </c><c>   3</c></rc>
    <rc><c>C </c><c>   3</c></rc>
    <rc><c>C </c><c>   3</c></rc>
    <rc><c>C </c><c>   3</c></rc>
    <rc><c>C </c><c>   3</c></rc>
    <rc><c>C </c><c>   3</c></rc>
    <rc><c>C </c><c>   3</c></rc>
    <rc><c>C </c><c>   3</c></rc>
    <rc><c>C </c><c>   3</c></rc>
    <rc><c>C </c><c>   3</c></rc>
    <rc><c>C </c><c>   3</c></rc>
    <rc><c>C </c><c>   3</c></rc>
    <rc><c>C </c><c>   3</c></rc>
    <rc><c>C </c><c>   3</c></rc>
    <rc><c>C </c><c>   3</c></rc>
    <rc><c>C </c><c>   3</c></rc>
   </set>
  </array>
  <array name="atomtypes" >
   <dimension dim="1">type</dimension>
   <field type="int">atomspertype</field>
   <field type="string">element</field>
   <field>mass</field>
   <field>valence</field>
   <field type="string">pseudopotential</field>
   <set>
    <rc><c>  32</c><c>Sc</c><c>     44.95600000</c><c>     11.00000000</c><c>  PAW_PBE Sc_sv 07Sep2000               </c></rc>
    <rc><c>  32</c><c>Cl</c><c>     35.45300000</c><c>      7.00000000</c><c>  PAW_PBE Cl 06Sep2000                  </c></rc>
    <rc><c>  16</c><c>C </c><c>     12.01100000</c><c>      4.00000000</c><c>  PAW_PBE C 08Apr2002                   </c></rc>
   </set>
  </array>
 </atominfo>
 <structure name="initialpos" >
  <crystal>
   <varray name="basis" >
    <v>      13.79398668       0.00000000       0.00000000 </v>
    <v>      -6.89699334      11.94594288       0.00000000 </v>
    <v>       0.00000000       0.00000000      27.81022107 </v>
   </varray>
   <i name="volume">   4582.62876984 </i>
   <varray name="rec_basis" >
    <v>       0.07249536       0.04185521       0.00000000 </v>
    <v>       0.00000000       0.08371043       0.00000000 </v>
    <v>       0.00000000       0.00000000       0.03595800 </v>
   </varray>
  </crystal>
  <varray name="positions" >
   <v>       0.08616318       0.17398962       0.54284588 </v>
   <v>       0.08288766       0.40695956       0.54319005 </v>
   <v>       0.09107494       0.67466956       0.54541950 </v>
   <v>       0.08707460       0.91983637       0.54034495 </v>
   <v>       0.31876914       0.16193195       0.54993708 </v>
   <v>       0.34381294       0.43018834       0.53748139 </v>
   <v>       0.33591919       0.66718002       0.54718085 </v>
   <v>       0.33662767       0.92137954       0.54745947 </v>
   <v>       0.57938858       0.17423763       0.54698946 </v>
   <v>       0.58439797       0.41607270       0.54598323 </v>
   <v>       0.60650773       0.68749990       0.55168027 </v>
   <v>       0.59382041       0.92974516       0.55430559 </v>
   <v>       0.83285626       0.16636487       0.54591639 </v>
   <v>       0.83456965       0.42108012       0.54576204 </v>
   <v>       0.83826658       0.67011528       0.53826115 </v>
   <v>       0.83928643       0.93236825       0.54508973 </v>
   <v>       0.16277409       0.07110456       0.45717798 </v>
   <v>       0.17376756       0.33933129       0.44843039 </v>
   <v>       0.15700076       0.57678576       0.45381934 </v>
   <v>       0.16086775       0.82389194       0.45375625 </v>
   <v>       0.42688897       0.08569355       0.45593228 </v>
   <v>       0.41230039       0.32940235       0.45228403 </v>
   <v>       0.42684201       0.59440283       0.46056658 </v>
   <v>       0.42172826       0.83232178       0.45607407 </v>
   <v>       0.66321423       0.08453219       0.44831024 </v>
   <v>       0.65652973       0.31555776       0.45700817 </v>
   <v>       0.65853400       0.57078398       0.44971304 </v>
   <v>       0.66229536       0.83032502       0.45875276 </v>
   <v>       0.91716252       0.08997391       0.45044267 </v>
   <v>       0.90968466       0.33294349       0.45946528 </v>
   <v>       0.90285067       0.56450755       0.45638511 </v>
   <v>       0.91458974       0.83459257       0.45384173 </v>
   <v>       0.08214479       0.18147537       0.39144032 </v>
   <v>       0.06638838       0.41500515       0.39496668 </v>
   <v>       0.07346829       0.65820476       0.38960540 </v>
   <v>       0.08022757       0.91512617       0.38611659 </v>
   <v>       0.34613764       0.17303379       0.39459822 </v>
   <v>       0.33797955       0.40319296       0.39107303 </v>
   <v>       0.33896137       0.65419072       0.39216380 </v>
   <v>       0.32901794       0.92190834       0.39697953 </v>
   <v>       0.58716835       0.17776127       0.39826444 </v>
   <v>       0.58412973       0.41387652       0.39316471 </v>
   <v>       0.58313648       0.65952804       0.39314971 </v>
   <v>       0.58464728       0.91077444       0.39618682 </v>
   <v>       0.80704486       0.15811017       0.38422688 </v>
   <v>       0.84548308       0.41355018       0.39405234 </v>
   <v>       0.84420335       0.66121638       0.39141209 </v>
   <v>       0.82880245       0.92698438       0.39648641 </v>
   <v>       0.16153759       0.06679491       0.59912965 </v>
   <v>       0.16119254       0.33568454       0.60397436 </v>
   <v>       0.17057864       0.57379186       0.60338853 </v>
   <v>       0.16975337       0.81400781       0.60938065 </v>
   <v>       0.41082604       0.09840210       0.60860456 </v>
   <v>       0.40486111       0.32230057       0.61003537 </v>
   <v>       0.41994458       0.59515162       0.60420165 </v>
   <v>       0.42072831       0.85368055       0.61660513 </v>
   <v>       0.66600620       0.09265805       0.61376275 </v>
   <v>       0.66226872       0.33148997       0.61242040 </v>
   <v>       0.67452563       0.56270047       0.60410293 </v>
   <v>       0.68262244       0.83910597       0.61344527 </v>
   <v>       0.92860446       0.07784579       0.60752204 </v>
   <v>       0.90500441       0.33889505       0.60407163 </v>
   <v>       0.90032143       0.58271438       0.60526146 </v>
   <v>       0.93172158       0.83175835       0.60001979 </v>
   <v>       0.99410411       0.99527066       0.49752174 </v>
   <v>       0.98390928       0.24119991       0.50262489 </v>
   <v>       0.00801865       0.50610697       0.49462850 </v>
   <v>       0.00387278       0.74548868       0.49934019 </v>
   <v>       0.24107336       0.99465177       0.50291417 </v>
   <v>       0.24288846       0.25330507       0.49562023 </v>
   <v>       0.26076049       0.51510172       0.50040537 </v>
   <v>       0.24731409       0.75611478       0.50353182 </v>
   <v>       0.49565797       0.99879017       0.50005432 </v>
   <v>       0.49472339       0.25164406       0.50043675 </v>
   <v>       0.51414180       0.50545034       0.49806094 </v>
   <v>       0.49986003       0.74401209       0.50074917 </v>
   <v>       0.74689224       0.99440856       0.50591814 </v>
   <v>       0.73886187       0.25073078       0.49965737 </v>
   <v>       0.74649722       0.50224532       0.49963232 </v>
   <v>       0.74352642       0.74939673       0.50017816 </v>
  </varray>
  <varray name="velocities" >
   <v>       0.00000000       0.00000000       0.00000000 </v>
   <v>       0.00000000       0.00000000       0.00000000 </v>
   <v>       0.00000000       0.00000000       0.00000000 </v>
   <v>       0.00000000       0.00000000       0.00000000 </v>
   <v>       0.00000000       0.00000000       0.00000000 </v>
   <v>       0.00000000       0.00000000       0.00000000 </v>
   <v>       0.00000000       0.00000000       0.00000000 </v>
   <v>       0.00000000       0.00000000       0.00000000 </v>
   <v>       0.00000000       0.00000000       0.00000000 </v>
   <v>       0.00000000       0.00000000       0.00000000 </v>
   <v>       0.00000000       0.00000000       0.00000000 </v>
   <v>       0.00000000       0.00000000       0.00000000 </v>
   <v>       0.00000000       0.00000000       0.00000000 </v>
   <v>       0.00000000       0.00000000       0.00000000 </v>
   <v>       0.00000000       0.00000000       0.00000000 </v>
   <v>       0.00000000       0.00000000       0.00000000 </v>
   <v>       0.00000000       0.00000000       0.00000000 </v>
   <v>       0.00000000       0.00000000       0.00000000 </v>
   <v>       0.00000000       0.00000000       0.00000000 </v>
   <v>       0.00000000       0.00000000       0.00000000 </v>
   <v>       0.00000000       0.00000000       0.00000000 </v>
   <v>       0.00000000       0.00000000       0.00000000 </v>
   <v>       0.00000000       0.00000000       0.00000000 </v>
   <v>       0.00000000       0.00000000       0.00000000 </v>
   <v>       0.00000000       0.00000000       0.00000000 </v>
   <v>       0.00000000       0.00000000       0.00000000 </v>
   <v>       0.00000000       0.00000000       0.00000000 </v>
   <v>       0.00000000       0.00000000       0.00000000 </v>
   <v>       0.00000000       0.00000000       0.00000000 </v>
   <v>       0.00000000       0.00000000       0.00000000 </v>
   <v>       0.00000000       0.00000000       0.00000000 </v>
   <v>       0.00000000       0.00000000       0.00000000 </v>
   <v>       0.00000000       0.00000000       0.00000000 </v>
   <v>       0.00000000       0.00000000       0.00000000 </v>
   <v>       0.00000000       0.00000000       0.00000000 </v>
   <v>       0.00000000       0.00000000       0.00000000 </v>
   <v>       0.00000000       0.00000000       0.00000000 </v>
   <v>       0.00000000       0.00000000       0.00000000 </v>
   <v>       0.00000000       0.00000000       0.00000000 </v>
   <v>       0.00000000       0.00000000       0.00000000 </v>
   <v>       0.00000000       0.00000000       0.00000000 </v>
   <v>       0.00000000       0.00000000       0.00000000 </v>
   <v>       0.00000000       0.00000000       0.00000000 </v>
   <v>       0.00000000       0.00000000       0.00000000 </v>
   <v>       0.00000000       0.00000000       0.00000000 </v>
   <v>       0.00000000       0.00000000       0.00000000 </v>
   <v>       0.00000000       0.00000000       0.00000000 </v>
   <v>       0.00000000       0.00000000       0.00000000 </v>
   <v>       0.00000000       0.00000000       0.00000000 </v>
   <v>       0.00000000       0.00000000       0.00000000 </v>
   <v>       0.00000000       0.00000000       0.00000000 </v>
   <v>       0.00000000       0.00000000       0.00000000 </v>
   <v>       0.00000000       0.00000000       0.00000000 </v>
   <v>       0.00000000       0.00000000       0.00000000 </v>
   <v>       0.00000000       0.00000000       0.00000000 </v>
   <v>       0.00000000       0.00000000       0.00000000 </v>
   <v>       0.00000000       0.00000000       0.00000000 </v>
   <v>       0.00000000       0.00000000       0.00000000 </v>
   <v>       0.00000000       0.00000000       0.00000000 </v>
   <v>       0.00000000       0.00000000       0.00000000 </v>
   <v>       0.00000000       0.00000000       0.00000000 </v>
   <v>       0.00000000       0.00000000       0.00000000 </v>
   <v>       0.00000000       0.00000000       0.00000000 </v>
   <v>       0.00000000       0.00000000       0.00000000 </v>
   <v>       0.00000000       0.00000000       0.00000000 </v>
   <v>       0.00000000       0.00000000       0.00000000 </v>
   <v>       0.00000000       0.00000000       0.00000000 </v>
   <v>       0.00000000       0.00000000       0.00000000 </v>
   <v>       0.00000000       0.00000000       0.00000000 </v>
   <v>       0.00000000       0.00000000       0.00000000 </v>
   <v>       0.00000000       0.00000000       0.00000000 </v>
   <v>       0.00000000       0.00000000       0.00000000 </v>
   <v>       0.00000000       0.00000000       0.00000000 </v>
   <v>       0.00000000       0.00000000       0.00000000 </v>
   <v>       0.00000000       0.00000000       0.00000000 </v>
   <v>       0.00000000       0.00000000       0.00000000 </v>
   <v>       0.00000000       0.00000000       0.00000000 </v>
   <v>       0.00000000       0.00000000       0.00000000 </v>
   <v>       0.00000000       0.00000000       0.00000000 </v>
   <v>       0.00000000       0.00000000       0.00000000 </v>
  </varray>
 </structure>
 <calculation>
  <scstep>
   <time name="dav">   50.44   50.44</time>
   <time name="total">   51.27   51.28</time>
   <energy>
    <i name="alphaZ">    784.57699423 </i>
    <i name="ewald"> 249028.15788163 </i>
    <i name="hartreedc">-296717.68856331 </i>
    <i name="XCdc">   2500.80952819 </i>
    <i name="pawpsdc">  43679.68029659 </i>
    <i name="pawaedc"> -43417.33247688 </i>
    <i name="eentropy">     -0.06749493 </i>
    <i name="bandstr">     97.11759405 </i>
    <i name="atom">  56210.72393729 </i>
    <i name="e_fr_energy">  12165.97769686 </i>
    <i name="e_wo_entrp">  12166.04519179 </i>
    <i name="e_0_energy">  12166.01144433 </i>
   </energy>
  </scstep>
  <scstep>
   <time name="dav">   56.74   56.75</time>
   <time name="total">   56.74   56.75</time>
   <energy>
    <i name="e_fr_energy">   1735.34261387 </i>
    <i name="e_wo_entrp">   1735.38804557 </i>
    <i name="e_0_energy">   1735.36532972 </i>
   </energy>
  </scstep>
  <scstep>
   <time name="dav">   70.86   70.87</time>
   <time name="total">   70.86   70.87</time>
   <energy>
    <i name="e_fr_energy">   -402.57663092 </i>
    <i name="e_wo_entrp">   -402.57662722 </i>
    <i name="e_0_energy">   -402.57662907 </i>
   </energy>
  </scstep>
  <scstep>
   <time name="dav">   64.67   64.68</time>
   <time name="total">   64.67   64.68</time>
   <energy>
    <i name="e_fr_energy">   -640.66409130 </i>
    <i name="e_wo_entrp">   -640.66409130 </i>
    <i name="e_0_energy">   -640.66409130 </i>
   </energy>
  </scstep>
  <scstep>
   <time name="dav">   64.53   64.55</time>
   <time name="total">   68.44   68.45</time>
   <energy>
    <i name="e_fr_energy">   -651.24184405 </i>
    <i name="e_wo_entrp">   -651.24184405 </i>
    <i name="e_0_energy">   -651.24184405 </i>
   </energy>
  </scstep>
  <scstep>
   <time name="dav">   62.71   62.71</time>
   <time name="total">   67.43   67.45</time>
   <energy>
    <i name="e_fr_energy">   -520.34253406 </i>
    <i name="e_wo_entrp">   -520.34253406 </i>
    <i name="e_0_energy">   -520.34253406 </i>
   </energy>
  </scstep>
  <scstep>
   <time name="dav">   63.18   63.18</time>
   <time name="total">   67.89   67.90</time>
   <energy>
    <i name="e_fr_energy">   -525.26282172 </i>
    <i name="e_wo_entrp">   -525.26282172 </i>
    <i name="e_0_energy">   -525.26282172 </i>
   </energy>
  </scstep>
  <scstep>
   <time name="dav">   62.53   62.53</time>
   <time name="total">   67.23   67.24</time>
   <energy>
    <i name="e_fr_energy">   -522.97366487 </i>
    <i name="e_wo_entrp">   -522.97366487 </i>
    <i name="e_0_energy">   -522.97366487 </i>
   </energy>
  </scstep>
  <scstep>
   <time name="dav">   58.96   58.96</time>
   <time name="total">   63.66   63.67</time>
   <energy>
    <i name="e_fr_energy">   -522.45002360 </i>
    <i name="e_wo_entrp">   -522.45002360 </i>
    <i name="e_0_energy">   -522.45002360 </i>
   </energy>
  </scstep>
  <scstep>
   <time name="dav">   62.20   62.21</time>
   <time name="total">   66.91   66.92</time>
   <energy>
    <i name="e_fr_energy">   -522.32056908 </i>
    <i name="e_wo_entrp">   -522.32056908 </i>
    <i name="e_0_energy">   -522.32056908 </i>
   </energy>
  </scstep>
  <scstep>
   <time name="dav">   61.82   61.82</time>
   <time name="total">   66.54   66.55</time>
   <energy>
    <i name="e_fr_energy">   -522.30083560 </i>
    <i name="e_wo_entrp">   -522.30083560 </i>
    <i name="e_0_energy">   -522.30083560 </i>
   </energy>
  </scstep>
  <scstep>
   <time name="dav">   65.12   65.12</time>
   <time name="total">   69.84   69.85</time>
   <energy>
    <i name="e_fr_energy">   -522.28828035 </i>
    <i name="e_wo_entrp">   -522.28828035 </i>
    <i name="e_0_energy">   -522.28828035 </i>
   </energy>
  </scstep>
  <scstep>
   <time name="dav">   59.48   59.48</time>
   <time name="total">   64.20   64.21</time>
   <energy>
    <i name="e_fr_energy">   -522.28522594 </i>
    <i name="e_wo_entrp">   -522.28522594 </i>
    <i name="e_0_energy">   -522.28522594 </i>
   </energy>
  </scstep>
  <scstep>
   <time name="dav">   59.42   59.43</time>
   <time name="total">   64.13   64.14</time>
   <energy>
    <i name="e_fr_energy">   -522.28384119 </i>
    <i name="e_wo_entrp">   -522.28384119 </i>
    <i name="e_0_energy">   -522.28384119 </i>
   </energy>
  </scstep>
  <scstep>
   <time name="dav">   59.63   59.63</time>
   <time name="total">   64.34   64.36</time>
   <energy>
    <i name="e_fr_energy">   -522.28515100 </i>
    <i name="e_wo_entrp">   -522.28515100 </i>
    <i name="e_0_energy">   -522.28515100 </i>
   </energy>
  </scstep>
  <scstep>
   <time name="dav">   61.74   61.74</time>
   <time name="total">   66.44   66.46</time>
   <energy>
    <i name="e_fr_energy">   -522.28674730 </i>
    <i name="e_wo_entrp">   -522.28674730 </i>
    <i name="e_0_energy">   -522.28674730 </i>
   </energy>
  </scstep>
  <scstep>
   <time name="dav">   59.14   59.14</time>
   <time name="total">   63.84   63.86</time>
   <energy>
    <i name="e_fr_energy">   -522.28962936 </i>
    <i name="e_wo_entrp">   -522.28962936 </i>
    <i name="e_0_energy">   -522.28962936 </i>
   </energy>
  </scstep>
  <scstep>
   <time name="dav">   54.63   54.64</time>
   <time name="total">   59.35   59.36</time>
   <energy>
    <i name="e_fr_energy">   -522.29192525 </i>
    <i name="e_wo_entrp">   -522.29192525 </i>
    <i name="e_0_energy">   -522.29192525 </i>
   </energy>
  </scstep>
  <scstep>
   <time name="dav">   54.49   54.50</time>
   <time name="total">   59.22   59.22</time>
   <energy>
    <i name="e_fr_energy">   -522.29303404 </i>
    <i name="e_wo_entrp">   -522.29303404 </i>
    <i name="e_0_energy">   -522.29303404 </i>
   </energy>
  </scstep>
  <scstep>
   <time name="dav">   49.60   49.60</time>
   <time name="total">   54.32   54.33</time>
   <energy>
    <i name="e_fr_energy">   -522.29431145 </i>
    <i name="e_wo_entrp">   -522.29431145 </i>
    <i name="e_0_energy">   -522.29431145 </i>
   </energy>
  </scstep>
  <scstep>
   <time name="dav">   51.61   51.61</time>
   <time name="total">   56.33   56.34</time>
   <energy>
    <i name="e_fr_energy">   -522.29478195 </i>
    <i name="e_wo_entrp">   -522.29478195 </i>
    <i name="e_0_energy">   -522.29478195 </i>
   </energy>
  </scstep>
  <scstep>
   <time name="dav">   45.13   45.13</time>
   <time name="total">   49.87   49.89</time>
   <energy>
    <i name="e_fr_energy">   -522.29511583 </i>
    <i name="e_wo_entrp">   -522.29511583 </i>
    <i name="e_0_energy">   -522.29511583 </i>
   </energy>
  </scstep>
  <scstep>
   <time name="dav">   42.68   42.68</time>
   <time name="total">   47.40   47.40</time>
   <energy>
    <i name="e_fr_energy">   -522.29568916 </i>
    <i name="e_wo_entrp">   -522.29568916 </i>
    <i name="e_0_energy">   -522.29568916 </i>
   </energy>
  </scstep>
  <scstep>
   <time name="dav">   44.77   44.77</time>
   <time name="total">   49.48   49.50</time>
   <energy>
    <i name="e_fr_energy">   -522.29590631 </i>
    <i name="e_wo_entrp">   -522.29590631 </i>
    <i name="e_0_energy">   -522.29590631 </i>
   </energy>
  </scstep>
  <scstep>
   <time name="dav">   35.91   35.91</time>
   <time name="total">   40.62   40.63</time>
   <energy>
    <i name="e_fr_energy">   -522.29596993 </i>
    <i name="e_wo_entrp">   -522.29596993 </i>
    <i name="e_0_energy">   -522.29596993 </i>
   </energy>
  </scstep>
  <scstep>
   <time name="dav">   40.72   40.73</time>
   <time name="total">   45.44   45.45</time>
   <energy>
    <i name="e_fr_energy">   -522.29605875 </i>
    <i name="e_wo_entrp">   -522.29605875 </i>
    <i name="e_0_energy">   -522.29605875 </i>
   </energy>
  </scstep>
  <scstep>
   <time name="dav">   36.14   36.14</time>
   <time name="total">   40.86   40.87</time>
   <energy>
    <i name="e_fr_energy">   -522.29608698 </i>
    <i name="e_wo_entrp">   -522.29608698 </i>
    <i name="e_0_energy">   -522.29608698 </i>
   </energy>
  </scstep>
  <scstep>
   <time name="dav">   34.04   34.04</time>
   <time name="total">   38.76   38.77</time>
   <energy>
    <i name="e_fr_energy">   -522.29609642 </i>
    <i name="e_wo_entrp">   -522.29609642 </i>
    <i name="e_0_energy">   -522.29609642 </i>
   </energy>
  </scstep>
  <scstep>
   <time name="dav">   35.37   35.37</time>
   <time name="total">   40.09   40.10</time>
   <energy>
    <i name="e_fr_energy">   -522.29611071 </i>
    <i name="e_wo_entrp">   -522.29611071 </i>
    <i name="e_0_energy">   -522.29611071 </i>
   </energy>
  </scstep>
  <scstep>
   <time name="dav">   35.79   35.79</time>
   <time name="total">   40.51   40.52</time>
   <energy>
    <i name="e_fr_energy">   -522.29612244 </i>
    <i name="e_wo_entrp">   -522.29612244 </i>
    <i name="e_0_energy">   -522.29612244 </i>
   </energy>
  </scstep>
  <scstep>
   <time name="dav">   34.10   34.11</time>
   <time name="total">   38.96   38.97</time>
   <energy>
    <i name="e_fr_energy">   -522.29612722 </i>
    <i name="e_wo_entrp">   -522.29612722 </i>
    <i name="e_0_energy">   -522.29612722 </i>
   </energy>
  </scstep>
  <scstep>
   <time name="dav">   32.63   32.63</time>
   <time name="total">   37.46   37.47</time>
   <energy>
    <i name="e_fr_energy">   -522.29612839 </i>
    <i name="e_wo_entrp">   -522.29612839 </i>
    <i name="e_0_energy">   -522.29612839 </i>
   </energy>
  </scstep>
  <scstep>
   <time name="dav">   32.41   32.41</time>
   <time name="total">   33.22   33.23</time>
   <energy>
    <i name="alphaZ">    784.57699423 </i>
    <i name="ewald"> 249028.15788163 </i>
    <i name="hartreedc">-296995.42161727 </i>
    <i name="XCdc">   2488.01078919 </i>
    <i name="pawpsdc">  59218.42514357 </i>
    <i name="pawaedc"> -59049.58561144 </i>
    <i name="eentropy">     -0.00000000 </i>
    <i name="bandstr"> -12207.18364616 </i>
    <i name="atom">  56210.72393729 </i>
    <i name="e_fr_energy">   -522.29612897 </i>
    <i name="e_wo_entrp">   -522.29612897 </i>
    <i name="e_0_energy">   -522.29612897 </i>
   </energy>
  </scstep>
  <structure>
   <crystal>
    <varray name="basis" >
     <v>      13.79398668       0.00000000       0.00000000 </v>
     <v>      -6.89699334      11.94594288       0.00000000 </v>
     <v>       0.00000000       0.00000000      27.81022107 </v>
    </varray>
    <i name="volume">   4582.62876984 </i>
    <varray name="rec_basis" >
     <v>       0.07249536       0.04185521       0.00000000 </v>
     <v>       0.00000000       0.08371043       0.00000000 </v>
     <v>       0.00000000       0.00000000       0.03595800 </v>
    </varray>
   </crystal>
   <varray name="positions" >
    <v>       0.08616318       0.17398962       0.54284588 </v>
    <v>       0.08288766       0.40695956       0.54319005 </v>
    <v>       0.09107494       0.67466956       0.54541950 </v>
    <v>       0.08707460       0.91983637       0.54034495 </v>
    <v>       0.31876914       0.16193195       0.54993708 </v>
    <v>       0.34381294       0.43018834       0.53748139 </v>
    <v>       0.33591919       0.66718002       0.54718085 </v>
    <v>       0.33662767       0.92137954       0.54745947 </v>
    <v>       0.57938858       0.17423763       0.54698946 </v>
    <v>       0.58439797       0.41607270       0.54598323 </v>
    <v>       0.60650773       0.68749990       0.55168027 </v>
    <v>       0.59382041       0.92974516       0.55430559 </v>
    <v>       0.83285626       0.16636487       0.54591639 </v>
    <v>       0.83456965       0.42108012       0.54576204 </v>
    <v>       0.83826658       0.67011528       0.53826115 </v>
    <v>       0.83928643       0.93236825       0.54508973 </v>
    <v>       0.16277409       0.07110456       0.45717798 </v>
    <v>       0.17376756       0.33933129       0.44843039 </v>
    <v>       0.15700076       0.57678576       0.45381934 </v>
    <v>       0.16086775       0.82389194       0.45375625 </v>
    <v>       0.42688897       0.08569355       0.45593228 </v>
    <v>       0.41230039       0.32940235       0.45228403 </v>
    <v>       0.42684201       0.59440283       0.46056658 </v>
    <v>       0.42172826       0.83232178       0.45607407 </v>
    <v>       0.66321423       0.08453219       0.44831024 </v>
    <v>       0.65652973       0.31555776       0.45700817 </v>
    <v>       0.65853400       0.57078398       0.44971304 </v>
    <v>       0.66229536       0.83032502       0.45875276 </v>
    <v>       0.91716252       0.08997391       0.45044267 </v>
    <v>       0.90968466       0.33294349       0.45946528 </v>
    <v>       0.90285067       0.56450755       0.45638511 </v>
    <v>       0.91458974       0.83459257       0.45384173 </v>
    <v>       0.08214479       0.18147537       0.39144032 </v>
    <v>       0.06638838       0.41500515       0.39496668 </v>
    <v>       0.07346829       0.65820476       0.38960540 </v>
    <v>       0.08022757       0.91512617       0.38611659 </v>
    <v>       0.34613764       0.17303379       0.39459822 </v>
    <v>       0.33797955       0.40319296       0.39107303 </v>
    <v>       0.33896137       0.65419072       0.39216380 </v>
    <v>       0.32901794       0.92190834       0.39697953 </v>
    <v>       0.58716835       0.17776127       0.39826444 </v>
    <v>       0.58412973       0.41387652       0.39316471 </v>
    <v>       0.58313648       0.65952804       0.39314971 </v>
    <v>       0.58464728       0.91077444       0.39618682 </v>
    <v>       0.80704486       0.15811017       0.38422688 </v>
    <v>       0.84548308       0.41355018       0.39405234 </v>
    <v>       0.84420335       0.66121638       0.39141209 </v>
    <v>       0.82880245       0.92698438       0.39648641 </v>
    <v>       0.16153759       0.06679491       0.59912965 </v>
    <v>       0.16119254       0.33568454       0.60397436 </v>
    <v>       0.17057864       0.57379186       0.60338853 </v>
    <v>       0.16975337       0.81400781       0.60938065 </v>
    <v>       0.41082604       0.09840210       0.60860456 </v>
    <v>       0.40486111       0.32230057       0.61003537 </v>
    <v>       0.41994458       0.59515162       0.60420165 </v>
    <v>       0.42072831       0.85368055       0.61660513 </v>
    <v>       0.66600620       0.09265805       0.61376275 </v>
    <v>       0.66226872       0.33148997       0.61242040 </v>
    <v>       0.67452563       0.56270047       0.60410293 </v>
    <v>       0.68262244       0.83910597       0.61344527 </v>
    <v>       0.92860446       0.07784579       0.60752204 </v>
    <v>       0.90500441       0.33889505       0.60407163 </v>
    <v>       0.90032143       0.58271438       0.60526146 </v>
    <v>       0.93172158       0.83175835       0.60001979 </v>
    <v>       0.99410411       0.99527066       0.49752174 </v>
    <v>       0.98390928       0.24119991       0.50262489 </v>
    <v>       0.00801865       0.50610697       0.49462850 </v>
    <v>       0.00387278       0.74548868       0.49934019 </v>
    <v>       0.24107336       0.99465177       0.50291417 </v>
    <v>       0.24288846       0.25330507       0.49562023 </v>
    <v>       0.26076049       0.51510172       0.50040537 </v>
    <v>       0.24731409       0.75611478       0.50353182 </v>
    <v>       0.49565797       0.99879017       0.50005432 </v>
    <v>       0.49472339       0.25164406       0.50043675 </v>
    <v>       0.51414180       0.50545034       0.49806094 </v>
    <v>       0.49986003       0.74401209       0.50074917 </v>
    <v>       0.74689224       0.99440856       0.50591814 </v>
    <v>       0.73886187       0.25073078       0.49965737 </v>
    <v>       0.74649722       0.50224532       0.49963232 </v>
    <v>       0.74352642       0.74939673       0.50017816 </v>
   </varray>
  </structure>
  <varray name="forces" >
   <v>      -0.09639101      -0.42592807      -0.51725867 </v>
   <v>      -0.48304740       1.40063195      -0.08355816 </v>
   <v>      -0.34312327      -0.77056942      -0.27452904 </v>
   <v>      -0.47956216      -1.94303721       0.34858560 </v>
   <v>       1.50210566       1.00176429      -1.98369391 </v>
   <v>       0.17092098      -0.80486397       1.46690539 </v>
   <v>      -0.58837810       0.60633000      -0.48969204 </v>
   <v>      -0.24425625      -0.66720232      -0.21801458 </v>
   <v>       0.12220439      -0.38707089       0.19662861 </v>
   <v>      -0.59927660      -0.11938010      -0.85357867 </v>
   <v>      -0.31006988      -1.72583536      -0.98982577 </v>
   <v>      -0.60115511      -0.34606044      -0.96914526 </v>
   <v>      -0.51358720      -0.25589920       0.12622982 </v>
   <v>      -0.97081686       0.11185745      -0.02411674 </v>
   <v>      -0.26397900      -0.25568374       0.91941458 </v>
   <v>       1.00856754      -1.41811540      -0.18204155 </v>
   <v>      -0.06788752       0.89511529      -1.24237605 </v>
   <v>       0.24711635       0.09638823       0.56820063 </v>
   <v>       0.82201005       1.12471022      -0.24613112 </v>
   <v>       0.12749074       0.06555592       0.12048403 </v>
   <v>      -1.78995666      -0.56669370       0.78236974 </v>
   <v>       0.64704984       0.19601381       1.05028935 </v>
   <v>       0.26120689      -0.41878557      -1.65903310 </v>
   <v>      -0.83207869      -0.14946144       0.67235077 </v>
   <v>       0.41194909      -0.47252929       2.29438244 </v>
   <v>      -0.61170757       3.19334283       0.66596175 </v>
   <v>       0.49356034       1.03866171       1.06190632 </v>
   <v>       0.59305026       0.01020027       0.24224936 </v>
   <v>       0.13899266      -0.24582107       1.01715788 </v>
   <v>       0.23858441       0.09362766      -0.81270253 </v>
   <v>       0.36516060       1.71882840      -0.96813421 </v>
   <v>       0.00393354      -0.35731801      -0.48129534 </v>
   <v>      -0.00559242      -0.71400406       0.05901819 </v>
   <v>       0.93096467      -0.25703331       0.08113652 </v>
   <v>       0.55978229       0.42256142       0.75442412 </v>
   <v>      -0.09194617       0.27884605       1.15704629 </v>
   <v>      -0.36995181      -0.82275534       0.03349679 </v>
   <v>      -0.77806752       0.62081724      -0.07235557 </v>
   <v>      -0.44498837       0.40314363       0.58872623 </v>
   <v>       0.62984581      -0.24327615      -0.13450013 </v>
   <v>      -0.18811813      -1.15898214      -1.84308375 </v>
   <v>       0.18106567      -0.34367631      -0.19137490 </v>
   <v>      -0.14599692       0.45529031       0.18995707 </v>
   <v>      -0.47280615       0.01605605      -0.21694063 </v>
   <v>       0.86523410       0.25320468       0.79878032 </v>
   <v>      -1.08965898      -0.33117871       0.08077405 </v>
   <v>      -0.71371305       0.15399440       0.50411126 </v>
   <v>       0.28775114      -0.66555880      -0.25656703 </v>
   <v>      -1.09849008       0.54810715       1.74469807 </v>
   <v>       0.55545618      -0.34240241      -0.03785016 </v>
   <v>      -0.57408700       0.02358257       0.07652829 </v>
   <v>      -0.41467580       0.84487883      -0.05935941 </v>
   <v>       0.61958507      -0.73675219      -0.21787253 </v>
   <v>      -0.34288828       0.77206008      -0.72653376 </v>
   <v>       0.65223709      -0.47606646       0.31097658 </v>
   <v>       0.49007520      -0.31349315      -1.01647329 </v>
   <v>       0.27746751      -0.13297450      -0.79804672 </v>
   <v>       0.11632271      -0.17919599      -0.93971853 </v>
   <v>      -1.14029029       1.50924066       0.42802153 </v>
   <v>      -0.28362433       0.12380296      -0.28162834 </v>
   <v>      -0.49323050       0.62028185      -0.00623023 </v>
   <v>       0.97044344      -0.27624938       0.16429984 </v>
   <v>       1.13636701      -0.03374914      -0.32808413 </v>
   <v>      -0.81413223      -0.07356339       0.32866239 </v>
   <v>       0.24426315       0.85073379      -0.35262861 </v>
   <v>       0.74544790       0.56915572      -0.60565324 </v>
   <v>      -0.79709501      -1.72674901       1.64334762 </v>
   <v>      -0.73446992       0.32836016      -0.44490469 </v>
   <v>       0.73246756       0.99182375      -0.77968166 </v>
   <v>       0.15463902      -0.01635650       0.52410036 </v>
   <v>      -0.30181526      -1.51890345      -0.33892504 </v>
   <v>       0.84515479      -0.04781448      -0.75868849 </v>
   <v>       0.64381819       0.27987879       0.24871022 </v>
   <v>       0.77019835      -0.68031539       0.17373069 </v>
   <v>      -1.33052807      -0.97842913       0.49892929 </v>
   <v>      -0.21207571       1.42475631       0.87094486 </v>
   <v>      -0.76078138       1.02746445      -0.65698185 </v>
   <v>       1.23865698      -0.47101719       0.48541606 </v>
   <v>       0.83172529      -0.86550862      -0.12293201 </v>
   <v>       0.76142420       0.66519156      -0.09681145 </v>
  </varray>
  <varray name="stress" >
   <v>       1.55068388       0.17609847      -1.01978051 </v>
   <v>       0.17609849       4.76579208      -1.33870112 </v>
   <v>      -1.01978051      -1.33870115      -7.83784437 </v>
  </varray>
  <energy>
   <i name="e_fr_energy">   -522.29612897 </i>
   <i name="e_wo_entrp">   -522.29612897 </i>
   <i name="e_0_energy">     -0.00000000 </i>
  </energy>
  <time name="totalsc"> 1904.58 1904.94</time>
  <eigenvalues>
   <array>
    <dimension dim="1">band</dimension>
    <dimension dim="2">kpoint</dimension>
    <dimension dim="3">spin</dimension>
    <field>eigene</field>
    <field>occ</field>
    <set>
     <set comment="spin 1">
      <set comment="kpoint 1">
       <r>  -52.1077    1.0000 </r>
       <r>  -52.0735    1.0000 </r>
       <r>  -52.0145    1.0000 </r>
       <r>  -51.9887    1.0000 </r>
       <r>  -51.7646    1.0000 </r>
       <r>  -51.7501    1.0000 </r>
       <r>  -51.6944    1.0000 </r>
       <r>  -51.6933    1.0000 </r>
       <r>  -51.6706    1.0000 </r>
       <r>  -51.6425    1.0000 </r>
       <r>  -51.6174    1.0000 </r>
       <r>  -51.6096    1.0000 </r>
       <r>  -51.5841    1.0000 </r>
       <r>  -51.5266    1.0000 </r>
       <r>  -51.4714    1.0000 </r>
       <r>  -51.4629    1.0000 </r>
       <r>  -51.4405    1.0000 </r>
       <r>  -51.4312    1.0000 </r>
       <r>  -51.4198    1.0000 </r>
       <r>  -51.3780    1.0000 </r>
       <r>  -51.3130    1.0000 </r>
       <r>  -51.3036    1.0000 </r>
       <r>  -51.2730    1.0000 </r>
       <r>  -51.2486    1.0000 </r>
       <r>  -51.2191    1.0000 </r>
       <r>  -51.1975    1.0000 </r>
       <r>  -51.1009    1.0000 </r>
       <r>  -51.0978    1.0000 </r>
       <r>  -51.0837    1.0000 </r>
       <r>  -50.9862    1.0000 </r>
       <r>  -50.9370    1.0000 </r>
       <r>  -50.9219    1.0000 </r>
       <r>  -30.8324    1.0000 </r>
       <r>  -30.7652    1.0000 </r>
       <r>  -30.7589    1.0000 </r>
       <r>  -30.7234    1.0000 </r>
       <r>  -30.7122    1.0000 </r>
       <r>  -30.6899    1.0000 </r>
       <r>  -30.6744    1.0000 </r>
       <r>  -30.6527    1.0000 </r>
       <r>  -30.6393    1.0000 </r>
       <r>  -30.6363    1.0000 </r>
       <r>  -30.6308    1.0000 </r>
       <r>  -30.5830    1.0000 </r>
       <r>  -30.4935    1.0000 </r>
       <r>  -30.4628    1.0000 </r>
       <r>  -30.4395    1.0000 </r>
       <r>  -30.4351    1.0000 </r>
       <r>  -30.4320    1.0000 </r>
       <r>  -30.4065    1.0000 </r>
       <r>  -30.3891    1.0000 </r>
       <r>  -30.3826    1.0000 </r>
       <r>  -30.3643    1.0000 </r>
       <r>  -30.3549    1.0000 </r>
       <r>  -30.3414    1.0000 </r>
       <r>  -30.3309    1.0000 </r>
       <r>  -30.3241    1.0000 </r>
       <r>  -30.3232    1.0000 </r>
       <r>  -30.3170    1.0000 </r>
       <r>  -30.3161    1.0000 </r>
       <r>  -30.3059    1.0000 </r>
       <r>  -30.3024    1.0000 </r>
       <r>  -30.2995    1.0000 </r>
       <r>  -30.2902    1.0000 </r>
       <r>  -30.2839    1.0000 </r>
       <r>  -30.2646    1.0000 </r>
       <r>  -30.2612    1.0000 </r>
       <r>  -30.2517    1.0000 </r>
       <r>  -30.2381    1.0000 </r>
       <r>  -30.2208    1.0000 </r>
       <r>  -30.2191    1.0000 </r>
       <r>  -30.2154    1.0000 </r>
       <r>  -30.2046    1.0000 </r>
       <r>  -30.2008    1.0000 </r>
       <r>  -30.1713    1.0000 </r>
       <r>  -30.1536    1.0000 </r>
       <r>  -30.1429    1.0000 </r>
       <r>  -30.1122    1.0000 </r>
       <r>  -30.1077    1.0000 </r>
       <r>  -30.1033    1.0000 </r>
       <r>  -30.0940    1.0000 </r>
       <r>  -30.0934    1.0000 </r>
       <r>  -30.0888    1.0000 </r>
       <r>  -30.0866    1.0000 </r>
       <r>  -30.0788    1.0000 </r>
       <r>  -30.0738    1.0000 </r>
       <r>  -30.0654    1.0000 </r>
       <r>  -30.0549    1.0000 </r>
       <r>  -30.0414    1.0000 </r>
       <r>  -30.0385    1.0000 </r>
       <r>  -30.0347    1.0000 </r>
       <r>  -30.0323    1.0000 </r>
       <r>  -30.0015    1.0000 </r>
       <r>  -29.9860    1.0000 </r>
       <r>  -29.9753    1.0000 </r>
       <r>  -29.9657    1.0000 </r>
       <r>  -29.9561    1.0000 </r>
       <r>  -29.9502    1.0000 </r>
       <r>  -29.9473    1.0000 </r>
       <r>  -29.9345    1.0000 </r>
       <r>  -29.9266    1.0000 </r>
       <r>  -29.9171    1.0000 </r>
       <r>  -29.9139    1.0000 </r>
       <r>  -29.9101    1.0000 </r>
       <r>  -29.9064    1.0000 </r>
       <r>  -29.8893    1.0000 </r>
       <r>  -29.8702    1.0000 </r>
       <r>  -29.8597    1.0000 </r>
       <r>  -29.8568    1.0000 </r>
       <r>  -29.8448    1.0000 </r>
       <r>  -29.8293    1.0000 </r>
       <r>  -29.7871    1.0000 </r>
       <r>  -29.7797    1.0000 </r>
       <r>  -29.7675    1.0000 </r>
       <r>  -29.7516    1.0000 </r>
       <r>  -29.7425    1.0000 </r>
       <r>  -29.7280    1.0000 </r>
       <r>  -29.7206    1.0000 </r>
       <r>  -29.6898    1.0000 </r>
       <r>  -29.6735    1.0000 </r>
       <r>  -29.6502    1.0000 </r>
       <r>  -29.6251    1.0000 </r>
       <r>  -29.6210    1.0000 </r>
       <r>  -29.6043    1.0000 </r>
       <r>  -29.6007    1.0000 </r>
       <r>  -29.5894    1.0000 </r>
       <r>  -29.5735    1.0000 </r>
       <r>  -29.5563    1.0000 </r>
       <r>  -19.1112    1.0000 </r>
       <r>  -18.7472    1.0000 </r>
       <r>  -18.5785    1.0000 </r>
       <r>  -18.4307    1.0000 </r>
       <r>  -18.3613    1.0000 </r>
       <r>  -18.3261    1.0000 </r>
       <r>  -18.2546    1.0000 </r>
       <r>  -18.2363    1.0000 </r>
       <r>  -18.2132    1.0000 </r>
       <r>  -18.1930    1.0000 </r>
       <r>  -18.1269    1.0000 </r>
       <r>  -18.1177    1.0000 </r>
       <r>  -18.0847    1.0000 </r>
       <r>  -18.0732    1.0000 </r>
       <r>  -18.0400    1.0000 </r>
       <r>  -17.9569    1.0000 </r>
       <r>  -17.9285    1.0000 </r>
       <r>  -17.9223    1.0000 </r>
       <r>  -17.9059    1.0000 </r>
       <r>  -17.8739    1.0000 </r>
       <r>  -17.7935    1.0000 </r>
       <r>  -17.7715    1.0000 </r>
       <r>  -17.7637    1.0000 </r>
       <r>  -17.6324    1.0000 </r>
       <r>  -17.6308    1.0000 </r>
       <r>  -17.5939    1.0000 </r>
       <r>  -17.5638    1.0000 </r>
       <r>  -17.5314    1.0000 </r>
       <r>  -17.5279    1.0000 </r>
       <r>  -17.4544    1.0000 </r>
       <r>  -17.4341    1.0000 </r>
       <r>  -17.3411    1.0000 </r>
       <r>  -11.8199    1.0000 </r>
       <r>  -11.4807    1.0000 </r>
       <r>  -11.4250    1.0000 </r>
       <r>  -11.3877    1.0000 </r>
       <r>  -11.3464    1.0000 </r>
       <r>  -11.2740    1.0000 </r>
       <r>  -11.2602    1.0000 </r>
       <r>  -11.0445    1.0000 </r>
       <r>  -10.9745    1.0000 </r>
       <r>  -10.9093    1.0000 </r>
       <r>  -10.9019    1.0000 </r>
       <r>  -10.8466    1.0000 </r>
       <r>  -10.7506    1.0000 </r>
       <r>  -10.7316    1.0000 </r>
       <r>  -10.6776    1.0000 </r>
       <r>  -10.6356    1.0000 </r>
       <r>   -8.2279    1.0000 </r>
       <r>   -8.1341    1.0000 </r>
       <r>   -8.0286    1.0000 </r>
       <r>   -7.9234    1.0000 </r>
       <r>   -7.8511    1.0000 </r>
       <r>   -7.7933    1.0000 </r>
       <r>   -7.7753    1.0000 </r>
       <r>   -7.6073    1.0000 </r>
       <r>   -7.5803    1.0000 </r>
       <r>   -7.5398    1.0000 </r>
       <r>   -7.5169    1.0000 </r>
       <r>   -7.5076    1.0000 </r>
       <r>   -7.4724    1.0000 </r>
       <r>   -7.4271    1.0000 </r>
       <r>   -7.4209    1.0000 </r>
       <r>   -7.3477    1.0000 </r>
       <r>   -7.3060    1.0000 </r>
       <r>   -7.2924    1.0000 </r>
       <r>   -7.2529    1.0000 </r>
       <r>   -7.2496    1.0000 </r>
       <r>   -7.1529    1.0000 </r>
       <r>   -7.1370    1.0000 </r>
       <r>   -7.0609    1.0000 </r>
       <r>   -7.0181    1.0000 </r>
       <r>   -6.9833    1.0000 </r>
       <r>   -6.9804    1.0000 </r>
       <r>   -6.9613    1.0000 </r>
       <r>   -6.9216    1.0000 </r>
       <r>   -6.9051    1.0000 </r>
       <r>   -6.8742    1.0000 </r>
       <r>   -6.8571    1.0000 </r>
       <r>   -6.8531    1.0000 </r>
       <r>   -6.8130    1.0000 </r>
       <r>   -6.8064    1.0000 </r>
       <r>   -6.7687    1.0000 </r>
       <r>   -6.7534    1.0000 </r>
       <r>   -6.7303    1.0000 </r>
       <r>   -6.7233    1.0000 </r>
       <r>   -6.6927    1.0000 </r>
       <r>   -6.6634    1.0000 </r>
       <r>   -6.6562    1.0000 </r>
       <r>   -6.6507    1.0000 </r>
       <r>   -6.6460    1.0000 </r>
       <r>   -6.6089    1.0000 </r>
       <r>   -6.6000    1.0000 </r>
       <r>   -6.5711    1.0000 </r>
       <r>   -6.5584    1.0000 </r>
       <r>   -6.5485    1.0000 </r>
       <r>   -6.5342    1.0000 </r>
       <r>   -6.5169    1.0000 </r>
       <r>   -6.5077    1.0000 </r>
       <r>   -6.4859    1.0000 </r>
       <r>   -6.4716    1.0000 </r>
       <r>   -6.4486    1.0000 </r>
       <r>   -6.4191    1.0000 </r>
       <r>   -6.4093    1.0000 </r>
       <r>   -6.3901    1.0000 </r>
       <r>   -6.3664    1.0000 </r>
       <r>   -6.3380    1.0000 </r>
       <r>   -6.3258    1.0000 </r>
       <r>   -6.3213    1.0000 </r>
       <r>   -6.3121    1.0000 </r>
       <r>   -6.2965    1.0000 </r>
       <r>   -6.2712    1.0000 </r>
       <r>   -6.2331    1.0000 </r>
       <r>   -6.2249    1.0000 </r>
       <r>   -6.2008    1.0000 </r>
       <r>   -6.1859    1.0000 </r>
       <r>   -6.1791    1.0000 </r>
       <r>   -6.1347    1.0000 </r>
       <r>   -6.1127    1.0000 </r>
       <r>   -6.0798    1.0000 </r>
       <r>   -6.0401    1.0000 </r>
       <r>   -5.9877    1.0000 </r>
       <r>   -5.8598    1.0000 </r>
       <r>   -5.8402    1.0000 </r>
       <r>   -5.7554    1.0000 </r>
       <r>   -5.7488    1.0000 </r>
       <r>   -5.6600    1.0000 </r>
       <r>   -5.6124    1.0000 </r>
       <r>   -5.5695    1.0000 </r>
       <r>   -5.5558    1.0000 </r>
       <r>   -5.5265    1.0000 </r>
       <r>   -5.4888    1.0000 </r>
       <r>   -5.4725    1.0000 </r>
       <r>   -5.3984    1.0000 </r>
       <r>   -5.3335    1.0000 </r>
       <r>   -5.2872    1.0000 </r>
       <r>   -5.2643    1.0000 </r>
       <r>   -5.2258    1.0000 </r>
       <r>   -5.1550    1.0000 </r>
       <r>   -5.1252    1.0000 </r>
       <r>   -5.0538    1.0000 </r>
       <r>   -4.9909    1.0000 </r>
       <r>   -4.9845    1.0000 </r>
       <r>   -4.9570    1.0000 </r>
       <r>   -4.8966    1.0000 </r>
       <r>   -4.8769    1.0000 </r>
       <r>   -4.8563    1.0000 </r>
       <r>   -4.6860    1.0000 </r>
       <r>   -4.6387    1.0000 </r>
       <r>   -4.5821    1.0000 </r>
       <r>   -4.5557    1.0000 </r>
       <r>   -4.5449    1.0000 </r>
       <r>   -4.4955    1.0000 </r>
       <r>   -4.2901    1.0000 </r>
       <r>   -4.2462    1.0000 </r>
       <r>   -4.2078    1.0000 </r>
       <r>   -4.1827    1.0000 </r>
       <r>   -4.1413    1.0000 </r>
       <r>   -4.1127    1.0000 </r>
       <r>   -4.1000    1.0000 </r>
       <r>   -4.0790    1.0000 </r>
       <r>   -4.0401    1.0000 </r>
       <r>   -4.0048    1.0000 </r>
       <r>   -3.9832    1.0000 </r>
       <r>   -3.9761    1.0000 </r>
       <r>   -3.9538    1.0000 </r>
       <r>   -3.9361    1.0000 </r>
       <r>   -3.8843    1.0000 </r>
       <r>   -3.8719    1.0000 </r>
       <r>   -3.8513    1.0000 </r>
       <r>   -3.8302    1.0000 </r>
       <r>   -3.7622    1.0000 </r>
       <r>   -3.7520    1.0000 </r>
       <r>   -3.6749    1.0000 </r>
       <r>   -3.6624    1.0000 </r>
       <r>   -3.6318    1.0000 </r>
       <r>   -3.6132    1.0000 </r>
       <r>   -3.5688    1.0000 </r>
       <r>   -3.5246    1.0000 </r>
       <r>   -3.4650    1.0000 </r>
       <r>   -3.3794    1.0000 </r>
       <r>   -3.3545    1.0000 </r>
       <r>   -3.2841    1.0000 </r>
       <r>   -3.2643    1.0000 </r>
       <r>   -3.2366    1.0000 </r>
       <r>   -3.1909    1.0000 </r>
       <r>   -3.1471    1.0000 </r>
       <r>   -3.1154    1.0000 </r>
       <r>   -3.0926    1.0000 </r>
       <r>   -2.9906    1.0000 </r>
       <r>   -2.9673    1.0000 </r>
       <r>   -2.8736    1.0000 </r>
       <r>   -2.1177    0.0000 </r>
       <r>   -2.0702    0.0000 </r>
       <r>   -2.0615    0.0000 </r>
       <r>   -1.5557    0.0000 </r>
       <r>   -1.5354    0.0000 </r>
       <r>   -1.5002    0.0000 </r>
       <r>   -1.4195    0.0000 </r>
       <r>   -1.3690    0.0000 </r>
       <r>   -1.3185    0.0000 </r>
       <r>   -0.8160    0.0000 </r>
       <r>   -0.7735    0.0000 </r>
       <r>   -0.6986    0.0000 </r>
       <r>   -0.6541    0.0000 </r>
       <r>   -0.6099    0.0000 </r>
       <r>   -0.5718    0.0000 </r>
       <r>   -0.5529    0.0000 </r>
       <r>   -0.5368    0.0000 </r>
       <r>   -0.4946    0.0000 </r>
       <r>   -0.4846    0.0000 </r>
       <r>   -0.4698    0.0000 </r>
       <r>   -0.4258    0.0000 </r>
       <r>   -0.4106    0.0000 </r>
       <r>   -0.3959    0.0000 </r>
       <r>   -0.3430    0.0000 </r>
       <r>   -0.1138    0.0000 </r>
       <r>   -0.0568    0.0000 </r>
       <r>   -0.0198    0.0000 </r>
       <r>    0.0125    0.0000 </r>
       <r>    0.0777    0.0000 </r>
       <r>    0.0790    0.0000 </r>
       <r>    0.1087    0.0000 </r>
       <r>    0.1608    0.0000 </r>
       <r>    0.1951    0.0000 </r>
       <r>    0.2112    0.0000 </r>
       <r>    0.2224    0.0000 </r>
       <r>    0.2637    0.0000 </r>
       <r>    0.2809    0.0000 </r>
       <r>    0.3281    0.0000 </r>
       <r>    0.3584    0.0000 </r>
       <r>    0.3675    0.0000 </r>
       <r>    0.4368    0.0000 </r>
       <r>    0.4448    0.0000 </r>
       <r>    0.4689    0.0000 </r>
       <r>    0.5329    0.0000 </r>
       <r>    0.5474    0.0000 </r>
       <r>    0.5623    0.0000 </r>
       <r>    0.5823    0.0000 </r>
       <r>    0.6222    0.0000 </r>
       <r>    0.6415    0.0000 </r>
       <r>    0.6764    0.0000 </r>
       <r>    0.7021    0.0000 </r>
       <r>    0.7205    0.0000 </r>
       <r>    0.7410    0.0000 </r>
       <r>    0.7564    0.0000 </r>
       <r>    0.7721    0.0000 </r>
       <r>    0.7776    0.0000 </r>
       <r>    0.7963    0.0000 </r>
       <r>    0.8203    0.0000 </r>
       <r>    0.8309    0.0000 </r>
       <r>    0.8707    0.0000 </r>
       <r>    0.8925    0.0000 </r>
       <r>    0.9031    0.0000 </r>
       <r>    0.9428    0.0000 </r>
       <r>    0.9817    0.0000 </r>
      </set>
      <set comment="kpoint 2">
       <r>  -52.1077    1.0000 </r>
       <r>  -52.0735    1.0000 </r>
       <r>  -52.0145    1.0000 </r>
       <r>  -51.9887    1.0000 </r>
       <r>  -51.7646    1.0000 </r>
       <r>  -51.7501    1.0000 </r>
       <r>  -51.6944    1.0000 </r>
       <r>  -51.6933    1.0000 </r>
       <r>  -51.6706    1.0000 </r>
       <r>  -51.6425    1.0000 </r>
       <r>  -51.6174    1.0000 </r>
       <r>  -51.6096    1.0000 </r>
       <r>  -51.5841    1.0000 </r>
       <r>  -51.5266    1.0000 </r>
       <r>  -51.4714    1.0000 </r>
       <r>  -51.4629    1.0000 </r>
       <r>  -51.4405    1.0000 </r>
       <r>  -51.4312    1.0000 </r>
       <r>  -51.4198    1.0000 </r>
       <r>  -51.3780    1.0000 </r>
       <r>  -51.3130    1.0000 </r>
       <r>  -51.3036    1.0000 </r>
       <r>  -51.2730    1.0000 </r>
       <r>  -51.2486    1.0000 </r>
       <r>  -51.2191    1.0000 </r>
       <r>  -51.1975    1.0000 </r>
       <r>  -51.1009    1.0000 </r>
       <r>  -51.0978    1.0000 </r>
       <r>  -51.0837    1.0000 </r>
       <r>  -50.9862    1.0000 </r>
       <r>  -50.9370    1.0000 </r>
       <r>  -50.9219    1.0000 </r>
       <r>  -30.8323    1.0000 </r>
       <r>  -30.7652    1.0000 </r>
       <r>  -30.7588    1.0000 </r>
       <r>  -30.7232    1.0000 </r>
       <r>  -30.7123    1.0000 </r>
       <r>  -30.6899    1.0000 </r>
       <r>  -30.6745    1.0000 </r>
       <r>  -30.6528    1.0000 </r>
       <r>  -30.6393    1.0000 </r>
       <r>  -30.6363    1.0000 </r>
       <r>  -30.6307    1.0000 </r>
       <r>  -30.5830    1.0000 </r>
       <r>  -30.4936    1.0000 </r>
       <r>  -30.4609    1.0000 </r>
       <r>  -30.4412    1.0000 </r>
       <r>  -30.4340    1.0000 </r>
       <r>  -30.4318    1.0000 </r>
       <r>  -30.4081    1.0000 </r>
       <r>  -30.3896    1.0000 </r>
       <r>  -30.3830    1.0000 </r>
       <r>  -30.3642    1.0000 </r>
       <r>  -30.3546    1.0000 </r>
       <r>  -30.3408    1.0000 </r>
       <r>  -30.3311    1.0000 </r>
       <r>  -30.3247    1.0000 </r>
       <r>  -30.3236    1.0000 </r>
       <r>  -30.3171    1.0000 </r>
       <r>  -30.3153    1.0000 </r>
       <r>  -30.3066    1.0000 </r>
       <r>  -30.3032    1.0000 </r>
       <r>  -30.3013    1.0000 </r>
       <r>  -30.2921    1.0000 </r>
       <r>  -30.2835    1.0000 </r>
       <r>  -30.2621    1.0000 </r>
       <r>  -30.2538    1.0000 </r>
       <r>  -30.2508    1.0000 </r>
       <r>  -30.2385    1.0000 </r>
       <r>  -30.2233    1.0000 </r>
       <r>  -30.2196    1.0000 </r>
       <r>  -30.2183    1.0000 </r>
       <r>  -30.2045    1.0000 </r>
       <r>  -30.2022    1.0000 </r>
       <r>  -30.1705    1.0000 </r>
       <r>  -30.1539    1.0000 </r>
       <r>  -30.1434    1.0000 </r>
       <r>  -30.1123    1.0000 </r>
       <r>  -30.1081    1.0000 </r>
       <r>  -30.1025    1.0000 </r>
       <r>  -30.0950    1.0000 </r>
       <r>  -30.0932    1.0000 </r>
       <r>  -30.0879    1.0000 </r>
       <r>  -30.0844    1.0000 </r>
       <r>  -30.0786    1.0000 </r>
       <r>  -30.0738    1.0000 </r>
       <r>  -30.0644    1.0000 </r>
       <r>  -30.0558    1.0000 </r>
       <r>  -30.0409    1.0000 </r>
       <r>  -30.0389    1.0000 </r>
       <r>  -30.0351    1.0000 </r>
       <r>  -30.0323    1.0000 </r>
       <r>  -30.0015    1.0000 </r>
       <r>  -29.9860    1.0000 </r>
       <r>  -29.9756    1.0000 </r>
       <r>  -29.9658    1.0000 </r>
       <r>  -29.9564    1.0000 </r>
       <r>  -29.9500    1.0000 </r>
       <r>  -29.9472    1.0000 </r>
       <r>  -29.9333    1.0000 </r>
       <r>  -29.9276    1.0000 </r>
       <r>  -29.9173    1.0000 </r>
       <r>  -29.9134    1.0000 </r>
       <r>  -29.9112    1.0000 </r>
       <r>  -29.9063    1.0000 </r>
       <r>  -29.8895    1.0000 </r>
       <r>  -29.8703    1.0000 </r>
       <r>  -29.8599    1.0000 </r>
       <r>  -29.8570    1.0000 </r>
       <r>  -29.8444    1.0000 </r>
       <r>  -29.8294    1.0000 </r>
       <r>  -29.7868    1.0000 </r>
       <r>  -29.7795    1.0000 </r>
       <r>  -29.7673    1.0000 </r>
       <r>  -29.7517    1.0000 </r>
       <r>  -29.7426    1.0000 </r>
       <r>  -29.7277    1.0000 </r>
       <r>  -29.7210    1.0000 </r>
       <r>  -29.6893    1.0000 </r>
       <r>  -29.6733    1.0000 </r>
       <r>  -29.6502    1.0000 </r>
       <r>  -29.6248    1.0000 </r>
       <r>  -29.6212    1.0000 </r>
       <r>  -29.6043    1.0000 </r>
       <r>  -29.6006    1.0000 </r>
       <r>  -29.5894    1.0000 </r>
       <r>  -29.5740    1.0000 </r>
       <r>  -29.5566    1.0000 </r>
       <r>  -19.1110    1.0000 </r>
       <r>  -18.7459    1.0000 </r>
       <r>  -18.5771    1.0000 </r>
       <r>  -18.4242    1.0000 </r>
       <r>  -18.3667    1.0000 </r>
       <r>  -18.3461    1.0000 </r>
       <r>  -18.2674    1.0000 </r>
       <r>  -18.2346    1.0000 </r>
       <r>  -18.2213    1.0000 </r>
       <r>  -18.1498    1.0000 </r>
       <r>  -18.1225    1.0000 </r>
       <r>  -18.1165    1.0000 </r>
       <r>  -18.0841    1.0000 </r>
       <r>  -18.0683    1.0000 </r>
       <r>  -18.0609    1.0000 </r>
       <r>  -17.9627    1.0000 </r>
       <r>  -17.9207    1.0000 </r>
       <r>  -17.9117    1.0000 </r>
       <r>  -17.9022    1.0000 </r>
       <r>  -17.8784    1.0000 </r>
       <r>  -17.7938    1.0000 </r>
       <r>  -17.7720    1.0000 </r>
       <r>  -17.7638    1.0000 </r>
       <r>  -17.6483    1.0000 </r>
       <r>  -17.6369    1.0000 </r>
       <r>  -17.5867    1.0000 </r>
       <r>  -17.5687    1.0000 </r>
       <r>  -17.5268    1.0000 </r>
       <r>  -17.5245    1.0000 </r>
[...]
       <r>   -32.5701     0.0000    64.0000 </r>
       <r>   -32.3755     0.0000    64.0000 </r>
       <r>   -32.1808     0.0000    64.0000 </r>
       <r>   -31.9861     0.0000    64.0000 </r>
       <r>   -31.7915     0.0000    64.0000 </r>
       <r>   -31.5968     0.0000    64.0000 </r>
       <r>   -31.4021     0.0000    64.0000 </r>
       <r>   -31.2075     0.0000    64.0000 </r>
       <r>   -31.0128     0.0000    64.0000 </r>
       <r>   -30.8181     7.9619    65.5499 </r>
       <r>   -30.6235    91.7490    83.4105 </r>
       <r>   -30.4288    65.5403    96.1690 </r>
       <r>   -30.2341   214.6887   137.9619 </r>
       <r>   -30.0395   204.6861   177.8076 </r>
       <r>   -29.8448   203.9305   217.5063 </r>
       <r>   -29.6501   123.2855   241.5060 </r>
       <r>   -29.4555    74.4282   255.9947 </r>
       <r>   -29.2608     0.0273   256.0000 </r>
       <r>   -29.0661     0.0000   256.0000 </r>
       <r>   -28.8715     0.0000   256.0000 </r>
       <r>   -28.6768     0.0000   256.0000 </r>
       <r>   -28.4821     0.0000   256.0000 </r>
       <r>   -28.2875     0.0000   256.0000 </r>
       <r>   -28.0928     0.0000   256.0000 </r>
       <r>   -27.8981     0.0000   256.0000 </r>
       <r>   -27.7035     0.0000   256.0000 </r>
       <r>   -27.5088     0.0000   256.0000 </r>
       <r>   -27.3141     0.0000   256.0000 </r>
       <r>   -27.1195     0.0000   256.0000 </r>
       <r>   -26.9248     0.0000   256.0000 </r>
       <r>   -26.7301     0.0000   256.0000 </r>
       <r>   -26.5355     0.0000   256.0000 </r>
       <r>   -26.3408     0.0000   256.0000 </r>
       <r>   -26.1461     0.0000   256.0000 </r>
       <r>   -25.9515     0.0000   256.0000 </r>
       <r>   -25.7568     0.0000   256.0000 </r>
       <r>   -25.5621     0.0000   256.0000 </r>
       <r>   -25.3675     0.0000   256.0000 </r>
       <r>   -25.1728     0.0000   256.0000 </r>
       <r>   -24.9781     0.0000   256.0000 </r>
       <r>   -24.7834     0.0000   256.0000 </r>
       <r>   -24.5888     0.0000   256.0000 </r>
       <r>   -24.3941     0.0000   256.0000 </r>
       <r>   -24.1994     0.0000   256.0000 </r>
       <r>   -24.0048     0.0000   256.0000 </r>
       <r>   -23.8101     0.0000   256.0000 </r>
       <r>   -23.6154     0.0000   256.0000 </r>
       <r>   -23.4208     0.0000   256.0000 </r>
       <r>   -23.2261     0.0000   256.0000 </r>
       <r>   -23.0314     0.0000   256.0000 </r>
       <r>   -22.8368     0.0000   256.0000 </r>
       <r>   -22.6421     0.0000   256.0000 </r>
       <r>   -22.4474     0.0000   256.0000 </r>
       <r>   -22.2528     0.0000   256.0000 </r>
       <r>   -22.0581     0.0000   256.0000 </r>
       <r>   -21.8634     0.0000   256.0000 </r>
       <r>   -21.6688     0.0000   256.0000 </r>
       <r>   -21.4741     0.0000   256.0000 </r>
       <r>   -21.2794     0.0000   256.0000 </r>
       <r>   -21.0848     0.0000   256.0000 </r>
       <r>   -20.8901     0.0000   256.0000 </r>
       <r>   -20.6954     0.0000   256.0000 </r>
       <r>   -20.5008     0.0000   256.0000 </r>
       <r>   -20.3061     0.0000   256.0000 </r>
       <r>   -20.1114     0.0000   256.0000 </r>
       <r>   -19.9168     0.0000   256.0000 </r>
       <r>   -19.7221     0.0000   256.0000 </r>
       <r>   -19.5274     0.0000   256.0000 </r>
       <r>   -19.3328     0.0000   256.0000 </r>
       <r>   -19.1381     2.2716   256.4422 </r>
       <r>   -18.9434     8.0023   258.0000 </r>
       <r>   -18.7488     4.8153   258.9374 </r>
       <r>   -18.5541    13.1696   261.5011 </r>
       <r>   -18.3594    21.7659   265.7382 </r>
       <r>   -18.1648    48.6748   275.2136 </r>
       <r>   -17.9701    61.4010   287.1664 </r>
       <r>   -17.7754    61.3990   299.1187 </r>
       <r>   -17.5808    45.2461   307.9267 </r>
       <r>   -17.3861    51.5848   317.9686 </r>
       <r>   -17.1914    10.4353   320.0000 </r>
       <r>   -16.9968     0.0001   320.0000 </r>
       <r>   -16.8021     0.0000   320.0000 </r>
       <r>   -16.6074     0.0000   320.0000 </r>
       <r>   -16.4127     0.0000   320.0000 </r>
       <r>   -16.2181     0.0000   320.0000 </r>
       <r>   -16.0234     0.0000   320.0000 </r>
       <r>   -15.8287     0.0000   320.0000 </r>
       <r>   -15.6341     0.0000   320.0000 </r>
       <r>   -15.4394     0.0000   320.0000 </r>
       <r>   -15.2447     0.0000   320.0000 </r>
       <r>   -15.0501     0.0000   320.0000 </r>
       <r>   -14.8554     0.0000   320.0000 </r>
       <r>   -14.6607     0.0000   320.0000 </r>
       <r>   -14.4661     0.0000   320.0000 </r>
       <r>   -14.2714     0.0000   320.0000 </r>
       <r>   -14.0767     0.0000   320.0000 </r>
       <r>   -13.8821     0.0000   320.0000 </r>
       <r>   -13.6874     0.0000   320.0000 </r>
       <r>   -13.4927     0.0000   320.0000 </r>
       <r>   -13.2981     0.0000   320.0000 </r>
       <r>   -13.1034     0.0000   320.0000 </r>
       <r>   -12.9087     0.0000   320.0000 </r>
       <r>   -12.7141     0.0000   320.0000 </r>
       <r>   -12.5194     0.0000   320.0000 </r>
       <r>   -12.3247     0.0000   320.0000 </r>
       <r>   -12.1301     0.0000   320.0000 </r>
       <r>   -11.9354     0.0007   320.0001 </r>
       <r>   -11.7407     8.6504   321.6841 </r>
       <r>   -11.5461    11.3928   323.9019 </r>
       <r>   -11.3514    19.0660   327.6134 </r>
       <r>   -11.1567    24.6787   332.4176 </r>
       <r>   -10.9621    32.1677   338.6796 </r>
       <r>   -10.7674    33.5415   345.2090 </r>
       <r>   -10.5727    33.3135   351.6941 </r>
       <r>   -10.3781     1.5716   352.0000 </r>
       <r>   -10.1834     0.0000   352.0000 </r>
       <r>    -9.9887     0.0000   352.0000 </r>
       <r>    -9.7941     0.0000   352.0000 </r>
       <r>    -9.5994     0.0000   352.0000 </r>
       <r>    -9.4047     0.0000   352.0000 </r>
       <r>    -9.2101     0.0000   352.0000 </r>
       <r>    -9.0154     0.0000   352.0000 </r>
       <r>    -8.8207     0.0000   352.0000 </r>
       <r>    -8.6261     0.0000   352.0000 </r>
       <r>    -8.4314     0.0000   352.0000 </r>
       <r>    -8.2367     1.7477   352.3402 </r>
       <r>    -8.0420    18.0286   355.8498 </r>
       <r>    -7.8474    19.7216   359.6890 </r>
       <r>    -7.6527    36.0812   366.7128 </r>
       <r>    -7.4580    58.7642   378.1523 </r>
       <r>    -7.2634    58.3821   389.5174 </r>
       <r>    -7.0687    54.5417   400.1348 </r>
       <r>    -6.8740    80.2192   415.7509 </r>
       <r>    -6.6794    91.6376   433.5898 </r>
       <r>    -6.4847    97.1703   452.5057 </r>
       <r>    -6.2900    92.7192   470.5551 </r>
       <r>    -6.0954    88.5047   487.7841 </r>
       <r>    -5.9007    55.5566   498.5991 </r>
       <r>    -5.7060    52.6428   508.8470 </r>
       <r>    -5.5114    52.0734   518.9840 </r>
       <r>    -5.3167    45.9706   527.9329 </r>
       <r>    -5.1220    42.1632   536.1407 </r>
       <r>    -4.9274    39.2355   543.7786 </r>
       <r>    -4.7327    33.9123   550.3802 </r>
       <r>    -4.5380    41.0178   558.3651 </r>
       <r>    -4.3434    33.3063   564.8487 </r>
       <r>    -4.1487    37.7381   572.1951 </r>
       <r>    -3.9540    56.0768   583.1114 </r>
       <r>    -3.7594    65.7799   595.9166 </r>
       <r>    -3.5647    74.5402   610.4272 </r>
       <r>    -3.3700    53.9814   620.9356 </r>
       <r>    -3.1754    52.7697   631.2081 </r>
       <r>    -2.9807    34.4192   637.9084 </r>
       <r>    -2.7860    10.7361   639.9984 </r>
       <r>    -2.5914     0.0081   640.0000 </r>
       <r>    -2.3967     0.0000   640.0000 </r>
       <r>    -2.2020     0.0099   640.0019 </r>
       <r>    -2.0074     8.3389   641.6252 </r>
       <r>    -1.8127    14.6041   644.4682 </r>
       <r>    -1.6180    18.1492   648.0012 </r>
       <r>    -1.4234    19.0399   651.7077 </r>
       <r>    -1.2287    17.4762   655.1097 </r>
       <r>    -1.0340    30.0409   660.9577 </r>
       <r>    -0.8394    21.1876   665.0823 </r>
       <r>    -0.6447    24.8128   669.9125 </r>
       <r>    -0.4500    40.3297   677.7634 </r>
       <r>    -0.2554    33.5085   684.2864 </r>
       <r>    -0.0607    29.7702   690.0817 </r>
       <r>     0.1340    43.9696   698.6411 </r>
       <r>     0.3286    60.1427   710.3490 </r>
       <r>     0.5233    80.3250   725.9856 </r>
       <r>     0.7180    89.6218   743.4321 </r>
       <r>     0.9127    99.7438   762.8489 </r>
       <r>     1.1073    26.4598   767.9998 </r>
       <r>     1.3020     0.0009   768.0000 </r>
       <r>     1.4967     0.0000   768.0000 </r>
       <r>     1.6913     0.0000   768.0000 </r>
       <r>     1.8860     0.0000   768.0000 </r>
       <r>     2.0807     0.0000   768.0000 </r>
       <r>     2.2753     0.0000   768.0000 </r>
       <r>     2.4700     0.0000   768.0000 </r>
       <r>     2.6647     0.0000   768.0000 </r>
       <r>     2.8593     0.0000   768.0000 </r>
       <r>     3.0540     0.0000   768.0000 </r>
       <r>     3.2487     0.0000   768.0000 </r>
       <r>     3.4433     0.0000   768.0000 </r>
       <r>     3.6380     0.0000   768.0000 </r>
      </set>
     </set>
    </array>
   </total>
  </dos>
 </calculation>
 <structure name="finalpos" >
  <crystal>
   <varray name="basis" >
    <v>      13.79398668       0.00000000       0.00000000 </v>
    <v>      -6.89699334      11.94594288       0.00000000 </v>
    <v>       0.00000000       0.00000000      27.81022107 </v>
   </varray>
   <i name="volume">   4582.62876984 </i>
   <varray name="rec_basis" >
    <v>       0.07249536       0.04185521       0.00000000 </v>
    <v>       0.00000000       0.08371043       0.00000000 </v>
    <v>       0.00000000       0.00000000       0.03595800 </v>
   </varray>
  </crystal>
  <varray name="positions" >
   <v>       0.08616318       0.17398962       0.54284588 </v>
   <v>       0.08288766       0.40695956       0.54319005 </v>
   <v>       0.09107494       0.67466956       0.54541950 </v>
   <v>       0.08707460       0.91983637       0.54034495 </v>
   <v>       0.31876914       0.16193195       0.54993708 </v>
   <v>       0.34381294       0.43018834       0.53748139 </v>
   <v>       0.33591919       0.66718002       0.54718085 </v>
   <v>       0.33662767       0.92137954       0.54745947 </v>
   <v>       0.57938858       0.17423763       0.54698946 </v>
   <v>       0.58439797       0.41607270       0.54598323 </v>
   <v>       0.60650773       0.68749990       0.55168027 </v>
   <v>       0.59382041       0.92974516       0.55430559 </v>
   <v>       0.83285626       0.16636487       0.54591639 </v>
   <v>       0.83456965       0.42108012       0.54576204 </v>
   <v>       0.83826658       0.67011528       0.53826115 </v>
   <v>       0.83928643       0.93236825       0.54508973 </v>
   <v>       0.16277409       0.07110456       0.45717798 </v>
   <v>       0.17376756       0.33933129       0.44843039 </v>
   <v>       0.15700076       0.57678576       0.45381934 </v>
   <v>       0.16086775       0.82389194       0.45375625 </v>
   <v>       0.42688897       0.08569355       0.45593228 </v>
   <v>       0.41230039       0.32940235       0.45228403 </v>
   <v>       0.42684201       0.59440283       0.46056658 </v>
   <v>       0.42172826       0.83232178       0.45607407 </v>
   <v>       0.66321423       0.08453219       0.44831024 </v>
   <v>       0.65652973       0.31555776       0.45700817 </v>
   <v>       0.65853400       0.57078398       0.44971304 </v>
   <v>       0.66229536       0.83032502       0.45875276 </v>
   <v>       0.91716252       0.08997391       0.45044267 </v>
   <v>       0.90968466       0.33294349       0.45946528 </v>
   <v>       0.90285067       0.56450755       0.45638511 </v>
   <v>       0.91458974       0.83459257       0.45384173 </v>
   <v>       0.08214479       0.18147537       0.39144032 </v>
   <v>       0.06638838       0.41500515       0.39496668 </v>
   <v>       0.07346829       0.65820476       0.38960540 </v>
   <v>       0.08022757       0.91512617       0.38611659 </v>
   <v>       0.34613764       0.17303379       0.39459822 </v>
   <v>       0.33797955       0.40319296       0.39107303 </v>
   <v>       0.33896137       0.65419072       0.39216380 </v>
   <v>       0.32901794       0.92190834       0.39697953 </v>
   <v>       0.58716835       0.17776127       0.39826444 </v>
   <v>       0.58412973       0.41387652       0.39316471 </v>
   <v>       0.58313648       0.65952804       0.39314971 </v>
   <v>       0.58464728       0.91077444       0.39618682 </v>
   <v>       0.80704486       0.15811017       0.38422688 </v>
   <v>       0.84548308       0.41355018       0.39405234 </v>
   <v>       0.84420335       0.66121638       0.39141209 </v>
   <v>       0.82880245       0.92698438       0.39648641 </v>
   <v>       0.16153759       0.06679491       0.59912965 </v>
   <v>       0.16119254       0.33568454       0.60397436 </v>
   <v>       0.17057864       0.57379186       0.60338853 </v>
   <v>       0.16975337       0.81400781       0.60938065 </v>
   <v>       0.41082604       0.09840210       0.60860456 </v>
   <v>       0.40486111       0.32230057       0.61003537 </v>
   <v>       0.41994458       0.59515162       0.60420165 </v>
   <v>       0.42072831       0.85368055       0.61660513 </v>
   <v>       0.66600620       0.09265805       0.61376275 </v>
   <v>       0.66226872       0.33148997       0.61242040 </v>
   <v>       0.67452563       0.56270047       0.60410293 </v>
   <v>       0.68262244       0.83910597       0.61344527 </v>
   <v>       0.92860446       0.07784579       0.60752204 </v>
   <v>       0.90500441       0.33889505       0.60407163 </v>
   <v>       0.90032143       0.58271438       0.60526146 </v>
   <v>       0.93172158       0.83175835       0.60001979 </v>
   <v>       0.99410411       0.99527066       0.49752174 </v>
   <v>       0.98390928       0.24119991       0.50262489 </v>
   <v>       0.00801865       0.50610697       0.49462850 </v>
   <v>       0.00387278       0.74548868       0.49934019 </v>
   <v>       0.24107336       0.99465177       0.50291417 </v>
   <v>       0.24288846       0.25330507       0.49562023 </v>
   <v>       0.26076049       0.51510172       0.50040537 </v>
   <v>       0.24731409       0.75611478       0.50353182 </v>
   <v>       0.49565797       0.99879017       0.50005432 </v>
   <v>       0.49472339       0.25164406       0.50043675 </v>
   <v>       0.51414180       0.50545034       0.49806094 </v>
   <v>       0.49986003       0.74401209       0.50074917 </v>
   <v>       0.74689224       0.99440856       0.50591814 </v>
   <v>       0.73886187       0.25073078       0.49965737 </v>
   <v>       0.74649722       0.50224532       0.49963232 </v>
   <v>       0.74352642       0.74939673       0.50017816 </v>
  </varray>
  <varray name="velocities" >
   <v>       0.00000000       0.00000000       0.00000000 </v>
   <v>       0.00000000       0.00000000       0.00000000 </v>
   <v>       0.00000000       0.00000000       0.00000000 </v>
   <v>       0.00000000       0.00000000       0.00000000 </v>
   <v>       0.00000000       0.00000000       0.00000000 </v>
   <v>       0.00000000       0.00000000       0.00000000 </v>
   <v>       0.00000000       0.00000000       0.00000000 </v>
   <v>       0.00000000       0.00000000       0.00000000 </v>
   <v>       0.00000000       0.00000000       0.00000000 </v>
   <v>       0.00000000       0.00000000       0.00000000 </v>
   <v>       0.00000000       0.00000000       0.00000000 </v>
   <v>       0.00000000       0.00000000       0.00000000 </v>
   <v>       0.00000000       0.00000000       0.00000000 </v>
   <v>       0.00000000       0.00000000       0.00000000 </v>
   <v>       0.00000000       0.00000000       0.00000000 </v>
   <v>       0.00000000       0.00000000       0.00000000 </v>
   <v>       0.00000000       0.00000000       0.00000000 </v>
   <v>       0.00000000       0.00000000       0.00000000 </v>
   <v>       0.00000000       0.00000000       0.00000000 </v>
   <v>       0.00000000       0.00000000       0.00000000 </v>
   <v>       0.00000000       0.00000000       0.00000000 </v>
   <v>       0.00000000       0.00000000       0.00000000 </v>
   <v>       0.00000000       0.00000000       0.00000000 </v>
   <v>       0.00000000       0.00000000       0.00000000 </v>
   <v>       0.00000000       0.00000000       0.00000000 </v>
   <v>       0.00000000       0.00000000       0.00000000 </v>
   <v>       0.00000000       0.00000000       0.00000000 </v>
   <v>       0.00000000       0.00000000       0.00000000 </v>
   <v>       0.00000000       0.00000000       0.00000000 </v>
   <v>       0.00000000       0.00000000       0.00000000 </v>
   <v>       0.00000000       0.00000000       0.00000000 </v>
   <v>       0.00000000       0.00000000       0.00000000 </v>
   <v>       0.00000000       0.00000000       0.00000000 </v>
   <v>       0.00000000       0.00000000       0.00000000 </v>
   <v>       0.00000000       0.00000000       0.00000000 </v>
   <v>       0.00000000       0.00000000       0.00000000 </v>
   <v>       0.00000000       0.00000000       0.00000000 </v>
   <v>       0.00000000       0.00000000       0.00000000 </v>
   <v>       0.00000000       0.00000000       0.00000000 </v>
   <v>       0.00000000       0.00000000       0.00000000 </v>
   <v>       0.00000000       0.00000000       0.00000000 </v>
   <v>       0.00000000       0.00000000       0.00000000 </v>
   <v>       0.00000000       0.00000000       0.00000000 </v>
   <v>       0.00000000       0.00000000       0.00000000 </v>
   <v>       0.00000000       0.00000000       0.00000000 </v>
   <v>       0.00000000       0.00000000       0.00000000 </v>
   <v>       0.00000000       0.00000000       0.00000000 </v>
   <v>       0.00000000       0.00000000       0.00000000 </v>
   <v>       0.00000000       0.00000000       0.00000000 </v>
   <v>       0.00000000       0.00000000       0.00000000 </v>
   <v>       0.00000000       0.00000000       0.00000000 </v>
   <v>       0.00000000       0.00000000       0.00000000 </v>
   <v>       0.00000000       0.00000000       0.00000000 </v>
   <v>       0.00000000       0.00000000       0.00000000 </v>
   <v>       0.00000000       0.00000000       0.00000000 </v>
   <v>       0.00000000       0.00000000       0.00000000 </v>
   <v>       0.00000000       0.00000000       0.00000000 </v>
   <v>       0.00000000       0.00000000       0.00000000 </v>
   <v>       0.00000000       0.00000000       0.00000000 </v>
   <v>       0.00000000       0.00000000       0.00000000 </v>
   <v>       0.00000000       0.00000000       0.00000000 </v>
   <v>       0.00000000       0.00000000       0.00000000 </v>
   <v>       0.00000000       0.00000000       0.00000000 </v>
   <v>       0.00000000       0.00000000       0.00000000 </v>
   <v>       0.00000000       0.00000000       0.00000000 </v>
   <v>       0.00000000       0.00000000       0.00000000 </v>
   <v>       0.00000000       0.00000000       0.00000000 </v>
   <v>       0.00000000       0.00000000       0.00000000 </v>
   <v>       0.00000000       0.00000000       0.00000000 </v>
   <v>       0.00000000       0.00000000       0.00000000 </v>
   <v>       0.00000000       0.00000000       0.00000000 </v>
   <v>       0.00000000       0.00000000       0.00000000 </v>
   <v>       0.00000000       0.00000000       0.00000000 </v>
   <v>       0.00000000       0.00000000       0.00000000 </v>
   <v>       0.00000000       0.00000000       0.00000000 </v>
   <v>       0.00000000       0.00000000       0.00000000 </v>
   <v>       0.00000000       0.00000000       0.00000000 </v>
   <v>       0.00000000       0.00000000       0.00000000 </v>
   <v>       0.00000000       0.00000000       0.00000000 </v>
   <v>       0.00000000       0.00000000       0.00000000 </v>
  </varray>
 </structure>
</modeling>
