 running on   48 total cores
 distrk:  each k-point on   48 cores,    1 groups
 distr:  one band on   12 cores,    4 groups
 using from now: INCAR     
 vasp.5.4.4.18Apr17-6-g9f103f2a35 (build Mar 16 2023 09:39:13) complex          
  
 POSCAR found type information on POSCAR  Ca Si O 
 POSCAR found :  3 types and     135 ions
 scaLAPACK is switched off
 LDA part: xc-table for Pade appr. of Perdew
 generate k-points for:    2    2    2
 POSCAR, INCAR and KPOINTS ok, starting setup
 FFT: planning ...
 WAVECAR not read
 entering main loop
       N       E                     dE             d eps       ncg     rms          rms(c)
DAV:   1     0.977422222222E+04    0.97742E+04   -0.48427E+05  8320   0.185E+03
DAV:   2     0.373048289323E+02   -0.97369E+04   -0.94296E+04  9720   0.500E+02
DAV:   3    -0.101468598701E+04   -0.10520E+04   -0.10451E+04 10256   0.168E+02
DAV:   4    -0.106541560436E+04   -0.50730E+02   -0.50561E+02 11472   0.330E+01
DAV:   5    -0.107051570378E+04   -0.51001E+01   -0.50976E+01 14672   0.772E+00    0.859E+01
DAV:   6    -0.928801315712E+03    0.14171E+03   -0.63644E+02  9792   0.390E+01    0.370E+01
DAV:   7    -0.930806071775E+03   -0.20048E+01   -0.66767E+01 11264   0.131E+01    0.177E+01
DAV:   8    -0.929749804369E+03    0.10563E+01   -0.10257E+01 10512   0.589E+00    0.754E+00
DAV:   9    -0.929510849743E+03    0.23895E+00   -0.20752E+00 10120   0.320E+00    0.206E+00
DAV:  10    -0.929602164064E+03   -0.91314E-01   -0.11193E+00 11640   0.183E+00    0.150E+00
DAV:  11    -0.929604295505E+03   -0.21314E-02   -0.16204E-01 11328   0.762E-01    0.751E-01
DAV:  12    -0.929610186761E+03   -0.58913E-02   -0.36244E-02  9936   0.387E-01    0.251E-01
DAV:  13    -0.929612527229E+03   -0.23405E-02   -0.12102E-02 12176   0.249E-01    0.148E-01
DAV:  14    -0.929612820241E+03   -0.29301E-03   -0.46377E-03 11520   0.116E-01    0.105E-01
DAV:  15    -0.929612828366E+03   -0.81257E-05   -0.70479E-04 10432   0.474E-02    0.684E-02
DAV:  16    -0.929612818046E+03    0.10320E-04   -0.37047E-04  9872   0.507E-02    0.188E-02
DAV:  17    -0.929612826740E+03   -0.86937E-05   -0.17069E-04 11880   0.244E-02    0.165E-02
DAV:  18    -0.929612826138E+03    0.60181E-06   -0.45074E-05  9984   0.113E-02    0.103E-02
DAV:  19    -0.929612824964E+03    0.11743E-05   -0.69228E-06  9112   0.635E-03    0.394E-03
DAV:  20    -0.929612824518E+03    0.44529E-06   -0.26885E-06  6496   0.354E-03
   1 F= -.92961282E+03 E0= -.92961282E+03  d E =-.105555E-10
