 running on   52 total cores
 distrk:  each k-point on   52 cores,    1 groups
 distr:  one band on   13 cores,    4 groups
 using from now: INCAR     
 vasp.5.4.4.18Apr17-6-g9f103f2a35 (build Oct 31 2019 15:01:46) complex          
  
 POSCAR found type information on POSCAR  Ca Si O 
 POSCAR found :  3 types and     135 ions
 scaLAPACK is switched off
 LDA part: xc-table for Pade appr. of Perdew
 generate k-points for:    2    2    2
 POSCAR, INCAR and KPOINTS ok, starting setup
 FFT: planning ...
 WAVECAR not read
 entering main loop
       N       E                     dE             d eps       ncg     rms          rms(c)
DAV:   1     0.979952426524E+04    0.97995E+04   -0.48441E+05  8320   0.185E+03
DAV:   2     0.907428122714E+02   -0.97088E+04   -0.93848E+04  9752   0.500E+02
DAV:   3    -0.980336536495E+03   -0.10711E+04   -0.10624E+04 10304   0.168E+02
DAV:   4    -0.103307651848E+04   -0.52740E+02   -0.52551E+02 11560   0.334E+01
DAV:   5    -0.103856820353E+04   -0.54917E+01   -0.54888E+01 14408   0.796E+00    0.865E+01
DAV:   6    -0.888745975426E+03    0.14982E+03   -0.66317E+02  9736   0.408E+01    0.380E+01
DAV:   7    -0.892121324019E+03   -0.33753E+01   -0.87895E+01 10616   0.150E+01    0.205E+01
DAV:   8    -0.888494954546E+03    0.36264E+01   -0.20221E+01 11456   0.852E+00    0.138E+01
DAV:   9    -0.888701783920E+03   -0.20683E+00   -0.58885E+00 10088   0.390E+00    0.645E+00
DAV:  10    -0.887839262982E+03    0.86252E+00   -0.18017E+00 10872   0.285E+00    0.314E+00
DAV:  11    -0.887687907986E+03    0.15135E+00   -0.93243E-01 10488   0.179E+00    0.165E+00
DAV:  12    -0.887679466970E+03    0.84410E-02   -0.26660E-01 10656   0.872E-01    0.651E-01
DAV:  13    -0.887686601851E+03   -0.71349E-02   -0.48752E-02 11648   0.440E-01    0.877E-01
DAV:  14    -0.887683895342E+03    0.27065E-02   -0.20248E-02 10912   0.247E-01    0.378E-01
DAV:  15    -0.887683640183E+03    0.25516E-03   -0.84698E-03  9584   0.188E-01    0.217E-01
DAV:  16    -0.887683580549E+03    0.59634E-04   -0.30350E-03 12896   0.993E-02    0.960E-02
DAV:  17    -0.887683688431E+03   -0.10788E-03   -0.89730E-04 11088   0.709E-02    0.810E-02
DAV:  18    -0.887683664896E+03    0.23535E-04   -0.29769E-04 10040   0.325E-02    0.249E-02
DAV:  19    -0.887683686769E+03   -0.21873E-04   -0.13974E-04 10120   0.213E-02    0.413E-02
DAV:  20    -0.887683673464E+03    0.13305E-04   -0.35036E-05 10880   0.124E-02    0.103E-02
DAV:  21    -0.887683673736E+03   -0.27279E-06   -0.13159E-05  9256   0.672E-03    0.354E-03
DAV:  22    -0.887683674109E+03   -0.37269E-06   -0.22916E-06  6880   0.274E-03
   1 F= -.88768367E+03 E0= -.88768367E+03  d E =-.272649E-06
