 running on   52 total cores
 distrk:  each k-point on   52 cores,    1 groups
 distr:  one band on   13 cores,    4 groups
 using from now: INCAR     
 vasp.5.4.4.18Apr17-6-g9f103f2a35 (build Oct 31 2019 15:01:46) complex          
  
 POSCAR found type information on POSCAR  Sc Cl C 
 POSCAR found :  3 types and      80 ions
 scaLAPACK is switched off
 LDA part: xc-table for Pade appr. of Perdew
 generate k-points for:    3    3    1
 POSCAR, INCAR and KPOINTS ok, starting setup
 FFT: planning ...
 WAVECAR not read
 entering main loop
       N       E                     dE             d eps       ncg     rms          rms(c)
DAV:   1     0.122100741568E+05    0.12210E+05   -0.26791E+05  4432   0.152E+03
DAV:   2     0.173691089222E+04   -0.10473E+05   -0.10207E+05  5216   0.523E+02
DAV:   3    -0.401889998472E+03   -0.21388E+04   -0.20529E+04  6800   0.284E+02
DAV:   4    -0.640150702769E+03   -0.23826E+03   -0.23359E+03  6080   0.995E+01
DAV:   5    -0.650821141565E+03   -0.10670E+02   -0.10612E+02  6080   0.282E+01    0.697E+01
DAV:   6    -0.519812888461E+03    0.13101E+03   -0.69725E+02  5840   0.501E+01    0.311E+01
DAV:   7    -0.524984402136E+03   -0.51715E+01   -0.92914E+01  5888   0.236E+01    0.157E+01
DAV:   8    -0.522640771818E+03    0.23436E+01   -0.10086E+01  5760   0.779E+00    0.964E+00
DAV:   9    -0.522130745727E+03    0.51003E+00   -0.44386E+00  5424   0.416E+00    0.313E+00
DAV:  10    -0.521970473247E+03    0.16027E+00   -0.64134E-01  5552   0.230E+00    0.178E+00
DAV:  11    -0.521951691029E+03    0.18782E-01   -0.33562E-01  5728   0.105E+00    0.803E-01
DAV:  12    -0.521937747551E+03    0.13943E-01   -0.48526E-02  6032   0.608E-01    0.354E-01
DAV:  13    -0.521934018410E+03    0.37291E-02   -0.15429E-02  5552   0.311E-01    0.208E-01
DAV:  14    -0.521932198958E+03    0.18195E-02   -0.55342E-03  5456   0.169E-01    0.170E-01
DAV:  15    -0.521933513654E+03   -0.13147E-02   -0.28822E-03  5560   0.108E-01    0.108E-01
DAV:  16    -0.521935129812E+03   -0.16162E-02   -0.15557E-03  5720   0.736E-02    0.628E-02
DAV:  17    -0.521937667877E+03   -0.25381E-02   -0.77941E-04  5456   0.581E-02    0.391E-02
DAV:  18    -0.521940353132E+03   -0.26853E-02   -0.28922E-04  5096   0.362E-02    0.250E-02
DAV:  19    -0.521941734422E+03   -0.13813E-02   -0.14640E-04  5024   0.221E-02    0.163E-02
DAV:  20    -0.521942972287E+03   -0.12379E-02   -0.75250E-05  4224   0.136E-02    0.104E-02
DAV:  21    -0.521943591793E+03   -0.61951E-03   -0.23031E-05  4416   0.945E-03    0.698E-03
DAV:  22    -0.521944000922E+03   -0.40913E-03   -0.69643E-06  4144   0.505E-03    0.535E-03
DAV:  23    -0.521944570680E+03   -0.56976E-03   -0.11966E-05  3528   0.495E-03    0.291E-03
DAV:  24    -0.521944824716E+03   -0.25404E-03   -0.78135E-06  3824   0.378E-03    0.303E-03
DAV:  25    -0.521944900625E+03   -0.75909E-04   -0.11491E-06  3008   0.236E-03    0.212E-03
DAV:  26    -0.521944989787E+03   -0.89162E-04   -0.29865E-06  3392   0.246E-03    0.171E-03
DAV:  27    -0.521945016872E+03   -0.27085E-04   -0.39999E-07  2744   0.174E-03    0.132E-03
DAV:  28    -0.521945024318E+03   -0.74461E-05   -0.28012E-07  2544   0.167E-03    0.826E-04
DAV:  29    -0.521945033167E+03   -0.88492E-05   -0.28827E-07  2608   0.122E-03    0.446E-04
DAV:  30    -0.521945043337E+03   -0.10169E-04   -0.30999E-07  2720   0.144E-03    0.444E-04
DAV:  31    -0.521945048933E+03   -0.55959E-05   -0.30843E-07  2656   0.129E-03    0.388E-04
DAV:  32    -0.521945050592E+03   -0.16591E-05   -0.18015E-07  2400   0.116E-03    0.299E-04
DAV:  33    -0.521945050774E+03   -0.18218E-06   -0.10202E-07  2400   0.788E-04
   1 F= -.52194505E+03 E0= -.52194505E+03  d E =-.606858E-14
