 vasp.5.4.4.18Apr17-6-g9f103f2a35 (build Oct 31 2019 15:01:46) complex          
  
 executed on             LinuxIFC date 2024.04.30  17:01:17
 running on   52 total cores
 distrk:  each k-point on   52 cores,    1 groups
 distr:  one band on NCORES_PER_BAND=  13 cores,    4 groups


--------------------------------------------------------------------------------------------------------


 INCAR:
 POTCAR:    PAW_PBE Sc_sv 07Sep2000               
 POTCAR:    PAW_PBE Cl 06Sep2000                  
 POTCAR:    PAW_PBE C 08Apr2002                   
 POTCAR:    PAW_PBE Sc_sv 07Sep2000               
   VRHFIN =Sc: 3p4s3d                                                           
   LEXCH  = PE                                                                  
   EATOM  =  1273.2868 eV,   93.5839 Ry                                         
                                                                                
   TITEL  = PAW_PBE Sc_sv 07Sep2000                                             
   LULTRA =        F    use ultrasoft PP ?                                      
   IUNSCR =        1    unscreen: 0-lin 1-nonlin 2-no                           
   RPACOR =    2.200    partial core radius                                     
   POMASS =   44.956; ZVAL   =   11.000    mass and valenz                      
   RCORE  =    2.500    outmost cutoff radius                                   
   RWIGS  =    2.700; RWIGS  =    1.429    wigner-seitz radius (au A)           
   ENMAX  =  222.660; ENMIN  =  166.995 eV                                      
   RCLOC  =    1.805    cutoff for local pot                                    
   LCOR   =        T    correct aug charges                                     
   LPAW   =        T    paw PP                                                  
   EAUG   =  443.063                                                            
   RMAX   =    2.551    core radius for proj-oper                               
   RAUG   =    1.300    factor for augmentation sphere                          
   RDEP   =    2.650    radius for radial grids                                 
   RDEPT  =    2.038    core radius for aug-charge                              
                                                                                
   Atomic configuration                                                         
    8 entries                                                                   
     n  l   j            E        occ.                                          
     1  0  0.50     -4394.2533   2.0000                                         
     2  0  0.50      -471.0040   2.0000                                         
     2  1  1.50      -384.9788   6.0000                                         
     3  0  0.50       -52.1410   2.0000                                         
     4  0  0.50        -3.5584   1.0000                                         
     3  1  1.50       -30.8841   6.0000                                         
     3  2  2.50        -1.3655   2.0000                                         
     4  3  2.50        -1.3606   0.0000                                         
   Description                                                                  
     l       E           TYP  RCUT    TYP  RCUT                                 
     0    -52.1409870     23  1.800                                             
     0     -3.5583698     23  2.500                                             
     1    -30.8840697     23  2.300                                             
     1      4.0817478     23  2.300                                             
     2     -1.3655397     23  2.500                                             
     2      0.3564476     23  2.500                                             
  local pseudopotential read in
  partial core-charges read in
  partial kinetic energy density read in
  atomic valenz-charges read in
  non local Contribution for L=           0  read in
    real space projection operators read in
  non local Contribution for L=           0  read in
    real space projection operators read in
  non local Contribution for L=           1  read in
    real space projection operators read in
  non local Contribution for L=           1  read in
    real space projection operators read in
  non local Contribution for L=           2  read in
    real space projection operators read in
  non local Contribution for L=           2  read in
    real space projection operators read in
    PAW grid and wavefunctions read in
 
   number of l-projection  operators is LMAX  =           6
   number of lm-projection operators is LMMAX =          18
 
 POTCAR:    PAW_PBE Cl 06Sep2000                  
   VRHFIN =Cl: s2p5                                                             
   LEXCH  = PE                                                                  
   EATOM  =   409.7259 eV,   30.1140 Ry                                         
                                                                                
   TITEL  = PAW_PBE Cl 06Sep2000                                                
   LULTRA =        F    use ultrasoft PP ?                                      
   IUNSCR =        1    unscreen: 0-lin 1-nonlin 2-no                           
   RPACOR =    1.500    partial core radius                                     
   POMASS =   35.453; ZVAL   =    7.000    mass and valenz                      
   RCORE  =    1.900    outmost cutoff radius                                   
   RWIGS  =    2.100; RWIGS  =    1.111    wigner-seitz radius (au A)           
   ENMAX  =  262.472; ENMIN  =  196.854 eV                                      
   ICORE  =        2    local potential                                         
   LCOR   =        T    correct aug charges                                     
   LPAW   =        T    paw PP                                                  
   EAUG   =  356.192                                                            
   DEXC   =    0.000                                                            
   RMAX   =    1.945    core radius for proj-oper                               
   RAUG   =    1.300    factor for augmentation sphere                          
   RDEP   =    2.020    radius for radial grids                                 
   RDEPT  =    1.678    core radius for aug-charge                              
                                                                                
   Atomic configuration                                                         
    6 entries                                                                   
     n  l   j            E        occ.                                          
     1  0  0.50     -2751.1850   2.0000                                         
     2  0  0.50      -252.6861   2.0000                                         
     2  1  1.50      -191.6157   6.0000                                         
     3  0  0.50       -20.6916   2.0000                                         
     3  1  0.50        -8.5949   5.0000                                         
     3  2  1.50        -8.1635   0.0000                                         
   Description                                                                  
     l       E           TYP  RCUT    TYP  RCUT                                 
     0    -20.6915656     23  1.900                                             
     0    -22.0521482     23  1.900                                             
     1     -8.5948577     23  1.900                                             
     1     -5.3847331     23  1.900                                             
     2     -8.1634956     23  1.900                                             
  local pseudopotential read in
  partial core-charges read in
  partial kinetic energy density read in
  atomic valenz-charges read in
  non local Contribution for L=           0  read in
    real space projection operators read in
  non local Contribution for L=           0  read in
    real space projection operators read in
  non local Contribution for L=           1  read in
    real space projection operators read in
  non local Contribution for L=           1  read in
    real space projection operators read in
    PAW grid and wavefunctions read in
 
   number of l-projection  operators is LMAX  =           4
   number of lm-projection operators is LMMAX =           8
 
 POTCAR:    PAW_PBE C 08Apr2002                   
   VRHFIN =C: s2p2                                                              
   LEXCH  = PE                                                                  
   EATOM  =   147.1560 eV,   10.8157 Ry                                         
                                                                                
   TITEL  = PAW_PBE C 08Apr2002                                                 
   LULTRA =        F    use ultrasoft PP ?                                      
   IUNSCR =        1    unscreen: 0-lin 1-nonlin 2-no                           
   RPACOR =    1.200    partial core radius                                     
   POMASS =   12.011; ZVAL   =    4.000    mass and valenz                      
   RCORE  =    1.500    outmost cutoff radius                                   
   RWIGS  =    1.630; RWIGS  =    0.863    wigner-seitz radius (au A)           
   ENMAX  =  400.000; ENMIN  =  300.000 eV                                      
   ICORE  =        2    local potential                                         
   LCOR   =        T    correct aug charges                                     
   LPAW   =        T    paw PP                                                  
   EAUG   =  644.873                                                            
   DEXC   =    0.000                                                            
   RMAX   =    1.529    core radius for proj-oper                               
   RAUG   =    1.300    factor for augmentation sphere                          
   RDEP   =    1.501    radius for radial grids                                 
   RDEPT  =    1.300    core radius for aug-charge                              
                                                                                
   Atomic configuration                                                         
    4 entries                                                                   
     n  l   j            E        occ.                                          
     1  0  0.50      -273.3789   2.0000                                         
     2  0  0.50       -13.7508   2.0000                                         
     2  1  0.50        -5.2854   2.0000                                         
     3  2  1.50        -5.4423   0.0000                                         
   Description                                                                  
     l       E           TYP  RCUT    TYP  RCUT                                 
     0    -13.7508458     23  1.200                                             
     0     -8.2022199     23  1.200                                             
     1     -5.2854383     23  1.500                                             
     1     34.0145650     23  1.500                                             
     2     -5.4423304      7  1.500                                             
  local pseudopotential read in
  partial core-charges read in
  partial kinetic energy density read in
  atomic valenz-charges read in
  non local Contribution for L=           0  read in
    real space projection operators read in
  non local Contribution for L=           0  read in
    real space projection operators read in
  non local Contribution for L=           1  read in
    real space projection operators read in
  non local Contribution for L=           1  read in
    real space projection operators read in
    PAW grid and wavefunctions read in
 
   number of l-projection  operators is LMAX  =           4
   number of lm-projection operators is LMMAX =           8
 
 Optimization of the real space projectors (new method)

 maximal supplied QI-value         = 15.12
 optimisation between [QCUT,QGAM] = [ 12.55, 25.10] = [ 44.09,176.36] Ry 
 Optimized for a Real-space Cutoff    1.56 Angstroem

   l    n(q)    QCUT    max X(q) W(low)/X(q) W(high)/X(q)  e(spline) 
   0     12    12.548     2.962    0.12E-05    0.11E-06    0.46E-07
   0     12    12.548    26.414    0.30E-04    0.15E-05    0.76E-07
   1     11    12.548     3.969    0.45E-05    0.12E-05    0.60E-07
   1     11    12.548     5.137    0.15E-04    0.18E-04    0.36E-06
   2     11    12.548   143.970    0.20E-03    0.19E-03    0.76E-06
   2     11    12.548   121.201    0.20E-03    0.19E-03    0.76E-06
 Optimization of the real space projectors (new method)

 maximal supplied QI-value         = 19.84
 optimisation between [QCUT,QGAM] = [ 12.50, 25.00] = [ 43.76,175.03] Ry 
 Optimized for a Real-space Cutoff    1.20 Angstroem

   l    n(q)    QCUT    max X(q) W(low)/X(q) W(high)/X(q)  e(spline) 
   0      9    12.501   168.010    0.44E-04    0.61E-04    0.77E-07
   0      9    12.501   164.674    0.43E-04    0.60E-04    0.75E-07
   1      8    12.501    69.222    0.11E-03    0.13E-03    0.91E-07
   1      8    12.501    56.786    0.11E-03    0.13E-03    0.90E-07
 Optimization of the real space projectors (new method)

 maximal supplied QI-value         = 25.13
 optimisation between [QCUT,QGAM] = [ 12.32, 24.88] = [ 42.47,173.37] Ry 
 Optimized for a Real-space Cutoff    1.16 Angstroem

   l    n(q)    QCUT    max X(q) W(low)/X(q) W(high)/X(q)  e(spline) 
   0      9    12.315   115.676    0.19E-03    0.80E-05    0.34E-06
   0      9    12.315    87.132    0.19E-03    0.82E-05    0.34E-06
   1      8    12.315     4.429    0.18E-03    0.13E-03    0.22E-06
   1      8    12.315     2.733    0.14E-03    0.10E-03    0.18E-06
  PAW_PBE Sc_sv 07Sep2000               :
 energy of atom  1       EATOM=-1273.2868
 kinetic energy error for atom=    0.0014 (will be added to EATOM!!)
  PAW_PBE Cl 06Sep2000                  :
 energy of atom  2       EATOM= -409.7259
 kinetic energy error for atom=    0.0013 (will be added to EATOM!!)
  PAW_PBE C 08Apr2002                   :
 energy of atom  3       EATOM= -147.1560
 kinetic energy error for atom=    0.0057 (will be added to EATOM!!)
 
 
 POSCAR: Sc Cl  C                                
  positions in cartesian coordinates
  No initial velocities read in
 exchange correlation table for  LEXCH =        8
   RHO(1)=    0.500       N(1)  =     2000
   RHO(2)=  100.500       N(2)  =     4000
 


--------------------------------------------------------------------------------------------------------


 ion  position               nearest neighbor table
   1  0.082  0.163  0.540-  65 2.19  66 2.28  70 2.34  61 2.44  49 2.80  50 2.83  17 3.07  29 3.11
                            18 3.16   4 3.25  16 3.31   2 3.34
   2  0.083  0.406  0.545-  66 2.34  71 2.40  50 2.43  67 2.53  62 2.61  51 2.63  18 3.15  30 3.22
                             3 3.32   1 3.34  14 3.38  19 3.41
   3  0.090  0.650  0.548-  67 2.30  51 2.36  72 2.36  68 2.49  63 2.66  52 2.67  31 3.15  19 3.18
                             7 3.23  20 3.28  14 3.29   2 3.32
   4  0.079  0.927  0.547-  65 2.28  69 2.33  64 2.53  49 2.56  68 2.58  52 2.65  17 3.16  32 3.16
                             1 3.25  16 3.40  20 3.40
   5  0.339  0.168  0.542-  69 2.20  70 2.21  74 2.28  53 2.74  54 2.88  49 2.93  22 2.98  17 3.13
                            21 3.17   6 3.34   9 3.39   8 3.40  10 3.40
   6  0.337  0.409  0.551-  75 2.20  70 2.37  54 2.49  71 2.58  55 2.61  50 2.75  22 3.09  23 3.33
                             5 3.34  11 3.38  18 3.39
   7  0.328  0.660  0.540-  72 2.22  76 2.24  71 2.29  55 2.53  51 2.57  56 2.77  23 3.07  19 3.12
                            24 3.14   3 3.23  11 3.39
   8  0.333  0.919  0.544-  69 2.40  72 2.42  53 2.43  73 2.44  52 2.58  56 2.75  20 3.15  24 3.26
                             9 3.29  21 3.30   5 3.40
   9  0.576  0.152  0.546-  73 2.24  78 2.42  74 2.44  57 2.52  58 2.67  53 2.75  25 3.18  21 3.20
                             8 3.29  13 3.33  12 3.37   5 3.39  26 3.41  10 3.43
  10  0.591  0.408  0.548-  74 2.32  79 2.35  58 2.40  75 2.45  59 2.67  54 2.70  26 3.11  22 3.15
                             5 3.40  27 3.41   9 3.43
  11  0.574  0.662  0.549-  75 2.31  76 2.37  80 2.52  59 2.55  55 2.60  60 2.75  23 3.25  28 3.28
                            27 3.37  12 3.37  15 3.38   6 3.38   7 3.39
  12  0.582  0.910  0.546-  76 2.21  73 2.36  60 2.44  77 2.48  57 2.59  56 2.61  28 3.16  24 3.17
                            13 3.28  25 3.35  16 3.36  11 3.37   9 3.37
  13  0.817  0.151  0.541-  77 2.17  78 2.31  61 2.49  57 2.55  66 2.59  62 2.72  25 3.06  16 3.16
                            30 3.25  29 3.26  12 3.28   9 3.33
  14  0.845  0.419  0.543-  67 2.27  79 2.39  78 2.41  63 2.46  62 2.60  58 2.94  30 3.07  31 3.13
                            26 3.23   3 3.29   2 3.38
  15  0.826  0.677  0.551-  80 2.22  59 2.40  64 2.45  68 2.48  79 2.53  63 2.65  27 3.16  32 3.27
                            31 3.30  11 3.38
  16  0.835  0.931  0.541-  77 2.23  65 2.31  80 2.46  61 2.50  60 2.62  64 2.66  29 3.06  28 3.09
                            13 3.16  32 3.23   1 3.31  12 3.36   4 3.40
  17  0.169  0.083  0.456-  69 2.22  65 2.33  70 2.33  36 2.57  33 2.63  37 2.64   1 3.07   5 3.13
                             4 3.16  29 3.38  32 3.39
  18  0.167  0.335  0.453-  66 2.25  71 2.29  70 2.52  34 2.62  38 2.63  33 2.83   2 3.15   1 3.16
                            23 3.37   6 3.39
  19  0.170  0.590  0.451-  72 2.29  67 2.39  71 2.42  35 2.53  39 2.57  34 2.74   7 3.12   3 3.18
                            20 3.24   2 3.41  24 3.41  23 3.42
  20  0.165  0.822  0.457-  72 2.32  68 2.37  35 2.57  69 2.58  40 2.63  36 2.76   8 3.15  31 3.22
                            19 3.24   3 3.28   4 3.40
  21  0.424  0.092  0.451-  74 2.31  73 2.49  40 2.53  69 2.58  37 2.60  41 2.62   5 3.17   9 3.20
                             8 3.30  25 3.36  22 3.39
  22  0.420  0.335  0.462-  70 2.24  74 2.25  75 2.29  42 2.68  38 2.74  37 2.75   5 2.98   6 3.09
                            10 3.15  21 3.39  26 3.41  23 3.42
  23  0.412  0.579  0.456-  71 2.26  38 2.48  76 2.49  75 2.49  43 2.52  39 2.70   7 3.07  11 3.25
                             6 3.33  18 3.37  24 3.41  22 3.42  19 3.42
  24  0.423  0.831  0.455-  76 2.28  73 2.36  72 2.40  44 2.47  39 2.51  40 2.56   7 3.14  12 3.17
                             8 3.26  28 3.38  23 3.41  19 3.41
  25  0.665  0.088  0.453-  73 2.28  78 2.29  77 2.39  45 2.47  44 2.63  41 2.68  13 3.06   9 3.18
                            12 3.35  21 3.36  30 3.42
  26  0.671  0.343  0.455-  79 2.28  74 2.37  78 2.40  46 2.48  42 2.65  41 2.82  10 3.11  14 3.23
                            27 3.38  22 3.41   9 3.41  30 3.43
  27  0.683  0.594  0.455-  80 2.23  79 2.33  47 2.51  43 2.61  42 2.69  75 2.71  15 3.16  31 3.32
                            32 3.33  11 3.37  26 3.38  28 3.38  10 3.41
  28  0.668  0.832  0.457-  77 2.31  80 2.35  43 2.44  76 2.45  48 2.68  44 2.83  16 3.09  12 3.16
                            11 3.28  24 3.38  27 3.38
  29  0.922  0.080  0.452-  65 2.28  66 2.34  77 2.35  48 2.51  45 2.54  33 2.58  16 3.06   1 3.11
                            13 3.26  32 3.37  17 3.38
  30  0.915  0.335  0.455-  67 2.30  78 2.36  66 2.42  46 2.55  45 2.69  34 2.86  14 3.07   2 3.22
                            13 3.25  25 3.42  26 3.43
  31  0.925  0.596  0.461-  68 2.05  67 2.26  79 2.33  35 2.69  47 2.74  46 2.77  14 3.13   3 3.15
                            20 3.22  15 3.30  32 3.32  27 3.32
  32  0.924  0.836  0.456-  65 2.37  80 2.40  47 2.42  68 2.46  36 2.54  48 2.67   4 3.16  16 3.23
                            15 3.27  31 3.32  27 3.33  29 3.37  17 3.39
  33  0.081  0.151  0.389-  29 2.58  17 2.63  18 2.83
  34  0.094  0.417  0.387-  18 2.62  19 2.74  30 2.86
  35  0.084  0.667  0.393-  19 2.53  20 2.57  31 2.69
  36  0.083  0.921  0.395-  32 2.54  17 2.57  20 2.76
  37  0.334  0.171  0.393-  21 2.60  17 2.64  22 2.75
  38  0.341  0.425  0.396-  23 2.48  18 2.63  22 2.74
  39  0.338  0.677  0.393-  24 2.51  19 2.57  23 2.70
  40  0.340  0.919  0.399-  21 2.53  24 2.56  20 2.63
  41  0.583  0.169  0.386-  21 2.62  25 2.68  26 2.82
  42  0.579  0.421  0.394-  26 2.65  22 2.68  27 2.69
  43  0.582  0.672  0.402-  28 2.44  23 2.52  27 2.61
  44  0.570  0.918  0.393-  24 2.47  25 2.63  28 2.83
  45  0.826  0.154  0.397-  25 2.47  29 2.54  30 2.69
  46  0.830  0.417  0.398-  26 2.48  30 2.55  31 2.77
  47  0.842  0.688  0.397-  32 2.42  27 2.51  31 2.74
  48  0.837  0.920  0.393-  29 2.51  32 2.67  28 2.68
  49  0.158  0.077  0.613-   4 2.56   1 2.80   5 2.93
  50  0.153  0.337  0.609-   2 2.43   6 2.75   1 2.83
  51  0.171  0.580  0.603-   3 2.36   7 2.57   2 2.63
  52  0.166  0.833  0.603-   8 2.58   4 2.65   3 2.67
  53  0.396  0.058  0.608-   8 2.43   5 2.74   9 2.75
  54  0.423  0.344  0.612-   6 2.49  10 2.70   5 2.88
  55  0.401  0.585  0.605-   7 2.53  11 2.60   6 2.61
  56  0.419  0.830  0.608-  12 2.61   8 2.75   7 2.77
  57  0.663  0.079  0.605-   9 2.52  13 2.55  12 2.59
  58  0.650  0.322  0.608-  10 2.40   9 2.67  14 2.94
  59  0.669  0.588  0.605-  15 2.40  11 2.55  10 2.67
  60  0.674  0.852  0.605-  12 2.44  16 2.62  11 2.75
  61  0.925  0.097  0.596-   1 2.44  13 2.49  16 2.50
  62  0.914  0.323  0.604-  14 2.60   2 2.61  13 2.72
  63  0.907  0.571  0.602-  14 2.46  15 2.65   3 2.66
  64  0.913  0.841  0.604-  15 2.45   4 2.53  16 2.66
  65  0.003  0.006  0.500-   1 2.19   4 2.28  29 2.28  16 2.31  17 2.33  32 2.37
  66  0.006  0.247  0.496-  18 2.25   1 2.28   2 2.34  29 2.34  30 2.42  13 2.59
  67  1.000  0.501  0.496-  31 2.26  14 2.27  30 2.30   3 2.30  19 2.39   2 2.53
  68  0.998  0.738  0.503-  31 2.05  20 2.37  32 2.46  15 2.48   3 2.49   4 2.58
  69  0.245  0.009  0.503-   5 2.20  17 2.22   4 2.33   8 2.40  21 2.58  20 2.58
  70  0.257  0.247  0.502-   5 2.21  22 2.24  17 2.33   1 2.34   6 2.37  18 2.52
  71  0.249  0.497  0.497-  23 2.26  18 2.29   7 2.29   2 2.40  19 2.42   6 2.58
  72  0.252  0.744  0.500-   7 2.22  19 2.29  20 2.32   3 2.36  24 2.40   8 2.42
  73  0.508  0.000  0.499-   9 2.24  25 2.28  12 2.36  24 2.36   8 2.44  21 2.49
  74  0.502  0.250  0.499-  22 2.25   5 2.28  21 2.31  10 2.32  26 2.37   9 2.44
  75  0.494  0.493  0.509-   6 2.20  22 2.29  11 2.31  10 2.45  23 2.49  27 2.71
  76  0.496  0.753  0.504-  12 2.21   7 2.24  24 2.28  11 2.37  28 2.45  23 2.49
  77  0.754  0.003  0.495-  13 2.17  16 2.23  28 2.31  29 2.35  25 2.39  12 2.48
  78  0.746  0.247  0.499-  25 2.29  13 2.31  30 2.36  26 2.40  14 2.41   9 2.42
  79  0.754  0.501  0.501-  26 2.28  27 2.33  31 2.33  10 2.35  14 2.39  15 2.53
  80  0.752  0.748  0.501-  15 2.22  27 2.23  28 2.35  32 2.40  16 2.46  11 2.52
 
  LATTYP: Found a hexagonal cell.
 ALAT       =    13.7939866762
 C/A-ratio  =     2.0161119278
  
  Lattice vectors:
  
 A1 = (  13.7939866800,   0.0000000000,   0.0000000000)
 A2 = (  -6.8969933400,  11.9459428800,   0.0000000000)
 A3 = (   0.0000000000,   0.0000000000,  27.8102210700)


Analysis of symmetry for initial positions (statically):
=====================================================================
 Subroutine PRICEL returns:
 Original cell was already a primitive cell.
 

 Routine SETGRP: Setting up the symmetry group for a 
 hexagonal supercell.


 Subroutine GETGRP returns: Found  1 space group operations
 (whereof  1 operations were pure point group operations)
 out of a pool of 24 trial point group operations.


The static configuration has the point symmetry C_1 .


Analysis of symmetry for dynamics (positions and initial velocities):
=====================================================================
 Subroutine PRICEL returns:
 Original cell was already a primitive cell.
 

 Routine SETGRP: Setting up the symmetry group for a 
 hexagonal supercell.


 Subroutine GETGRP returns: Found  1 space group operations
 (whereof  1 operations were pure point group operations)
 out of a pool of 24 trial point group operations.


The dynamic configuration has the point symmetry C_1 .


 Subroutine INISYM returns: Found  1 space group operations
 (whereof  1 operations are pure point group operations),
 and found     1 'primitive' translations

 
 

Automatic generation of k-mesh.
 generate k-points for:    3    3    1
Space group operators:
 irot       det(A)        alpha          n_x          n_y          n_z        tau_x        tau_y        tau_z
    1     1.000000     0.000000     1.000000     0.000000     0.000000     0.000000     0.000000     0.000000
 
 Subroutine IBZKPT returns following result:
 ===========================================
 
 Found      5 irreducible k-points:
 
 Following reciprocal coordinates:
            Coordinates               Weight
  0.000000  0.000000  0.000000      1.000000
  0.333333 -0.000000  0.000000      2.000000
  0.000000  0.333333  0.000000      2.000000
  0.333333  0.333333  0.000000      2.000000
 -0.333333  0.333333  0.000000      2.000000
 
 Following cartesian coordinates:
            Coordinates               Weight
  0.000000  0.000000  0.000000      1.000000
  0.024165  0.013952  0.000000      2.000000
  0.000000  0.027903  0.000000      2.000000
  0.024165  0.041855  0.000000      2.000000
 -0.024165  0.013952  0.000000      2.000000
 


--------------------------------------------------------------------------------------------------------




 Dimension of arrays:
   k-points           NKPTS =      5   k-points in BZ     NKDIM =      5   number of bands    NBANDS=    384
   number of dos      NEDOS =    301   number of ions     NIONS =     80
   non local maximal  LDIM  =      6   non local SUM 2l+1 LMDIM =     18
   total plane-waves  NPLWV = ******
   max r-space proj   IRMAX =   9806   max aug-charges    IRDMAX= 216835
   dimension x,y,z NGX =   112 NGY =  112 NGZ =  224
   dimension x,y,z NGXF=   224 NGYF=  224 NGZF=  448
   support grid    NGXF=   448 NGYF=  448 NGZF=  896
   ions per type =              32  32  16
   NGX,Y,Z   is equivalent  to a cutoff of  13.50, 13.50, 13.39 a.u.
   NGXF,Y,Z  is equivalent  to a cutoff of  27.00, 27.00, 26.78 a.u.

 SYSTEM =  unknown system                          
 POSCAR =  Sc Cl  C                                

 Startparameter for this run:
   NWRITE =      2    write-flag & timer
   PREC   = anorma    normal or accurate (medium, high low for compatibility)
   ISTART =      0    job   : 0-new  1-cont  2-samecut
   ICHARG =      2    charge: 1-file 2-atom 10-const
   ISPIN  =      1    spin polarized calculation?
   LNONCOLLINEAR =      F non collinear calculations
   LSORBIT =      F    spin-orbit coupling
   INIWAV =      1    electr: 0-lowe 1-rand  2-diag
   LASPH  =      F    aspherical Exc in radial PAW
   METAGGA=      F    non-selfconsistent MetaGGA calc.

 Electronic Relaxation 1
   ENCUT  =  600.0 eV  44.10 Ry    6.64 a.u.  27.55 27.55 55.54*2*pi/ulx,y,z
   ENINI  =  600.0     initial cutoff
   ENAUG  =  644.9 eV  augmentation charge cutoff
   NELM   =     60;   NELMIN=  2; NELMDL= -5     # of ELM steps 
   EDIFF  = 0.1E-05   stopping-criterion for ELM
   LREAL  =      T    real-space projection
   NLSPLINE    = F    spline interpolate recip. space projectors
   LCOMPAT=      F    compatible to vasp.4.4
   GGA_COMPAT  = T    GGA compatible to vasp.4.4-vasp.4.6
   LMAXPAW     = -100 max onsite density
   LMAXMIX     =    2 max onsite mixed and CHGCAR
   VOSKOWN=      0    Vosko Wilk Nusair interpolation
   ROPT   =   -0.00025  -0.00025  -0.00025
 Ionic relaxation
   EDIFFG = -.1E-01   stopping-criterion for IOM
   NSW    =      1    number of steps for IOM
   NBLOCK =      1;   KBLOCK =      1    inner block; outer block 
   IBRION =     -1    ionic relax: 0-MD 1-quasi-New 2-CG
   NFREE  =      0    steps in history (QN), initial steepest desc. (CG)
   ISIF   =      2    stress and relaxation
   IWAVPR =     10    prediction:  0-non 1-charg 2-wave 3-comb
   ISYM   =      2    0-nonsym 1-usesym 2-fastsym
   LCORR  =      T    Harris-Foulkes like correction to forces

   POTIM  = 1.0000    time-step for ionic-motion
   TEIN   =    0.0    initial temperature
   TEBEG  =    0.0;   TEEND  =   0.0 temperature during run
   SMASS  =  -3.00    Nose mass-parameter (am)
   estimated Nose-frequenzy (Omega)   =  0.10E-29 period in steps =****** mass=  -0.435E-26a.u.
   SCALEE = 1.0000    scale energy and forces
   NPACO  =    256;   APACO  = 16.0  distance and # of slots for P.C.
   PSTRESS=    0.0 pullay stress

  Mass of Ions in am
   POMASS =  44.96 35.45 12.01
  Ionic Valenz
   ZVAL   =  11.00  7.00  4.00
  Atomic Wigner-Seitz radii
   RWIGS  =  -1.00 -1.00 -1.00
  virtual crystal weights 
   VCA    =   1.00  1.00  1.00
   NELECT =     640.0000    total number of electrons
   NUPDOWN=      -1.0000    fix difference up-down

 DOS related values:
   EMIN   =  10.00;   EMAX   =-10.00  energy-range for DOS
   EFERMI =   0.00
   ISMEAR =     0;   SIGMA  =   0.05  broadening in eV -4-tet -1-fermi 0-gaus

 Electronic relaxation 2 (details)
   IALGO  =     38    algorithm
   LDIAG  =      T    sub-space diagonalisation (order eigenvalues)
   LSUBROT=      F    optimize rotation matrix (better conditioning)
   TURBO    =      0    0=normal 1=particle mesh
   IRESTART =      0    0=no restart 2=restart with 2 vectors
   NREBOOT  =      0    no. of reboots
   NMIN     =      0    reboot dimension
   EREF     =   0.00    reference energy to select bands
   IMIX   =      4    mixing-type and parameters
     AMIX     =   0.40;   BMIX     =  1.00
     AMIX_MAG =   1.60;   BMIX_MAG =  1.00
     AMIN     =   0.10
     WC   =   100.;   INIMIX=   1;  MIXPRE=   1;  MAXMIX= -45

 Intra band minimization:
   WEIMIN = 0.0000     energy-eigenvalue tresh-hold
   EBREAK =  0.65E-09  absolut break condition
   DEPER  =   0.30     relativ break condition  

   TIME   =   0.40     timestep for ELM

  volume/ion in A,a.u.               =      57.28       386.56
  Fermi-wavevector in a.u.,A,eV,Ry     =   0.849369  1.605075  9.815628  0.721428
  Thomas-Fermi vector in A             =   1.965179
 
 Write flags
   LWAVE        =      F    write WAVECAR
   LDOWNSAMPLE  =      F    k-point downsampling of WAVECAR
   LCHARG       =      F    write CHGCAR
   LVTOT        =      F    write LOCPOT, total local potential
   LVHAR        =      F    write LOCPOT, Hartree potential only
   LELF         =      F    write electronic localiz. function (ELF)
   LORBIT       =      0    0 simple, 1 ext, 2 COOP (PROOUT), +10 PAW based schemes


 Dipole corrections
   LMONO  =      F    monopole corrections only (constant potential shift)
   LDIPOL =      F    correct potential (dipole corrections)
   IDIPOL =      0    1-x, 2-y, 3-z, 4-all directions 
   EPSILON=  1.0000000 bulk dielectric constant

 Exchange correlation treatment:
   GGA     =    --    GGA type
   LEXCH   =     8    internal setting for exchange type
   VOSKOWN=      0    Vosko Wilk Nusair interpolation
   LHFCALC =     F    Hartree Fock is set to
   LHFONE  =     F    Hartree Fock one center treatment
   AEXX    =    0.0000 exact exchange contribution

 Linear response parameters
   LEPSILON=     F    determine dielectric tensor
   LRPA    =     F    only Hartree local field effects (RPA)
   LNABLA  =     F    use nabla operator in PAW spheres
   LVEL    =     F    velocity operator in full k-point grid
   LINTERFAST=   F  fast interpolation
   KINTER  =     0    interpolate to denser k-point grid
   CSHIFT  =0.1000    complex shift for real part using Kramers Kronig
   OMEGAMAX=  -1.0    maximum frequency
   DEG_THRESHOLD= 0.2000000E-02 threshold for treating states as degnerate
   RTIME   =   -0.100 relaxation time in fs
  (WPLASMAI=    0.000 imaginary part of plasma frequency in eV, 0.658/RTIME)
   DFIELD  = 0.0000000 0.0000000 0.0000000 field for delta impulse in time
 
 Orbital magnetization related:
   ORBITALMAG=     F  switch on orbital magnetization
   LCHIMAG   =     F  perturbation theory with respect to B field
   DQ        =  0.001000  dq finite difference perturbation B field
   LLRAUG    =     F  two centre corrections for induced B field



--------------------------------------------------------------------------------------------------------


 Static calculation
 charge density and potential will be updated during run
 non-spin polarized calculation
 Variant of blocked Davidson
 Davidson routine will perform the subspace rotation
 perform sub-space diagonalisation
    after iterative eigenvector-optimisation
 modified Broyden-mixing scheme, WC =      100.0
 initial mixing is a Kerker type mixing with AMIX =  0.4000 and BMIX =      1.0000
 Hartree-type preconditioning will be used
 using additional bands           64
 real space projection scheme for non local part
 use partial core corrections
 calculate Harris-corrections to forces 
   (improved forces if not selfconsistent)
 use gradient corrections 
 use of overlap-Matrix (Vanderbilt PP)
 Gauss-broadening in eV      SIGMA  =   0.05


--------------------------------------------------------------------------------------------------------


  energy-cutoff  :      600.00
  volume of cell :     4582.63
      direct lattice vectors                 reciprocal lattice vectors
    13.793986680  0.000000000  0.000000000     0.072495358  0.041855214  0.000000000
    -6.896993340 11.945942880  0.000000000     0.000000000  0.083710429  0.000000000
     0.000000000  0.000000000 27.810221070     0.000000000  0.000000000  0.035958003

  length of vectors
    13.793986680 13.793986676 27.810221070     0.083710429  0.083710429  0.035958003


 
 k-points in units of 2pi/SCALE and weight: read from INCAR                         
   0.00000000  0.00000000  0.00000000       0.111
   0.02416512  0.01395174  0.00000000       0.222
   0.00000000  0.02790348  0.00000000       0.222
   0.02416512  0.04185521  0.00000000       0.222
  -0.02416512  0.01395174  0.00000000       0.222
 
 k-points in reciprocal lattice and weights: read from INCAR                         
   0.00000000  0.00000000  0.00000000       0.111
   0.33333333 -0.00000000  0.00000000       0.222
   0.00000000  0.33333333  0.00000000       0.222
   0.33333333  0.33333333  0.00000000       0.222
  -0.33333333  0.33333333  0.00000000       0.222
 
 position of ions in fractional coordinates (direct lattice) 
   0.08226157  0.16335296  0.53981215
   0.08315094  0.40590132  0.54488650
   0.09002874  0.64978185  0.54811322
   0.07904267  0.92676527  0.54744724
   0.33881842  0.16843406  0.54170847
   0.33741084  0.40903578  0.55064725
   0.32846553  0.66019216  0.54009351
   0.33251898  0.91911887  0.54353550
   0.57585915  0.15172094  0.54574437
   0.59124680  0.40754275  0.54820979
   0.57404595  0.66194264  0.54926616
   0.58244657  0.91043077  0.54569106
   0.81675174  0.15077793  0.54081194
   0.84508987  0.41873618  0.54330428
   0.82582877  0.67687615  0.55110177
   0.83542585  0.93134794  0.54106835
   0.16886696  0.08318477  0.45602087
   0.16676922  0.33482237  0.45334868
   0.16995783  0.58986078  0.45107427
   0.16469955  0.82207193  0.45661609
   0.42418226  0.09247610  0.45133659
   0.42023936  0.33540463  0.46218202
   0.41192150  0.57855187  0.45551779
   0.42288388  0.83104119  0.45461666
   0.66536997  0.08813789  0.45250346
   0.67077493  0.34345187  0.45492157
   0.68309800  0.59438552  0.45545622
   0.66816515  0.83186991  0.45674192
   0.92226468  0.07973761  0.45172511
   0.91458561  0.33459454  0.45483796
   0.92480229  0.59633700  0.46081691
   0.92352111  0.83640590  0.45576226
   0.08146852  0.15077150  0.38920725
   0.09372552  0.41715253  0.38668767
   0.08425191  0.66672437  0.39284119
   0.08267686  0.92116473  0.39525668
   0.33354903  0.17125581  0.39276346
   0.34094590  0.42514660  0.39551423
   0.33794296  0.67739095  0.39318959
   0.33956603  0.91880894  0.39906623
   0.58317664  0.16915139  0.38643361
   0.57854985  0.42140503  0.39403194
   0.58180295  0.67236669  0.40199524
   0.57033885  0.91833368  0.39264031
   0.82577295  0.15365727  0.39712264
   0.83010078  0.41715705  0.39774932
   0.84189299  0.68762025  0.39699417
   0.83706586  0.91991549  0.39331657
   0.15770313  0.07726415  0.61287550
   0.15281739  0.33674586  0.60875769
   0.17084839  0.57963518  0.60282445
   0.16584926  0.83317262  0.60266462
   0.39601169  0.05769530  0.60751681
   0.42316987  0.34424068  0.61241150
   0.40056573  0.58452764  0.60539836
   0.41900147  0.83036751  0.60773730
   0.66291066  0.07895844  0.60452500
   0.64980355  0.32182267  0.60764189
   0.66935290  0.58751846  0.60476604
   0.67361320  0.85220657  0.60470241
   0.92519193  0.09744780  0.59563419
   0.91376511  0.32338589  0.60414757
   0.90716546  0.57142774  0.60238243
   0.91303343  0.84101984  0.60385760
   0.00270584  0.00569294  0.49981399
   0.00596129  0.24721857  0.49559482
   0.99981770  0.50117877  0.49618973
   0.99787845  0.73755249  0.50298083
   0.24468875  0.00873781  0.50301096
   0.25699995  0.24679384  0.50181938
   0.24924937  0.49719792  0.49678383
   0.25219120  0.74395664  0.49984220
   0.50806962  0.00006877  0.49883036
   0.50192746  0.25031231  0.49944693
   0.49375429  0.49305208  0.50885739
   0.49610344  0.75287949  0.50434885
   0.75374753  0.00310161  0.49545606
   0.74599454  0.24658655  0.49880712
   0.75350556  0.50134317  0.50072932
   0.75220853  0.74798234  0.50075644
 
 position of ions in cartesian coordinates  (Angst):
   0.00807075  1.95140512 15.01229519
  -1.65251575  4.84887401 15.15341405
  -3.23968593  7.76225692 15.24314969
  -5.30158034 11.07108501 15.22462880
   3.51196814  2.01210365 15.06503239
   1.83312351  4.88631809 15.31362170
  -0.02249184  7.88661785 15.02011986
  -1.75239437 10.97974154 15.11584252
   6.89697506  1.81244974 15.17727146
   5.34483089  4.86848245 15.24583532
   3.35296825  7.90752900 15.27521330
   1.75502525 10.87595392 15.17578903
  10.22634830  1.80118454 15.04009951
   8.76913783  5.00219849 15.10941203
   6.72306069  8.08592388 15.32626216
   5.10035253 11.12582924 15.04723046
   1.75562379  0.99372056 12.68204122
  -0.00885520  3.99976887 12.60772715
  -1.72386979  7.04644314 12.54447520
  -3.39796129  9.82042432 12.69859434
   5.21335741  1.10471415 12.55177042
   3.48349264  4.00672450 12.85338407
   1.69177124  6.91134759 12.66805051
   0.10156912  9.92757055 12.64298990
   8.57021800  1.05289019 12.58422119
   6.88387514  4.10285647 12.65146937
   5.32317172  7.10049547 12.66633804
   3.47925993  9.93747048 12.70209364
  12.17175697  0.95254090 12.56257508
  10.30808545  3.99704727 12.64914415
   8.64377814  7.12380777 12.81542016
   6.97035190  9.99165713 12.67484916
   0.08390568  1.80110773 10.82393970
  -1.58424960  4.98328031 10.75386953
  -3.43622388  7.96465125 10.92500023
  -5.21282351 11.00418121 10.99217569
   3.41982077  2.04581210 10.92283869
   1.77076999  5.07877698 10.99933820
  -0.01038016  8.09207361 10.93468943
  -1.65304987 10.97603912 11.09812011
   6.87769481  2.02067286 10.74680403
   5.07408123  5.03408042 10.95811549
   3.38807365  8.03205403 11.17957642
   1.53350519 10.97036174 10.91941392
  10.33092784  1.83558097 11.04406852
   8.57326965  4.98333432 11.06149640
   6.87054839  8.21427223 11.04049573
   5.20182439 10.98925787 10.93822080
   1.64246448  0.92299312 17.04420302
  -0.21457295  4.02274683 16.92968599
  -1.64105947  6.92428870 16.76468110
  -3.45866349  9.95303257 16.76023628
   5.06465582  0.68922477 16.89517692
   3.46297386  4.11227946 17.03129929
   1.49391506  6.98273381 16.83626234
   0.05266149  9.91952280 16.90130876
   8.59960496  0.94323306 16.81197397
   6.74377267  3.84447520 16.89865542
   5.18093404  7.01846198 16.81867735
   3.41414845 10.18041095 16.81690776
  12.08998837  1.16410583 16.56471847
  10.37407338  3.86314935 16.80147739
   8.57229496  6.82624318 16.75238858
   6.79386274 10.04677496 16.79341346
  -0.00193984  0.06800752 13.89993756
  -1.62283487  2.95325890 13.78260160
  10.33484539  5.98705295 13.79914605
   8.67782739  8.81075996 13.98800808
   3.31496883  0.10438133 13.98884610
   1.84291848  2.94818509 13.95570789
   0.00897178  5.93949795 13.81566807
  -1.65234201  8.88726358 13.90072216
   7.00783134  0.00082148 13.87258264
   5.19717842  2.99021651 13.88972952
   3.41026316  5.88997204 14.15143653
   1.65063938  8.99385537 14.02605288
  10.37579160  0.03705169 13.77874258
   8.58953303  2.94570879 13.87193621
   6.93608516  5.98901683 13.92539300
   5.21712522  8.93535426 13.92614742
 


--------------------------------------------------------------------------------------------------------


 k-point  1 :   0.0000 0.0000 0.0000  plane waves:  153003
 k-point  2 :   0.3333-0.0000 0.0000  plane waves:  152954
 k-point  3 :   0.0000 0.3333 0.0000  plane waves:  152954
 k-point  4 :   0.3333 0.3333 0.0000  plane waves:  152898
 k-point  5 :  -0.3333 0.3333 0.0000  plane waves:  152954

 maximum and minimum number of plane-waves per node :     11814    11730

 maximum number of plane-waves:    153003
 maximum index in each direction: 
   IXMAX=   27   IYMAX=   27   IZMAX=   55
   IXMIN=  -27   IYMIN=  -27   IZMIN=  -55


 real space projection operators:
  total allocation   :      55035.31 KBytes
  max/ min on nodes  :       4471.03       3862.17


 parallel 3D FFT for wavefunctions:
    minimum data exchange during FFTs selected (reduces bandwidth)
 parallel 3D FFT for charge:
    minimum data exchange during FFTs selected (reduces bandwidth)


 total amount of memory used by VASP MPI-rank0   253906. kBytes
=======================================================================

   base      :      30000. kBytes
   nonlr-proj:      18722. kBytes
   fftplans  :      72602. kBytes
   grid      :      41267. kBytes
   one-center:        108. kBytes
   wavefun   :      91207. kBytes
 
     INWAV:  cpu time    0.0001: real time    0.0001
 Broyden mixing: mesh for mixing (old mesh)
   NGX = 55   NGY = 55   NGZ =111
  (NGX  =224   NGY  =224   NGZ  =448)
  gives a total of 335775 points

 initial charge density was supplied:
 charge density of overlapping atoms calculated
 number of electron     640.0000000 magnetization 
 keeping initial charge density in first step


--------------------------------------------------------------------------------------------------------


 Maximum index for non-local projection operator          950
 Maximum index for augmentation-charges         5084 (set IRDMAX)


--------------------------------------------------------------------------------------------------------


 First call to EWALD:  gamma=   0.107
 Maximum number of real-space cells 4x 4x 2
 Maximum number of reciprocal cells 2x 2x 4

    FEWALD:  cpu time    0.0034: real time    0.0034


--------------------------------------- Iteration      1(   1)  ---------------------------------------


    POTLOK:  cpu time    0.4110: real time    0.4165
    SETDIJ:  cpu time    0.4205: real time    0.4206
     EDDAV:  cpu time   50.1453: real time   50.1550
       DOS:  cpu time    0.0015: real time    0.0015
    --------------------------------------------
      LOOP:  cpu time   50.9782: real time   50.9935

 eigenvalue-minimisations  :  4416
 total energy-change (2. order) : 0.1218413E+05  (-0.2679737E+05)
 number of electron     640.0000000 magnetization 
 augmentation part      640.0000000 magnetization 

 Free energy of the ion-electron system (eV)
  ---------------------------------------------------
  alpha Z        PSCENC =       784.57699423
  Ewald energy   TEWEN  =    251534.84457802
  -Hartree energ DENC   =   -299196.14182750
  -exchange      EXHF   =         0.00000000
  -V(xc)+E(xc)   XCENC  =      2502.57096856
  PAW double counting   =     43679.68029659   -43417.33247688
  entropy T*S    EENTRO =        -0.06932371
  eigenvalues    EBANDS =        85.27754481
  atomic energy  EATOM  =     56210.72393729
  Solvation  Ediel_sol  =         0.00000000
  ---------------------------------------------------
  free energy    TOTEN  =     12184.13069141 eV

  energy without entropy =    12184.20001512  energy(sigma->0) =    12184.16535326


--------------------------------------------------------------------------------------------------------




--------------------------------------- Iteration      1(   2)  ---------------------------------------


     EDDAV:  cpu time   55.9926: real time   56.0142
       DOS:  cpu time    0.0012: real time    0.0012
    --------------------------------------------
      LOOP:  cpu time   55.9938: real time   56.0154

 eigenvalue-minimisations  :  5120
 total energy-change (2. order) :-0.1044129E+05  (-0.1017363E+05)
 number of electron     640.0000000 magnetization 
 augmentation part      640.0000000 magnetization 

 Free energy of the ion-electron system (eV)
  ---------------------------------------------------
  alpha Z        PSCENC =       784.57699423
  Ewald energy   TEWEN  =    251534.84457802
  -Hartree energ DENC   =   -299196.14182750
  -exchange      EXHF   =         0.00000000
  -V(xc)+E(xc)   XCENC  =      2502.57096856
  PAW double counting   =     43679.68029659   -43417.33247688
  entropy T*S    EENTRO =        -0.04137119
  eigenvalues    EBANDS =    -10356.04213521
  atomic energy  EATOM  =     56210.72393729
  Solvation  Ediel_sol  =         0.00000000
  ---------------------------------------------------
  free energy    TOTEN  =      1742.83896391 eV

  energy without entropy =     1742.88033510  energy(sigma->0) =     1742.85964950


--------------------------------------------------------------------------------------------------------




--------------------------------------- Iteration      1(   3)  ---------------------------------------


     EDDAV:  cpu time   70.7855: real time   70.8044
       DOS:  cpu time    0.0005: real time    0.0005
    --------------------------------------------
      LOOP:  cpu time   70.7860: real time   70.8049

 eigenvalue-minimisations  :  6800
 total energy-change (2. order) :-0.2149365E+04  (-0.2064811E+04)
 number of electron     640.0000000 magnetization 
 augmentation part      640.0000000 magnetization 

 Free energy of the ion-electron system (eV)
  ---------------------------------------------------
  alpha Z        PSCENC =       784.57699423
  Ewald energy   TEWEN  =    251534.84457802
  -Hartree energ DENC   =   -299196.14182750
  -exchange      EXHF   =         0.00000000
  -V(xc)+E(xc)   XCENC  =      2502.57096856
  PAW double counting   =     43679.68029659   -43417.33247688
  entropy T*S    EENTRO =        -0.00000000
  eigenvalues    EBANDS =    -12505.44872482
  atomic energy  EATOM  =     56210.72393729
  Solvation  Ediel_sol  =         0.00000000
  ---------------------------------------------------
  free energy    TOTEN  =      -406.52625451 eV

  energy without entropy =     -406.52625451  energy(sigma->0) =     -406.52625451


--------------------------------------------------------------------------------------------------------




--------------------------------------- Iteration      1(   4)  ---------------------------------------


     EDDAV:  cpu time   64.4890: real time   64.5098
       DOS:  cpu time    0.0005: real time    0.0005
    --------------------------------------------
      LOOP:  cpu time   64.4895: real time   64.5103

 eigenvalue-minimisations  :  6080
 total energy-change (2. order) :-0.2362101E+03  (-0.2318126E+03)
 number of electron     640.0000000 magnetization 
 augmentation part      640.0000000 magnetization 

 Free energy of the ion-electron system (eV)
  ---------------------------------------------------
  alpha Z        PSCENC =       784.57699423
  Ewald energy   TEWEN  =    251534.84457802
  -Hartree energ DENC   =   -299196.14182750
  -exchange      EXHF   =         0.00000000
  -V(xc)+E(xc)   XCENC  =      2502.57096856
  PAW double counting   =     43679.68029659   -43417.33247688
  entropy T*S    EENTRO =        -0.00000000
  eigenvalues    EBANDS =    -12741.65887411
  atomic energy  EATOM  =     56210.72393729
  Solvation  Ediel_sol  =         0.00000000
  ---------------------------------------------------
  free energy    TOTEN  =      -642.73640380 eV

  energy without entropy =     -642.73640380  energy(sigma->0) =     -642.73640380


--------------------------------------------------------------------------------------------------------




--------------------------------------- Iteration      1(   5)  ---------------------------------------


     EDDAV:  cpu time   64.4788: real time   64.5000
       DOS:  cpu time    0.0006: real time    0.0006
    CHARGE:  cpu time    3.8845: real time    3.8852
    MIXING:  cpu time    0.0130: real time    0.0131
    --------------------------------------------
      LOOP:  cpu time   68.3769: real time   68.3989

 eigenvalue-minimisations  :  6080
 total energy-change (2. order) :-0.1039474E+02  (-0.1034079E+02)
 number of electron     640.0000003 magnetization 
 augmentation part       59.2189588 magnetization 

 Broyden mixing:
  rms(total) = 0.69597E+01    rms(broyden)= 0.69595E+01
  rms(prec ) = 0.73220E+01
  weight for this iteration     100.00

 Free energy of the ion-electron system (eV)
  ---------------------------------------------------
  alpha Z        PSCENC =       784.57699423
  Ewald energy   TEWEN  =    251534.84457802
  -Hartree energ DENC   =   -299196.14182750
  -exchange      EXHF   =         0.00000000
  -V(xc)+E(xc)   XCENC  =      2502.57096856
  PAW double counting   =     43679.68029659   -43417.33247688
  entropy T*S    EENTRO =        -0.00000000
  eigenvalues    EBANDS =    -12752.05361845
  atomic energy  EATOM  =     56210.72393729
  Solvation  Ediel_sol  =         0.00000000
  ---------------------------------------------------
  free energy    TOTEN  =      -653.13114814 eV

  energy without entropy =     -653.13114814  energy(sigma->0) =     -653.13114814


--------------------------------------------------------------------------------------------------------




--------------------------------------- Iteration      1(   6)  ---------------------------------------


    POTLOK:  cpu time    0.3839: real time    0.3922
    SETDIJ:  cpu time    0.4180: real time    0.4182
     EDDAV:  cpu time   62.4841: real time   62.4957
       DOS:  cpu time    0.0006: real time    0.0006
    CHARGE:  cpu time    3.8899: real time    3.8907
    MIXING:  cpu time    0.0132: real time    0.0132
    --------------------------------------------
      LOOP:  cpu time   67.1897: real time   67.2107

 eigenvalue-minimisations  :  5832
 total energy-change (2. order) : 0.1307174E+03  (-0.6976534E+02)
 number of electron     640.0000004 magnetization 
 augmentation part       70.0790433 magnetization 

 Broyden mixing:
  rms(total) = 0.30614E+01    rms(broyden)= 0.30612E+01
  rms(prec ) = 0.30943E+01
  weight for this iteration     100.00

 eigenvalues of (default mixing * dielectric matrix)
  average eigenvalue GAMMA=   0.9521
  0.9521

 Free energy of the ion-electron system (eV)
  ---------------------------------------------------
  alpha Z        PSCENC =       784.57699423
  Ewald energy   TEWEN  =    251534.84457802
  -Hartree energ DENC   =   -299003.69373689
  -exchange      EXHF   =         0.00000000
  -V(xc)+E(xc)   XCENC  =      2492.27642137
  PAW double counting   =     49245.76894415   -49037.98730825
  entropy T*S    EENTRO =        -0.00000000
  eigenvalues    EBANDS =    -12748.92359834
  atomic energy  EATOM  =     56210.72393729
  Solvation  Ediel_sol  =         0.00000000
  ---------------------------------------------------
  free energy    TOTEN  =      -522.41376843 eV

  energy without entropy =     -522.41376843  energy(sigma->0) =     -522.41376843


--------------------------------------------------------------------------------------------------------




--------------------------------------- Iteration      1(   7)  ---------------------------------------


    POTLOK:  cpu time    0.3838: real time    0.3922
    SETDIJ:  cpu time    0.4184: real time    0.4184
     EDDAV:  cpu time   63.3122: real time   63.3241
       DOS:  cpu time    0.0005: real time    0.0005
    CHARGE:  cpu time    3.8783: real time    3.8790
    MIXING:  cpu time    0.0136: real time    0.0136
    --------------------------------------------
      LOOP:  cpu time   68.0068: real time   68.0278

 eigenvalue-minimisations  :  5928
 total energy-change (2. order) :-0.5064322E+01  (-0.9011102E+01)
 number of electron     640.0000004 magnetization 
 augmentation part       69.5332831 magnetization 

 Broyden mixing:
  rms(total) = 0.15378E+01    rms(broyden)= 0.15378E+01
  rms(prec ) = 0.15743E+01
  weight for this iteration     100.00

 eigenvalues of (default mixing * dielectric matrix)
  average eigenvalue GAMMA=   0.9948
  0.9948  0.9948

 Free energy of the ion-electron system (eV)
  ---------------------------------------------------
  alpha Z        PSCENC =       784.57699423
  Ewald energy   TEWEN  =    251534.84457802
  -Hartree energ DENC   =   -299104.63648171
  -exchange      EXHF   =         0.00000000
  -V(xc)+E(xc)   XCENC  =      2488.27053009
  PAW double counting   =     54308.34124086   -54114.75685220
  entropy T*S    EENTRO =        -0.00000000
  eigenvalues    EBANDS =    -12634.84203734
  atomic energy  EATOM  =     56210.72393729
  Solvation  Ediel_sol  =         0.00000000
  ---------------------------------------------------
  free energy    TOTEN  =      -527.47809077 eV

  energy without entropy =     -527.47809077  energy(sigma->0) =     -527.47809077


--------------------------------------------------------------------------------------------------------




--------------------------------------- Iteration      1(   8)  ---------------------------------------


    POTLOK:  cpu time    0.3841: real time    0.3928
    SETDIJ:  cpu time    0.4194: real time    0.4194
     EDDAV:  cpu time   63.1284: real time   63.1421
       DOS:  cpu time    0.0006: real time    0.0006
    CHARGE:  cpu time    3.8772: real time    3.8779
    MIXING:  cpu time    0.0140: real time    0.0140
    --------------------------------------------
      LOOP:  cpu time   67.8236: real time   67.8468

 eigenvalue-minimisations  :  5904
 total energy-change (2. order) : 0.2305179E+01  (-0.9978403E+00)
 number of electron     640.0000004 magnetization 
 augmentation part       69.2540142 magnetization 

 Broyden mixing:
  rms(total) = 0.94930E+00    rms(broyden)= 0.94930E+00
  rms(prec ) = 0.96497E+00
  weight for this iteration     100.00

 eigenvalues of (default mixing * dielectric matrix)
  average eigenvalue GAMMA=   1.4278
  2.5489  0.8673  0.8673

 Free energy of the ion-electron system (eV)
  ---------------------------------------------------
  alpha Z        PSCENC =       784.57699423
  Ewald energy   TEWEN  =    251534.84457802
  -Hartree energ DENC   =   -299172.31387484
  -exchange      EXHF   =         0.00000000
  -V(xc)+E(xc)   XCENC  =      2488.34153677
  PAW double counting   =     56198.81047081   -56015.69394247
  entropy T*S    EENTRO =        -0.00000000
  eigenvalues    EBANDS =    -12554.46261190
  atomic energy  EATOM  =     56210.72393729
  Solvation  Ediel_sol  =         0.00000000
  ---------------------------------------------------
  free energy    TOTEN  =      -525.17291209 eV

  energy without entropy =     -525.17291209  energy(sigma->0) =     -525.17291209


--------------------------------------------------------------------------------------------------------




--------------------------------------- Iteration      1(   9)  ---------------------------------------


    POTLOK:  cpu time    0.3841: real time    0.3939
    SETDIJ:  cpu time    0.4194: real time    0.4194
     EDDAV:  cpu time   58.5901: real time   58.6015
       DOS:  cpu time    0.0006: real time    0.0006
    CHARGE:  cpu time    3.8763: real time    3.8769
    MIXING:  cpu time    0.0136: real time    0.0136
    --------------------------------------------
      LOOP:  cpu time   63.2840: real time   63.3058

 eigenvalue-minimisations  :  5392
 total energy-change (2. order) : 0.5146773E+00  (-0.4011586E+00)
 number of electron     640.0000004 magnetization 
 augmentation part       69.9749484 magnetization 

 Broyden mixing:
  rms(total) = 0.31567E+00    rms(broyden)= 0.31566E+00
  rms(prec ) = 0.32895E+00
  weight for this iteration     100.00

 eigenvalues of (default mixing * dielectric matrix)
  average eigenvalue GAMMA=   1.2154
  2.1693  0.8565  0.8565  0.9791

 Free energy of the ion-electron system (eV)
  ---------------------------------------------------
  alpha Z        PSCENC =       784.57699423
  Ewald energy   TEWEN  =    251534.84457802
  -Hartree energ DENC   =   -299299.94411324
  -exchange      EXHF   =         0.00000000
  -V(xc)+E(xc)   XCENC  =      2487.86120143
  PAW double counting   =     60033.41248089   -59867.44887753
  entropy T*S    EENTRO =        -0.00000000
  eigenvalues    EBANDS =    -12408.68443586
  atomic energy  EATOM  =     56210.72393729
  Solvation  Ediel_sol  =         0.00000000
  ---------------------------------------------------
  free energy    TOTEN  =      -524.65823477 eV

  energy without entropy =     -524.65823477  energy(sigma->0) =     -524.65823477


--------------------------------------------------------------------------------------------------------




--------------------------------------- Iteration      1(  10)  ---------------------------------------


    POTLOK:  cpu time    0.3848: real time    0.3934
    SETDIJ:  cpu time    0.4187: real time    0.4187
     EDDAV:  cpu time   61.3656: real time   61.3793
       DOS:  cpu time    0.0005: real time    0.0005
    CHARGE:  cpu time    3.8773: real time    3.8780
    MIXING:  cpu time    0.0134: real time    0.0134
    --------------------------------------------
      LOOP:  cpu time   66.0603: real time   66.0834

 eigenvalue-minimisations  :  5704
 total energy-change (2. order) : 0.1440872E+00  (-0.5935364E-01)
 number of electron     640.0000004 magnetization 
 augmentation part       69.7906048 magnetization 

 Broyden mixing:
  rms(total) = 0.17427E+00    rms(broyden)= 0.17427E+00
  rms(prec ) = 0.18139E+00
  weight for this iteration     100.00

 eigenvalues of (default mixing * dielectric matrix)
  average eigenvalue GAMMA=   1.2194
  2.1775  1.4157  0.9103  0.9103  0.6832

 Free energy of the ion-electron system (eV)
  ---------------------------------------------------
  alpha Z        PSCENC =       784.57699423
  Ewald energy   TEWEN  =    251534.84457802
  -Hartree energ DENC   =   -299325.49955745
  -exchange      EXHF   =         0.00000000
  -V(xc)+E(xc)   XCENC  =      2488.44290538
  PAW double counting   =     59479.22609287   -59310.91451676
  entropy T*S    EENTRO =        -0.00000000
  eigenvalues    EBANDS =    -12385.91458113
  atomic energy  EATOM  =     56210.72393729
  Solvation  Ediel_sol  =         0.00000000
  ---------------------------------------------------
  free energy    TOTEN  =      -524.51414754 eV

  energy without entropy =     -524.51414754  energy(sigma->0) =     -524.51414754


--------------------------------------------------------------------------------------------------------




--------------------------------------- Iteration      1(  11)  ---------------------------------------


    POTLOK:  cpu time    0.3847: real time    0.3931
    SETDIJ:  cpu time    0.4203: real time    0.4203
     EDDAV:  cpu time   61.9324: real time   61.9448
       DOS:  cpu time    0.0006: real time    0.0006
    CHARGE:  cpu time    3.8806: real time    3.8814
    MIXING:  cpu time    0.0133: real time    0.0133
    --------------------------------------------
      LOOP:  cpu time   66.6318: real time   66.6534

 eigenvalue-minimisations  :  5776
 total energy-change (2. order) : 0.2172006E-01  (-0.2412862E-01)
 number of electron     640.0000004 magnetization 
 augmentation part       69.7366528 magnetization 

 Broyden mixing:
  rms(total) = 0.74209E-01    rms(broyden)= 0.74207E-01
  rms(prec ) = 0.80604E-01
  weight for this iteration     100.00

 eigenvalues of (default mixing * dielectric matrix)
  average eigenvalue GAMMA=   1.2694
  2.4773  1.7440  0.8950  0.8950  0.8027  0.8027

 Free energy of the ion-electron system (eV)
  ---------------------------------------------------
  alpha Z        PSCENC =       784.57699423
  Ewald energy   TEWEN  =    251534.84457802
  -Hartree energ DENC   =   -299374.88402130
  -exchange      EXHF   =         0.00000000
  -V(xc)+E(xc)   XCENC  =      2489.01885729
  PAW double counting   =     59599.65069068   -59431.58972902
  entropy T*S    EENTRO =        -0.00000000
  eigenvalues    EBANDS =    -12336.83373467
  atomic energy  EATOM  =     56210.72393729
  Solvation  Ediel_sol  =         0.00000000
  ---------------------------------------------------
  free energy    TOTEN  =      -524.49242748 eV

  energy without entropy =     -524.49242748  energy(sigma->0) =     -524.49242748


--------------------------------------------------------------------------------------------------------




--------------------------------------- Iteration      1(  12)  ---------------------------------------


    POTLOK:  cpu time    0.3845: real time    0.3931
    SETDIJ:  cpu time    0.4190: real time    0.4190
     EDDAV:  cpu time   64.5718: real time   64.5855
       DOS:  cpu time    0.0005: real time    0.0005
    CHARGE:  cpu time    3.8814: real time    3.8820
    MIXING:  cpu time    0.0136: real time    0.0136
    --------------------------------------------
      LOOP:  cpu time   69.2709: real time   69.2937

 eigenvalue-minimisations  :  6072
 total energy-change (2. order) : 0.1388716E-01  (-0.3554724E-02)
 number of electron     640.0000004 magnetization 
 augmentation part       69.7269064 magnetization 

 Broyden mixing:
  rms(total) = 0.29167E-01    rms(broyden)= 0.29167E-01
  rms(prec ) = 0.36224E-01
  weight for this iteration     100.00

 eigenvalues of (default mixing * dielectric matrix)
  average eigenvalue GAMMA=   1.2688
  2.2466  2.2466  0.9270  0.9270  0.9082  0.9082  0.7177

 Free energy of the ion-electron system (eV)
  ---------------------------------------------------
  alpha Z        PSCENC =       784.57699423
  Ewald energy   TEWEN  =    251534.84457802
  -Hartree energ DENC   =   -299409.68876337
  -exchange      EXHF   =         0.00000000
  -V(xc)+E(xc)   XCENC  =      2489.43279816
  PAW double counting   =     59687.00372773   -59519.15294648
  entropy T*S    EENTRO =        -0.00000000
  eigenvalues    EBANDS =    -12302.21886592
  atomic energy  EATOM  =     56210.72393729
  Solvation  Ediel_sol  =         0.00000000
  ---------------------------------------------------
  free energy    TOTEN  =      -524.47854032 eV

  energy without entropy =     -524.47854032  energy(sigma->0) =     -524.47854032


--------------------------------------------------------------------------------------------------------




--------------------------------------- Iteration      1(  13)  ---------------------------------------


    POTLOK:  cpu time    0.3843: real time    0.3929
    SETDIJ:  cpu time    0.4192: real time    0.4192
     EDDAV:  cpu time   58.4358: real time   58.4489
       DOS:  cpu time    0.0006: real time    0.0006
    CHARGE:  cpu time    3.8808: real time    3.8816
    MIXING:  cpu time    0.0151: real time    0.0151
    --------------------------------------------
      LOOP:  cpu time   63.1358: real time   63.1582

 eigenvalue-minimisations  :  5376
 total energy-change (2. order) : 0.2715165E-02  (-0.9270591E-03)
 number of electron     640.0000004 magnetization 
 augmentation part       69.7316732 magnetization 

 Broyden mixing:
  rms(total) = 0.19367E-01    rms(broyden)= 0.19367E-01
  rms(prec ) = 0.25725E-01
  weight for this iteration     100.00

 eigenvalues of (default mixing * dielectric matrix)
  average eigenvalue GAMMA=   1.3017
  2.6688  1.8595  1.5938  0.9095  0.9095  0.8978  0.8978  0.6767

 Free energy of the ion-electron system (eV)
  ---------------------------------------------------
  alpha Z        PSCENC =       784.57699423
  Ewald energy   TEWEN  =    251534.84457802
  -Hartree energ DENC   =   -299430.70049695
  -exchange      EXHF   =         0.00000000
  -V(xc)+E(xc)   XCENC  =      2489.61808189
  PAW double counting   =     59646.52734284   -59478.52770284
  entropy T*S    EENTRO =        -0.00000000
  eigenvalues    EBANDS =    -12281.53855965
  atomic energy  EATOM  =     56210.72393729
  Solvation  Ediel_sol  =         0.00000000
  ---------------------------------------------------
  free energy    TOTEN  =      -524.47582516 eV

  energy without entropy =     -524.47582516  energy(sigma->0) =     -524.47582516


--------------------------------------------------------------------------------------------------------




--------------------------------------- Iteration      1(  14)  ---------------------------------------


    POTLOK:  cpu time    0.3846: real time    0.3942
    SETDIJ:  cpu time    0.4196: real time    0.4196
     EDDAV:  cpu time   58.6696: real time   58.6808
       DOS:  cpu time    0.0006: real time    0.0006
    CHARGE:  cpu time    3.8778: real time    3.8785
    MIXING:  cpu time    0.0151: real time    0.0151
    --------------------------------------------
      LOOP:  cpu time   63.3674: real time   63.3888

 eigenvalue-minimisations  :  5400
 total energy-change (2. order) : 0.1476029E-02  (-0.6395491E-03)
 number of electron     640.0000004 magnetization 
 augmentation part       69.7436711 magnetization 

 Broyden mixing:
  rms(total) = 0.17298E-01    rms(broyden)= 0.17298E-01
  rms(prec ) = 0.20960E-01
  weight for this iteration     100.00

 eigenvalues of (default mixing * dielectric matrix)
  average eigenvalue GAMMA=   1.3462
  2.6238  2.6238  1.6687  0.9302  0.9302  1.0381  0.7902  0.7902  0.7208

 Free energy of the ion-electron system (eV)
  ---------------------------------------------------
  alpha Z        PSCENC =       784.57699423
  Ewald energy   TEWEN  =    251534.84457802
  -Hartree energ DENC   =   -299455.08623313
  -exchange      EXHF   =         0.00000000
  -V(xc)+E(xc)   XCENC  =      2489.76542813
  PAW double counting   =     59652.85967756   -59484.92466424
  entropy T*S    EENTRO =        -0.00000000
  eigenvalues    EBANDS =    -12257.23406699
  atomic energy  EATOM  =     56210.72393729
  Solvation  Ediel_sol  =         0.00000000
  ---------------------------------------------------
  free energy    TOTEN  =      -524.47434913 eV

  energy without entropy =     -524.47434913  energy(sigma->0) =     -524.47434913


--------------------------------------------------------------------------------------------------------




--------------------------------------- Iteration      1(  15)  ---------------------------------------


    POTLOK:  cpu time    0.3847: real time    0.3938
    SETDIJ:  cpu time    0.4196: real time    0.4198
     EDDAV:  cpu time   59.9590: real time   59.9717
       DOS:  cpu time    0.0006: real time    0.0006
    CHARGE:  cpu time    3.8819: real time    3.8827
    MIXING:  cpu time    0.0133: real time    0.0133
    --------------------------------------------
      LOOP:  cpu time   64.6591: real time   64.6820

 eigenvalue-minimisations  :  5536
 total energy-change (2. order) :-0.1506226E-02  (-0.2228490E-03)
 number of electron     640.0000004 magnetization 
 augmentation part       69.7453942 magnetization 

 Broyden mixing:
  rms(total) = 0.96998E-02    rms(broyden)= 0.96997E-02
  rms(prec ) = 0.12795E-01
  weight for this iteration     100.00

 eigenvalues of (default mixing * dielectric matrix)
  average eigenvalue GAMMA=   1.3524
  2.8245  2.7439  1.3827  1.3827  0.9001  0.9001  0.9276  0.9276  0.8763  0.6578

 Free energy of the ion-electron system (eV)
  ---------------------------------------------------
  alpha Z        PSCENC =       784.57699423
  Ewald energy   TEWEN  =    251534.84457802
  -Hartree energ DENC   =   -299473.49023557
  -exchange      EXHF   =         0.00000000
  -V(xc)+E(xc)   XCENC  =      2489.85769071
  PAW double counting   =     59611.55393457   -59443.49116416
  entropy T*S    EENTRO =        -0.00000000
  eigenvalues    EBANDS =    -12239.05159045
  atomic energy  EATOM  =     56210.72393729
  Solvation  Ediel_sol  =         0.00000000
  ---------------------------------------------------
  free energy    TOTEN  =      -524.47585536 eV

  energy without entropy =     -524.47585536  energy(sigma->0) =     -524.47585536


--------------------------------------------------------------------------------------------------------




--------------------------------------- Iteration      1(  16)  ---------------------------------------


    POTLOK:  cpu time    0.3854: real time    0.3938
    SETDIJ:  cpu time    0.4198: real time    0.4201
     EDDAV:  cpu time   61.6590: real time   61.6729
       DOS:  cpu time    0.0007: real time    0.0007
    CHARGE:  cpu time    3.8891: real time    3.8898
    MIXING:  cpu time    0.0163: real time    0.0163
    --------------------------------------------
      LOOP:  cpu time   66.3704: real time   66.3936

 eigenvalue-minimisations  :  5736
 total energy-change (2. order) :-0.1707842E-02  (-0.1176643E-03)
 number of electron     640.0000004 magnetization 
 augmentation part       69.7445727 magnetization 

 Broyden mixing:
  rms(total) = 0.57382E-02    rms(broyden)= 0.57381E-02
  rms(prec ) = 0.80777E-02
  weight for this iteration     100.00

 eigenvalues of (default mixing * dielectric matrix)
  average eigenvalue GAMMA=   1.4096
  3.4189  2.4714  2.1677  1.2900  0.8896  0.8896  0.9914  0.9914  0.9409  0.7888
  0.6659

 Free energy of the ion-electron system (eV)
  ---------------------------------------------------
  alpha Z        PSCENC =       784.57699423
  Ewald energy   TEWEN  =    251534.84457802
  -Hartree energ DENC   =   -299485.83766847
  -exchange      EXHF   =         0.00000000
  -V(xc)+E(xc)   XCENC  =      2489.91882714
  PAW double counting   =     59608.60536401   -59440.56062239
  entropy T*S    EENTRO =        -0.00000000
  eigenvalues    EBANDS =    -12226.74897303
  atomic energy  EATOM  =     56210.72393729
  Solvation  Ediel_sol  =         0.00000000
  ---------------------------------------------------
  free energy    TOTEN  =      -524.47756320 eV

  energy without entropy =     -524.47756320  energy(sigma->0) =     -524.47756320


--------------------------------------------------------------------------------------------------------




--------------------------------------- Iteration      1(  17)  ---------------------------------------


    POTLOK:  cpu time    0.3875: real time    0.3966
    SETDIJ:  cpu time    0.4200: real time    0.4200
     EDDAV:  cpu time   58.5872: real time   58.5992
       DOS:  cpu time    0.0005: real time    0.0005
    CHARGE:  cpu time    3.9098: real time    3.9103
    MIXING:  cpu time    0.0142: real time    0.0142
    --------------------------------------------
      LOOP:  cpu time   63.3192: real time   63.3408

 eigenvalue-minimisations  :  5384
 total energy-change (2. order) :-0.3556728E-02  (-0.8499611E-04)
 number of electron     640.0000004 magnetization 
 augmentation part       69.7424386 magnetization 

 Broyden mixing:
  rms(total) = 0.34886E-02    rms(broyden)= 0.34884E-02
  rms(prec ) = 0.49094E-02
  weight for this iteration     100.00

 eigenvalues of (default mixing * dielectric matrix)
  average eigenvalue GAMMA=   1.4622
  4.1943  2.6943  2.3173  1.3776  1.0650  0.9446  0.9446  0.8995  0.8995  0.7777
  0.7777  0.6543

 Free energy of the ion-electron system (eV)
  ---------------------------------------------------
  alpha Z        PSCENC =       784.57699423
  Ewald energy   TEWEN  =    251534.84457802
  -Hartree energ DENC   =   -299498.89730982
  -exchange      EXHF   =         0.00000000
  -V(xc)+E(xc)   XCENC  =      2489.96104534
  PAW double counting   =     59605.81188246   -59437.79432892
  entropy T*S    EENTRO =        -0.00000000
  eigenvalues    EBANDS =    -12213.70791851
  atomic energy  EATOM  =     56210.72393729
  Solvation  Ediel_sol  =         0.00000000
  ---------------------------------------------------
  free energy    TOTEN  =      -524.48111993 eV

  energy without entropy =     -524.48111993  energy(sigma->0) =     -524.48111993


--------------------------------------------------------------------------------------------------------




--------------------------------------- Iteration      1(  18)  ---------------------------------------


    POTLOK:  cpu time    0.3887: real time    0.3978
    SETDIJ:  cpu time    0.4204: real time    0.4204
     EDDAV:  cpu time   55.7622: real time   55.7630
       DOS:  cpu time    0.0005: real time    0.0005
    CHARGE:  cpu time    3.8929: real time    3.8928
    MIXING:  cpu time    0.0138: real time    0.0138
    --------------------------------------------
      LOOP:  cpu time   60.4785: real time   60.4882

 eigenvalue-minimisations  :  5064
 total energy-change (2. order) :-0.2085293E-02  (-0.2384194E-04)
 number of electron     640.0000004 magnetization 
 augmentation part       69.7433610 magnetization 

 Broyden mixing:
  rms(total) = 0.25756E-02    rms(broyden)= 0.25755E-02
  rms(prec ) = 0.33278E-02
  weight for this iteration     100.00

 eigenvalues of (default mixing * dielectric matrix)
  average eigenvalue GAMMA=   1.4544
  4.3846  2.6177  2.2845  1.5722  1.0777  1.0777  0.9087  0.9087  0.9553  0.8766
  0.8766  0.6634  0.7039

 Free energy of the ion-electron system (eV)
  ---------------------------------------------------
  alpha Z        PSCENC =       784.57699423
  Ewald energy   TEWEN  =    251534.84457802
  -Hartree energ DENC   =   -299506.61049962
  -exchange      EXHF   =         0.00000000
  -V(xc)+E(xc)   XCENC  =      2489.98361633
  PAW double counting   =     59601.44196874   -59433.42882041
  entropy T*S    EENTRO =        -0.00000000
  eigenvalues    EBANDS =    -12206.01497979
  atomic energy  EATOM  =     56210.72393729
  Solvation  Ediel_sol  =         0.00000000
  ---------------------------------------------------
  free energy    TOTEN  =      -524.48320522 eV

  energy without entropy =     -524.48320522  energy(sigma->0) =     -524.48320522


--------------------------------------------------------------------------------------------------------




--------------------------------------- Iteration      1(  19)  ---------------------------------------


    POTLOK:  cpu time    0.3902: real time    0.3989
    SETDIJ:  cpu time    0.4197: real time    0.4197
     EDDAV:  cpu time   55.6600: real time   55.6608
       DOS:  cpu time    0.0006: real time    0.0006
    CHARGE:  cpu time    3.8965: real time    3.8964
    MIXING:  cpu time    0.0140: real time    0.0140
    --------------------------------------------
      LOOP:  cpu time   60.3810: real time   60.3904

 eigenvalue-minimisations  :  5048
 total energy-change (2. order) :-0.1004093E-02  (-0.1007631E-04)
 number of electron     640.0000004 magnetization 
 augmentation part       69.7436255 magnetization 

 Broyden mixing:
  rms(total) = 0.15288E-02    rms(broyden)= 0.15287E-02
  rms(prec ) = 0.22018E-02
  weight for this iteration     100.00

 eigenvalues of (default mixing * dielectric matrix)
  average eigenvalue GAMMA=   1.5529
  5.2497  2.8305  2.2184  2.2184  1.1943  1.1943  1.0170  1.0170  0.8987  0.8987
  0.8312  0.8312  0.6993  0.6423

 Free energy of the ion-electron system (eV)
  ---------------------------------------------------
  alpha Z        PSCENC =       784.57699423
  Ewald energy   TEWEN  =    251534.84457802
  -Hartree energ DENC   =   -299509.48833648
  -exchange      EXHF   =         0.00000000
  -V(xc)+E(xc)   XCENC  =      2489.99145780
  PAW double counting   =     59601.72668551   -59433.71595242
  entropy T*S    EENTRO =        -0.00000000
  eigenvalues    EBANDS =    -12203.14357326
  atomic energy  EATOM  =     56210.72393729
  Solvation  Ediel_sol  =         0.00000000
  ---------------------------------------------------
  free energy    TOTEN  =      -524.48420931 eV

  energy without entropy =     -524.48420931  energy(sigma->0) =     -524.48420931


--------------------------------------------------------------------------------------------------------




--------------------------------------- Iteration      1(  20)  ---------------------------------------


    POTLOK:  cpu time    0.3917: real time    0.4019
    SETDIJ:  cpu time    0.4189: real time    0.4189
     EDDAV:  cpu time   49.5970: real time   49.5970
       DOS:  cpu time    0.0005: real time    0.0005
    CHARGE:  cpu time    3.9281: real time    3.9280
    MIXING:  cpu time    0.0156: real time    0.0156
    --------------------------------------------
      LOOP:  cpu time   54.3518: real time   54.3619

 eigenvalue-minimisations  :  4360
 total energy-change (2. order) :-0.1338108E-02  (-0.5652500E-05)
 number of electron     640.0000004 magnetization 
 augmentation part       69.7429737 magnetization 

 Broyden mixing:
  rms(total) = 0.96507E-03    rms(broyden)= 0.96495E-03
  rms(prec ) = 0.13131E-02
  weight for this iteration     100.00

 eigenvalues of (default mixing * dielectric matrix)
  average eigenvalue GAMMA=   1.5815
  6.0274  3.0202  2.3747  2.1738  1.2926  1.0454  1.0454  0.8943  0.8943  0.9989
  0.9989  0.8218  0.8018  0.6989  0.6334

 Free energy of the ion-electron system (eV)
  ---------------------------------------------------
  alpha Z        PSCENC =       784.57699423
  Ewald energy   TEWEN  =    251534.84457802
  -Hartree energ DENC   =   -299513.44671493
  -exchange      EXHF   =         0.00000000
  -V(xc)+E(xc)   XCENC  =      2489.99778526
  PAW double counting   =     59600.81973641   -59432.80789354
  entropy T*S    EENTRO =        -0.00000000
  eigenvalues    EBANDS =    -12199.19397016
  atomic energy  EATOM  =     56210.72393729
  Solvation  Ediel_sol  =         0.00000000
  ---------------------------------------------------
  free energy    TOTEN  =      -524.48554742 eV

  energy without entropy =     -524.48554742  energy(sigma->0) =     -524.48554742


--------------------------------------------------------------------------------------------------------




--------------------------------------- Iteration      1(  21)  ---------------------------------------


    POTLOK:  cpu time    0.3933: real time    0.3981
    SETDIJ:  cpu time    0.4183: real time    0.4183
     EDDAV:  cpu time   48.7143: real time   48.7139
       DOS:  cpu time    0.0006: real time    0.0005
    CHARGE:  cpu time    3.9285: real time    3.9284
    MIXING:  cpu time    0.0157: real time    0.0157
    --------------------------------------------
      LOOP:  cpu time   53.4706: real time   53.4749

 eigenvalue-minimisations  :  4256
 total energy-change (2. order) :-0.4291228E-03  (-0.1533667E-05)
 number of electron     640.0000004 magnetization 
 augmentation part       69.7432857 magnetization 

 Broyden mixing:
  rms(total) = 0.73206E-03    rms(broyden)= 0.73191E-03
  rms(prec ) = 0.98113E-03
  weight for this iteration     100.00

 eigenvalues of (default mixing * dielectric matrix)
  average eigenvalue GAMMA=   1.5689
  6.3179  2.9889  2.4793  1.8178  1.4809  1.2129  1.2129  1.0047  1.0047  0.8917
  0.8917  0.8510  0.8214  0.8214  0.6768  0.6288

 Free energy of the ion-electron system (eV)
  ---------------------------------------------------
  alpha Z        PSCENC =       784.57699423
  Ewald energy   TEWEN  =    251534.84457802
  -Hartree energ DENC   =   -299514.74937792
[...]
    -6.896993340 11.945942880  0.000000000     0.000000000  0.083710429  0.000000000
     0.000000000  0.000000000 27.810221070     0.000000000  0.000000000  0.035958003

  length of vectors
    13.793986680 13.793986676 27.810221070     0.083710429  0.083710429  0.035958003


 FORCES acting on ions
    electron-ion (+dipol)            ewald-force                    non-local-force                 convergence-correction
 -----------------------------------------------------------------------------------------------
   -.502E+02 -.644E+02 -.999E+03   0.506E+02 0.651E+02 0.994E+03   0.110E+00 0.367E+00 0.500E+01   0.148E-04 -.246E-04 0.148E-04
   0.225E+02 -.294E+01 -.103E+04   -.216E+02 0.225E+01 0.102E+04   -.981E+00 0.833E+00 0.381E+01   0.142E-04 0.560E-05 0.699E-04
   0.608E+02 -.505E+02 -.115E+04   -.623E+02 0.519E+02 0.115E+04   -.201E+00 0.192E+00 0.427E+01   0.776E-05 -.891E-05 0.300E-04
   -.563E+02 0.628E+02 -.112E+04   0.580E+02 -.623E+02 0.111E+04   -.297E+00 -.959E+00 0.356E+01   -.438E-04 0.117E-04 0.199E-04
   -.124E+02 0.364E+01 -.108E+04   0.114E+02 -.468E+01 0.107E+04   0.599E+00 0.440E+00 0.595E+01   -.276E-05 0.317E-04 0.196E-04
   0.394E+02 0.137E+02 -.118E+04   -.380E+02 -.134E+02 0.118E+04   -.192E+01 0.426E-01 0.400E+01   -.321E-05 -.665E-05 0.306E-04
   -.938E+00 -.560E+01 -.978E+03   0.147E+01 0.626E+01 0.974E+03   -.155E+00 -.261E+00 0.469E+01   -.243E-04 -.193E-04 0.593E-04
   0.115E+02 0.215E+02 -.997E+03   -.119E+02 -.217E+02 0.994E+03   0.456E+00 -.485E+00 0.286E+01   -.324E-05 -.185E-04 0.693E-04
   0.269E+02 -.499E+02 -.109E+04   -.264E+02 0.504E+02 0.109E+04   -.618E+00 0.457E+00 0.471E+01   -.120E-04 0.251E-04 0.578E-04
   -.342E+01 -.298E+02 -.111E+04   0.274E+01 0.303E+02 0.111E+04   -.342E+00 0.573E+00 0.411E+01   -.125E-04 -.119E-04 0.158E-04
   -.268E+02 0.661E-01 -.115E+04   0.263E+02 -.147E+01 0.114E+04   0.671E+00 0.128E+01 0.451E+01   -.444E-05 -.310E-04 0.453E-04
   0.260E+02 -.130E+01 -.107E+04   -.277E+02 0.365E+00 0.107E+04   0.630E+00 0.114E+01 0.349E+01   0.973E-05 0.868E-05 0.709E-04
   0.113E+02 -.828E+02 -.986E+03   -.114E+02 0.841E+02 0.981E+03   0.477E+00 0.537E+00 0.448E+01   0.182E-05 -.961E-05 0.482E-04
   0.396E+02 0.366E+02 -.105E+04   -.401E+02 -.366E+02 0.105E+04   -.323E+00 -.668E+00 0.463E+01   0.530E-05 0.150E-04 0.507E-04
   -.532E+02 0.224E+02 -.119E+04   0.543E+02 -.227E+02 0.118E+04   0.698E+00 -.216E+00 0.420E+01   0.272E-04 -.110E-04 0.337E-04
   -.115E+02 0.715E+02 -.101E+04   0.117E+02 -.722E+02 0.101E+04   0.231E+00 -.540E+00 0.449E+01   0.294E-04 0.306E-04 0.171E-04
   -.391E+02 -.865E+01 0.108E+04   0.400E+02 0.895E+01 -.107E+04   -.544E+00 0.545E-01 -.433E+01   -.578E-04 0.786E-05 -.285E-04
   -.178E+02 0.485E+01 0.113E+04   0.169E+02 -.394E+01 -.112E+04   0.106E+01 -.964E+00 -.440E+01   0.309E-04 -.174E-04 -.454E-05
   0.138E+02 0.585E+02 0.117E+04   -.135E+02 -.595E+02 -.116E+04   0.910E-01 -.238E+00 -.413E+01   0.706E-05 0.898E-05 -.152E-06
   0.205E+02 -.575E+02 0.102E+04   -.209E+02 0.574E+02 -.101E+04   -.167E+00 0.101E+01 -.421E+01   -.118E-04 -.214E-05 -.876E-05
   0.137E+02 0.151E+02 0.114E+04   -.137E+02 -.144E+02 -.113E+04   -.868E-01 -.853E+00 -.324E+01   -.229E-04 0.242E-04 -.453E-04
   -.532E+01 -.417E+02 0.972E+03   0.511E+01 0.419E+02 -.968E+03   0.122E+00 0.353E+00 -.523E+01   -.182E-05 -.246E-05 -.106E-04
   -.479E+02 0.108E+02 0.105E+04   0.472E+02 -.122E+02 -.105E+04   0.865E+00 0.107E+01 -.393E+01   0.468E-05 -.217E-04 -.161E-04
   0.202E+02 -.154E+02 0.106E+04   -.202E+02 0.161E+02 -.105E+04   -.450E+00 -.256E+00 -.373E+01   -.177E-04 -.137E-04 -.393E-04
   0.230E+02 -.138E+02 0.114E+04   -.230E+02 0.136E+02 -.113E+04   -.199E+00 -.301E+00 -.415E+01   0.419E-04 -.166E-04 -.292E-04
   0.130E+02 0.796E+01 0.108E+04   -.126E+02 -.776E+01 -.107E+04   -.266E+00 -.642E+00 -.424E+01   -.264E-04 -.737E-06 -.108E-06
   0.395E+02 0.668E+02 0.106E+04   -.390E+02 -.673E+02 -.105E+04   -.116E+01 -.553E+00 -.430E+01   -.889E-06 -.325E-04 -.129E-04
   0.123E+02 0.164E+02 0.105E+04   -.118E+02 -.158E+02 -.105E+04   -.605E+00 -.164E+00 -.443E+01   -.132E-04 0.318E-04 -.240E-04
   0.168E+02 -.419E+02 0.117E+04   -.171E+02 0.430E+02 -.116E+04   -.313E+00 -.315E+00 -.370E+01   0.388E-04 -.155E-04 0.145E-05
   -.268E+02 -.101E+02 0.110E+04   0.270E+02 0.102E+02 -.110E+04   0.326E+00 -.409E+00 -.458E+01   0.493E-05 0.483E-05 0.383E-05
   0.232E+02 0.342E+02 0.988E+03   -.232E+02 -.356E+02 -.983E+03   -.187E+00 -.162E+00 -.577E+01   -.125E-04 0.422E-04 0.187E-04
   -.220E+02 0.161E+02 0.102E+04   0.221E+02 -.162E+02 -.102E+04   -.147E+00 0.151E+00 -.326E+01   0.363E-04 0.439E-04 0.220E-05
   -.792E+01 -.391E+02 0.148E+04   0.805E+01 0.388E+02 -.149E+04   -.295E+00 0.102E+01 0.265E+01   0.174E-04 -.128E-04 -.297E-05
   0.225E+02 0.101E+02 0.148E+04   -.223E+02 -.102E+02 -.148E+04   -.615E+00 -.222E-01 0.309E+01   0.155E-04 0.250E-05 -.170E-04
   0.290E+02 0.102E+02 0.148E+04   -.290E+02 -.103E+02 -.148E+04   -.232E+00 0.204E+00 0.212E+01   0.421E-05 0.121E-04 -.224E-04
   -.411E+02 0.137E+02 0.144E+04   0.409E+02 -.135E+02 -.145E+04   0.728E+00 -.662E+00 0.233E+01   -.602E-06 0.202E-04 -.192E-04
   0.213E+01 -.170E+02 0.145E+04   -.227E+01 0.172E+02 -.146E+04   0.300E+00 -.184E+00 0.271E+01   -.974E-05 -.207E-05 -.272E-04
   -.221E+02 0.191E+02 0.144E+04   0.223E+02 -.190E+02 -.144E+04   -.988E-01 -.476E+00 0.210E+01   0.815E-05 -.129E-04 -.192E-04
   -.121E+02 0.181E+02 0.147E+04   0.121E+02 -.179E+02 -.148E+04   0.202E+00 -.752E+00 0.209E+01   -.812E-06 0.127E-04 -.178E-04
   0.345E+02 -.245E+01 0.141E+04   -.344E+02 0.250E+01 -.141E+04   -.813E+00 -.173E+00 0.200E+01   0.576E-05 0.212E-05 -.297E-04
   0.912E+00 -.277E+02 0.149E+04   -.885E+00 0.277E+02 -.149E+04   -.100E+00 0.861E-01 0.308E+01   -.173E-04 -.796E-05 -.163E-04
   0.588E+01 -.124E+02 0.144E+04   -.620E+01 0.122E+02 -.144E+04   0.652E+00 0.397E+00 0.274E+01   -.161E-04 -.137E-04 -.204E-04
   -.112E+02 0.248E+02 0.140E+04   0.111E+02 -.247E+02 -.140E+04   0.409E+00 -.400E+00 0.118E+01   -.100E-04 -.180E-05 -.156E-04
   -.324E+02 0.151E+01 0.147E+04   0.321E+02 -.150E+01 -.147E+04   0.129E+01 -.340E-01 0.214E+01   -.137E-04 -.764E-05 -.666E-05
   -.475E+01 -.333E+02 0.144E+04   0.470E+01 0.331E+02 -.144E+04   0.250E+00 0.964E+00 0.147E+01   0.714E-05 -.168E-04 0.712E-05
   -.436E+01 -.265E+02 0.143E+04   0.427E+01 0.264E+02 -.143E+04   0.366E+00 0.325E+00 0.158E+01   -.761E-05 0.890E-06 -.580E-05
   -.123E+02 0.442E+02 0.146E+04   0.122E+02 -.440E+02 -.146E+04   0.251E+00 -.125E+01 0.132E+01   0.107E-04 0.885E-05 -.153E-04
   0.200E+02 0.294E+02 0.147E+04   -.199E+02 -.292E+02 -.147E+04   -.322E+00 -.677E+00 0.235E+01   0.839E-05 0.149E-04 -.389E-06
   -.148E+02 -.300E+02 -.149E+04   0.148E+02 0.299E+02 0.149E+04   -.668E-01 0.473E+00 -.298E+01   -.107E-04 0.409E-05 -.109E-04
   -.276E+02 0.222E+02 -.147E+04   0.272E+02 -.222E+02 0.147E+04   0.140E+01 -.387E+00 -.214E+01   -.128E-04 -.191E-05 -.121E-04
   0.224E+01 0.292E+01 -.146E+04   -.223E+01 -.274E+01 0.146E+04   0.875E-01 -.534E+00 -.974E+00   0.162E-04 -.104E-04 -.270E-04
   0.194E+02 0.239E+02 -.141E+04   -.193E+02 -.236E+02 0.141E+04   -.190E+00 -.764E+00 -.230E+01   0.531E-05 0.887E-05 -.107E-04
   0.824E+01 -.329E+02 -.147E+04   -.849E+01 0.325E+02 0.147E+04   0.619E+00 0.170E+01 -.214E+01   -.203E-05 -.691E-05 -.885E-05
   -.875E+01 0.260E+02 -.149E+04   0.872E+01 -.260E+02 0.149E+04   0.641E-01 -.634E+00 -.242E+01   -.481E-05 -.205E-05 -.922E-05
   -.103E+02 -.872E+00 -.146E+04   0.990E+01 0.982E+00 0.146E+04   0.129E+01 -.216E+00 -.182E+01   -.190E-04 -.263E-05 -.199E-04
   0.207E+02 0.760E+01 -.146E+04   -.207E+02 -.768E+01 0.146E+04   -.271E+00 0.136E+00 -.286E+01   0.404E-05 -.204E-05 -.105E-04
   0.419E+01 -.226E+02 -.147E+04   -.416E+01 0.227E+02 0.147E+04   0.581E-01 0.179E+00 -.181E+01   0.575E-05 -.949E-06 -.121E-05
   -.407E+02 0.676E+01 -.146E+04   0.405E+02 -.663E+01 0.146E+04   0.108E+01 -.365E+00 -.168E+01   0.227E-05 0.125E-05 -.558E-05
   0.912E+01 0.164E+02 -.145E+04   -.896E+01 -.164E+02 0.145E+04   -.668E+00 -.307E+00 -.105E+01   0.455E-05 -.400E-06 -.302E-04
   -.289E+02 0.266E+02 -.146E+04   0.288E+02 -.263E+02 0.146E+04   0.766E+00 -.101E+01 -.173E+01   -.118E-04 0.982E-05 -.968E-05
   -.715E+00 -.112E+02 -.142E+04   0.830E+00 0.114E+02 0.142E+04   -.421E+00 -.851E+00 -.738E+00   0.150E-04 0.272E-04 -.161E-04
   0.240E+02 0.322E+01 -.144E+04   -.239E+02 -.336E+01 0.144E+04   -.456E+00 0.377E+00 -.247E+01   0.888E-05 0.111E-06 0.132E-05
   0.565E+01 -.190E+02 -.143E+04   -.570E+01 0.187E+02 0.143E+04   0.317E+00 0.754E+00 -.145E+01   0.343E-05 -.147E-04 -.164E-04
   -.359E+01 0.353E+01 -.146E+04   0.360E+01 -.348E+01 0.146E+04   -.127E+00 0.128E+00 -.145E+01   0.397E-05 0.732E-05 -.266E-04
   -.127E+02 0.210E+02 0.928E+01   0.127E+02 -.209E+02 -.922E+01   -.430E-01 -.830E+00 -.250E+00   0.298E-05 0.963E-05 0.114E-04
   0.284E+02 -.120E+02 0.430E+02   -.281E+02 0.120E+02 -.432E+02   -.735E+00 0.378E+00 0.396E+00   0.927E-05 -.267E-05 0.198E-04
   -.177E+02 0.106E+02 0.455E+02   0.173E+02 -.105E+02 -.460E+02   0.851E+00 -.550E+00 0.155E+01   0.121E-06 0.563E-06 0.236E-04
   -.300E+01 -.337E+02 -.714E+02   0.310E+01 0.333E+02 0.716E+02   -.468E+00 0.274E+01 -.161E+00   -.397E-05 0.106E-05 0.139E-04
   -.243E+02 0.356E+02 -.129E+02   0.238E+02 -.353E+02 0.134E+02   0.169E+01 -.137E+01 -.102E+01   -.731E-05 0.262E-05 0.126E-04
   0.244E+02 -.164E+02 -.993E+01   -.241E+02 0.162E+02 0.100E+02   -.102E+01 0.494E+00 -.114E+00   -.775E-05 -.452E-05 0.101E-04
   0.258E+00 0.203E+02 0.220E+02   -.245E+00 -.204E+02 -.222E+02   -.385E+00 0.695E-01 0.437E+00   -.422E-05 -.113E-05 0.239E-04
   0.149E+02 -.280E+02 -.566E+01   -.147E+02 0.279E+02 0.577E+01   -.976E+00 0.347E+00 -.539E+00   0.112E-04 -.432E-05 0.199E-04
   0.231E+02 0.863E+01 0.165E+02   -.226E+02 -.865E+01 -.165E+02   -.147E+01 0.775E-01 0.280E+00   0.380E-05 -.723E-05 0.141E-04
   -.256E+02 0.426E+00 0.507E+01   0.256E+02 -.384E+00 -.523E+01   0.319E+00 -.306E+00 0.428E+00   -.421E-05 0.519E-05 0.139E-04
   -.292E+02 -.234E+02 -.526E+02   0.290E+02 0.232E+02 0.530E+02   0.267E+00 0.982E+00 -.125E+01   -.119E-05 -.582E-05 0.167E-04
   -.231E+02 0.158E+02 -.262E+02   0.227E+02 -.156E+02 0.267E+02   0.148E+01 -.663E+00 -.144E+01   -.119E-04 0.364E-05 0.187E-04
   0.216E+02 0.928E+01 0.663E+02   -.214E+02 -.910E+01 -.667E+02   -.172E+00 -.923E+00 0.871E+00   0.148E-05 0.371E-05 0.861E-05
   0.173E+02 -.216E+02 0.183E+01   -.174E+02 0.215E+02 -.188E+01   0.356E+00 0.235E+00 0.776E-01   0.242E-05 0.196E-05 0.186E-04
   0.368E+01 -.720E+01 -.182E+02   -.367E+01 0.709E+01 0.180E+02   -.544E+00 -.871E-01 0.257E+00   0.218E-05 -.143E-05 0.213E-04
   0.160E+02 -.540E+00 -.153E+02   -.157E+02 0.314E+00 0.152E+02   -.799E+00 0.100E+01 0.899E-01   0.532E-05 0.412E-05 0.181E-04
 -----------------------------------------------------------------------------------------------
   -.118E+01 0.846E+00 -.571E+01   -.528E-12 0.203E-12 -.318E-11   0.118E+01 -.845E+00 0.571E+01   0.112E-04 0.485E-04 0.283E-03
 
 
 POSITION                                       TOTAL-FORCE (eV/Angst)
 -----------------------------------------------------------------------------------
      0.00807      1.95141     15.01230         0.520471      1.096590      0.671707
     -1.65252      4.84887     15.15341        -0.160188      0.140592     -1.175252
     -3.23969      7.76226     15.24315        -1.752120      1.643707     -1.139917
     -5.30158     11.07109     15.22463         1.487810     -0.444330     -0.156064
      3.51197      2.01210     15.06503        -0.445902     -0.602453      1.509220
      1.83312      4.88632     15.31362        -0.586022      0.331975     -0.536738
     -0.02249      7.88662     15.02012         0.376906      0.401665      0.790158
     -1.75239     10.97974     15.11584         0.121714     -0.696043     -0.166067
      6.89698      1.81245     15.17727        -0.033541      0.982442     -0.593503
      5.34483      4.86848     15.24584        -1.023253      1.012479     -0.746825
      3.35297      7.90753     15.27521         0.106684     -0.131207     -0.700723
      1.75503     10.87595     15.17579        -1.103526      0.206207     -0.589721
     10.22635      1.80118     15.04010         0.317097      1.852009     -0.145237
      8.76914      5.00220     15.10941        -0.871430     -0.657697     -0.098375
      6.72306      8.08592     15.32626         1.756155     -0.555259     -1.687948
      5.10035     11.12583     15.04723         0.391403     -1.159233      0.193878
      1.75562      0.99372     12.68204         0.382114      0.361651     -0.495327
     -0.00886      3.99977     12.60773         0.193782     -0.051223     -0.230804
     -1.72387      7.04644     12.54448         0.398981     -1.249099      0.403090
     -3.39796      9.82042     12.69859        -0.588117      0.883071      0.527906
      5.21336      1.10471     12.55177        -0.151107     -0.184116      0.291017
      3.48349      4.00672     12.85338        -0.090964      0.474117     -1.385593
      1.69177      6.91135     12.66805         0.186259     -0.312893      0.832099
      0.10157      9.92757     12.64299        -0.536448      0.469003      0.681797
      8.57022      1.05289     12.58422        -0.203436     -0.474191      0.060002
      6.88388      4.10286     12.65147         0.084516     -0.437112      0.219622
      5.32317      7.10050     12.66634        -0.661116     -1.081196      0.896736
      3.47926      9.93747     12.70209        -0.098850      0.406952      0.001608
     12.17176      0.95254     12.56258        -0.554249      0.785687     -0.210269
     10.30809      3.99705     12.64914         0.502333     -0.327872     -0.439273
      8.64378      7.12381     12.81542        -0.236155     -1.544413     -0.994438
      6.97035      9.99166     12.67485        -0.060362      0.083608      0.961789
      0.08391      1.80111     10.82394        -0.157586      0.749630      0.514896
     -1.58425      4.98328     10.75387        -0.423524     -0.058995      0.831010
     -3.43622      7.96465     10.92500        -0.260461      0.163642      0.102605
     -5.21282     11.00418     10.99218         0.570108     -0.431786      0.202183
      3.41982      2.04581     10.92284         0.160659     -0.036341      0.534702
      1.77077      5.07878     10.99934         0.058243     -0.399456      0.095544
     -0.01038      8.09207     10.93469         0.188853     -0.555679     -0.039885
     -1.65305     10.97604     11.09812        -0.681024     -0.119471     -0.223434
      6.87769      2.02067     10.74680        -0.073546      0.098134      0.902472
      5.07408      5.03408     10.95812         0.332969      0.189612      0.555942
      3.38807      8.03205     11.17958         0.300195     -0.298025     -0.854736
      1.53351     10.97036     10.91941         0.988733     -0.026854      0.082465
     10.33093      1.83558     11.04407         0.203116      0.801481     -0.640750
      8.57327      4.98333     11.06150         0.279477      0.275029     -0.450716
      6.87055      8.21427     11.04050         0.232126     -1.074022     -0.614210
      5.20182     10.98926     10.93822        -0.247493     -0.525414      0.179062
      1.64246      0.92299     17.04420        -0.000150      0.383638     -0.857393
     -0.21457      4.02275     16.92969         0.984042     -0.396312     -0.192408
     -1.64106      6.92429     16.76468         0.092496     -0.348208      0.835752
     -3.45866      9.95303     16.76024        -0.127554     -0.517274     -0.041302
      5.06466      0.68922     16.89518         0.377339      1.250950     -0.161282
      3.46297      4.11228     17.03130         0.041804     -0.593920     -0.307101
      1.49392      6.98273     16.83626         0.857596     -0.106796      0.238165
      0.05266      9.91952     16.90131        -0.267344      0.047016     -0.631170
      8.59960      0.94323     16.81197         0.085483      0.201997      0.209047
      6.74377      3.84448     16.89866         0.848122     -0.233272      0.214556
      5.18093      7.01846     16.81868        -0.516964     -0.323496      0.892040
      3.41415     10.18041     16.81691         0.636124     -0.711611      0.340717
     12.08999      1.16411     16.56472        -0.306249     -0.651906      1.236501
     10.37407      3.86315     16.80148        -0.374950      0.244125     -0.314134
      8.57229      6.82624     16.75239         0.269800      0.436240      0.622254
      6.79386     10.04677     16.79341        -0.117200      0.173073      0.557288
     -0.00194      0.06801     13.89994        -0.033196     -0.714159     -0.189349
     -1.62283      2.95326     13.78260        -0.391140      0.441905      0.158732
     10.33485      5.98705     13.79915         0.503275     -0.488873      1.011841
      8.67783      8.81076     13.98801        -0.367876      2.260447      0.008642
      3.31497      0.10438     13.98885         1.149725     -1.042900     -0.531126
      1.84292      2.94819     13.95571        -0.752420      0.278670     -0.028898
      0.00897      5.93950     13.81567        -0.371691      0.052448      0.191552
     -1.65234      8.88726     13.90072        -0.814298      0.298301     -0.420445
      7.00783      0.00082     13.87258        -1.033818      0.061115      0.266853
      5.19718      2.99022     13.88973         0.265572     -0.262983      0.271732
      3.41026      5.88997     14.15144         0.038163      0.704331     -0.765330
      1.65064      8.99386     14.02605         1.045456     -0.400673     -0.933816
     10.37579      0.03705     13.77874        -0.043846     -0.751772      0.552642
      8.58953      2.94571     13.87194         0.303798      0.154670      0.023152
      6.93609      5.98902     13.92539        -0.533298     -0.193925      0.028860
      5.21713      8.93535     13.92615        -0.587088      0.774256     -0.012275
 -----------------------------------------------------------------------------------
    total drift:                                0.002959      0.001395     -0.002135


--------------------------------------------------------------------------------------------------------



  FREE ENERGIE OF THE ION-ELECTRON SYSTEM (eV)
  ---------------------------------------------------
  free  energy   TOTEN  =      -524.48730629 eV

  energy  without entropy=     -524.48730629  energy(sigma->0) =     -524.48730629
 


--------------------------------------------------------------------------------------------------------


    POTLOK:  cpu time    0.8083: real time    0.8082


--------------------------------------------------------------------------------------------------------


     LOOP+:  cpu time 1901.2313: real time 1901.7361
    4ORBIT:  cpu time    0.0000: real time    0.0000

 total amount of memory used by VASP MPI-rank0   253906. kBytes
=======================================================================

   base      :      30000. kBytes
   nonlr-proj:      18722. kBytes
   fftplans  :      72602. kBytes
   grid      :      41267. kBytes
   one-center:        108. kBytes
   wavefun   :      91207. kBytes
 
  
  
 General timing and accounting informations for this job:
 ========================================================
  
                  Total CPU time used (sec):     1931.787
                            User time (sec):     1926.563
                          System time (sec):        5.224
                         Elapsed time (sec):     1932.408
  
                   Maximum memory used (kb):      462344.
                   Average memory used (kb):           0.
  
                          Minor page faults:       435913
                          Major page faults:            0
                 Voluntary context switches:         1974
