 running on   52 total cores
 distrk:  each k-point on   52 cores,    1 groups
 distr:  one band on   13 cores,    4 groups
 using from now: INCAR     
 vasp.5.4.4.18Apr17-6-g9f103f2a35 (build Oct 31 2019 15:01:46) complex          
  
 POSCAR found type information on POSCAR  Sc Cl C 
 POSCAR found :  3 types and      80 ions
 scaLAPACK is switched off
 LDA part: xc-table for Pade appr. of Perdew
 generate k-points for:    3    3    1
 POSCAR, INCAR and KPOINTS ok, starting setup
 FFT: planning ...
 WAVECAR not read
 entering main loop
       N       E                     dE             d eps       ncg     rms          rms(c)
DAV:   1     0.122221917737E+05    0.12222E+05   -0.26780E+05  4424   0.152E+03
DAV:   2     0.173134281578E+04   -0.10491E+05   -0.10228E+05  5208   0.523E+02
DAV:   3    -0.410550991715E+03   -0.21419E+04   -0.20573E+04  6800   0.285E+02
DAV:   4    -0.644527423897E+03   -0.23398E+03   -0.22954E+03  6088   0.989E+01
DAV:   5    -0.654787149349E+03   -0.10260E+02   -0.10207E+02  6080   0.278E+01    0.694E+01
DAV:   6    -0.523966453934E+03    0.13082E+03   -0.69617E+02  5848   0.498E+01    0.303E+01
DAV:   7    -0.529054212857E+03   -0.50878E+01   -0.89435E+01  5912   0.229E+01    0.153E+01
DAV:   8    -0.526744735424E+03    0.23095E+01   -0.98523E+00  5976   0.724E+00    0.939E+00
DAV:   9    -0.526210364010E+03    0.53437E+00   -0.38736E+00  5392   0.387E+00    0.316E+00
DAV:  10    -0.526074900473E+03    0.13546E+00   -0.61231E-01  5704   0.198E+00    0.173E+00
DAV:  11    -0.526053606263E+03    0.21294E-01   -0.19516E-01  5680   0.810E-01    0.767E-01
DAV:  12    -0.526039181332E+03    0.14425E-01   -0.32811E-02  6184   0.476E-01    0.283E-01
DAV:  13    -0.526036279843E+03    0.29015E-02   -0.74665E-03  5328   0.232E-01    0.174E-01
DAV:  14    -0.526034855320E+03    0.14245E-02   -0.63513E-03  5296   0.137E-01    0.168E-01
DAV:  15    -0.526036520938E+03   -0.16656E-02   -0.18002E-03  5600   0.869E-02    0.100E-01
DAV:  16    -0.526038862610E+03   -0.23417E-02   -0.10448E-03  5792   0.530E-02    0.565E-02
DAV:  17    -0.526042737366E+03   -0.38748E-02   -0.66977E-04  4904   0.466E-02    0.280E-02
DAV:  18    -0.526044440137E+03   -0.17028E-02   -0.20194E-04  4736   0.236E-02    0.219E-02
DAV:  19    -0.526045820140E+03   -0.13800E-02   -0.93381E-05  4688   0.153E-02    0.143E-02
DAV:  20    -0.526046729697E+03   -0.90956E-03   -0.33570E-05  4480   0.115E-02    0.104E-02
DAV:  21    -0.526047142869E+03   -0.41317E-03   -0.10530E-05  4160   0.685E-03    0.691E-03
DAV:  22    -0.526047624883E+03   -0.48201E-03   -0.63712E-06  3824   0.506E-03    0.394E-03
DAV:  23    -0.526048051938E+03   -0.42705E-03   -0.11053E-05  3400   0.446E-03    0.324E-03
DAV:  24    -0.526048207449E+03   -0.15551E-03   -0.39297E-06  3720   0.310E-03    0.292E-03
DAV:  25    -0.526048280612E+03   -0.73163E-04   -0.11987E-06  3048   0.224E-03    0.189E-03
DAV:  26    -0.526048361230E+03   -0.80618E-04   -0.25097E-06  3248   0.213E-03    0.177E-03
DAV:  27    -0.526048372942E+03   -0.11712E-04   -0.24575E-07  2680   0.157E-03    0.136E-03
DAV:  28    -0.526048382151E+03   -0.92085E-05   -0.20559E-07  2616   0.124E-03    0.596E-04
DAV:  29    -0.526048388710E+03   -0.65596E-05   -0.20411E-07  2560   0.115E-03    0.449E-04
DAV:  30    -0.526048399662E+03   -0.10952E-04   -0.31837E-07  2736   0.117E-03    0.677E-04
DAV:  31    -0.526048403386E+03   -0.37243E-05   -0.20116E-07  2632   0.126E-03    0.323E-04
DAV:  32    -0.526048404894E+03   -0.15081E-05   -0.14321E-07  2408   0.756E-04    0.278E-04
DAV:  33    -0.526048405445E+03   -0.55063E-06   -0.86483E-08  2400   0.838E-04
   1 F= -.52604841E+03 E0= -.52604841E+03  d E =-.198237E-13
