 vasp.5.4.4.18Apr17-6-g9f103f2a35 (build Oct 31 2019 15:01:46) complex          
  
 executed on             LinuxIFC date 2024.04.20  06:32:30
 running on   52 total cores
 distrk:  each k-point on   52 cores,    1 groups
 distr:  one band on NCORES_PER_BAND=  13 cores,    4 groups


--------------------------------------------------------------------------------------------------------


 INCAR:
 POTCAR:    PAW_PBE Sc_sv 07Sep2000               
 POTCAR:    PAW_PBE F 08Apr2002                   
 POTCAR:    PAW_PBE C 08Apr2002                   
 POTCAR:    PAW_PBE Sc_sv 07Sep2000               
   VRHFIN =Sc: 3p4s3d                                                           
   LEXCH  = PE                                                                  
   EATOM  =  1273.2868 eV,   93.5839 Ry                                         
                                                                                
   TITEL  = PAW_PBE Sc_sv 07Sep2000                                             
   LULTRA =        F    use ultrasoft PP ?                                      
   IUNSCR =        1    unscreen: 0-lin 1-nonlin 2-no                           
   RPACOR =    2.200    partial core radius                                     
   POMASS =   44.956; ZVAL   =   11.000    mass and valenz                      
   RCORE  =    2.500    outmost cutoff radius                                   
   RWIGS  =    2.700; RWIGS  =    1.429    wigner-seitz radius (au A)           
   ENMAX  =  222.660; ENMIN  =  166.995 eV                                      
   RCLOC  =    1.805    cutoff for local pot                                    
   LCOR   =        T    correct aug charges                                     
   LPAW   =        T    paw PP                                                  
   EAUG   =  443.063                                                            
   RMAX   =    2.551    core radius for proj-oper                               
   RAUG   =    1.300    factor for augmentation sphere                          
   RDEP   =    2.650    radius for radial grids                                 
   RDEPT  =    2.038    core radius for aug-charge                              
                                                                                
   Atomic configuration                                                         
    8 entries                                                                   
     n  l   j            E        occ.                                          
     1  0  0.50     -4394.2533   2.0000                                         
     2  0  0.50      -471.0040   2.0000                                         
     2  1  1.50      -384.9788   6.0000                                         
     3  0  0.50       -52.1410   2.0000                                         
     4  0  0.50        -3.5584   1.0000                                         
     3  1  1.50       -30.8841   6.0000                                         
     3  2  2.50        -1.3655   2.0000                                         
     4  3  2.50        -1.3606   0.0000                                         
   Description                                                                  
     l       E           TYP  RCUT    TYP  RCUT                                 
     0    -52.1409870     23  1.800                                             
     0     -3.5583698     23  2.500                                             
     1    -30.8840697     23  2.300                                             
     1      4.0817478     23  2.300                                             
     2     -1.3655397     23  2.500                                             
     2      0.3564476     23  2.500                                             
  local pseudopotential read in
  partial core-charges read in
  partial kinetic energy density read in
  atomic valenz-charges read in
  non local Contribution for L=           0  read in
    real space projection operators read in
  non local Contribution for L=           0  read in
    real space projection operators read in
  non local Contribution for L=           1  read in
    real space projection operators read in
  non local Contribution for L=           1  read in
    real space projection operators read in
  non local Contribution for L=           2  read in
    real space projection operators read in
  non local Contribution for L=           2  read in
    real space projection operators read in
    PAW grid and wavefunctions read in
 
   number of l-projection  operators is LMAX  =           6
   number of lm-projection operators is LMMAX =          18
 
 POTCAR:    PAW_PBE F 08Apr2002                   
   VRHFIN =F: s2p5                                                              
   LEXCH  = PE                                                                  
   EATOM  =   659.6475 eV,   48.4827 Ry                                         
                                                                                
   TITEL  = PAW_PBE F 08Apr2002                                                 
   LULTRA =        F    use ultrasoft PP ?                                      
   IUNSCR =        1    unscreen: 0-lin 1-nonlin 2-no                           
   RPACOR =    1.200    partial core radius                                     
   POMASS =   18.998; ZVAL   =    7.000    mass and valenz                      
   RCORE  =    1.520    outmost cutoff radius                                   
   RWIGS  =    1.500; RWIGS  =    0.794    wigner-seitz radius (au A)           
   ENMAX  =  400.000; ENMIN  =  300.000 eV                                      
   ICORE  =        2    local potential                                         
   LCOR   =        T    correct aug charges                                     
   LPAW   =        T    paw PP                                                  
   EAUG   =  613.614                                                            
   RMAX   =    1.555    core radius for proj-oper                               
   RAUG   =    1.300    factor for augmentation sphere                          
   RDEP   =    1.539    radius for radial grids                                 
   RDEPT  =    1.299    core radius for aug-charge                              
                                                                                
   Atomic configuration                                                         
    4 entries                                                                   
     n  l   j            E        occ.                                          
     1  0  0.50      -663.3661   2.0000                                         
     2  0  0.50       -29.8995   2.0000                                         
     2  1  0.50       -11.1114   5.0000                                         
     3  2  1.50       -10.8847   0.0000                                         
   Description                                                                  
     l       E           TYP  RCUT    TYP  RCUT                                 
     0    -29.8995018     23  1.200                                             
     0     -9.5240782     23  1.200                                             
     1    -11.1113914     23  1.520                                             
     1      1.3605826     23  1.520                                             
     2    -10.8846608      7  1.500                                             
  local pseudopotential read in
  partial core-charges read in
  partial kinetic energy density read in
  atomic valenz-charges read in
  non local Contribution for L=           0  read in
    real space projection operators read in
  non local Contribution for L=           0  read in
    real space projection operators read in
  non local Contribution for L=           1  read in
    real space projection operators read in
  non local Contribution for L=           1  read in
    real space projection operators read in
    PAW grid and wavefunctions read in
 
   number of l-projection  operators is LMAX  =           4
   number of lm-projection operators is LMMAX =           8
 
 POTCAR:    PAW_PBE C 08Apr2002                   
   VRHFIN =C: s2p2                                                              
   LEXCH  = PE                                                                  
   EATOM  =   147.1560 eV,   10.8157 Ry                                         
                                                                                
   TITEL  = PAW_PBE C 08Apr2002                                                 
   LULTRA =        F    use ultrasoft PP ?                                      
   IUNSCR =        1    unscreen: 0-lin 1-nonlin 2-no                           
   RPACOR =    1.200    partial core radius                                     
   POMASS =   12.011; ZVAL   =    4.000    mass and valenz                      
   RCORE  =    1.500    outmost cutoff radius                                   
   RWIGS  =    1.630; RWIGS  =    0.863    wigner-seitz radius (au A)           
   ENMAX  =  400.000; ENMIN  =  300.000 eV                                      
   ICORE  =        2    local potential                                         
   LCOR   =        T    correct aug charges                                     
   LPAW   =        T    paw PP                                                  
   EAUG   =  644.873                                                            
   DEXC   =    0.000                                                            
   RMAX   =    1.529    core radius for proj-oper                               
   RAUG   =    1.300    factor for augmentation sphere                          
   RDEP   =    1.501    radius for radial grids                                 
   RDEPT  =    1.300    core radius for aug-charge                              
                                                                                
   Atomic configuration                                                         
    4 entries                                                                   
     n  l   j            E        occ.                                          
     1  0  0.50      -273.3789   2.0000                                         
     2  0  0.50       -13.7508   2.0000                                         
     2  1  0.50        -5.2854   2.0000                                         
     3  2  1.50        -5.4423   0.0000                                         
   Description                                                                  
     l       E           TYP  RCUT    TYP  RCUT                                 
     0    -13.7508458     23  1.200                                             
     0     -8.2022199     23  1.200                                             
     1     -5.2854383     23  1.500                                             
     1     34.0145650     23  1.500                                             
     2     -5.4423304      7  1.500                                             
  local pseudopotential read in
  partial core-charges read in
  partial kinetic energy density read in
  atomic valenz-charges read in
  non local Contribution for L=           0  read in
    real space projection operators read in
  non local Contribution for L=           0  read in
    real space projection operators read in
  non local Contribution for L=           1  read in
    real space projection operators read in
  non local Contribution for L=           1  read in
    real space projection operators read in
    PAW grid and wavefunctions read in
 
   number of l-projection  operators is LMAX  =           4
   number of lm-projection operators is LMMAX =           8
 
 Optimization of the real space projectors (new method)

 maximal supplied QI-value         = 15.12
 optimisation between [QCUT,QGAM] = [ 12.55, 25.10] = [ 44.09,176.36] Ry 
 Optimized for a Real-space Cutoff    1.56 Angstroem

   l    n(q)    QCUT    max X(q) W(low)/X(q) W(high)/X(q)  e(spline) 
   0     12    12.548     2.962    0.12E-05    0.11E-06    0.46E-07
   0     12    12.548    26.414    0.30E-04    0.15E-05    0.76E-07
   1     11    12.548     3.969    0.45E-05    0.12E-05    0.60E-07
   1     11    12.548     5.137    0.15E-04    0.18E-04    0.36E-06
   2     11    12.548   143.970    0.20E-03    0.19E-03    0.76E-06
   2     11    12.548   121.201    0.20E-03    0.19E-03    0.76E-06
 Optimization of the real space projectors (new method)

 maximal supplied QI-value         = 24.76
 optimisation between [QCUT,QGAM] = [ 12.38, 25.00] = [ 42.90,175.06] Ry 
 Optimized for a Real-space Cutoff    1.16 Angstroem

   l    n(q)    QCUT    max X(q) W(low)/X(q) W(high)/X(q)  e(spline) 
   0      9    12.378    14.049    0.11E-03    0.38E-05    0.23E-06
   0      9    12.378     8.945    0.15E-03    0.56E-05    0.30E-06
   1      8    12.378     7.086    0.18E-03    0.14E-03    0.29E-06
   1      8    12.378     6.747    0.16E-03    0.13E-03    0.26E-06
 Optimization of the real space projectors (new method)

 maximal supplied QI-value         = 25.13
 optimisation between [QCUT,QGAM] = [ 12.32, 24.88] = [ 42.47,173.37] Ry 
 Optimized for a Real-space Cutoff    1.16 Angstroem

   l    n(q)    QCUT    max X(q) W(low)/X(q) W(high)/X(q)  e(spline) 
   0      9    12.315   115.676    0.19E-03    0.80E-05    0.34E-06
   0      9    12.315    87.132    0.19E-03    0.82E-05    0.34E-06
   1      8    12.315     4.429    0.18E-03    0.13E-03    0.22E-06
   1      8    12.315     2.733    0.14E-03    0.10E-03    0.18E-06
  PAW_PBE Sc_sv 07Sep2000               :
 energy of atom  1       EATOM=-1273.2868
 kinetic energy error for atom=    0.0014 (will be added to EATOM!!)
  PAW_PBE F 08Apr2002                   :
 energy of atom  2       EATOM= -659.6475
 kinetic energy error for atom=    0.0256 (will be added to EATOM!!)
  PAW_PBE C 08Apr2002                   :
 energy of atom  3       EATOM= -147.1560
 kinetic energy error for atom=    0.0057 (will be added to EATOM!!)
 
 
 POSCAR: Sc  F  C                                
  positions in cartesian coordinates
  No initial velocities read in
 exchange correlation table for  LEXCH =        8
   RHO(1)=    0.500       N(1)  =     2000
   RHO(2)=  100.500       N(2)  =     4000
 


--------------------------------------------------------------------------------------------------------


 ion  position               nearest neighbor table
   1  0.087  0.162  0.456-  61 2.21  49 2.25  70 2.28  66 2.29  65 2.39  50 2.53  29 3.01  18 3.04
                            17 3.14   5 3.22  16 3.26   4 3.30   2 3.35   6 3.38
   2  0.084  0.415  0.448-  62 2.07  50 2.10  66 2.21  51 2.21  67 2.27  71 2.35  18 3.18   6 3.19
                            19 3.20   7 3.30   1 3.35  14 3.35  13 3.36   3 3.37  30 3.37
   3  0.088  0.674  0.449-  52 2.04  51 2.22  68 2.25  63 2.34  67 2.35  72 2.37  20 3.09  31 3.12
                             4 3.13   7 3.25   8 3.29  19 3.35   2 3.37  14 3.39
   4  0.074  0.905  0.453-  68 2.09  69 2.30  64 2.32  52 2.34  65 2.41  49 2.47  20 3.07   3 3.13
                            32 3.16  16 3.20  15 3.29   1 3.30  17 3.31   5 3.41
   5  0.333  0.165  0.453-  54 2.20  53 2.25  69 2.26  49 2.31  74 2.34  70 2.39  21 3.17  17 3.20
                             1 3.22   8 3.28   9 3.30  22 3.31  10 3.35   4 3.41
   6  0.333  0.429  0.453-  55 2.07  50 2.12  71 2.24  75 2.38  70 2.51  18 3.07   7 3.15   2 3.19
                            23 3.23  22 3.25  11 3.27  10 3.29   1 3.38
   7  0.333  0.669  0.455-  76 2.18  51 2.19  71 2.23  72 2.23  55 2.28  56 2.36  19 3.12   6 3.15
                            24 3.16  11 3.20  23 3.20   8 3.23  12 3.24   3 3.25   2 3.30
   8  0.342  0.919  0.458-  73 2.19  69 2.21  53 2.25  72 2.26  56 2.33  52 2.40  20 3.05  21 3.06
                            24 3.09  12 3.20   7 3.23   5 3.28   3 3.29   9 3.29
   9  0.589  0.173  0.452-  78 2.16  58 2.18  57 2.21  53 2.21  74 2.29  73 2.50  25 3.05  26 3.06
                            13 3.16  14 3.17  21 3.20   8 3.29   5 3.30  10 3.37  12 3.37
  10  0.582  0.426  0.452-  54 2.07  59 2.22  79 2.26  75 2.32  58 2.36  74 2.49  15 3.09  27 3.16
                            22 3.27   6 3.29  26 3.32  14 3.32  11 3.33   5 3.35   9 3.37
  11  0.580  0.678  0.462-  76 2.07  80 2.07  60 2.16  55 2.18  75 2.24  59 2.34  23 2.94  28 3.04
                            12 3.08  27 3.13   7 3.20  15 3.24   6 3.27  16 3.27  10 3.33
  12  0.582  0.913  0.451-  56 2.09  60 2.18  77 2.27  73 2.30  57 2.30  76 2.33  11 3.08  25 3.13
                             8 3.20   7 3.24  13 3.24  28 3.27  16 3.32  24 3.34   9 3.37
  13  0.824  0.164  0.446-  57 2.07  62 2.17  78 2.18  61 2.29  77 2.30  66 2.55  25 3.13   9 3.16
                            29 3.23  12 3.24  14 3.29  16 3.33   2 3.36
  14  0.830  0.416  0.455-  79 2.15  78 2.24  67 2.25  63 2.28  62 2.34  58 2.36  31 3.06  26 3.10
                             9 3.17  30 3.28  13 3.29  15 3.31  10 3.32   2 3.35   3 3.39
  15  0.817  0.661  0.450-  59 2.07  64 2.08  63 2.11  80 2.29  79 2.36  68 2.40  10 3.09  27 3.15
                            31 3.18  16 3.23  11 3.24  32 3.27   4 3.29  14 3.31
  16  0.836  0.916  0.448-  61 2.16  60 2.23  77 2.23  64 2.27  65 2.29  80 2.42  32 3.20   4 3.20
                            15 3.23  29 3.25   1 3.26  11 3.27  12 3.32  28 3.32  13 3.33
  17  0.170  0.082  0.550-  33 2.14  70 2.22  37 2.23  36 2.28  69 2.35  65 2.41   1 3.14   5 3.20
                            20 3.27  21 3.29   4 3.31  18 3.31  22 3.32  32 3.34  29 3.36
  18  0.167  0.332  0.543-  70 2.12  66 2.16  34 2.16  38 2.24  71 2.28  33 2.38   1 3.04   6 3.07
                            19 3.13  29 3.18   2 3.18  22 3.19  30 3.27  17 3.31
  19  0.169  0.572  0.547-  34 2.05  71 2.08  39 2.23  67 2.35  72 2.37  35 2.45   7 3.12  18 3.13
                             2 3.20  30 3.21  23 3.25  24 3.27   3 3.35  31 3.37  20 3.43
  20  0.165  0.831  0.543-  40 2.15  72 2.21  36 2.23  69 2.24  35 2.25  68 2.29   8 3.05   4 3.07
                             3 3.09  31 3.19  24 3.23  17 3.27  21 3.35  32 3.36  19 3.43
  21  0.422  0.085  0.548-  74 2.16  40 2.16  41 2.26  73 2.30  37 2.39  69 2.41   8 3.06  26 3.16
                             5 3.17   9 3.20  25 3.23  17 3.29  24 3.29  20 3.35  22 3.42
  22  0.414  0.342  0.551-  42 2.11  37 2.15  38 2.20  70 2.25  75 2.27  74 2.45  18 3.19   6 3.25
                            23 3.26  27 3.27  10 3.27   5 3.31  17 3.32  21 3.42
  23  0.427  0.596  0.551-  43 2.08  76 2.17  75 2.21  39 2.27  38 2.33  71 2.43  11 2.94  24 3.18
                             7 3.20   6 3.23  28 3.24  19 3.25  22 3.26  27 3.26
  24  0.409  0.828  0.551-  44 2.10  72 2.20  73 2.25  40 2.31  76 2.31  39 2.31   8 3.09   7 3.16
                            23 3.18  20 3.23  19 3.27  21 3.29  12 3.34  28 3.38  25 3.40
  25  0.668  0.086  0.541-  41 2.06  73 2.15  78 2.18  45 2.19  44 2.33  77 2.35   9 3.05  26 3.12
                            13 3.13  12 3.13  21 3.23  28 3.24  29 3.27  30 3.28  24 3.40
  26  0.666  0.322  0.547-  74 2.20  41 2.23  79 2.30  42 2.30  78 2.33  46 2.40   9 3.06  14 3.10
                            25 3.12  21 3.16  30 3.26  10 3.32  27 3.41
  27  0.669  0.584  0.549-  43 2.14  75 2.24  80 2.24  42 2.27  79 2.36  47 2.37  11 3.13  15 3.15
                            10 3.16  32 3.22  23 3.26  22 3.27  31 3.28  28 3.38  26 3.41
  28  0.674  0.843  0.551-  48 2.05  44 2.09  80 2.31  77 2.34  76 2.49  43 2.57  11 3.04  32 3.17
                            23 3.24  25 3.24  12 3.27  29 3.29  16 3.32  27 3.38  24 3.38
  29  0.921  0.095  0.543-  33 2.21  65 2.22  45 2.23  66 2.24  77 2.32  48 2.51   1 3.01  30 3.14
                            18 3.18  13 3.23  16 3.25  25 3.27  28 3.29  17 3.36  32 3.37
  30  0.919  0.333  0.553-  45 2.11  46 2.15  34 2.24  66 2.37  67 2.42  78 2.48  29 3.14  19 3.21
                            26 3.26  18 3.27  14 3.28  25 3.28  31 3.36   2 3.37
  31  0.921  0.589  0.542-  47 2.04  35 2.15  68 2.22  79 2.31  67 2.31  46 2.33  14 3.06   3 3.12
                            15 3.18  20 3.19  27 3.28  32 3.28  30 3.36  19 3.37
  32  0.910  0.833  0.548-  65 2.09  36 2.10  48 2.30  80 2.33  47 2.35  68 2.41   4 3.16  28 3.17
                            16 3.20  27 3.22  15 3.27  31 3.28  17 3.34  20 3.36  29 3.37
  33  0.080  0.154  0.590-  17 2.14  29 2.21  18 2.38
  34  0.097  0.419  0.588-  19 2.05  18 2.16  30 2.24
  35  0.073  0.667  0.590-  31 2.15  20 2.25  19 2.45
  36  0.069  0.901  0.587-  32 2.10  20 2.23  17 2.28
  37  0.336  0.180  0.593-  22 2.15  17 2.23  21 2.39
  38  0.325  0.419  0.593-  22 2.20  18 2.24  23 2.33
  39  0.324  0.657  0.598-  19 2.23  23 2.27  24 2.31
  40  0.320  0.922  0.589-  20 2.15  21 2.16  24 2.31
  41  0.594  0.154  0.589-  25 2.06  26 2.23  21 2.26
  42  0.576  0.408  0.590-  22 2.11  27 2.27  26 2.30
  43  0.574  0.642  0.595-  23 2.08  27 2.14  28 2.57
  44  0.576  0.910  0.585-  28 2.09  24 2.10  25 2.33
  45  0.827  0.167  0.587-  30 2.11  25 2.19  29 2.23
  46  0.847  0.423  0.593-  30 2.15  31 2.33  26 2.40
  47  0.852  0.657  0.591-  31 2.04  32 2.35  27 2.37
  48  0.821  0.912  0.595-  28 2.05  32 2.30  29 2.51
  49  0.168  0.089  0.403-   1 2.25   5 2.31   4 2.47
  50  0.180  0.355  0.408-   2 2.10   6 2.12   1 2.53
  51  0.172  0.587  0.410-   7 2.19   2 2.21   3 2.22
  52  0.168  0.824  0.407-   3 2.04   4 2.34   8 2.40
  53  0.421  0.083  0.411-   9 2.21   5 2.25   8 2.25
  54  0.438  0.323  0.408-  10 2.07   5 2.20
  55  0.426  0.586  0.415-   6 2.07  11 2.18   7 2.28
  56  0.430  0.842  0.407-  12 2.09   8 2.33   7 2.36
  57  0.666  0.087  0.407-  13 2.07   9 2.21  12 2.30
  58  0.659  0.329  0.405-   9 2.18  14 2.36  10 2.36
  59  0.661  0.594  0.410-  15 2.07  10 2.22  11 2.34
  60  0.661  0.825  0.411-  11 2.16  12 2.18  16 2.23
  61  0.926  0.083  0.410-  16 2.16   1 2.21  13 2.29
  62  0.925  0.335  0.411-   2 2.07  13 2.17  14 2.34
  63  0.903  0.587  0.411-  15 2.11  14 2.28   3 2.34
  64  0.902  0.812  0.406-  15 2.08  16 2.27   4 2.32
  65  0.986  0.988  0.506-  32 2.09  29 2.22  16 2.29   1 2.39  17 2.41   4 2.41
  66  0.011  0.261  0.498-  18 2.16   2 2.21  29 2.24   1 2.29  30 2.37  13 2.55
  67  0.002  0.498  0.496-  14 2.25   2 2.27  31 2.31  19 2.35   3 2.35  30 2.42
  68  0.999  0.750  0.495-   4 2.09  31 2.22   3 2.25  20 2.29  15 2.40  32 2.41
  69  0.247  0.995  0.497-   8 2.21  20 2.24   5 2.26   4 2.30  17 2.35  21 2.41
  70  0.247  0.248  0.506-  18 2.12  17 2.22  22 2.25   1 2.28   5 2.39   6 2.51
  71  0.249  0.506  0.501-  19 2.08   7 2.23   6 2.24  18 2.28   2 2.35  23 2.43
  72  0.254  0.751  0.503-  24 2.20  20 2.21   7 2.23   8 2.26   3 2.37  19 2.37
  73  0.501  0.991  0.504-  25 2.15   8 2.19  24 2.25  12 2.30  21 2.30   9 2.50
  74  0.501  0.244  0.504-  21 2.16  26 2.20   9 2.29   5 2.34  22 2.45  10 2.49
  75  0.503  0.509  0.505-  23 2.21  27 2.24  11 2.24  22 2.27  10 2.32   6 2.38
  76  0.490  0.746  0.501-  11 2.07  23 2.17   7 2.18  24 2.31  12 2.33  28 2.49
  77  0.754  0.998  0.494-  16 2.23  12 2.27  13 2.30  29 2.32  28 2.34  25 2.35
  78  0.750  0.243  0.494-   9 2.16  13 2.18  25 2.18  14 2.24  26 2.33  30 2.48
  79  0.746  0.490  0.499-  14 2.15  10 2.26  26 2.30  31 2.31  15 2.36  27 2.36
  80  0.737  0.743  0.501-  11 2.07  27 2.24  15 2.29  28 2.31  32 2.33  16 2.42
 
  LATTYP: Found a hexagonal cell.
 ALAT       =    13.1286233990
 C/A-ratio  =     2.0434811347
  
  Lattice vectors:
  
 A1 = (  13.1286234000,   0.0000000000,   0.0000000000)
 A2 = (  -6.5643117000,  11.3697213800,   0.0000000000)
 A3 = (   0.0000000000,   0.0000000000,  26.8280942400)


Analysis of symmetry for initial positions (statically):
=====================================================================
 Subroutine PRICEL returns:
 Original cell was already a primitive cell.
 

 Routine SETGRP: Setting up the symmetry group for a 
 hexagonal supercell.


 Subroutine GETGRP returns: Found  1 space group operations
 (whereof  1 operations were pure point group operations)
 out of a pool of 24 trial point group operations.


The static configuration has the point symmetry C_1 .


Analysis of symmetry for dynamics (positions and initial velocities):
=====================================================================
 Subroutine PRICEL returns:
 Original cell was already a primitive cell.
 

 Routine SETGRP: Setting up the symmetry group for a 
 hexagonal supercell.


 Subroutine GETGRP returns: Found  1 space group operations
 (whereof  1 operations were pure point group operations)
 out of a pool of 24 trial point group operations.


The dynamic configuration has the point symmetry C_1 .


 Subroutine INISYM returns: Found  1 space group operations
 (whereof  1 operations are pure point group operations),
 and found     1 'primitive' translations

 
 

Automatic generation of k-mesh.
 generate k-points for:    3    3    1
Space group operators:
 irot       det(A)        alpha          n_x          n_y          n_z        tau_x        tau_y        tau_z
    1     1.000000     0.000000     1.000000     0.000000     0.000000     0.000000     0.000000     0.000000
 
 Subroutine IBZKPT returns following result:
 ===========================================
 
 Found      5 irreducible k-points:
 
 Following reciprocal coordinates:
            Coordinates               Weight
  0.000000  0.000000  0.000000      1.000000
  0.333333 -0.000000  0.000000      2.000000
  0.000000  0.333333  0.000000      2.000000
  0.333333  0.333333  0.000000      2.000000
 -0.333333  0.333333  0.000000      2.000000
 
 Following cartesian coordinates:
            Coordinates               Weight
  0.000000  0.000000  0.000000      1.000000
  0.025390  0.014659  0.000000      2.000000
  0.000000  0.029318  0.000000      2.000000
  0.025390  0.043976  0.000000      2.000000
 -0.025390  0.014659  0.000000      2.000000
 


--------------------------------------------------------------------------------------------------------




 Dimension of arrays:
   k-points           NKPTS =      5   k-points in BZ     NKDIM =      5   number of bands    NBANDS=    384
   number of dos      NEDOS =    301   number of ions     NIONS =     80
   non local maximal  LDIM  =      6   non local SUM 2l+1 LMDIM =     18
   total plane-waves  NPLWV = ******
   max r-space proj   IRMAX =  10060   max aug-charges    IRDMAX= 222480
   dimension x,y,z NGX =   108 NGY =  108 NGZ =  216
   dimension x,y,z NGXF=   216 NGYF=  216 NGZF=  432
   support grid    NGXF=   432 NGYF=  432 NGZF=  864
   ions per type =              32  32  16
   NGX,Y,Z   is equivalent  to a cutoff of  13.68, 13.68, 13.38 a.u.
   NGXF,Y,Z  is equivalent  to a cutoff of  27.35, 27.35, 26.77 a.u.

 SYSTEM =  unknown system                          
 POSCAR =  Sc  F  C                                

 Startparameter for this run:
   NWRITE =      2    write-flag & timer
   PREC   = anorma    normal or accurate (medium, high low for compatibility)
   ISTART =      0    job   : 0-new  1-cont  2-samecut
   ICHARG =      2    charge: 1-file 2-atom 10-const
   ISPIN  =      1    spin polarized calculation?
   LNONCOLLINEAR =      F non collinear calculations
   LSORBIT =      F    spin-orbit coupling
   INIWAV =      1    electr: 0-lowe 1-rand  2-diag
   LASPH  =      F    aspherical Exc in radial PAW
   METAGGA=      F    non-selfconsistent MetaGGA calc.

 Electronic Relaxation 1
   ENCUT  =  600.0 eV  44.10 Ry    6.64 a.u.  26.22 26.22 53.58*2*pi/ulx,y,z
   ENINI  =  600.0     initial cutoff
   ENAUG  =  644.9 eV  augmentation charge cutoff
   NELM   =     60;   NELMIN=  2; NELMDL= -5     # of ELM steps 
   EDIFF  = 0.1E-05   stopping-criterion for ELM
   LREAL  =      T    real-space projection
   NLSPLINE    = F    spline interpolate recip. space projectors
   LCOMPAT=      F    compatible to vasp.4.4
   GGA_COMPAT  = T    GGA compatible to vasp.4.4-vasp.4.6
   LMAXPAW     = -100 max onsite density
   LMAXMIX     =    2 max onsite mixed and CHGCAR
   VOSKOWN=      0    Vosko Wilk Nusair interpolation
   ROPT   =   -0.00025  -0.00025  -0.00025
 Ionic relaxation
   EDIFFG = -.1E-01   stopping-criterion for IOM
   NSW    =      1    number of steps for IOM
   NBLOCK =      1;   KBLOCK =      1    inner block; outer block 
   IBRION =     -1    ionic relax: 0-MD 1-quasi-New 2-CG
   NFREE  =      0    steps in history (QN), initial steepest desc. (CG)
   ISIF   =      2    stress and relaxation
   IWAVPR =     10    prediction:  0-non 1-charg 2-wave 3-comb
   ISYM   =      2    0-nonsym 1-usesym 2-fastsym
   LCORR  =      T    Harris-Foulkes like correction to forces

   POTIM  = 1.0000    time-step for ionic-motion
   TEIN   =    0.0    initial temperature
   TEBEG  =    0.0;   TEEND  =   0.0 temperature during run
   SMASS  =  -3.00    Nose mass-parameter (am)
   estimated Nose-frequenzy (Omega)   =  0.10E-29 period in steps =****** mass=  -0.394E-26a.u.
   SCALEE = 1.0000    scale energy and forces
   NPACO  =    256;   APACO  = 16.0  distance and # of slots for P.C.
   PSTRESS=    0.0 pullay stress

  Mass of Ions in am
   POMASS =  44.96 19.00 12.01
  Ionic Valenz
   ZVAL   =  11.00  7.00  4.00
  Atomic Wigner-Seitz radii
   RWIGS  =  -1.00 -1.00 -1.00
  virtual crystal weights 
   VCA    =   1.00  1.00  1.00
   NELECT =     640.0000    total number of electrons
   NUPDOWN=      -1.0000    fix difference up-down

 DOS related values:
   EMIN   =  10.00;   EMAX   =-10.00  energy-range for DOS
   EFERMI =   0.00
   ISMEAR =     0;   SIGMA  =   0.05  broadening in eV -4-tet -1-fermi 0-gaus

 Electronic relaxation 2 (details)
   IALGO  =     38    algorithm
   LDIAG  =      T    sub-space diagonalisation (order eigenvalues)
   LSUBROT=      F    optimize rotation matrix (better conditioning)
   TURBO    =      0    0=normal 1=particle mesh
   IRESTART =      0    0=no restart 2=restart with 2 vectors
   NREBOOT  =      0    no. of reboots
   NMIN     =      0    reboot dimension
   EREF     =   0.00    reference energy to select bands
   IMIX   =      4    mixing-type and parameters
     AMIX     =   0.40;   BMIX     =  1.00
     AMIX_MAG =   1.60;   BMIX_MAG =  1.00
     AMIN     =   0.10
     WC   =   100.;   INIMIX=   1;  MIXPRE=   1;  MAXMIX= -45

 Intra band minimization:
   WEIMIN = 0.0000     energy-eigenvalue tresh-hold
   EBREAK =  0.65E-09  absolut break condition
   DEPER  =   0.30     relativ break condition  

   TIME   =   0.40     timestep for ELM

  volume/ion in A,a.u.               =      50.06       337.80
  Fermi-wavevector in a.u.,A,eV,Ry     =   0.888414  1.678858 10.738790  0.789279
  Thomas-Fermi vector in A             =   2.009840
 
 Write flags
   LWAVE        =      F    write WAVECAR
   LDOWNSAMPLE  =      F    k-point downsampling of WAVECAR
   LCHARG       =      F    write CHGCAR
   LVTOT        =      F    write LOCPOT, total local potential
   LVHAR        =      F    write LOCPOT, Hartree potential only
   LELF         =      F    write electronic localiz. function (ELF)
   LORBIT       =      0    0 simple, 1 ext, 2 COOP (PROOUT), +10 PAW based schemes


 Dipole corrections
   LMONO  =      F    monopole corrections only (constant potential shift)
   LDIPOL =      F    correct potential (dipole corrections)
   IDIPOL =      0    1-x, 2-y, 3-z, 4-all directions 
   EPSILON=  1.0000000 bulk dielectric constant

 Exchange correlation treatment:
   GGA     =    --    GGA type
   LEXCH   =     8    internal setting for exchange type
   VOSKOWN=      0    Vosko Wilk Nusair interpolation
   LHFCALC =     F    Hartree Fock is set to
   LHFONE  =     F    Hartree Fock one center treatment
   AEXX    =    0.0000 exact exchange contribution

 Linear response parameters
   LEPSILON=     F    determine dielectric tensor
   LRPA    =     F    only Hartree local field effects (RPA)
   LNABLA  =     F    use nabla operator in PAW spheres
   LVEL    =     F    velocity operator in full k-point grid
   LINTERFAST=   F  fast interpolation
   KINTER  =     0    interpolate to denser k-point grid
   CSHIFT  =0.1000    complex shift for real part using Kramers Kronig
   OMEGAMAX=  -1.0    maximum frequency
   DEG_THRESHOLD= 0.2000000E-02 threshold for treating states as degnerate
   RTIME   =   -0.100 relaxation time in fs
  (WPLASMAI=    0.000 imaginary part of plasma frequency in eV, 0.658/RTIME)
   DFIELD  = 0.0000000 0.0000000 0.0000000 field for delta impulse in time
 
 Orbital magnetization related:
   ORBITALMAG=     F  switch on orbital magnetization
   LCHIMAG   =     F  perturbation theory with respect to B field
   DQ        =  0.001000  dq finite difference perturbation B field
   LLRAUG    =     F  two centre corrections for induced B field



--------------------------------------------------------------------------------------------------------


 Static calculation
 charge density and potential will be updated during run
 non-spin polarized calculation
 Variant of blocked Davidson
 Davidson routine will perform the subspace rotation
 perform sub-space diagonalisation
    after iterative eigenvector-optimisation
 modified Broyden-mixing scheme, WC =      100.0
 initial mixing is a Kerker type mixing with AMIX =  0.4000 and BMIX =      1.0000
 Hartree-type preconditioning will be used
 using additional bands           64
 real space projection scheme for non local part
 use partial core corrections
 calculate Harris-corrections to forces 
   (improved forces if not selfconsistent)
 use gradient corrections 
 use of overlap-Matrix (Vanderbilt PP)
 Gauss-broadening in eV      SIGMA  =   0.05


--------------------------------------------------------------------------------------------------------


  energy-cutoff  :      600.00
  volume of cell :     4004.60
      direct lattice vectors                 reciprocal lattice vectors
    13.128623400  0.000000000  0.000000000     0.076169448  0.043976451  0.000000000
    -6.564311700 11.369721380  0.000000000     0.000000000  0.087952903  0.000000000
     0.000000000  0.000000000 26.828094240     0.000000000  0.000000000  0.037274358

  length of vectors
    13.128623400 13.128623399 26.828094240     0.087952903  0.087952903  0.037274358


 
 k-points in units of 2pi/SCALE and weight: read from INCAR                         
   0.00000000  0.00000000  0.00000000       0.111
   0.02538982  0.01465882  0.00000000       0.222
   0.00000000  0.02931763  0.00000000       0.222
   0.02538982  0.04397645  0.00000000       0.222
  -0.02538982  0.01465882  0.00000000       0.222
 
 k-points in reciprocal lattice and weights: read from INCAR                         
   0.00000000  0.00000000  0.00000000       0.111
   0.33333333 -0.00000000  0.00000000       0.222
   0.00000000  0.33333333  0.00000000       0.222
   0.33333333  0.33333333  0.00000000       0.222
  -0.33333333  0.33333333  0.00000000       0.222
 
 position of ions in fractional coordinates (direct lattice) 
   0.08655473  0.16219369  0.45595913
   0.08393052  0.41529995  0.44813775
   0.08827142  0.67385378  0.44947434
   0.07416147  0.90464527  0.45255932
   0.33346507  0.16485560  0.45346566
   0.33316682  0.42916497  0.45345769
   0.33273593  0.66891578  0.45478954
   0.34228404  0.91934282  0.45787915
   0.58905746  0.17325809  0.45197779
   0.58182522  0.42609187  0.45241787
   0.58031955  0.67842694  0.46236144
   0.58201408  0.91292016  0.45082456
   0.82419057  0.16369808  0.44553650
   0.82960120  0.41598745  0.45475765
   0.81694134  0.66141880  0.45005691
   0.83630503  0.91631739  0.44849633
   0.16988524  0.08184427  0.55038300
   0.16737219  0.33248153  0.54331057
   0.16858234  0.57154795  0.54749899
   0.16534077  0.83093567  0.54324630
   0.42172524  0.08501138  0.54789237
   0.41444278  0.34163491  0.55138528
   0.42725953  0.59600998  0.55056846
   0.40923532  0.82848672  0.55142781
   0.66776540  0.08603405  0.54131655
   0.66573270  0.32215562  0.54681349
   0.66936268  0.58359844  0.54929441
   0.67367204  0.84277809  0.55141699
   0.92103083  0.09520063  0.54312332
   0.91886086  0.33266414  0.55258638
   0.92131167  0.58923070  0.54188004
   0.91048529  0.83345807  0.54759111
   0.07957433  0.15449225  0.58981501
   0.09655098  0.41896828  0.58825209
   0.07309479  0.66665229  0.58984709
   0.06940416  0.90118024  0.58719523
   0.33645155  0.18034644  0.59347901
   0.32507371  0.41852721  0.59311453
   0.32418152  0.65699549  0.59770976
   0.32046958  0.92245621  0.58865513
   0.59410564  0.15436542  0.58921187
   0.57563250  0.40786039  0.58951177
   0.57386800  0.64164830  0.59479935
   0.57566885  0.90953127  0.58541777
   0.82706218  0.16676975  0.58742915
   0.84660127  0.42333008  0.59267011
   0.85180352  0.65692550  0.59090064
   0.82109952  0.91213499  0.59546269
   0.16776896  0.08881790  0.40348030
   0.18032317  0.35450359  0.40825673
   0.17227808  0.58697740  0.40952859
   0.16848548  0.82350391  0.40739900
   0.42111922  0.08282495  0.41054451
   0.43756527  0.32346300  0.40809361
   0.42618065  0.58553997  0.41466889
   0.43036429  0.84228528  0.40671327
   0.66596940  0.08734891  0.40712476
   0.65886816  0.32855464  0.40478771
   0.66102028  0.59415573  0.41037097
   0.66120132  0.82482507  0.41143175
   0.92550892  0.08259114  0.40980830
   0.92524232  0.33480513  0.41059466
   0.90334977  0.58714046  0.41093335
   0.90214053  0.81162281  0.40586547
   0.98625326  0.98804458  0.50568663
   0.01084492  0.26105125  0.49801519
   0.00216391  0.49824474  0.49598783
   0.99909355  0.75045990  0.49512058
   0.24678578  0.99491841  0.49697204
   0.24724527  0.24756890  0.50648472
   0.24879751  0.50618339  0.50098981
   0.25420452  0.75105357  0.50263360
   0.50113639  0.99073715  0.50390716
   0.50086930  0.24415962  0.50396487
   0.50270255  0.50916737  0.50514148
   0.49047120  0.74560074  0.50067892
   0.75364615  0.99775000  0.49415923
   0.74994712  0.24265240  0.49439576
   0.74571207  0.49011873  0.49899540
   0.73745912  0.74349726  0.50075997
 
 position of ions in cartesian coordinates  (Angst):
   0.07165446  1.84409711 12.23251460
  -1.62426611  4.72184476 12.02268178
  -3.26450399  7.66152970 12.05854007
  -4.96473545 10.28556462 12.14130406
   3.29577381  1.87436221 12.16561939
   1.55684910  4.87948608 12.16540569
  -0.02260697  7.60538608 12.20113676
  -1.54113461 10.45267170 12.28402501
   6.59619346  1.96989621 12.12570287
   4.84156440  4.84454587 12.13750920
   3.16539092  7.71352532 12.40427638
   1.64835113 10.37964788 12.09476387
   9.74592234  1.86120157 11.95289516
   8.16085038  4.72966146 12.20028112
   6.38355601  7.52014744 12.07416913
   4.96454088 10.41827341 12.03230180
   1.69310802  0.93054649 14.76572693
   0.01485404  3.78022231 14.57598726
  -1.53856485  6.49834098 14.68835458
  -3.28382400  9.44750700 14.57426295
   4.97863066  0.96655571 14.69890801
   3.19846510  3.88429371 14.79261631
   1.69693413  6.77646739 14.77070244
  -0.06574863  9.41966319 14.79375733
   8.20208615  0.97818320 14.52249134
   6.62542399  3.66281965 14.66996381
   4.95688851  6.63535161 14.73652220
   3.31212850  9.58215203 14.79346706
  11.46694031  1.08240462 14.57096371
   9.87966713  3.78229853 14.82483951
   8.22765991  6.69938893 14.53760877
   6.48233996  9.47618600 14.69082594
   0.03056608  1.75653386 15.82361265
  -1.48265700  4.76355265 15.78168253
  -3.41647943  7.57965075 15.82447332
  -5.00444697 10.24616825 15.75332893
   3.23329552  2.05048873 15.92191074
   1.52042730  4.75853772 15.91213264
  -0.05666611  7.46985571 16.03541384
  -1.84796564 10.48807013 15.79249538
   6.78648648  1.75509176 15.80743169
   4.87993961  4.63725900 15.81547723
   3.32211735  7.29536241 15.95733294
   1.58729284 10.34111712 15.70564303
   9.76345924  1.89612564 15.75960466
   8.33583862  4.81314503 15.90020944
   6.87074389  7.46905993 15.85273819
   4.79236795 10.37072068 15.97512922
   1.61954709  1.00983474 10.82460750
   0.04032296  4.03060704 10.95274991
  -1.59132854  6.67376952 10.98687156
  -3.19375399  9.36301006 10.92973871
   4.98502682  0.94169661 11.01412687
   3.62131766  3.67768414 10.94837387
   1.75149836  6.65742637 11.12477615
   0.12106764  9.57654892 10.91134191
   8.16987600  0.99313274 10.92238147
   6.49329690  3.73557471 10.85968273
   4.77806296  6.75538512 11.00947117
   3.26625430  9.37803122 11.03792987
  11.60850411  0.93903825 10.99437571
   9.94939277  3.80664105 11.01547229
   8.00556594  6.67562348 11.02455857
   6.51611816  9.22792522 10.88859695
   6.46231505 11.23379154 13.56660866
  -1.57124284  2.96807994 13.36079832
  -3.24222459  5.66490385 13.30640815
   8.19047028  8.53251998 13.28314151
  -3.29099702 11.31194508 13.33281269
   1.62087068  2.81478938 13.58801981
  -0.05637667  5.75516409 13.44060190
  -1.59279437  8.53926982 13.48470154
   0.07572344 11.26440540 13.51886871
   4.97298455  2.77602687 13.52041697
   3.25745916  5.78909116 13.55198313
   1.54485598  8.47727271 13.43226133
   3.34479440 11.34413955 13.25735035
   8.25292732  2.75889021 13.26369606
   6.57288087  5.57251339 13.38709558
   4.80127532  8.45335670 13.43443571
 


--------------------------------------------------------------------------------------------------------


 k-point  1 :   0.0000 0.0000 0.0000  plane waves:  133769
 k-point  2 :   0.3333-0.0000 0.0000  plane waves:  133588
 k-point  3 :   0.0000 0.3333 0.0000  plane waves:  133588
 k-point  4 :   0.3333 0.3333 0.0000  plane waves:  133608
 k-point  5 :  -0.3333 0.3333 0.0000  plane waves:  133588

 maximum and minimum number of plane-waves per node :     10323    10242

 maximum number of plane-waves:    133769
 maximum index in each direction: 
   IXMAX=   26   IYMAX=   26   IZMAX=   53
   IXMIN=  -26   IYMIN=  -26   IZMIN=  -53


 real space projection operators:
  total allocation   :      55725.14 KBytes
  max/ min on nodes  :       4758.42       4023.06


 parallel 3D FFT for wavefunctions:
    minimum data exchange during FFTs selected (reduces bandwidth)
 parallel 3D FFT for charge:
    minimum data exchange during FFTs selected (reduces bandwidth)


 total amount of memory used by VASP MPI-rank0   234704. kBytes
=======================================================================

   base      :      30000. kBytes
   nonlr-proj:      19436. kBytes
   fftplans  :      66973. kBytes
   grid      :      38377. kBytes
   one-center:        108. kBytes
   wavefun   :      79810. kBytes
 
     INWAV:  cpu time    0.0000: real time    0.0000
 Broyden mixing: mesh for mixing (old mesh)
   NGX = 53   NGY = 53   NGZ =107
  (NGX  =216   NGY  =216   NGZ  =432)
  gives a total of 300563 points

 initial charge density was supplied:
 charge density of overlapping atoms calculated
 number of electron     640.0000000 magnetization 
 keeping initial charge density in first step


--------------------------------------------------------------------------------------------------------


 Maximum index for non-local projection operator         1113
 Maximum index for augmentation-charges         5685 (set IRDMAX)


--------------------------------------------------------------------------------------------------------


 First call to EWALD:  gamma=   0.112
 Maximum number of real-space cells 4x 4x 2
 Maximum number of reciprocal cells 2x 2x 4

    FEWALD:  cpu time    0.0039: real time    0.0046


--------------------------------------- Iteration      1(   1)  ---------------------------------------


    POTLOK:  cpu time    0.4558: real time    0.4621
    SETDIJ:  cpu time    0.4184: real time    0.4185
     EDDAV:  cpu time   45.9579: real time   45.9618
       DOS:  cpu time    0.0013: real time    0.0013
    --------------------------------------------
      LOOP:  cpu time   46.8334: real time   46.8437

 eigenvalue-minimisations  :  4232
 total energy-change (2. order) : 0.1365125E+05  (-0.2787875E+05)
 number of electron     640.0000000 magnetization 
 augmentation part      640.0000000 magnetization 

 Free energy of the ion-electron system (eV)
  ---------------------------------------------------
  alpha Z        PSCENC =       871.83850952
  Ewald energy   TEWEN  =    286419.70217226
  -Hartree energ DENC   =   -340765.67984272
  -exchange      EXHF   =         0.00000000
  -V(xc)+E(xc)   XCENC  =      3043.30550538
  PAW double counting   =     50525.51240023   -50422.77561733
  entropy T*S    EENTRO =        -0.07568570
  eigenvalues    EBANDS =      -228.01788815
  atomic energy  EATOM  =     64207.43592568
  Solvation  Ediel_sol  =         0.00000000
  ---------------------------------------------------
  free energy    TOTEN  =     13651.24547918 eV

  energy without entropy =    13651.32116488  energy(sigma->0) =    13651.28332203


--------------------------------------------------------------------------------------------------------




--------------------------------------- Iteration      1(   2)  ---------------------------------------


     EDDAV:  cpu time   49.0722: real time   49.0935
       DOS:  cpu time    0.0012: real time    0.0012
    --------------------------------------------
      LOOP:  cpu time   49.0734: real time   49.0947

 eigenvalue-minimisations  :  4632
 total energy-change (2. order) :-0.1116722E+05  (-0.1086429E+05)
 number of electron     640.0000000 magnetization 
 augmentation part      640.0000000 magnetization 

 Free energy of the ion-electron system (eV)
  ---------------------------------------------------
  alpha Z        PSCENC =       871.83850952
  Ewald energy   TEWEN  =    286419.70217226
  -Hartree energ DENC   =   -340765.67984272
  -exchange      EXHF   =         0.00000000
  -V(xc)+E(xc)   XCENC  =      3043.30550538
  PAW double counting   =     50525.51240023   -50422.77561733
  entropy T*S    EENTRO =        -0.05264715
  eigenvalues    EBANDS =    -11395.26116681
  atomic energy  EATOM  =     64207.43592568
  Solvation  Ediel_sol  =         0.00000000
  ---------------------------------------------------
  free energy    TOTEN  =      2484.02523906 eV

  energy without entropy =     2484.07788622  energy(sigma->0) =     2484.05156264


--------------------------------------------------------------------------------------------------------




--------------------------------------- Iteration      1(   3)  ---------------------------------------


     EDDAV:  cpu time   67.1869: real time   67.1905
       DOS:  cpu time    0.0005: real time    0.0005
    --------------------------------------------
      LOOP:  cpu time   67.1874: real time   67.1910

 eigenvalue-minimisations  :  6784
 total energy-change (2. order) :-0.2862130E+04  (-0.2748268E+04)
 number of electron     640.0000000 magnetization 
 augmentation part      640.0000000 magnetization 

 Free energy of the ion-electron system (eV)
  ---------------------------------------------------
  alpha Z        PSCENC =       871.83850952
  Ewald energy   TEWEN  =    286419.70217226
  -Hartree energ DENC   =   -340765.67984272
  -exchange      EXHF   =         0.00000000
  -V(xc)+E(xc)   XCENC  =      3043.30550538
  PAW double counting   =     50525.51240023   -50422.77561733
  entropy T*S    EENTRO =        -0.00000000
  eigenvalues    EBANDS =    -14257.44335061
  atomic energy  EATOM  =     64207.43592568
  Solvation  Ediel_sol  =         0.00000000
  ---------------------------------------------------
  free energy    TOTEN  =      -378.10429759 eV

  energy without entropy =     -378.10429759  energy(sigma->0) =     -378.10429759


--------------------------------------------------------------------------------------------------------




--------------------------------------- Iteration      1(   4)  ---------------------------------------


     EDDAV:  cpu time   60.9983: real time   61.0096
       DOS:  cpu time    0.0005: real time    0.0005
    --------------------------------------------
      LOOP:  cpu time   60.9987: real time   61.0101

 eigenvalue-minimisations  :  6064
 total energy-change (2. order) :-0.3601101E+03  (-0.3557259E+03)
 number of electron     640.0000000 magnetization 
 augmentation part      640.0000000 magnetization 

 Free energy of the ion-electron system (eV)
  ---------------------------------------------------
  alpha Z        PSCENC =       871.83850952
  Ewald energy   TEWEN  =    286419.70217226
  -Hartree energ DENC   =   -340765.67984272
  -exchange      EXHF   =         0.00000000
  -V(xc)+E(xc)   XCENC  =      3043.30550538
  PAW double counting   =     50525.51240023   -50422.77561733
  entropy T*S    EENTRO =        -0.00000000
  eigenvalues    EBANDS =    -14617.55342114
  atomic energy  EATOM  =     64207.43592568
  Solvation  Ediel_sol  =         0.00000000
  ---------------------------------------------------
  free energy    TOTEN  =      -738.21436811 eV

  energy without entropy =     -738.21436811  energy(sigma->0) =     -738.21436811


--------------------------------------------------------------------------------------------------------




--------------------------------------- Iteration      1(   5)  ---------------------------------------


     EDDAV:  cpu time   61.1108: real time   61.1212
       DOS:  cpu time    0.0005: real time    0.0005
    CHARGE:  cpu time    3.5511: real time    3.5511
    MIXING:  cpu time    0.0169: real time    0.0173
    --------------------------------------------
      LOOP:  cpu time   64.6794: real time   64.6901

 eigenvalue-minimisations  :  6080
 total energy-change (2. order) :-0.1453975E+02  (-0.1447948E+02)
 number of electron     640.0000007 magnetization 
 augmentation part      134.5886098 magnetization 

 Broyden mixing:
  rms(total) = 0.77338E+01    rms(broyden)= 0.77335E+01
  rms(prec ) = 0.81357E+01
  weight for this iteration     100.00

 Free energy of the ion-electron system (eV)
  ---------------------------------------------------
  alpha Z        PSCENC =       871.83850952
  Ewald energy   TEWEN  =    286419.70217226
  -Hartree energ DENC   =   -340765.67984272
  -exchange      EXHF   =         0.00000000
  -V(xc)+E(xc)   XCENC  =      3043.30550538
  PAW double counting   =     50525.51240023   -50422.77561733
  entropy T*S    EENTRO =        -0.00000000
  eigenvalues    EBANDS =    -14632.09317526
  atomic energy  EATOM  =     64207.43592568
  Solvation  Ediel_sol  =         0.00000000
  ---------------------------------------------------
  free energy    TOTEN  =      -752.75412224 eV

  energy without entropy =     -752.75412224  energy(sigma->0) =     -752.75412224


--------------------------------------------------------------------------------------------------------




--------------------------------------- Iteration      1(   6)  ---------------------------------------


    POTLOK:  cpu time    0.3918: real time    0.4014
    SETDIJ:  cpu time    0.4291: real time    0.4291
     EDDAV:  cpu time   58.6731: real time   58.6848
       DOS:  cpu time    0.0007: real time    0.0007
    CHARGE:  cpu time    3.5405: real time    3.5405
    MIXING:  cpu time    0.0218: real time    0.0219
    --------------------------------------------
      LOOP:  cpu time   63.0570: real time   63.0783

 eigenvalue-minimisations  :  5760
 total energy-change (2. order) : 0.1560823E+03  (-0.8403624E+02)
 number of electron     640.0000008 magnetization 
 augmentation part      140.4446378 magnetization 

 Broyden mixing:
  rms(total) = 0.25250E+01    rms(broyden)= 0.25243E+01
  rms(prec ) = 0.25769E+01
  weight for this iteration     100.00

 eigenvalues of (default mixing * dielectric matrix)
  average eigenvalue GAMMA=   0.9843
  0.9843

 Free energy of the ion-electron system (eV)
  ---------------------------------------------------
  alpha Z        PSCENC =       871.83850952
  Ewald energy   TEWEN  =    286419.70217226
  -Hartree energ DENC   =   -340940.57221770
  -exchange      EXHF   =         0.00000000
  -V(xc)+E(xc)   XCENC  =      3055.89950820
  PAW double counting   =     56517.18923291   -56483.83001747
  entropy T*S    EENTRO =        -0.00000000
  eigenvalues    EBANDS =    -14244.33490046
  atomic energy  EATOM  =     64207.43592568
  Solvation  Ediel_sol  =         0.00000000
  ---------------------------------------------------
  free energy    TOTEN  =      -596.67178706 eV

  energy without entropy =     -596.67178706  energy(sigma->0) =     -596.67178706


--------------------------------------------------------------------------------------------------------




--------------------------------------- Iteration      1(   7)  ---------------------------------------


    POTLOK:  cpu time    0.4084: real time    0.4195
    SETDIJ:  cpu time    0.4257: real time    0.4257
     EDDAV:  cpu time   60.1804: real time   60.1838
       DOS:  cpu time    0.0007: real time    0.0006
    CHARGE:  cpu time    3.5550: real time    3.5550
    MIXING:  cpu time    0.0285: real time    0.0285
    --------------------------------------------
      LOOP:  cpu time   64.5985: real time   64.6132

 eigenvalue-minimisations  :  5952
 total energy-change (2. order) :-0.1075720E+00  (-0.5512400E+01)
 number of electron     640.0000008 magnetization 
 augmentation part      141.0676170 magnetization 

 Broyden mixing:
  rms(total) = 0.16443E+01    rms(broyden)= 0.16443E+01
  rms(prec ) = 0.16733E+01
  weight for this iteration     100.00

 eigenvalues of (default mixing * dielectric matrix)
  average eigenvalue GAMMA=   1.6413
  0.9631  2.3194

 Free energy of the ion-electron system (eV)
  ---------------------------------------------------
  alpha Z        PSCENC =       871.83850952
  Ewald energy   TEWEN  =    286419.70217226
  -Hartree energ DENC   =   -341082.34165841
  -exchange      EXHF   =         0.00000000
  -V(xc)+E(xc)   XCENC  =      3052.84585174
  PAW double counting   =     60309.78314588   -60283.37059610
  entropy T*S    EENTRO =        -0.00000000
  eigenvalues    EBANDS =    -14092.67270963
  atomic energy  EATOM  =     64207.43592568
  Solvation  Ediel_sol  =         0.00000000
  ---------------------------------------------------
  free energy    TOTEN  =      -596.77935906 eV

  energy without entropy =     -596.77935906  energy(sigma->0) =     -596.77935906


--------------------------------------------------------------------------------------------------------




--------------------------------------- Iteration      1(   8)  ---------------------------------------


    POTLOK:  cpu time    0.3805: real time    0.3904
    SETDIJ:  cpu time    0.4158: real time    0.4158
     EDDAV:  cpu time   57.0564: real time   57.0625
       DOS:  cpu time    0.0005: real time    0.0005
    CHARGE:  cpu time    3.5523: real time    3.5523
    MIXING:  cpu time    0.0288: real time    0.0288
    --------------------------------------------
      LOOP:  cpu time   61.4343: real time   61.4503

 eigenvalue-minimisations  :  5568
 total energy-change (2. order) : 0.1510672E+01  (-0.1038923E+01)
 number of electron     640.0000008 magnetization 
 augmentation part      141.0996505 magnetization 

 Broyden mixing:
  rms(total) = 0.45227E+00    rms(broyden)= 0.45218E+00
  rms(prec ) = 0.48617E+00
  weight for this iteration     100.00

 eigenvalues of (default mixing * dielectric matrix)
  average eigenvalue GAMMA=   1.4170
  2.4600  0.8955  0.8955

 Free energy of the ion-electron system (eV)
  ---------------------------------------------------
  alpha Z        PSCENC =       871.83850952
  Ewald energy   TEWEN  =    286419.70217226
  -Hartree energ DENC   =   -341338.81238996
  -exchange      EXHF   =         0.00000000
  -V(xc)+E(xc)   XCENC  =      3049.36478775
  PAW double counting   =     66706.36981276   -66697.15309360
  entropy T*S    EENTRO =        -0.00000000
  eigenvalues    EBANDS =    -13814.01441156
  atomic energy  EATOM  =     64207.43592568
  Solvation  Ediel_sol  =         0.00000000
  ---------------------------------------------------
  free energy    TOTEN  =      -595.26868715 eV

  energy without entropy =     -595.26868715  energy(sigma->0) =     -595.26868715


--------------------------------------------------------------------------------------------------------




--------------------------------------- Iteration      1(   9)  ---------------------------------------


    POTLOK:  cpu time    0.3956: real time    0.4082
    SETDIJ:  cpu time    0.4162: real time    0.4204
     EDDAV:  cpu time   56.6114: real time   56.6163
       DOS:  cpu time    0.0006: real time    0.0005
    CHARGE:  cpu time    3.5588: real time    3.5588
    MIXING:  cpu time    0.0264: real time    0.0264
    --------------------------------------------
      LOOP:  cpu time   61.0091: real time   61.0306

 eigenvalue-minimisations  :  5520
 total energy-change (2. order) : 0.5098031E+00  (-0.2659235E+00)
 number of electron     640.0000008 magnetization 
 augmentation part      141.4851869 magnetization 

 Broyden mixing:
  rms(total) = 0.21841E+00    rms(broyden)= 0.21840E+00
  rms(prec ) = 0.23639E+00
  weight for this iteration     100.00

 eigenvalues of (default mixing * dielectric matrix)
  average eigenvalue GAMMA=   1.2537
  2.1145  1.1204  0.8900  0.8900

 Free energy of the ion-electron system (eV)
  ---------------------------------------------------
  alpha Z        PSCENC =       871.83850952
  Ewald energy   TEWEN  =    286419.70217226
  -Hartree energ DENC   =   -341445.20061722
  -exchange      EXHF   =         0.00000000
  -V(xc)+E(xc)   XCENC  =      3051.28893690
  PAW double counting   =     67165.23767809   -67159.32319103
  entropy T*S    EENTRO =        -0.00000000
  eigenvalues    EBANDS =    -13705.73829821
  atomic energy  EATOM  =     64207.43592568
  Solvation  Ediel_sol  =         0.00000000
  ---------------------------------------------------
  free energy    TOTEN  =      -594.75888401 eV

  energy without entropy =     -594.75888401  energy(sigma->0) =     -594.75888401


--------------------------------------------------------------------------------------------------------




--------------------------------------- Iteration      1(  10)  ---------------------------------------


    POTLOK:  cpu time    0.3815: real time    0.3940
    SETDIJ:  cpu time    0.4174: real time    0.4174
     EDDAV:  cpu time   60.1841: real time   60.1930
       DOS:  cpu time    0.0006: real time    0.0005
    CHARGE:  cpu time    3.5636: real time    3.5636
    MIXING:  cpu time    0.0254: real time    0.0254
    --------------------------------------------
      LOOP:  cpu time   64.5725: real time   64.5939

 eigenvalue-minimisations  :  5952
 total energy-change (2. order) : 0.3829921E-01  (-0.2983320E-01)
 number of electron     640.0000008 magnetization 
 augmentation part      141.3383981 magnetization 

 Broyden mixing:
  rms(total) = 0.12229E+00    rms(broyden)= 0.12228E+00
  rms(prec ) = 0.14528E+00
  weight for this iteration     100.00

 eigenvalues of (default mixing * dielectric matrix)
  average eigenvalue GAMMA=   1.4281
  2.3264  2.3264  0.9141  0.9141  0.6592

 Free energy of the ion-electron system (eV)
  ---------------------------------------------------
  alpha Z        PSCENC =       871.83850952
  Ewald energy   TEWEN  =    286419.70217226
  -Hartree energ DENC   =   -341507.19357702
  -exchange      EXHF   =         0.00000000
  -V(xc)+E(xc)   XCENC  =      3052.58833256
  PAW double counting   =     66574.71664253   -66567.72274721
  entropy T*S    EENTRO =        -0.00000000
  eigenvalues    EBANDS =    -13646.08584313
  atomic energy  EATOM  =     64207.43592568
  Solvation  Ediel_sol  =         0.00000000
  ---------------------------------------------------
  free energy    TOTEN  =      -594.72058480 eV

  energy without entropy =     -594.72058480  energy(sigma->0) =     -594.72058480


--------------------------------------------------------------------------------------------------------




--------------------------------------- Iteration      1(  11)  ---------------------------------------


    POTLOK:  cpu time    0.4055: real time    0.4140
    SETDIJ:  cpu time    0.4314: real time    0.4315
     EDDAV:  cpu time   57.1048: real time   57.1047
       DOS:  cpu time    0.0006: real time    0.0006
    CHARGE:  cpu time    3.5283: real time    3.5284
    MIXING:  cpu time    0.0294: real time    0.0294
    --------------------------------------------
      LOOP:  cpu time   61.5001: real time   61.5085

 eigenvalue-minimisations  :  5584
 total energy-change (2. order) : 0.1159555E+00  (-0.1599203E-01)
 number of electron     640.0000008 magnetization 
 augmentation part      141.2364891 magnetization 

 Broyden mixing:
  rms(total) = 0.78878E-01    rms(broyden)= 0.78875E-01
  rms(prec ) = 0.93528E-01
  weight for this iteration     100.00

 eigenvalues of (default mixing * dielectric matrix)
  average eigenvalue GAMMA=   1.3648
  2.5413  2.0987  1.0014  0.9202  0.9202  0.7072

 Free energy of the ion-electron system (eV)
  ---------------------------------------------------
  alpha Z        PSCENC =       871.83850952
  Ewald energy   TEWEN  =    286419.70217226
  -Hartree energ DENC   =   -341666.46722115
  -exchange      EXHF   =         0.00000000
  -V(xc)+E(xc)   XCENC  =      3054.10660422
  PAW double counting   =     66523.00309785   -66516.10591813
  entropy T*S    EENTRO =        -0.00000000
  eigenvalues    EBANDS =    -13488.11779950
  atomic energy  EATOM  =     64207.43592568
  Solvation  Ediel_sol  =         0.00000000
  ---------------------------------------------------
  free energy    TOTEN  =      -594.60462925 eV

  energy without entropy =     -594.60462925  energy(sigma->0) =     -594.60462925


--------------------------------------------------------------------------------------------------------




--------------------------------------- Iteration      1(  12)  ---------------------------------------


    POTLOK:  cpu time    0.3766: real time    0.3862
    SETDIJ:  cpu time    0.4163: real time    0.4163
     EDDAV:  cpu time   59.5503: real time   59.5514
       DOS:  cpu time    0.0006: real time    0.0006
    CHARGE:  cpu time    3.5365: real time    3.5365
    MIXING:  cpu time    0.0259: real time    0.0259
    --------------------------------------------
      LOOP:  cpu time   63.9063: real time   63.9170

 eigenvalue-minimisations  :  5880
 total energy-change (2. order) : 0.2765594E-01  (-0.4661210E-02)
 number of electron     640.0000008 magnetization 
 augmentation part      141.3054274 magnetization 

 Broyden mixing:
  rms(total) = 0.33599E-01    rms(broyden)= 0.33598E-01
  rms(prec ) = 0.51226E-01
  weight for this iteration     100.00

 eigenvalues of (default mixing * dielectric matrix)
  average eigenvalue GAMMA=   1.4049
  2.5289  2.5289  1.1431  1.1431  0.9126  0.9126  0.6652

 Free energy of the ion-electron system (eV)
  ---------------------------------------------------
  alpha Z        PSCENC =       871.83850952
  Ewald energy   TEWEN  =    286419.70217226
  -Hartree energ DENC   =   -341717.88080526
  -exchange      EXHF   =         0.00000000
  -V(xc)+E(xc)   XCENC  =      3054.17258152
  PAW double counting   =     66701.98406556   -66695.53487568
  entropy T*S    EENTRO =        -0.00000000
  eigenvalues    EBANDS =    -13436.29454694
  atomic energy  EATOM  =     64207.43592568
  Solvation  Ediel_sol  =         0.00000000
  ---------------------------------------------------
  free energy    TOTEN  =      -594.57697332 eV

  energy without entropy =     -594.57697332  energy(sigma->0) =     -594.57697332


--------------------------------------------------------------------------------------------------------




--------------------------------------- Iteration      1(  13)  ---------------------------------------


    POTLOK:  cpu time    0.4338: real time    0.4445
    SETDIJ:  cpu time    0.4736: real time    0.4736
     EDDAV:  cpu time   57.5653: real time   57.5693
       DOS:  cpu time    0.0006: real time    0.0005
    CHARGE:  cpu time    3.5347: real time    3.5347
    MIXING:  cpu time    0.0274: real time    0.0274
    --------------------------------------------
      LOOP:  cpu time   62.0354: real time   62.0500

 eigenvalue-minimisations  :  5632
 total energy-change (2. order) : 0.1045156E-01  (-0.3600076E-02)
 number of electron     640.0000008 magnetization 
 augmentation part      141.2514046 magnetization 

 Broyden mixing:
  rms(total) = 0.31770E-01    rms(broyden)= 0.31768E-01
  rms(prec ) = 0.42847E-01
  weight for this iteration     100.00

 eigenvalues of (default mixing * dielectric matrix)
  average eigenvalue GAMMA=   1.3518
  2.7733  2.4323  1.2132  1.2132  0.8849  0.8849  0.7510  0.6619

 Free energy of the ion-electron system (eV)
  ---------------------------------------------------
  alpha Z        PSCENC =       871.83850952
  Ewald energy   TEWEN  =    286419.70217226
  -Hartree energ DENC   =   -341784.52506555
  -exchange      EXHF   =         0.00000000
  -V(xc)+E(xc)   XCENC  =      3054.44239086
  PAW double counting   =     66622.31154190   -66615.49883938
  entropy T*S    EENTRO =        -0.00000000
  eigenvalues    EBANDS =    -13370.27315706
  atomic energy  EATOM  =     64207.43592568
  Solvation  Ediel_sol  =         0.00000000
  ---------------------------------------------------
  free energy    TOTEN  =      -594.56652176 eV

  energy without entropy =     -594.56652176  energy(sigma->0) =     -594.56652176


--------------------------------------------------------------------------------------------------------




--------------------------------------- Iteration      1(  14)  ---------------------------------------


    POTLOK:  cpu time    0.4338: real time    0.4455
    SETDIJ:  cpu time    0.4171: real time    0.4171
     EDDAV:  cpu time   58.0914: real time   58.0949
       DOS:  cpu time    0.0006: real time    0.0006
    CHARGE:  cpu time    3.5190: real time    3.5190
    MIXING:  cpu time    0.0225: real time    0.0225
    --------------------------------------------
      LOOP:  cpu time   62.4845: real time   62.4996

 eigenvalue-minimisations  :  5704
 total energy-change (2. order) : 0.3865148E-02  (-0.1101195E-02)
 number of electron     640.0000008 magnetization 
 augmentation part      141.2834640 magnetization 

 Broyden mixing:
  rms(total) = 0.16488E-01    rms(broyden)= 0.16488E-01
  rms(prec ) = 0.26710E-01
  weight for this iteration     100.00

 eigenvalues of (default mixing * dielectric matrix)
  average eigenvalue GAMMA=   1.4405
  2.8089  2.8089  1.5641  1.5641  0.9274  0.9274  0.8534  0.8534  0.6571

 Free energy of the ion-electron system (eV)
  ---------------------------------------------------
  alpha Z        PSCENC =       871.83850952
  Ewald energy   TEWEN  =    286419.70217226
  -Hartree energ DENC   =   -341826.39935019
  -exchange      EXHF   =         0.00000000
  -V(xc)+E(xc)   XCENC  =      3054.52838492
  PAW double counting   =     66665.47385848   -66658.82007938
  entropy T*S    EENTRO =        -0.00000000
  eigenvalues    EBANDS =    -13328.32207791
  atomic energy  EATOM  =     64207.43592568
  Solvation  Ediel_sol  =         0.00000000
  ---------------------------------------------------
  free energy    TOTEN  =      -594.56265661 eV

  energy without entropy =     -594.56265661  energy(sigma->0) =     -594.56265661


--------------------------------------------------------------------------------------------------------




--------------------------------------- Iteration      1(  15)  ---------------------------------------


    POTLOK:  cpu time    0.3676: real time    0.3798
    SETDIJ:  cpu time    0.4165: real time    0.4165
     EDDAV:  cpu time   57.8314: real time   57.8333
       DOS:  cpu time    0.0006: real time    0.0006
    CHARGE:  cpu time    3.5205: real time    3.5205
    MIXING:  cpu time    0.0256: real time    0.0256
    --------------------------------------------
      LOOP:  cpu time   62.1623: real time   62.1764

 eigenvalue-minimisations  :  5672
 total energy-change (2. order) :-0.5060511E-02  (-0.1126699E-02)
 number of electron     640.0000008 magnetization 
 augmentation part      141.2821141 magnetization 

 Broyden mixing:
  rms(total) = 0.13301E-01    rms(broyden)= 0.13297E-01
  rms(prec ) = 0.18434E-01
  weight for this iteration     100.00

 eigenvalues of (default mixing * dielectric matrix)
  average eigenvalue GAMMA=   1.4821
  3.9413  2.6969  1.9334  1.0455  1.0455  1.0387  0.8677  0.8677  0.6432  0.7408

 Free energy of the ion-electron system (eV)
  ---------------------------------------------------
  alpha Z        PSCENC =       871.83850952
  Ewald energy   TEWEN  =    286419.70217226
  -Hartree energ DENC   =   -341883.02925760
  -exchange      EXHF   =         0.00000000
  -V(xc)+E(xc)   XCENC  =      3054.66755551
  PAW double counting   =     66626.69270253   -66619.97423042
  entropy T*S    EENTRO =        -0.00000000
  eigenvalues    EBANDS =    -13271.90109461
  atomic energy  EATOM  =     64207.43592568
  Solvation  Ediel_sol  =         0.00000000
  ---------------------------------------------------
  free energy    TOTEN  =      -594.56771712 eV

  energy without entropy =     -594.56771712  energy(sigma->0) =     -594.56771712


--------------------------------------------------------------------------------------------------------




--------------------------------------- Iteration      1(  16)  ---------------------------------------


    POTLOK:  cpu time    0.4072: real time    0.4177
    SETDIJ:  cpu time    0.4157: real time    0.4156
     EDDAV:  cpu time   55.2324: real time   55.2417
       DOS:  cpu time    0.0007: real time    0.0006
    CHARGE:  cpu time    3.5303: real time    3.5303
    MIXING:  cpu time    0.0243: real time    0.0243
    --------------------------------------------
      LOOP:  cpu time   59.6105: real time   59.6302

 eigenvalue-minimisations  :  5352
 total energy-change (2. order) :-0.3580312E-02  (-0.2712666E-03)
 number of electron     640.0000008 magnetization 
 augmentation part      141.2848218 magnetization 

 Broyden mixing:
  rms(total) = 0.91492E-02    rms(broyden)= 0.91488E-02
  rms(prec ) = 0.12175E-01
  weight for this iteration     100.00

 eigenvalues of (default mixing * dielectric matrix)
  average eigenvalue GAMMA=   1.5096
  4.2731  2.6658  2.2056  1.1519  1.1519  0.9892  0.9892  0.9108  0.9108  0.6440
  0.7127

 Free energy of the ion-electron system (eV)
  ---------------------------------------------------
  alpha Z        PSCENC =       871.83850952
  Ewald energy   TEWEN  =    286419.70217226
  -Hartree energ DENC   =   -341917.32327445
  -exchange      EXHF   =         0.00000000
  -V(xc)+E(xc)   XCENC  =      3054.71707113
  PAW double counting   =     66634.60309032   -66627.90793600
  entropy T*S    EENTRO =        -0.00000000
  eigenvalues    EBANDS =    -13237.63685591
  atomic energy  EATOM  =     64207.43592568
  Solvation  Ediel_sol  =         0.00000000
  ---------------------------------------------------
  free energy    TOTEN  =      -594.57129744 eV

  energy without entropy =     -594.57129744  energy(sigma->0) =     -594.57129744


--------------------------------------------------------------------------------------------------------




--------------------------------------- Iteration      1(  17)  ---------------------------------------


    POTLOK:  cpu time    0.4257: real time    0.4440
    SETDIJ:  cpu time    0.4339: real time    0.4339
     EDDAV:  cpu time   58.7704: real time   58.7722
       DOS:  cpu time    0.0006: real time    0.0006
    CHARGE:  cpu time    3.5132: real time    3.5133
    MIXING:  cpu time    0.0262: real time    0.0262
    --------------------------------------------
      LOOP:  cpu time   63.1699: real time   63.1901

 eigenvalue-minimisations  :  5768
 total energy-change (2. order) :-0.4868520E-02  (-0.3725008E-03)
 number of electron     640.0000008 magnetization 
 augmentation part      141.2901685 magnetization 

 Broyden mixing:
  rms(total) = 0.11123E-01    rms(broyden)= 0.11120E-01
  rms(prec ) = 0.12590E-01
  weight for this iteration     100.00

 eigenvalues of (default mixing * dielectric matrix)
  average eigenvalue GAMMA=   1.5930
  5.3038  2.8499  1.9976  1.9976  0.9729  0.9729  1.0042  1.0042  0.8453  0.8453
  0.6986  0.6236

 Free energy of the ion-electron system (eV)
  ---------------------------------------------------
  alpha Z        PSCENC =       871.83850952
  Ewald energy   TEWEN  =    286419.70217226
  -Hartree energ DENC   =   -341935.46484417
  -exchange      EXHF   =         0.00000000
  -V(xc)+E(xc)   XCENC  =      3054.74872054
  PAW double counting   =     66642.69344879   -66636.06739650
  entropy T*S    EENTRO =        -0.00000000
  eigenvalues    EBANDS =    -13219.46270208
  atomic energy  EATOM  =     64207.43592568
  Solvation  Ediel_sol  =         0.00000000
  ---------------------------------------------------
  free energy    TOTEN  =      -594.57616596 eV

  energy without entropy =     -594.57616596  energy(sigma->0) =     -594.57616596


--------------------------------------------------------------------------------------------------------




--------------------------------------- Iteration      1(  18)  ---------------------------------------


    POTLOK:  cpu time    0.4361: real time    0.4479
    SETDIJ:  cpu time    0.4248: real time    0.4248
     EDDAV:  cpu time   55.8088: real time   55.8139
       DOS:  cpu time    0.0007: real time    0.0006
    CHARGE:  cpu time    3.5296: real time    3.5296
    MIXING:  cpu time    0.0294: real time    0.0294
    --------------------------------------------
      LOOP:  cpu time   60.2293: real time   60.2463

 eigenvalue-minimisations  :  5424
 total energy-change (2. order) :-0.4035453E-02  (-0.1007349E-03)
 number of electron     640.0000008 magnetization 
 augmentation part      141.2762630 magnetization 

 Broyden mixing:
  rms(total) = 0.58891E-02    rms(broyden)= 0.58889E-02
  rms(prec ) = 0.69009E-02
  weight for this iteration     100.00

 eigenvalues of (default mixing * dielectric matrix)
  average eigenvalue GAMMA=   1.6100
  6.0179  2.7690  2.5244  1.7363  0.9415  0.9415  1.1212  0.9294  0.9294  0.8385
  0.8385  0.6905  0.6518

 Free energy of the ion-electron system (eV)
  ---------------------------------------------------
  alpha Z        PSCENC =       871.83850952
  Ewald energy   TEWEN  =    286419.70217226
  -Hartree energ DENC   =   -341951.65131392
  -exchange      EXHF   =         0.00000000
  -V(xc)+E(xc)   XCENC  =      3054.80460263
  PAW double counting   =     66624.16920238   -66617.52207576
  entropy T*S    EENTRO =        -0.00000000
  eigenvalues    EBANDS =    -13203.35722421
  atomic energy  EATOM  =     64207.43592568
  Solvation  Ediel_sol  =         0.00000000
  ---------------------------------------------------
  free energy    TOTEN  =      -594.58020141 eV

  energy without entropy =     -594.58020141  energy(sigma->0) =     -594.58020141


--------------------------------------------------------------------------------------------------------




--------------------------------------- Iteration      1(  19)  ---------------------------------------


    POTLOK:  cpu time    0.3646: real time    0.3774
    SETDIJ:  cpu time    0.4161: real time    0.4162
     EDDAV:  cpu time   59.6564: real time   59.6622
       DOS:  cpu time    0.0006: real time    0.0006
    CHARGE:  cpu time    3.5473: real time    3.5473
    MIXING:  cpu time    0.0243: real time    0.0243
    --------------------------------------------
      LOOP:  cpu time   64.0093: real time   64.0279

 eigenvalue-minimisations  :  5888
 total energy-change (2. order) :-0.1559607E-02  (-0.5965077E-04)
 number of electron     640.0000008 magnetization 
 augmentation part      141.2790515 magnetization 

 Broyden mixing:
  rms(total) = 0.21208E-02    rms(broyden)= 0.21183E-02
  rms(prec ) = 0.32629E-02
  weight for this iteration     100.00

 eigenvalues of (default mixing * dielectric matrix)
  average eigenvalue GAMMA=   1.6161
  6.4680  3.0249  2.3812  1.9329  0.9709  0.9709  1.0153  1.0153  0.9245  0.9245
  0.8237  0.8237  0.6399  0.7100

 Free energy of the ion-electron system (eV)
  ---------------------------------------------------
  alpha Z        PSCENC =       871.83850952
  Ewald energy   TEWEN  =    286419.70217226
  -Hartree energ DENC   =   -341957.59430229
  -exchange      EXHF   =         0.00000000
  -V(xc)+E(xc)   XCENC  =      3054.80534491
  PAW double counting   =     66630.78253125   -66624.16890705
  entropy T*S    EENTRO =        -0.00000000
  eigenvalues    EBANDS =    -13197.38303530
  atomic energy  EATOM  =     64207.43592568
  Solvation  Ediel_sol  =         0.00000000
  ---------------------------------------------------
  free energy    TOTEN  =      -594.58176102 eV

  energy without entropy =     -594.58176102  energy(sigma->0) =     -594.58176102


--------------------------------------------------------------------------------------------------------




--------------------------------------- Iteration      1(  20)  ---------------------------------------


    POTLOK:  cpu time    0.4169: real time    0.4272
    SETDIJ:  cpu time    0.4383: real time    0.4383
     EDDAV:  cpu time   56.5448: real time   56.5495
       DOS:  cpu time    0.0006: real time    0.0006
    CHARGE:  cpu time    3.5308: real time    3.5308
    MIXING:  cpu time    0.0308: real time    0.0308
    --------------------------------------------
      LOOP:  cpu time   60.9622: real time   60.9771

 eigenvalue-minimisations  :  5512
 total energy-change (2. order) :-0.2437175E-02  (-0.1527406E-04)
 number of electron     640.0000008 magnetization 
 augmentation part      141.2796135 magnetization 

 Broyden mixing:
  rms(total) = 0.22572E-02    rms(broyden)= 0.22566E-02
  rms(prec ) = 0.28949E-02
  weight for this iteration     100.00

 eigenvalues of (default mixing * dielectric matrix)
  average eigenvalue GAMMA=   1.6595
  6.9386  3.2833  2.3532  2.2234  1.4270  0.9403  0.9403  1.1583  0.9597  0.9597
  0.8387  0.8387  0.7571  0.6608  0.6138

 Free energy of the ion-electron system (eV)
  ---------------------------------------------------
  alpha Z        PSCENC =       871.83850952
  Ewald energy   TEWEN  =    286419.70217226
  -Hartree energ DENC   =   -341961.16120726
  -exchange      EXHF   =         0.00000000
  -V(xc)+E(xc)   XCENC  =      3054.80206481
  PAW double counting   =     66626.52512725   -66619.90174137
  entropy T*S    EENTRO =        -0.00000000
  eigenvalues    EBANDS =    -13193.82504908
  atomic energy  EATOM  =     64207.43592568
  Solvation  Ediel_sol  =         0.00000000
  ---------------------------------------------------
  free energy    TOTEN  =      -594.58419819 eV

  energy without entropy =     -594.58419819  energy(sigma->0) =     -594.58419819


--------------------------------------------------------------------------------------------------------




--------------------------------------- Iteration      1(  21)  ---------------------------------------


    POTLOK:  cpu time    0.3678: real time    0.3796
    SETDIJ:  cpu time    0.4141: real time    0.4163
     EDDAV:  cpu time   50.6954: real time   50.6979
       DOS:  cpu time    0.0006: real time    0.0006
    CHARGE:  cpu time    3.5442: real time    3.5502
    MIXING:  cpu time    0.0233: real time    0.0233
    --------------------------------------------
      LOOP:  cpu time   55.0454: real time   55.0679

 eigenvalue-minimisations  :  4808
 total energy-change (2. order) :-0.2521802E-02  (-0.9606282E-05)
 number of electron     640.0000008 magnetization 
 augmentation part      141.2794859 magnetization 

 Broyden mixing:
  rms(total) = 0.15970E-02    rms(broyden)= 0.15963E-02
[...]
    -6.564311700 11.369721380  0.000000000     0.000000000  0.087952903  0.000000000
     0.000000000  0.000000000 26.828094240     0.000000000  0.000000000  0.037274358

  length of vectors
    13.128623400 13.128623399 26.828094240     0.087952903  0.087952903  0.037274358


 FORCES acting on ions
    electron-ion (+dipol)            ewald-force                    non-local-force                 convergence-correction
 -----------------------------------------------------------------------------------------------
   -.455E+02 -.104E+02 0.120E+04   0.453E+02 0.102E+02 -.120E+04   0.185E+00 0.334E+00 -.601E+01   0.235E-04 -.343E-04 -.154E-05
   0.270E+02 0.645E+01 0.135E+04   -.283E+02 -.591E+01 -.135E+04   0.702E+00 0.242E+00 -.527E+01   -.687E-04 -.380E-04 -.546E-04
   0.100E+02 0.626E+02 0.133E+04   -.102E+02 -.631E+02 -.132E+04   0.125E+00 -.861E+00 -.516E+01   -.206E-04 -.444E-04 -.949E-04
   0.448E+01 -.104E+03 0.130E+04   -.294E+01 0.104E+03 -.130E+04   -.104E+01 0.122E+01 -.685E+01   -.363E-04 0.666E-04 -.472E-04
   0.697E+02 -.611E+01 0.122E+04   -.687E+02 0.540E+01 -.121E+04   -.687E+00 0.681E+00 -.510E+01   -.229E-04 0.320E-04 0.147E-04
   -.966E+02 0.133E+03 0.125E+04   0.955E+02 -.131E+03 -.125E+04   0.174E+01 -.187E+01 -.557E+01   0.482E-04 -.123E-03 -.567E-04
   0.311E+02 -.202E+02 0.125E+04   -.318E+02 0.199E+02 -.124E+04   0.611E+00 0.389E+00 -.658E+01   -.302E-04 0.117E-04 -.184E-03
   0.448E+02 -.606E+01 0.117E+04   -.453E+02 0.643E+01 -.116E+04   0.623E-01 -.548E+00 -.622E+01   -.125E-04 0.595E-04 -.101E-03
   0.465E+02 0.325E+01 0.126E+04   -.480E+02 -.260E+01 -.125E+04   0.248E+00 -.103E+01 -.457E+01   -.110E-04 0.293E-04 -.283E-04
   0.396E+01 0.275E+02 0.122E+04   -.364E+01 -.288E+02 -.121E+04   0.742E-01 0.517E+00 -.477E+01   0.498E-05 -.432E-04 -.310E-04
   -.294E+02 0.291E+02 0.102E+04   0.300E+02 -.305E+02 -.101E+04   0.944E-01 0.451E-01 -.529E+01   0.123E-03 0.235E-04 -.887E-04
   -.104E+02 -.404E+02 0.129E+04   0.986E+01 0.400E+02 -.128E+04   0.398E+00 0.598E+00 -.532E+01   0.237E-04 0.665E-04 -.950E-04
   -.863E+02 -.139E+02 0.142E+04   0.866E+02 0.141E+02 -.142E+04   0.114E+01 0.851E-01 -.574E+01   0.174E-05 -.596E-05 -.302E-04
   -.244E+02 -.151E+01 0.122E+04   0.249E+02 0.266E+01 -.122E+04   0.188E+00 -.599E+00 -.646E+01   0.195E-04 -.148E-04 -.216E-04
   -.306E+02 0.100E+02 0.124E+04   0.322E+02 -.983E+01 -.124E+04   -.529E+00 -.900E-01 -.353E+01   -.247E-04 0.578E-05 -.526E-04
   -.394E+02 -.255E+02 0.136E+04   0.379E+02 0.260E+02 -.135E+04   0.891E+00 -.641E+00 -.614E+01   0.361E-04 0.352E-04 -.138E-04
   -.340E+02 0.378E+02 -.131E+04   0.330E+02 -.371E+02 0.130E+04   0.678E+00 -.967E+00 0.532E+01   -.236E-04 0.447E-04 -.438E-04
   -.123E+02 0.546E+02 -.115E+04   0.129E+02 -.536E+02 0.114E+04   -.590E+00 -.400E+00 0.566E+01   0.503E-04 -.974E-04 0.137E-04
   0.945E+02 -.662E+02 -.125E+04   -.952E+02 0.675E+02 0.125E+04   -.859E+00 0.408E+00 0.553E+01   -.894E-04 -.139E-04 0.848E-04
   0.103E+02 -.210E+01 -.116E+04   -.102E+02 0.174E+01 0.115E+04   -.580E+00 0.104E-01 0.515E+01   -.461E-04 0.443E-04 0.710E-04
   0.539E+02 -.331E+02 -.130E+04   -.538E+02 0.327E+02 0.129E+04   -.339E+00 0.147E+00 0.630E+01   -.136E-04 0.634E-04 -.350E-05
   -.168E+02 0.343E+02 -.128E+04   0.171E+02 -.347E+02 0.128E+04   0.648E-01 0.249E-01 0.420E+01   -.995E-05 -.637E-04 -.287E-04
   0.391E+02 0.150E+02 -.134E+04   -.392E+02 -.167E+02 0.134E+04   -.100E+01 0.252E+00 0.522E+01   0.329E-04 -.353E-04 0.114E-03
   0.357E+02 0.230E+01 -.141E+04   -.354E+02 -.206E+01 0.140E+04   -.397E+00 -.822E-01 0.671E+01   0.973E-05 0.479E-04 0.115E-03
   -.550E+02 0.305E+02 -.110E+04   0.544E+02 -.316E+02 0.110E+04   0.145E+01 -.136E+00 0.563E+01   0.476E-05 0.358E-04 0.137E-04
   0.149E+01 -.583E+02 -.129E+04   -.366E+01 0.599E+02 0.128E+04   0.136E+01 -.184E+00 0.667E+01   -.111E-04 -.243E-04 -.128E-05
   -.904E+02 0.314E+01 -.133E+04   0.890E+02 -.419E+01 0.133E+04   0.139E+01 0.459E+00 0.603E+01   0.810E-05 0.158E-05 0.963E-05
   -.186E+02 0.156E+02 -.137E+04   0.193E+02 -.146E+02 0.136E+04   -.829E+00 -.107E+01 0.548E+01   0.705E-04 0.383E-04 0.500E-04
   0.663E+01 0.323E+02 -.116E+04   -.531E+01 -.331E+02 0.116E+04   -.120E+01 -.144E+00 0.636E+01   0.265E-04 -.235E-04 -.291E-04
   0.493E+01 -.143E+02 -.136E+04   -.530E+01 0.161E+02 0.135E+04   0.391E+00 -.633E+00 0.541E+01   -.284E-04 -.557E-06 -.235E-05
   -.109E+02 0.614E+02 -.106E+04   0.118E+02 -.615E+02 0.106E+04   -.122E+00 -.820E+00 0.381E+01   0.279E-04 -.580E-04 0.178E-04
   0.415E+02 0.160E+02 -.127E+04   -.402E+02 -.155E+02 0.127E+04   -.742E+00 -.120E+01 0.564E+01   -.454E-04 0.743E-04 -.161E-04
   0.220E+02 -.339E+00 -.158E+04   -.228E+02 0.196E+01 0.160E+04   0.404E+00 -.126E+01 -.159E+02   0.220E-04 -.344E-05 -.214E-04
   0.275E+02 0.384E+02 -.158E+04   -.254E+02 -.400E+02 0.160E+04   -.278E+01 0.901E+00 -.173E+02   -.205E-04 0.923E-05 -.924E-05
   -.422E+02 0.291E+01 -.157E+04   0.438E+02 -.326E+01 0.159E+04   -.123E+01 0.433E+00 -.172E+02   -.328E-05 -.330E-05 -.503E-05
   -.146E+02 -.256E+02 -.155E+04   0.165E+02 0.247E+02 0.156E+04   -.147E+01 0.147E+01 -.154E+02   0.107E-04 0.973E-05 -.103E-04
   -.250E+02 0.381E+02 -.160E+04   0.268E+02 -.385E+02 0.161E+04   -.169E+01 -.417E+00 -.159E+02   -.809E-05 0.881E-05 -.200E-04
   0.119E+02 0.141E+02 -.161E+04   -.148E+02 -.124E+02 0.162E+04   0.326E+01 -.166E+01 -.168E+02   0.169E-04 -.481E-05 -.621E-05
   0.196E+02 -.259E+02 -.167E+04   -.203E+02 0.249E+02 0.168E+04   0.922E+00 0.146E+01 -.180E+02   0.239E-05 0.529E-05 -.104E-04
   0.567E+01 -.657E+01 -.158E+04   -.644E+01 0.619E+01 0.160E+04   0.122E+01 0.169E+00 -.153E+02   -.657E-06 -.548E-05 -.160E-05
   0.304E+02 -.123E+02 -.161E+04   -.314E+02 0.114E+02 0.163E+04   0.343E+00 0.140E+01 -.180E+02   -.601E-05 0.990E-05 0.728E-05
   -.615E+02 0.921E+01 -.156E+04   0.643E+02 -.911E+01 0.157E+04   -.222E+01 0.169E+00 -.146E+02   -.215E-07 -.888E-05 -.133E-05
   -.345E+02 -.481E+02 -.165E+04   0.360E+02 0.491E+02 0.167E+04   -.144E+01 -.100E+00 -.170E+02   -.447E-05 -.393E-05 -.427E-05
   -.406E+00 -.345E+02 -.154E+04   -.147E+01 0.388E+02 0.156E+04   0.243E+01 -.392E+01 -.133E+02   -.103E-04 -.190E-06 0.591E-05
   -.155E+02 0.302E+02 -.156E+04   0.141E+02 -.341E+02 0.158E+04   0.185E+01 0.389E+01 -.170E+02   -.140E-04 0.864E-05 -.130E-04
   0.374E+02 -.653E+01 -.159E+04   -.410E+02 0.112E+02 0.160E+04   0.356E+01 -.521E+01 -.163E+02   0.775E-05 -.181E-05 -.649E-05
   0.494E+02 -.795E+01 -.159E+04   -.495E+02 0.926E+01 0.161E+04   -.125E+01 -.889E+00 -.183E+02   -.394E-05 -.685E-05 0.302E-05
   -.388E+02 -.418E+02 -.164E+04   0.432E+02 0.468E+02 0.165E+04   -.415E+01 -.495E+01 -.178E+02   -.428E-05 -.393E-05 -.591E-05
   -.944E+01 0.818E+01 0.161E+04   0.105E+02 -.997E+01 -.163E+04   -.118E+01 0.186E+01 0.179E+02   -.168E-05 -.497E-05 0.183E-04
   -.389E+02 0.755E+02 0.161E+04   0.397E+02 -.798E+02 -.162E+04   -.399E+00 0.369E+01 0.171E+02   0.114E-04 -.190E-05 -.361E-05
   0.117E+02 -.490E+01 0.159E+04   -.116E+02 0.492E+01 -.161E+04   -.136E+00 0.136E+00 0.155E+02   0.640E-05 0.164E-04 -.972E-06
   -.886E+01 -.721E+02 0.161E+04   0.110E+02 0.781E+02 -.163E+04   -.236E+01 -.544E+01 0.170E+02   -.312E-05 -.186E-06 -.342E-06
   0.351E+02 0.205E+02 0.156E+04   -.358E+02 -.212E+02 -.158E+04   0.587E+00 0.699E+00 0.172E+02   -.287E-05 -.219E-05 0.179E-04
   0.788E+02 0.694E+01 0.158E+04   -.810E+02 -.848E+01 -.159E+04   0.124E+01 0.157E+01 0.179E+02   0.602E-05 -.702E-06 0.183E-04
   -.626E+01 0.471E+01 0.157E+04   0.820E+01 -.790E+00 -.158E+04   -.246E+01 -.395E+01 0.168E+02   -.172E-04 -.367E-05 -.456E-05
   0.482E+02 0.190E+02 0.163E+04   -.517E+02 -.205E+02 -.165E+04   0.303E+01 0.118E+01 0.182E+02   -.315E-05 -.792E-05 0.103E-04
   0.155E+02 0.241E+02 0.163E+04   -.197E+02 -.269E+02 -.164E+04   0.411E+01 0.245E+01 0.172E+02   0.407E-05 -.357E-05 0.917E-05
   -.536E+01 -.341E+02 0.162E+04   0.384E+01 0.363E+02 -.164E+04   0.177E+01 -.212E+01 0.177E+02   -.765E-05 0.332E-05 0.866E-05
   0.459E+02 0.287E+02 0.159E+04   -.524E+02 -.271E+02 -.161E+04   0.640E+01 -.232E+01 0.179E+02   0.143E-04 0.937E-06 0.852E-05
   -.137E+02 -.120E+02 0.159E+04   0.147E+02 0.972E+01 -.161E+04   -.967E+00 0.262E+01 0.170E+02   0.105E-04 0.709E-05 0.181E-05
   -.200E+02 -.275E+02 0.157E+04   0.205E+02 0.301E+02 -.158E+04   -.565E+00 -.265E+01 0.150E+02   -.641E-06 -.997E-05 -.149E-06
   0.285E+02 -.139E+02 0.157E+04   -.319E+02 0.157E+02 -.158E+04   0.283E+01 -.212E+01 0.141E+02   0.705E-06 -.302E-05 0.894E-05
   -.489E+02 0.302E+02 0.156E+04   0.515E+02 -.305E+02 -.157E+04   -.201E+01 -.119E+00 0.141E+02   -.211E-05 -.128E-05 -.584E-05
   -.275E+02 -.611E+02 0.163E+04   0.293E+02 0.621E+02 -.165E+04   -.199E+01 0.186E-01 0.181E+02   -.791E-05 0.360E-05 0.707E-05
   -.186E+02 -.183E+02 -.385E+02   0.184E+02 0.182E+02 0.391E+02   0.994E+00 0.152E+01 -.279E+01   0.307E-05 0.327E-05 -.879E-05
   0.296E+02 0.139E+02 0.374E+02   -.295E+02 -.137E+02 -.376E+02   -.581E+00 -.188E+01 0.514E+00   -.485E-05 -.569E-05 -.113E-04
   0.128E+01 0.237E+01 0.346E+02   -.133E+01 -.220E+01 -.350E+02   -.264E+00 -.268E+00 0.116E+01   -.725E-05 -.823E-05 -.277E-05
   0.169E+02 0.618E+01 0.407E+02   -.169E+02 -.624E+01 -.408E+02   -.284E+00 -.181E+00 0.544E+00   -.217E-05 0.794E-05 -.726E-05
   0.209E+02 -.242E+02 0.359E+02   -.210E+02 0.240E+02 -.363E+02   -.833E-01 0.795E+00 0.100E+01   -.834E-05 0.817E-05 -.789E-05
   -.307E+02 0.576E+01 -.195E+02   0.307E+02 -.585E+01 0.199E+02   0.660E+00 -.166E+00 -.263E+01   0.840E-05 -.937E-05 -.435E-05
   -.111E+02 0.116E+02 -.193E+01   0.111E+02 -.115E+02 0.201E+01   0.153E+01 -.814E+00 -.106E+01   -.613E-05 -.303E-05 -.670E-05
   0.162E+02 0.173E+02 -.250E+02   -.161E+02 -.174E+02 0.253E+02   -.532E+00 -.221E+00 -.935E+00   -.167E-05 0.496E-05 -.864E-05
   0.713E+01 -.715E+01 -.305E+02   -.693E+01 0.680E+01 0.307E+02   -.919E+00 0.104E+01 -.126E+01   -.189E-05 0.104E-04 -.736E-05
   0.323E+02 -.236E+02 -.287E+02   -.323E+02 0.235E+02 0.289E+02   -.190E+00 0.531E+00 -.874E+00   -.837E-05 0.133E-05 -.654E-05
   -.754E+01 0.422E+02 -.302E+02   0.752E+01 -.421E+02 0.303E+02   0.485E-01 -.141E+01 -.958E+00   0.983E-05 -.982E-05 -.398E-05
   0.133E+02 -.365E+02 -.273E+02   -.137E+02 0.363E+02 0.272E+02   0.502E+00 0.144E+01 0.140E+01   0.246E-05 0.276E-05 -.102E-04
   -.135E+02 -.487E+01 0.434E+02   0.136E+02 0.491E+01 -.436E+02   -.446E+00 0.195E+00 0.101E+01   0.709E-05 0.534E-05 -.119E-04
   -.238E+02 -.335E+02 0.366E+02   0.238E+02 0.335E+02 -.369E+02   -.226E+00 0.600E+00 0.144E+01   0.387E-05 0.334E-05 -.476E-05
   0.799E+01 0.332E+01 -.116E+02   -.803E+01 -.348E+01 0.118E+02   -.563E+00 0.777E+00 0.141E+00   0.103E-05 -.494E-05 -.698E-05
   -.312E+02 -.267E+02 -.289E+02   0.312E+02 0.266E+02 0.289E+02   0.154E+01 0.115E+01 0.147E+01   0.342E-05 0.593E-05 -.132E-04
 -----------------------------------------------------------------------------------------------
   -.969E+01 0.158E+02 -.322E+01   0.959E-13 -.256E-12 -.770E-11   0.969E+01 -.158E+02 0.323E+01   0.664E-05 0.730E-04 -.649E-03
 
 
 POSITION                                       TOTAL-FORCE (eV/Angst)
 -----------------------------------------------------------------------------------
      0.07165      1.84410     12.23251        -0.010457      0.136450     -0.725275
     -1.62427      4.72184     12.02268        -0.525360      0.782945      0.933731
     -3.26450      7.66153     12.05854        -0.049997     -1.353348      0.303550
     -4.96474     10.28556     12.14130         0.499438      0.986167     -0.653991
      3.29577      1.87436     12.16562         0.369456     -0.022933     -0.096656
      1.55685      4.87949     12.16541         0.636527     -0.227983      0.692122
     -0.02261      7.60539     12.20114        -0.096283      0.046082     -0.343851
     -1.54113     10.45267     12.28403        -0.429783     -0.182893     -1.625651
      6.59619      1.96990     12.12570        -1.253756     -0.377201     -0.809948
      4.84156      4.84455     12.13751         0.395575     -0.819305      0.451647
      3.16539      7.71353     12.40428         0.711077     -1.354065     -2.534695
      1.64835     10.37965     12.09476        -0.172149      0.184099      0.435409
      9.74592      1.86120     11.95290         1.364210      0.352835      0.714496
      8.16085      4.72966     12.20028         0.648673      0.556135     -1.231881
      6.38356      7.52015     12.07417         1.102277      0.117568      0.513743
      4.96454     10.41827     12.03230        -0.649088     -0.146628      0.946542
      1.69311      0.93055     14.76573        -0.323481     -0.266311     -0.026859
      0.01485      3.78022     14.57599         0.066144      0.567669      1.537792
     -1.53856      6.49834     14.68835        -1.545356      1.648516      0.124702
     -3.28382      9.44751     14.57426        -0.440337     -0.357198      1.208779
      4.97863      0.96656     14.69891        -0.297133     -0.171527      0.180483
      3.19847      3.88429     14.79262         0.351822     -0.344167     -0.143111
      1.69693      6.77647     14.77070        -1.090937     -1.526149      0.681176
     -0.06575      9.41966     14.79376        -0.073370      0.159426     -0.276623
      8.20209      0.97818     14.52249         0.765267     -1.153293      0.453010
      6.62542      3.66282     14.66996        -0.815058      1.382710      0.192450
      4.95689      6.63535     14.73652        -0.007150     -0.596407      0.204665
      3.31213      9.58215     14.79347        -0.120237     -0.083236     -1.123498
     11.46694      1.08240     14.57096         0.112570     -0.936295      0.371241
      9.87967      3.78230     14.82484         0.017043      1.078422     -1.842482
      8.22766      6.69939     14.53761         0.746545     -0.862509      0.741537
      6.48234      9.47619     14.69083         0.518364     -0.695338      0.345802
      0.03057      1.75653     15.82361        -0.410449      0.360635      0.063030
     -1.48266      4.76355     15.78168        -0.725141     -0.659923      0.649992
     -3.41648      7.57965     15.82447         0.418215      0.085200     -0.538756
     -5.00445     10.24617     15.75333         0.443126      0.571117      0.333737
      3.23330      2.05049     15.92191         0.111362     -0.796085     -0.165818
      1.52043      4.75854     15.91213         0.357356     -0.014127     -0.404908
     -0.05667      7.46986     16.03541         0.202745      0.400555     -0.738604
     -1.84797     10.48807     15.79250         0.446886     -0.206380      0.406721
      6.78649      1.75509     15.80743        -0.653316      0.551714      0.290223
      4.87994      4.63726     15.81548         0.595462      0.272983      0.238130
      3.32212      7.29536     15.95733         0.132660      0.937347      0.291651
      1.58729     10.34112     15.70564         0.553242      0.355781      0.961235
      9.76346      1.89613     15.75960         0.427625     -0.052864      0.204905
      8.33584      4.81315     15.90021        -0.080687     -0.575559     -0.526593
      6.87074      7.46906     15.85274        -1.360406      0.426620     -0.131206
      4.79237     10.37072     15.97513         0.306797      0.050298     -0.401961
      1.61955      1.00983     10.82461        -0.132749      0.072035      1.223485
      0.04032      4.03061     10.95275         0.411328     -0.603873     -0.135865
     -1.59133      6.67377     10.98687        -0.028391      0.149735     -0.173774
     -3.19375      9.36301     10.92974        -0.194430      0.597090      0.069781
      4.98503      0.94170     11.01413        -0.034478     -0.069835      0.402977
      3.62132      3.67768     10.94837        -0.948611      0.031515      0.241332
      1.75150      6.65743     11.12478        -0.524509     -0.030398     -0.487028
      0.12107      9.57655     10.91134        -0.454006     -0.304330      0.475626
      8.16988      0.99313     10.92238        -0.065859     -0.375912     -0.170125
      6.49330      3.73557     10.85968         0.251462      0.127599      0.842954
      4.77806      6.75539     11.00947        -0.067782     -0.661247      0.094211
      3.26625      9.37803     11.03793         0.010551      0.337877     -0.229106
     11.60850      0.93904     10.99438        -0.063136     -0.024809     -0.180402
      9.94939      3.80664     11.01547        -0.574552     -0.378742     -0.681284
      8.00557      6.67562     11.02456         0.556733     -0.420655     -0.300267
      6.51612      9.22793     10.88860        -0.095982      0.988592      0.189216
      6.46232     11.23379     13.56661         0.766987      1.382074     -2.185419
     -1.57124      2.96808     13.36080        -0.480505     -1.736711      0.308425
     -3.24222      5.66490     13.30641        -0.309938     -0.104309      0.832556
      8.19047      8.53252     13.28314        -0.260299     -0.248467      0.442043
     -3.29100     11.31195     13.33281        -0.209396      0.648639      0.586473
      1.62087      2.81479     13.58802         0.645374     -0.253258     -2.147281
     -0.05638      5.75516     13.44060         1.485075     -0.717843     -0.978129
     -1.59279      8.53927     13.48470        -0.410402     -0.235167     -0.676462
      0.07572     11.26441     13.51887        -0.722584      0.697086     -0.985187
      4.97298      2.77603     13.52042        -0.229901      0.385417     -0.683580
      3.25746      5.78909     13.55198         0.024572     -1.292257     -0.817331
      1.54486      8.47727     13.43226         0.086485      1.253193      1.325221
      3.34479     11.34414     13.25735        -0.417467      0.234714      0.780053
      8.25293      2.75889     13.26370        -0.193063      0.653849      1.170425
      6.57288      5.57251     13.38710        -0.598328      0.621160      0.271669
      4.80128      8.45336     13.43444         1.607270      1.047691      1.444658
 -----------------------------------------------------------------------------------
    total drift:                               -0.000399      0.004489      0.008941


--------------------------------------------------------------------------------------------------------



  FREE ENERGIE OF THE ION-ELECTRON SYSTEM (eV)
  ---------------------------------------------------
  free  energy   TOTEN  =      -594.58963295 eV

  energy  without entropy=     -594.58963295  energy(sigma->0) =     -594.58963295
 


--------------------------------------------------------------------------------------------------------


    POTLOK:  cpu time    0.7833: real time    0.7833


--------------------------------------------------------------------------------------------------------


     LOOP+:  cpu time 1808.8951: real time 1809.3497
    4ORBIT:  cpu time    0.0000: real time    0.0000

 total amount of memory used by VASP MPI-rank0   234704. kBytes
=======================================================================

   base      :      30000. kBytes
   nonlr-proj:      19436. kBytes
   fftplans  :      66973. kBytes
   grid      :      38377. kBytes
   one-center:        108. kBytes
   wavefun   :      79810. kBytes
 
  
  
 General timing and accounting informations for this job:
 ========================================================
  
                  Total CPU time used (sec):     1840.329
                            User time (sec):     1834.412
                          System time (sec):        5.917
                         Elapsed time (sec):     1841.010
  
                   Maximum memory used (kb):      436360.
                   Average memory used (kb):           0.
  
                          Minor page faults:       149352
                          Major page faults:            0
                 Voluntary context switches:         2341
