 running on   52 total cores
 distrk:  each k-point on   52 cores,    1 groups
 distr:  one band on   13 cores,    4 groups
 using from now: INCAR     
 vasp.5.4.4.18Apr17-6-g9f103f2a35 (build Oct 31 2019 15:01:46) complex          
  
 POSCAR found type information on POSCAR  Sc Cl C 
 POSCAR found :  3 types and      80 ions
 scaLAPACK is switched off
 LDA part: xc-table for Pade appr. of Perdew
 generate k-points for:    3    3    1
 POSCAR, INCAR and KPOINTS ok, starting setup
 FFT: planning ...
 WAVECAR not read
 entering main loop
       N       E                     dE             d eps       ncg     rms          rms(c)
DAV:   1     0.122160652597E+05    0.12216E+05   -0.26809E+05  4440   0.152E+03
DAV:   2     0.173438939665E+04   -0.10482E+05   -0.10216E+05  5200   0.523E+02
DAV:   3    -0.408227441123E+03   -0.21426E+04   -0.20560E+04  6800   0.284E+02
DAV:   4    -0.644612227709E+03   -0.23638E+03   -0.23180E+03  6080   0.992E+01
DAV:   5    -0.655037305219E+03   -0.10425E+02   -0.10372E+02  6080   0.280E+01    0.697E+01
DAV:   6    -0.524595874676E+03    0.13044E+03   -0.69783E+02  5832   0.496E+01    0.300E+01
DAV:   7    -0.529290263758E+03   -0.46944E+01   -0.84696E+01  5904   0.225E+01    0.151E+01
DAV:   8    -0.527108788316E+03    0.21815E+01   -0.93544E+00  5992   0.695E+00    0.918E+00
DAV:   9    -0.526604163676E+03    0.50462E+00   -0.35418E+00  5408   0.374E+00    0.302E+00
DAV:  10    -0.526481508591E+03    0.12266E+00   -0.58919E-01  5728   0.197E+00    0.169E+00
DAV:  11    -0.526462535583E+03    0.18973E-01   -0.18563E-01  5720   0.814E-01    0.744E-01
DAV:  12    -0.526448886725E+03    0.13649E-01   -0.30641E-02  6128   0.480E-01    0.287E-01
DAV:  13    -0.526445963788E+03    0.29229E-02   -0.94448E-03  5448   0.250E-01    0.177E-01
DAV:  14    -0.526444361419E+03    0.16024E-02   -0.59746E-03  5384   0.157E-01    0.171E-01
DAV:  15    -0.526445921792E+03   -0.15604E-02   -0.24152E-03  5424   0.976E-02    0.111E-01
DAV:  16    -0.526447972986E+03   -0.20512E-02   -0.10588E-03  6072   0.594E-02    0.617E-02
DAV:  17    -0.526451497035E+03   -0.35240E-02   -0.82558E-04  5320   0.524E-02    0.349E-02
DAV:  18    -0.526453766596E+03   -0.22696E-02   -0.28244E-04  4792   0.314E-02    0.245E-02
DAV:  19    -0.526454811584E+03   -0.10450E-02   -0.10072E-04  4752   0.167E-02    0.157E-02
DAV:  20    -0.526455964491E+03   -0.11529E-02   -0.32544E-05  4312   0.114E-02    0.112E-02
DAV:  21    -0.526456548041E+03   -0.58355E-03   -0.15324E-05  3864   0.753E-03    0.716E-03
DAV:  22    -0.526456980999E+03   -0.43296E-03   -0.56284E-06  3816   0.499E-03    0.440E-03
DAV:  23    -0.526457379100E+03   -0.39810E-03   -0.84420E-06  3496   0.419E-03    0.274E-03
DAV:  24    -0.526457574830E+03   -0.19573E-03   -0.49310E-06  3568   0.314E-03    0.295E-03
DAV:  25    -0.526457640988E+03   -0.66158E-04   -0.91275E-07  2896   0.215E-03    0.197E-03
DAV:  26    -0.526457733040E+03   -0.92051E-04   -0.32285E-06  3336   0.229E-03    0.149E-03
DAV:  27    -0.526457744667E+03   -0.11628E-04   -0.24372E-07  2704   0.161E-03    0.112E-03
DAV:  28    -0.526457748020E+03   -0.33532E-05   -0.11457E-07  2496   0.105E-03    0.796E-04
DAV:  29    -0.526457763396E+03   -0.15375E-04   -0.37363E-07  2680   0.109E-03    0.557E-04
DAV:  30    -0.526457773567E+03   -0.10171E-04   -0.24278E-07  2696   0.134E-03    0.613E-04
DAV:  31    -0.526457775257E+03   -0.16897E-05   -0.16200E-07  2408   0.104E-03    0.420E-04
DAV:  32    -0.526457776153E+03   -0.89627E-06   -0.99846E-08  2456   0.821E-04
   1 F= -.52645778E+03 E0= -.52645778E+03  d E =-.645801E-20
