 vasp.5.4.4.18Apr17-6-g9f103f2a35 (build Oct 31 2019 15:01:46) complex          
  
 executed on             LinuxIFC date 2024.04.29  07:14:57
 running on   52 total cores
 distrk:  each k-point on   52 cores,    1 groups
 distr:  one band on NCORES_PER_BAND=  13 cores,    4 groups


--------------------------------------------------------------------------------------------------------


 INCAR:
 POTCAR:    PAW_PBE Ca_sv 06Sep2000               
 POTCAR:    PAW_PBE Si 05Jan2001                  
 POTCAR:    PAW_PBE O 08Apr2002                   
 POTCAR:    PAW_PBE Ca_sv 06Sep2000               
   SHA256 =  a47365830e737f14e0e6c5cf1ed81b94e081eecf0a33df105380881bc9da05d5 Ca
   COPYR  = (c) Copyright 06Sep2000 Georg Kresse                                
   COPYR  = This file is part of the software VASP. Any use, copying, and all ot
   COPYR  = If you do not have a valid VASP license, you may not use, copy or di
   VRHFIN =Ca: 3s3p4s                                                           
   LEXCH  = PE                                                                  
   EATOM  =  1006.0909 eV,   73.9456 Ry                                         
                                                                                
   TITEL  = PAW_PBE Ca_sv 06Sep2000                                             
   LULTRA =        F    use ultrasoft PP ?                                      
   IUNSCR =        1    unscreen: 0-lin 1-nonlin 2-no                           
   RPACOR =    2.000    partial core radius                                     
   POMASS =   40.078; ZVAL   =   10.000    mass and valenz                      
   RCORE  =    2.300    outmost cutoff radius                                   
   RWIGS  =    2.500; RWIGS  =    1.323    wigner-seitz radius (au A)           
   ENMAX  =  266.622; ENMIN  =  199.967 eV                                      
   RCLOC  =    1.808    cutoff for local pot                                    
   LCOR   =        T    correct aug charges                                     
   LPAW   =        T    paw PP                                                  
   EAUG   =  420.852                                                            
   RMAX   =    2.359    core radius for proj-oper                               
   RAUG   =    1.300    factor for augmentation sphere                          
   RDEP   =    2.392    radius for radial grids                                 
   RDEPT  =    1.987    core radius for aug-charge                              
                                                                                
   Atomic configuration                                                         
    7 entries                                                                   
     n  l   j            E        occ.                                          
     1  0  0.50     -3949.1705   2.0000                                         
     2  0  0.50      -414.3434   2.0000                                         
     2  1  1.50      -334.7047   6.0000                                         
     3  0  0.50       -47.0896   2.0000                                         
     4  0  0.50        -3.7663   2.0000                                         
     3  1  1.50       -28.0061   6.0000                                         
     3  2  1.50        -4.0817   0.0000                                         
   Description                                                                  
     l       E           TYP  RCUT    TYP  RCUT                                 
     0    -47.0896403     23  2.300                                             
     0     -3.7663320     23  2.300                                             
     1    -28.0060855     23  2.300                                             
     1      6.8029130     23  2.300                                             
     2     -4.0817478     23  2.300                                             
     2      0.4464412     23  2.300                                             
  local pseudopotential read in
  partial core-charges read in
  partial kinetic energy density read in
  atomic valenz-charges read in
  non local Contribution for L=           0  read in
    real space projection operators read in
  non local Contribution for L=           0  read in
    real space projection operators read in
  non local Contribution for L=           1  read in
    real space projection operators read in
  non local Contribution for L=           1  read in
    real space projection operators read in
  non local Contribution for L=           2  read in
    real space projection operators read in
  non local Contribution for L=           2  read in
    real space projection operators read in
    PAW grid and wavefunctions read in
 
   number of l-projection  operators is LMAX  =           6
   number of lm-projection operators is LMMAX =          18
 
 POTCAR:    PAW_PBE Si 05Jan2001                  
   SHA256 =  79d9987ad8750f624c4d6acb2a16d13abf6a777132adc04dc6c8399be72b42bb Si
   COPYR  = (c) Copyright 05Jan2001 Georg Kresse                                
   COPYR  = This file is part of the software VASP. Any use, copying, and all ot
   COPYR  = If you do not have a valid VASP license, you may not use, copy or di
   VRHFIN =Si: s2p2                                                             
   LEXCH  = PE                                                                  
   EATOM  =   103.0669 eV,    7.5752 Ry                                         
                                                                                
   TITEL  = PAW_PBE Si 05Jan2001                                                
   LULTRA =        F    use ultrasoft PP ?                                      
   IUNSCR =        1    unscreen: 0-lin 1-nonlin 2-no                           
   RPACOR =    1.500    partial core radius                                     
   POMASS =   28.085; ZVAL   =    4.000    mass and valenz                      
   RCORE  =    1.900    outmost cutoff radius                                   
   RWIGS  =    2.480; RWIGS  =    1.312    wigner-seitz radius (au A)           
   ENMAX  =  245.345; ENMIN  =  184.009 eV                                      
   ICORE  =        2    local potential                                         
   LCOR   =        T    correct aug charges                                     
   LPAW   =        T    paw PP                                                  
   EAUG   =  322.069                                                            
   DEXC   =    0.000                                                            
   RMAX   =    1.950    core radius for proj-oper                               
   RAUG   =    1.300    factor for augmentation sphere                          
   RDEP   =    1.993    radius for radial grids                                 
   RDEPT  =    1.837    core radius for aug-charge                              
                                                                                
   Atomic configuration                                                         
    6 entries                                                                   
     n  l   j            E        occ.                                          
     1  0  0.50     -1785.8828   2.0000                                         
     2  0  0.50      -139.4969   2.0000                                         
     2  1  1.50       -95.5546   6.0000                                         
     3  0  0.50       -10.8127   2.0000                                         
     3  1  0.50        -4.0811   2.0000                                         
     3  2  1.50        -4.0817   0.0000                                         
   Description                                                                  
     l       E           TYP  RCUT    TYP  RCUT                                 
     0    -10.8127223     23  1.900                                             
     0     -7.6451159     23  1.900                                             
     1     -4.0811372     23  1.900                                             
     1      2.4879257     23  1.900                                             
     2     -4.0817478      7  1.900                                             
  local pseudopotential read in
  partial core-charges read in
  partial kinetic energy density read in
  atomic valenz-charges read in
  non local Contribution for L=           0  read in
    real space projection operators read in
  non local Contribution for L=           0  read in
    real space projection operators read in
  non local Contribution for L=           1  read in
    real space projection operators read in
  non local Contribution for L=           1  read in
    real space projection operators read in
    PAW grid and wavefunctions read in
 
   number of l-projection  operators is LMAX  =           4
   number of lm-projection operators is LMMAX =           8
 
 POTCAR:    PAW_PBE O 08Apr2002                   
   SHA256 =  818f92134a0a090dccd8ba1447fa70422a3b330e708bb4f08108d8ae51209ddf O/
   COPYR  = (c) Copyright 08Apr2002 Georg Kresse                                
   COPYR  = This file is part of the software VASP. Any use, copying, and all ot
   COPYR  = If you do not have a valid VASP license, you may not use, copy or di
   VRHFIN =O: s2p4                                                              
   LEXCH  = PE                                                                  
   EATOM  =   432.3788 eV,   31.7789 Ry                                         
                                                                                
   TITEL  = PAW_PBE O 08Apr2002                                                 
   LULTRA =        F    use ultrasoft PP ?                                      
   IUNSCR =        1    unscreen: 0-lin 1-nonlin 2-no                           
   RPACOR =    1.200    partial core radius                                     
   POMASS =   16.000; ZVAL   =    6.000    mass and valenz                      
   RCORE  =    1.520    outmost cutoff radius                                   
   RWIGS  =    1.550; RWIGS  =    0.820    wigner-seitz radius (au A)           
   ENMAX  =  400.000; ENMIN  =  300.000 eV                                      
   ICORE  =        2    local potential                                         
   LCOR   =        T    correct aug charges                                     
   LPAW   =        T    paw PP                                                  
   EAUG   =  605.392                                                            
   DEXC   =    0.000                                                            
   RMAX   =    1.553    core radius for proj-oper                               
   RAUG   =    1.300    factor for augmentation sphere                          
   RDEP   =    1.550    radius for radial grids                                 
   RDEPT  =    1.329    core radius for aug-charge                              
                                                                                
   Atomic configuration                                                         
    4 entries                                                                   
     n  l   j            E        occ.                                          
     1  0  0.50      -514.6923   2.0000                                         
     2  0  0.50       -23.9615   2.0000                                         
     2  1  0.50        -9.0305   4.0000                                         
     3  2  1.50        -9.5241   0.0000                                         
   Description                                                                  
     l       E           TYP  RCUT    TYP  RCUT                                 
     0    -23.9615318     23  1.200                                             
     0     -9.5240782     23  1.200                                             
     1     -9.0304911     23  1.520                                             
     1      8.1634956     23  1.520                                             
     2     -9.5240782      7  1.500                                             
  local pseudopotential read in
  partial core-charges read in
  partial kinetic energy density read in
  kinetic energy density of atom read in
  atomic valenz-charges read in
  non local Contribution for L=           0  read in
    real space projection operators read in
  non local Contribution for L=           0  read in
    real space projection operators read in
  non local Contribution for L=           1  read in
    real space projection operators read in
  non local Contribution for L=           1  read in
    real space projection operators read in
    PAW grid and wavefunctions read in
 
   number of l-projection  operators is LMAX  =           4
   number of lm-projection operators is LMMAX =           8
 
 Optimization of the real space projectors (new method)

 maximal supplied QI-value         = 16.25
 optimisation between [QCUT,QGAM] = [ 12.51, 25.03] = [ 43.85,175.40] Ry 
 Optimized for a Real-space Cutoff    1.47 Angstroem

   l    n(q)    QCUT    max X(q) W(low)/X(q) W(high)/X(q)  e(spline) 
   0     11    12.514    11.817    0.25E-04    0.32E-05    0.87E-07
   0     11    12.514     8.461    0.39E-04    0.59E-05    0.18E-06
   1     11    12.514     3.957    0.97E-05    0.57E-05    0.28E-07
   1     11    12.514     4.314    0.42E-04    0.14E-04    0.23E-06
   2     10    12.514    14.565    0.79E-04    0.50E-03    0.16E-05
   2     10    12.514    14.552    0.75E-04    0.48E-03    0.15E-05
 Optimization of the real space projectors (new method)

 maximal supplied QI-value         = 19.84
 optimisation between [QCUT,QGAM] = [ 12.50, 25.00] = [ 43.76,175.03] Ry 
 Optimized for a Real-space Cutoff    1.16 Angstroem

   l    n(q)    QCUT    max X(q) W(low)/X(q) W(high)/X(q)  e(spline) 
   0      9    12.501   159.560    0.10E-03    0.83E-04    0.71E-07
   0      9    12.501   115.863    0.99E-04    0.81E-04    0.70E-07
   1      8    12.501    88.339    0.20E-03    0.25E-03    0.76E-07
   1      8    12.501    48.592    0.20E-03    0.24E-03    0.75E-07
 Optimization of the real space projectors (new method)

 maximal supplied QI-value         = 24.76
 optimisation between [QCUT,QGAM] = [ 12.38, 25.00] = [ 42.90,175.06] Ry 
 Optimized for a Real-space Cutoff    1.16 Angstroem

   l    n(q)    QCUT    max X(q) W(low)/X(q) W(high)/X(q)  e(spline) 
   0      9    12.378    20.381    0.16E-03    0.67E-05    0.31E-06
   0      9    12.378    15.268    0.17E-03    0.81E-05    0.33E-06
   1      8    12.378     5.964    0.20E-03    0.16E-03    0.30E-06
   1      8    12.378     5.382    0.18E-03    0.14E-03    0.26E-06
  PAW_PBE Ca_sv 06Sep2000               :
 energy of atom  1       EATOM=-1006.0909
 kinetic energy error for atom=    0.0012 (will be added to EATOM!!)
  PAW_PBE Si 05Jan2001                  :
 energy of atom  2       EATOM= -103.0669
 kinetic energy error for atom=    0.0003 (will be added to EATOM!!)
  PAW_PBE O 08Apr2002                   :
 energy of atom  3       EATOM= -432.3788
 kinetic energy error for atom=    0.0168 (will be added to EATOM!!)
 
 
 POSCAR: Ca Si  O                                
  positions in direct lattice
  No initial velocities read in
 exchange correlation table for  LEXCH =        8
   RHO(1)=    0.500       N(1)  =     2000
   RHO(2)=  100.500       N(2)  =     4000
 


--------------------------------------------------------------------------------------------------------


 ion  position               nearest neighbor table
   1  0.977  0.589  0.230-  93 2.01  59 2.20  67 2.36  84 2.36  36 2.70
   2  0.278  0.573  0.193- 123 2.29  59 2.39 120 2.52
   3  0.435  0.537  0.496- 107 1.95  90 2.29 122 2.41
   4  0.993  0.891  0.371- 113 2.22  65 2.26  67 2.33 106 2.39  36 3.02
   5  0.215  0.761  0.870-  63 2.08  64 2.29
   6  0.607  0.634  0.171-  92 1.90 117 2.28  95 2.33  89 2.48  43 2.90  38 2.92  37 3.06
   7  0.078  0.106  0.215- 106 1.96 100 2.37  15 3.05
   8  0.193  0.850  0.643- 131 2.13  75 2.17  64 2.33
   9  0.690  0.129  0.089-  91 2.20  81 2.23  49 2.89  10 3.03
  10  0.603  0.992  0.938-  91 2.29  86 2.37 108 2.53  37 2.89   9 3.03  42 3.13
  11  0.325  0.030  0.115- 134 2.15  88 2.33  86 2.41  99 2.54  41 2.80  42 2.96
  12  0.536  0.357  0.768- 128 2.43
  13  0.680  0.583  0.911- 117 2.02 128 2.07  58 2.35  95 2.50  43 2.65
  14  0.272  0.067  0.602-  73 1.97 110 2.14 124 2.42  39 3.03  17 3.12
  15  0.929  0.192  0.358- 133 1.94 127 2.14 106 2.30   7 3.05  44 3.13
  16  0.095  0.544  0.873-  62 2.08  69 2.18  80 2.40  34 2.68
  17  0.134  0.204  0.483- 133 2.20 124 2.33 121 2.34  77 2.55  32 3.09  14 3.12
  18  0.942  0.090  0.688-  74 2.23  78 2.36 124 2.39
  19  0.715  0.753  0.704-  68 2.15  58 2.36 112 2.54  46 2.75  48 2.88
  20  0.582  0.846  0.275- 104 2.24  89 2.52
  21  0.478  0.905  0.613- 102 1.89  53 3.01
  22  0.752  0.407  0.292- 116 2.27  93 2.32
  23  0.919  0.560  0.461-  93 2.21 112 2.54
  24  0.247  0.468  0.632-  96 2.07 118 2.31
  25  0.288  0.240  0.875-  97 2.09 118 2.32  34 2.40  42 2.95
  26  0.324  0.865  0.375-  88 2.31 131 2.32  99 2.37
  27  0.850  0.383  0.824-  94 1.97  66 2.17  62 2.54  51 3.06
  28  0.062  0.964  0.982-  76 1.61  87 1.67 115 1.89 105 1.95  35 3.04
  29  0.009  0.457  0.658-  62 1.60 129 1.68  96 1.71  79 1.73  44 2.94  46 3.06
  30  0.933  0.812  0.614-  75 1.54  55 1.91 135 1.95 101 1.99  50 2.63  46 2.86
  31  0.439  0.668  0.999- 130 1.61  61 1.64  98 1.82 120 2.03 117 2.48  37 2.73  43 2.95  41 2.98

  32  0.194  0.316  0.296- 121 1.58 103 1.67 123 1.74  77 1.88  40 2.86  17 3.09
  33  0.380  0.673  0.698- 107 1.60 114 1.61  63 1.66
  34  0.166  0.363  0.849-  69 1.50 118 1.69  25 2.40  16 2.68
  35  0.891  0.970  0.124-  65 1.59  81 1.62  71 1.81  87 1.96  54 2.92  28 3.04
  36  0.107  0.710  0.315- 113 1.62  59 1.70  72 1.72  67 2.05   1 2.70   4 3.02
  37  0.591  0.797  0.018- 108 1.67 117 1.72  98 1.83 104 1.86  31 2.73  10 2.89   6 3.06
  38  0.652  0.619  0.379-  92 1.60 122 1.71  56 1.86 109 1.94   6 2.92
  39  0.339  0.127  0.400-  73 1.61  77 1.67  99 1.99  14 3.03  52 3.12
  40  0.055  0.325  0.140- 100 1.42  85 1.65 103 1.92  32 2.86
  41  0.361  0.828  0.124-  88 1.51 130 1.66 134 1.72 104 2.34  98 2.52  11 2.80  31 2.98
  42  0.450  0.154  0.989- 111 1.58  97 1.71  86 2.22  91 2.33  25 2.95  11 2.96  10 3.13
  43  0.556  0.488  0.026-  95 1.61  82 1.80 128 1.91 120 2.15  47 2.50  13 2.65   6 2.90  31 2.95

  44  0.909  0.293  0.562-  78 1.65  79 1.75 133 1.77 125 1.86  29 2.94  15 3.13
  45  0.000  0.713  0.017-  57 1.66  80 1.73  84 1.91  76 2.04  54 2.98
  46  0.874  0.631  0.700- 129 1.59 135 1.60  58 1.66 112 1.87  19 2.75  30 2.86  29 3.06
  47  0.690  0.365  0.039- 116 1.56  82 1.79  94 1.84  95 2.01  43 2.50
  48  0.717  0.807  0.500- 109 1.50  68 1.61 101 1.65  19 2.88
  49  0.745  0.069  0.284-  83 1.59 126 1.63 127 1.71  81 2.50   9 2.89
  50  0.982  0.856  0.795-  64 1.57 115 1.67  55 1.93  57 2.37  75 2.44  30 2.63
  51  0.747  0.215  0.718-  60 1.56  74 1.59  66 1.62  78 1.80  27 3.06
  52  0.403  0.275  0.562- 110 1.47  90 1.54 132 1.63  53 2.79  39 3.12
  53  0.524  0.120  0.618- 102 1.62  70 1.70 132 1.90  60 2.07  52 2.79  21 3.01
  54  0.817  0.770  0.118-  89 1.59  71 1.65  84 1.69 119 1.98  35 2.92  45 2.98
  55  0.873  0.892  0.712-  30 1.91  50 1.93
  56  0.632  0.511  0.459-  38 1.86
  57  0.015  0.719  0.896-  45 1.66  50 2.37
  58  0.795  0.628  0.792-  46 1.66  13 2.35  19 2.36
  59  0.123  0.652  0.206-  36 1.70   1 2.20   2 2.39
  60  0.659  0.152  0.679-  51 1.56  53 2.07
  61  0.351  0.608  0.945-  31 1.64
  62  0.002  0.477  0.773-  29 1.60  16 2.08  27 2.54
  63  0.297  0.663  0.787-  33 1.66   5 2.08
  64  0.091  0.826  0.778-  50 1.57   5 2.29   8 2.33
  65  0.927  0.915  0.221-  35 1.59   4 2.26
  66  0.724  0.329  0.743-  51 1.62  27 2.17
  67  0.959  0.728  0.330-  36 2.05   4 2.33   1 2.36
  68  0.661  0.850  0.593-  48 1.61  19 2.15
  69  0.213  0.443  0.909-  34 1.50  16 2.18
  70  0.565  0.083  0.506-  53 1.70
  71  0.844  0.868  0.054-  54 1.65  35 1.81
  72  0.145  0.617  0.391-  36 1.72
  73  0.340  0.039  0.478-  39 1.61  14 1.97
  74  0.837  0.174  0.780-  51 1.59  18 2.23
  75  0.036  0.857  0.625-  30 1.54   8 2.17  50 2.44
  76  0.059  0.850  0.011-  28 1.61  45 2.04
  77  0.272  0.220  0.358-  39 1.67  32 1.88  17 2.55
  78  0.842  0.217  0.628-  44 1.65  51 1.80  18 2.36
  79  0.992  0.332  0.651-  29 1.73  44 1.75
  80  0.014  0.587  0.023-  45 1.73  16 2.40
  81  0.840  0.077  0.128-  35 1.62   9 2.23  49 2.50
  82  0.560  0.357  0.028-  47 1.79  43 1.80
  83  0.746  0.042  0.397-  49 1.59
  84  0.930  0.726  0.137-  54 1.69  45 1.91   1 2.36
  85  0.075  0.436  0.098-  40 1.65
  86  0.495  0.021  0.070-  42 2.22  10 2.37  11 2.41
  87  0.973  0.035  0.027-  28 1.67  35 1.96
  88  0.318  0.886  0.207-  41 1.51  26 2.31  11 2.33
  89  0.728  0.768  0.193-  54 1.59   6 2.48  20 2.52
  90  0.385  0.382  0.531-  52 1.54   3 2.29
  91  0.616  0.159  0.950-   9 2.20  10 2.29  42 2.33
  92  0.698  0.604  0.272-  38 1.60   6 1.90
  93  0.868  0.530  0.310-   1 2.01  23 2.21  22 2.32
  94  0.778  0.408  0.947-  47 1.84  27 1.97
  95  0.661  0.504  0.075-  43 1.61  47 2.01   6 2.33  13 2.50
  96  0.105  0.504  0.593-  29 1.71  24 2.07
  97  0.367  0.113  0.905-  42 1.71  25 2.09
  98  0.464  0.797  0.975-  31 1.82  37 1.83  41 2.52
  99  0.321  0.022  0.301-  39 1.99  26 2.37  11 2.54
 100  0.992  0.253  0.181-  40 1.42   7 2.37
 101  0.834  0.836  0.511-  48 1.65  30 1.99
 102  0.455  0.034  0.660-  53 1.62  21 1.89
 103  0.179  0.275  0.182-  32 1.67  40 1.92
 104  0.529  0.862  0.121-  37 1.86  20 2.24  41 2.34
 105  0.147  0.072  0.022-  28 1.95
 106  0.030  0.058  0.341-   7 1.96  15 2.30   4 2.39
 107  0.379  0.629  0.591-  33 1.60   3 1.95
 108  0.639  0.813  0.907-  37 1.67  10 2.53
 109  0.701  0.749  0.409-  48 1.50  38 1.94
 110  0.328  0.212  0.607-  52 1.47  14 2.14
 111  0.390  0.234  0.047-  42 1.58
 112  0.812  0.655  0.580-  46 1.87  19 2.54  23 2.54
 113  0.137  0.818  0.356-  36 1.62   4 2.22
 114  0.494  0.688  0.723-  33 1.61
 115  0.972  0.943  0.879-  50 1.67  28 1.89
 116  0.752  0.355  0.135-  47 1.56  22 2.27
 117  0.621  0.675  0.010-  37 1.72  13 2.02   6 2.28  31 2.48
 118  0.262  0.371  0.770-  34 1.69  24 2.31  25 2.32
 119  0.814  0.691  0.997-  54 1.98
 120  0.437  0.560  0.101-  31 2.03  43 2.15   2 2.52
 121  0.106  0.330  0.369-  32 1.58  17 2.34
 122  0.528  0.636  0.383-  38 1.71   3 2.41
 123  0.220  0.439  0.274-  32 1.74   2 2.29
 124  0.097  0.096  0.609-  17 2.33  18 2.39  14 2.42
 125  0.841  0.393  0.498-  44 1.86
 126  0.640  0.032  0.244-  49 1.63
 127  0.787  0.187  0.293-  49 1.71  15 2.14
 128  0.569  0.484  0.887-  43 1.91  13 2.07  12 2.43
 129  0.909  0.529  0.656-  46 1.59  29 1.68
 130  0.370  0.715  0.082-  31 1.61  41 1.66
 131  0.307  0.829  0.539-   8 2.13  26 2.32
 132  0.518  0.256  0.588-  52 1.63  53 1.90
 133  0.973  0.205  0.492-  44 1.77  15 1.94  17 2.20
 134  0.302  0.896  0.035-  41 1.72  11 2.15
 135  0.969  0.698  0.692-  46 1.60  30 1.95
 

IMPORTANT INFORMATION: All symmetrisations will be switched off!
NOSYMM: (Re-)initialisation of all symmetry stuff for point group C_1.

 
 

Automatic generation of k-mesh.
 generate k-points for:    2    2    2
Space group operators:
 irot       det(A)        alpha          n_x          n_y          n_z        tau_x        tau_y        tau_z
    1     1.000000     0.000000     1.000000     0.000000     0.000000     0.000000     0.000000     0.000000
 
 Subroutine IBZKPT returns following result:
 ===========================================
 
 Found      8 irreducible k-points:
 
 Following reciprocal coordinates:
            Coordinates               Weight
  0.000000  0.000000  0.000000      1.000000
  0.500000  0.000000  0.000000      1.000000
  0.000000  0.500000  0.000000      1.000000
  0.500000  0.500000  0.000000      1.000000
  0.000000  0.000000  0.500000      1.000000
  0.500000  0.000000  0.500000      1.000000
  0.000000  0.500000  0.500000      1.000000
  0.500000  0.500000  0.500000      1.000000
 
 Following cartesian coordinates:
            Coordinates               Weight
  0.000000  0.000000  0.000000      1.000000
  0.036574  0.000000  0.000000      1.000000
  0.000000  0.036574  0.000000      1.000000
  0.036574  0.036574  0.000000      1.000000
  0.000000  0.000000  0.036574      1.000000
  0.036574  0.000000  0.036574      1.000000
  0.000000  0.036574  0.036574      1.000000
  0.036574  0.036574  0.036574      1.000000
 


--------------------------------------------------------------------------------------------------------




 Dimension of arrays:
   k-points           NKPTS =      8   k-points in BZ     NKDIM =      8   number of bands    NBANDS=    520
   number of dos      NEDOS =    301   number of ions     NIONS =    135
   non local maximal  LDIM  =      6   non local SUM 2l+1 LMDIM =     18
   total plane-waves  NPLWV = ******
   max r-space proj   IRMAX =   7377   max aug-charges    IRDMAX= 210060
   dimension x,y,z NGX =   112 NGY =  112 NGZ =  112
   dimension x,y,z NGXF=   224 NGYF=  224 NGZF=  224
   support grid    NGXF=   448 NGYF=  448 NGZF=  448
   ions per type =              27  27  81
   NGX,Y,Z   is equivalent  to a cutoff of  13.62, 13.62, 13.62 a.u.
   NGXF,Y,Z  is equivalent  to a cutoff of  27.24, 27.24, 27.24 a.u.

 SYSTEM =  unknown system                          
 POSCAR =  Ca Si  O                                

 Startparameter for this run:
   NWRITE =      2    write-flag & timer
   PREC   = a         normal or accurate (medium, high low for compatibility)
   ISTART =      0    job   : 0-new  1-cont  2-samecut
   ICHARG =      2    charge: 1-file 2-atom 10-const
   ISPIN  =      1    spin polarized calculation?
   LNONCOLLINEAR =      F non collinear calculations
   LSORBIT =      F    spin-orbit coupling
   INIWAV =      1    electr: 0-lowe 1-rand  2-diag
   LASPH  =      F    aspherical Exc in radial PAW
   METAGGA=      F    non-selfconsistent MetaGGA calc.

 Electronic Relaxation 1
   ENCUT  =  600.0 eV  44.10 Ry    6.64 a.u.  27.30 27.30 27.30*2*pi/ulx,y,z
   ENINI  =  600.0     initial cutoff
   ENAUG  =  605.4 eV  augmentation charge cutoff
   NELM   =     60;   NELMIN=  2; NELMDL= -5     # of ELM steps 
   EDIFF  = 0.1E-05   stopping-criterion for ELM
   LREAL  =      T    real-space projection
   NLSPLINE    = F    spline interpolate recip. space projectors
   LCOMPAT=      F    compatible to vasp.4.4
   GGA_COMPAT  = T    GGA compatible to vasp.4.4-vasp.4.6
   LMAXPAW     = -100 max onsite density
   LMAXMIX     =    2 max onsite mixed and CHGCAR
   VOSKOWN=      0    Vosko Wilk Nusair interpolation
   ROPT   =   -0.00025  -0.00025  -0.00025
 Ionic relaxation
   EDIFFG = -.1E-01   stopping-criterion for IOM
   NSW    =      1    number of steps for IOM
   NBLOCK =      1;   KBLOCK =      1    inner block; outer block 
   IBRION =     -1    ionic relax: 0-MD 1-quasi-New 2-CG
   NFREE  =      0    steps in history (QN), initial steepest desc. (CG)
   ISIF   =      2    stress and relaxation
   IWAVPR =     10    prediction:  0-non 1-charg 2-wave 3-comb
   ISYM   =      0    0-nonsym 1-usesym 2-fastsym
   LCORR  =      T    Harris-Foulkes like correction to forces

   POTIM  = 1.0000    time-step for ionic-motion
   TEIN   =    0.0    initial temperature
   TEBEG  =    0.0;   TEEND  =   0.0 temperature during run
   SMASS  =  -3.00    Nose mass-parameter (am)
   estimated Nose-frequenzy (Omega)   =  0.10E-29 period in steps =****** mass=  -0.427E-26a.u.
   SCALEE = 1.0000    scale energy and forces
   NPACO  =    256;   APACO  = 16.0  distance and # of slots for P.C.
   PSTRESS=    0.0 pullay stress

  Mass of Ions in am
   POMASS =  40.08 28.09 16.00
  Ionic Valenz
   ZVAL   =  10.00  4.00  6.00
  Atomic Wigner-Seitz radii
   RWIGS  =  -1.00 -1.00 -1.00
  virtual crystal weights 
   VCA    =   1.00  1.00  1.00
   NELECT =     864.0000    total number of electrons
   NUPDOWN=      -1.0000    fix difference up-down

 DOS related values:
   EMIN   =  10.00;   EMAX   =-10.00  energy-range for DOS
   EFERMI =   0.00
   ISMEAR =     0;   SIGMA  =   0.05  broadening in eV -4-tet -1-fermi 0-gaus

 Electronic relaxation 2 (details)
   IALGO  =     38    algorithm
   LDIAG  =      T    sub-space diagonalisation (order eigenvalues)
   LSUBROT=      F    optimize rotation matrix (better conditioning)
   TURBO    =      0    0=normal 1=particle mesh
   IRESTART =      0    0=no restart 2=restart with 2 vectors
   NREBOOT  =      0    no. of reboots
   NMIN     =      0    reboot dimension
   EREF     =   0.00    reference energy to select bands
   IMIX   =      4    mixing-type and parameters
     AMIX     =   0.40;   BMIX     =  1.00
     AMIX_MAG =   1.60;   BMIX_MAG =  1.00
     AMIN     =   0.10
     WC   =   100.;   INIMIX=   1;  MIXPRE=   1;  MAXMIX= -45

 Intra band minimization:
   WEIMIN = 0.0000     energy-eigenvalue tresh-hold
   EBREAK =  0.48E-09  absolut break condition
   DEPER  =   0.30     relativ break condition  

   TIME   =   0.40     timestep for ELM

  volume/ion in A,a.u.               =      18.93       127.72
  Fermi-wavevector in a.u.,A,eV,Ry     =   1.140556  2.155339 17.699398  1.300869
  Thomas-Fermi vector in A             =   2.277258
 
 Write flags
   LWAVE        =      F    write WAVECAR
   LDOWNSAMPLE  =      F    k-point downsampling of WAVECAR
   LCHARG       =      F    write CHGCAR
   LVTOT        =      F    write LOCPOT, total local potential
   LVHAR        =      F    write LOCPOT, Hartree potential only
   LELF         =      F    write electronic localiz. function (ELF)
   LORBIT       =      0    0 simple, 1 ext, 2 COOP (PROOUT), +10 PAW based schemes


 Dipole corrections
   LMONO  =      F    monopole corrections only (constant potential shift)
   LDIPOL =      F    correct potential (dipole corrections)
   IDIPOL =      0    1-x, 2-y, 3-z, 4-all directions 
   EPSILON=  1.0000000 bulk dielectric constant

 Exchange correlation treatment:
   GGA     =    --    GGA type
   LEXCH   =     8    internal setting for exchange type
   VOSKOWN=      0    Vosko Wilk Nusair interpolation
   LHFCALC =     F    Hartree Fock is set to
   LHFONE  =     F    Hartree Fock one center treatment
   AEXX    =    0.0000 exact exchange contribution

 Linear response parameters
   LEPSILON=     F    determine dielectric tensor
   LRPA    =     F    only Hartree local field effects (RPA)
   LNABLA  =     F    use nabla operator in PAW spheres
   LVEL    =     F    velocity operator in full k-point grid
   LINTERFAST=   F  fast interpolation
   KINTER  =     0    interpolate to denser k-point grid
   CSHIFT  =0.1000    complex shift for real part using Kramers Kronig
   OMEGAMAX=  -1.0    maximum frequency
   DEG_THRESHOLD= 0.2000000E-02 threshold for treating states as degnerate
   RTIME   =   -0.100 relaxation time in fs
  (WPLASMAI=    0.000 imaginary part of plasma frequency in eV, 0.658/RTIME)
   DFIELD  = 0.0000000 0.0000000 0.0000000 field for delta impulse in time
 
 Orbital magnetization related:
   ORBITALMAG=     F  switch on orbital magnetization
   LCHIMAG   =     F  perturbation theory with respect to B field
   DQ        =  0.001000  dq finite difference perturbation B field
   LLRAUG    =     F  two centre corrections for induced B field



--------------------------------------------------------------------------------------------------------


 Static calculation
 charge density and potential will be updated during run
 non-spin polarized calculation
 Variant of blocked Davidson
 Davidson routine will perform the subspace rotation
 perform sub-space diagonalisation
    after iterative eigenvector-optimisation
 modified Broyden-mixing scheme, WC =      100.0
 initial mixing is a Kerker type mixing with AMIX =  0.4000 and BMIX =      1.0000
 Hartree-type preconditioning will be used
 using additional bands           88
 real space projection scheme for non local part
 use partial core corrections
 calculate Harris-corrections to forces 
   (improved forces if not selfconsistent)
 use gradient corrections 
 use of overlap-Matrix (Vanderbilt PP)
 Gauss-broadening in eV      SIGMA  =   0.05


--------------------------------------------------------------------------------------------------------


  energy-cutoff  :      600.00
  volume of cell :     2554.98
      direct lattice vectors                 reciprocal lattice vectors
    13.670863650  0.000000000  0.000000000     0.073148268  0.000000000  0.000000000
     0.000000000 13.670863650  0.000000000     0.000000000  0.073148268  0.000000000
     0.000000000  0.000000000 13.670863650     0.000000000  0.000000000  0.073148268

  length of vectors
    13.670863650 13.670863650 13.670863650     0.073148268  0.073148268  0.073148268


 
 k-points in units of 2pi/SCALE and weight: read from INCAR                         
   0.00000000  0.00000000  0.00000000       0.125
   0.03657413  0.00000000  0.00000000       0.125
   0.00000000  0.03657413  0.00000000       0.125
   0.03657413  0.03657413  0.00000000       0.125
   0.00000000  0.00000000  0.03657413       0.125
   0.03657413  0.00000000  0.03657413       0.125
   0.00000000  0.03657413  0.03657413       0.125
   0.03657413  0.03657413  0.03657413       0.125
 
 k-points in reciprocal lattice and weights: read from INCAR                         
   0.00000000  0.00000000  0.00000000       0.125
   0.50000000  0.00000000  0.00000000       0.125
   0.00000000  0.50000000  0.00000000       0.125
   0.50000000  0.50000000  0.00000000       0.125
   0.00000000  0.00000000  0.50000000       0.125
   0.50000000  0.00000000  0.50000000       0.125
   0.00000000  0.50000000  0.50000000       0.125
   0.50000000  0.50000000  0.50000000       0.125
 
 position of ions in fractional coordinates (direct lattice) 
   0.97668228  0.58921708  0.23037751
   0.27843980  0.57342669  0.19298316
   0.43506893  0.53744652  0.49620095
   0.99265515  0.89059976  0.37091467
   0.21499214  0.76104540  0.87002592
   0.60733515  0.63432466  0.17120248
   0.07838191  0.10636283  0.21539018
   0.19305672  0.85030177  0.64344230
   0.68989624  0.12920373  0.08890759
   0.60349567  0.99191182  0.93825302
   0.32459214  0.02971251  0.11483492
   0.53580052  0.35681107  0.76766452
   0.68039207  0.58315356  0.91144482
   0.27162974  0.06667854  0.60217142
   0.92948256  0.19190000  0.35777227
   0.09475466  0.54414713  0.87326361
   0.13411174  0.20434905  0.48263995
   0.94224654  0.09030501  0.68846055
   0.71484915  0.75318314  0.70383263
   0.58237040  0.84570698  0.27470433
   0.47778829  0.90511094  0.61334035
   0.75192058  0.40710521  0.29232315
   0.91860443  0.56033679  0.46085944
   0.24723659  0.46753563  0.63195012
   0.28768661  0.23969933  0.87485522
   0.32384166  0.86516459  0.37468809
   0.84970778  0.38289952  0.82365198
   0.06191998  0.96428935  0.98219620
   0.00947140  0.45741984  0.65831956
   0.93324999  0.81224835  0.61416470
   0.43943778  0.66804173  0.99879215
   0.19426406  0.31617211  0.29602880
   0.37961471  0.67314322  0.69849237
   0.16639783  0.36340218  0.84873134
   0.89122820  0.96983153  0.12443581
   0.10744414  0.71025582  0.31521401
   0.59087479  0.79675412  0.01786357
   0.65191930  0.61936677  0.37920250
   0.33900053  0.12741793  0.40003154
   0.05468137  0.32450741  0.14015917
   0.36129809  0.82839003  0.12385386
   0.44988348  0.15370133  0.98885889
   0.55587022  0.48841047  0.02567807
   0.90926398  0.29329896  0.56198544
   0.00046822  0.71283390  0.01660440
   0.87393315  0.63067118  0.69983367
   0.69029712  0.36485300  0.03935073
   0.71743089  0.80678970  0.50017129
   0.74538233  0.06912993  0.28375467
   0.98161449  0.85612471  0.79485114
   0.74671698  0.21485864  0.71791208
   0.40312598  0.27471488  0.56217399
   0.52408399  0.12028537  0.61833608
   0.81654403  0.77009869  0.11800401
   0.87300295  0.89160928  0.71242386
   0.63163800  0.51087279  0.45931966
   0.01525627  0.71914482  0.89603441
   0.79509928  0.62816470  0.79200689
   0.12259185  0.65229164  0.20595309
   0.65925436  0.15236018  0.67910075
   0.35079702  0.60833052  0.94510155
   0.00218711  0.47686024  0.77320867
   0.29678195  0.66330519  0.78671510
   0.09086270  0.82586233  0.77791681
   0.92739206  0.91519960  0.22084928
   0.72426222  0.32880990  0.74281574
   0.95909360  0.72843774  0.33032572
   0.66053387  0.85038059  0.59321814
   0.21304573  0.44277411  0.90853971
   0.56507530  0.08338692  0.50649376
   0.84437102  0.86807458  0.05384535
   0.14540647  0.61748878  0.39111981
   0.33972005  0.03941037  0.47827032
   0.83675490  0.17449761  0.77971300
   0.03584771  0.85683452  0.62462736
   0.05858941  0.84985360  0.01089503
   0.27171351  0.22018630  0.35761802
   0.84244555  0.21702498  0.62786313
   0.99201382  0.33229848  0.65146850
   0.01447300  0.58738235  0.02300907
   0.83955928  0.07678058  0.12751918
   0.55992509  0.35669855  0.02810791
   0.74622884  0.04206208  0.39680727
   0.93036225  0.72635056  0.13688715
   0.07509839  0.43593248  0.09849425
   0.49521230  0.02101913  0.07017213
   0.97284324  0.03498813  0.02652395
   0.31765774  0.88626135  0.20722855
   0.72759210  0.76802448  0.19252681
   0.38531622  0.38170012  0.53105045
   0.61551650  0.15875389  0.94959474
   0.69791245  0.60410490  0.27247487
   0.86834947  0.52955665  0.31004860
   0.77821817  0.40785376  0.94651270
   0.66139530  0.50438811  0.07509841
   0.10524105  0.50421663  0.59344799
   0.36701620  0.11278572  0.90467974
   0.46424872  0.79688984  0.97465502
   0.32114299  0.02197812  0.30079268
   0.99195308  0.25308462  0.18117634
   0.83384273  0.83603661  0.51071617
   0.45503391  0.03360478  0.65996284
   0.17948848  0.27501791  0.18162057
   0.52929740  0.86185061  0.12050175
   0.14673259  0.07179154  0.02179267
   0.03041896  0.05841686  0.34140473
   0.37932112  0.62880134  0.59055209
   0.63894875  0.81337903  0.90678045
   0.70120786  0.74883953  0.40855953
   0.32803014  0.21248748  0.60726801
   0.38961167  0.23362161  0.04717721
   0.81190329  0.65481125  0.58008187
   0.13691574  0.81770436  0.35602308
   0.49354832  0.68786758  0.72286629
   0.97201403  0.94348659  0.87930514
   0.75166902  0.35523211  0.13485284
   0.62067113  0.67505644  0.01033784
   0.26153302  0.37084771  0.77006995
   0.81396090  0.69085070  0.99657678
   0.43738800  0.55999936  0.10075096
   0.10620047  0.32966146  0.36919241
   0.52800084  0.63579804  0.38282307
   0.22001442  0.43912213  0.27447077
   0.09744616  0.09570520  0.60865643
   0.84133546  0.39273832  0.49833991
   0.63956707  0.03193178  0.24400421
   0.78719634  0.18684226  0.29339344
   0.56888410  0.48406398  0.88677894
   0.90924470  0.52858194  0.65595545
   0.37030306  0.71453431  0.08166516
   0.30654811  0.82873958  0.53929100
   0.51815066  0.25562361  0.58847985
   0.97333510  0.20477050  0.49241826
   0.30232152  0.89560918  0.03526757
   0.96897927  0.69803796  0.69190731
 
 position of ions in cartesian coordinates  (Angst):
  13.35209024  8.05510640  3.14945954
   3.80651257  7.83923814  2.63824651
   5.94776804  7.34735808  6.78349548
  13.57045314 12.17526789  5.07072393
   2.93912825 10.40414794 11.89400566
   8.30279596  8.67176590  2.34048577
   1.07154845  1.45407180  2.94456975
   2.63925206 11.62435957  8.79641190
   9.43147745  1.76632662  1.21544352
   8.25030699 13.56029119 12.82672910
   4.43745494  0.40619567  1.56989249
   7.32485592  4.87791550 10.49463703
   9.30154725  7.97221274 12.46023791
   3.71341311  0.91155327  8.23220344
  12.70682932  2.62343867  4.89105587
   1.29537797  7.43896122 11.93826773
   1.83342332  2.79362802  6.59810494
  12.88132394  1.23454754  9.41185037
   9.77260532 10.29666404  9.62199996
   7.96150635 11.56154476  3.75544538
   6.53177858 12.37364824  8.38489223
  10.27940367  5.56547988  3.99630987
  12.55811591  7.66028784  6.30034661
   3.37993772  6.39161589  8.63930396
   3.93292447  3.27689681 11.96002644
   4.42719520 11.82754716  5.12230980
  11.61623916  5.23456708 11.26003397
   0.84649965 13.18266821 13.42747039
   0.12948228  6.25332426  8.99979699
  12.75833340 11.10413649  8.39616185
   6.00749401  9.13270742 13.65435132
   2.65575744  4.32234585  4.04696942
   5.18966095  9.20244913  9.54899399
   2.27480201  4.96802159 11.60289039
  12.18385922 13.25843456  1.70114506
   1.46885412  9.70981042  4.30924779
   8.07776874 10.89231688  0.24421043
   8.91229982  8.46727871  5.18402573
   4.63443000  1.74191308  5.46877662
   0.74754149  4.43629662  1.91609691
   4.93925692 11.32480709  1.69318930
   6.15029573  2.10122995 13.51855510
   7.59922592  6.67699298  0.35104139
  12.43042393  4.00965010  7.68282627
   0.00640101  9.74505511  0.22699643
  11.94742089  8.62181967  9.56733068
   9.43695787  4.98785556  0.53795848
   9.80789985 11.02951197  6.83777356
  10.19002019  0.94506579  3.87917145
  13.41951788 11.70396417 10.86630161
  10.20826608  2.93730321  9.81447821
   5.51108027  3.75558968  7.68540399
   7.16468078  1.64440484  8.45318820
  11.16286216 10.52791412  1.61321674
  11.93470434 12.18906884  9.73944942
   8.63503699  6.98407232  6.27929643
   0.20856634  9.83133084 12.24956431
  10.86969391  8.58755401 10.82741825
   1.67593651  8.91739011  2.81555656
   9.01257647  2.08289520  9.28389376
   4.79569827  8.31640353 12.92035437
   0.02989962  6.51909134 10.57043035
   4.05726554  9.06795484 10.75507488
   1.24217158 11.29025125 10.63479463
  12.67825041 12.51156891  3.01920040
   9.90129005  4.49511537 10.15493276
  13.11163786  9.95837299  4.51583783
   9.03006853 11.62543709  8.10980437
   2.91251908  6.05310443 12.42052254
   7.72506736  1.13997122  6.92420713
  11.54328109 11.86732917  0.73611244
   1.98783207  8.44160486  5.34694558
   4.64426654  0.53877383  6.53836833
  11.43916212  2.38553308 10.65935006
   0.49006911 11.71366783  8.53919542
   0.80096786 11.61823274  0.14894448
   3.71455830  3.01013692  4.88894718
  11.51695818  2.96691885  8.58343128
  13.56168565  4.54280717  8.90613710
   0.19785840  8.03002408  0.31455385
  11.47750050  1.04965690  1.74329729
   7.65465952  4.87637718  0.38425946
  10.20159274  0.57502494  5.42469811
  12.71885541  9.92983944  1.87136555
   1.02665990  5.95957344  1.34650147
   6.76997985  0.28734965  0.95931359
  13.29960730  0.47831800  0.36260534
   4.34265560 12.11595809  2.83299325
   9.94681242 10.49955798  2.63200783
   5.26760546  5.21817031  7.25991824
   8.41464218  2.17030278 12.98178017
   9.54106590  8.25863571  3.72496681
  11.87108718  7.23949675  4.23863209
  10.63891445  5.57571318 12.93964607
   9.04184502  6.89542105  1.02666014
   1.43873598  6.89307681  8.11294657
   5.01742841  1.54187820 12.36775337
   6.34668092 10.89417240 13.32437588
   4.39030202  0.30045992  4.11209568
  13.56085534  3.45988535  2.47683704
  11.39935024 11.42934249  6.98193117
   6.22070652  0.45940631  9.02226196
   2.45376248  3.75973229  2.48291007
   7.23595262 11.78224213  1.64736298
   2.00596122  0.98145240  0.29792456
   0.41585342  0.79860899  4.66729751
   5.18564733  8.59625735  8.07335714
   8.73498125 11.11959387 12.39647190
   9.58611700 10.23728306  5.58536158
   4.48445538  2.90488742  8.30187816
   5.32632800  3.19380921  0.64495319
  11.09941912  8.95183525  7.93022017
   1.87175639 11.17872478  4.86714301
   6.74723174  9.40374391  9.88220647
  13.28827129 12.89827649 12.02086069
  10.27596469  4.85632979  1.84355476
   8.48511042  9.22860455  0.14132715
   3.57538228  5.06980854 10.52752133
  11.12754842  9.44452571 13.62406523
   5.97947177  7.65567486  1.37735269
   1.45185210  4.50675690  5.04717916
   7.21822750  8.69190832  5.23352199
   3.00778714  6.00317872  3.75225250
   1.33217314  1.30837275  8.32085901
  11.50178233  5.36907204  6.81273698
   8.74343426  0.43653498  3.33574824
  10.76165377  2.55429501  4.01094178
   7.77713700  6.61757269 12.12303394
  12.43016036  7.22617158  8.96747752
   5.06236262  9.76830112  1.11643332
   4.19077736 11.32958584  7.37257379
   7.08356698  3.49459558  8.04502779
  13.30633140  2.79938954  6.73178285
   4.13299627 12.24375095  0.48213813
  13.24678352  9.54278176  9.45897048
 


--------------------------------------------------------------------------------------------------------


 k-point  1 :   0.0000 0.0000 0.0000  plane waves:   85159
 k-point  2 :   0.5000 0.0000 0.0000  plane waves:   85342
 k-point  3 :   0.0000 0.5000 0.0000  plane waves:   85342
 k-point  4 :   0.5000 0.5000 0.0000  plane waves:   85380
 k-point  5 :   0.0000 0.0000 0.5000  plane waves:   85342
 k-point  6 :   0.5000 0.0000 0.5000  plane waves:   85380
 k-point  7 :   0.0000 0.5000 0.5000  plane waves:   85380
 k-point  8 :   0.5000 0.5000 0.5000  plane waves:   85304

 maximum and minimum number of plane-waves per node :      6630     6499

 maximum number of plane-waves:     85380
 maximum index in each direction: 
   IXMAX=   27   IYMAX=   27   IZMAX=   27
   IXMIN=  -27   IYMIN=  -27   IZMIN=  -27


 real space projection operators:
  total allocation   :      50592.06 KBytes
  max/ min on nodes  :       4139.19       3517.19


 parallel 3D FFT for wavefunctions:
    minimum data exchange during FFTs selected (reduces bandwidth)
 parallel 3D FFT for charge:
    minimum data exchange during FFTs selected (reduces bandwidth)


 total amount of memory used by VASP MPI-rank0   221584. kBytes
=======================================================================

   base      :      30000. kBytes
   nonlr-proj:      21973. kBytes
   fftplans  :      36392. kBytes
   grid      :      20695. kBytes
   one-center:        171. kBytes
   wavefun   :     112353. kBytes
 
     INWAV:  cpu time    0.0000: real time    0.0000
 Broyden mixing: mesh for mixing (old mesh)
   NGX = 55   NGY = 55   NGZ = 55
  (NGX  =224   NGY  =224   NGZ  =224)
  gives a total of 166375 points

 initial charge density was supplied:
 charge density of overlapping atoms calculated
 number of electron     864.0000000 magnetization 
 keeping initial charge density in first step


--------------------------------------------------------------------------------------------------------


 Maximum index for non-local projection operator          783
 Maximum index for augmentation-charges         6565 (set IRDMAX)


--------------------------------------------------------------------------------------------------------


 First call to EWALD:  gamma=   0.130
 Maximum number of real-space cells 3x 3x 3
 Maximum number of reciprocal cells 3x 3x 3

    FEWALD:  cpu time    0.0054: real time    0.0054


--------------------------------------- Iteration      1(   1)  ---------------------------------------


    POTLOK:  cpu time    0.2363: real time    0.2437
    SETDIJ:  cpu time    0.3835: real time    0.3854
     EDDAV:  cpu time   52.4457: real time   52.4480
       DOS:  cpu time    0.0029: real time    0.0029
    --------------------------------------------
      LOOP:  cpu time   53.0685: real time   53.0800

 eigenvalue-minimisations  :  8320
 total energy-change (2. order) : 0.9153460E+04  (-0.4566915E+05)
 number of electron     864.0000000 magnetization 
 augmentation part      864.0000000 magnetization 

 Free energy of the ion-electron system (eV)
  ---------------------------------------------------
  alpha Z        PSCENC =      1870.29120978
  Ewald energy   TEWEN  =    -33322.70706786
  -Hartree energ DENC   =    -26817.29397611
  -exchange      EXHF   =         0.00000000
  -V(xc)+E(xc)   XCENC  =      3114.63779687
  PAW double counting   =     50594.51003143   -49994.65612350
  entropy T*S    EENTRO =        -0.04614099
  eigenvalues    EBANDS =     -1259.81594215
  atomic energy  EATOM  =     64968.54023382
  Solvation  Ediel_sol  =         0.00000000
  ---------------------------------------------------
  free energy    TOTEN  =      9153.46002130 eV

  energy without entropy =     9153.50616229  energy(sigma->0) =     9153.48309179


--------------------------------------------------------------------------------------------------------




--------------------------------------- Iteration      1(   2)  ---------------------------------------


     EDDAV:  cpu time   62.1805: real time   62.2033
       DOS:  cpu time    0.0024: real time    0.0024
    --------------------------------------------
      LOOP:  cpu time   62.1829: real time   62.2057

 eigenvalue-minimisations  : 10328
 total energy-change (2. order) :-0.9088321E+04  (-0.8812389E+04)
 number of electron     864.0000000 magnetization 
 augmentation part      864.0000000 magnetization 

 Free energy of the ion-electron system (eV)
  ---------------------------------------------------
  alpha Z        PSCENC =      1870.29120978
  Ewald energy   TEWEN  =    -33322.70706786
  -Hartree energ DENC   =    -26817.29397611
  -exchange      EXHF   =         0.00000000
  -V(xc)+E(xc)   XCENC  =      3114.63779687
  PAW double counting   =     50594.51003143   -49994.65612350
  entropy T*S    EENTRO =        -0.01391033
  eigenvalues    EBANDS =    -10348.16954299
  atomic energy  EATOM  =     64968.54023382
  Solvation  Ediel_sol  =         0.00000000
  ---------------------------------------------------
  free energy    TOTEN  =        65.13865111 eV

  energy without entropy =       65.15256144  energy(sigma->0) =       65.14560627


--------------------------------------------------------------------------------------------------------




--------------------------------------- Iteration      1(   3)  ---------------------------------------


     EDDAV:  cpu time   62.1323: real time   62.1454
       DOS:  cpu time    0.0010: real time    0.0009
    --------------------------------------------
      LOOP:  cpu time   62.1333: real time   62.1463

 eigenvalue-minimisations  : 10272
 total energy-change (2. order) :-0.1052302E+04  (-0.1040778E+04)
 number of electron     864.0000000 magnetization 
 augmentation part      864.0000000 magnetization 

 Free energy of the ion-electron system (eV)
  ---------------------------------------------------
  alpha Z        PSCENC =      1870.29120978
  Ewald energy   TEWEN  =    -33322.70706786
  -Hartree energ DENC   =    -26817.29397611
  -exchange      EXHF   =         0.00000000
  -V(xc)+E(xc)   XCENC  =      3114.63779687
  PAW double counting   =     50594.51003143   -49994.65612350
  entropy T*S    EENTRO =        -0.00000000
  eigenvalues    EBANDS =    -11400.48501501
  atomic energy  EATOM  =     64968.54023382
  Solvation  Ediel_sol  =         0.00000000
  ---------------------------------------------------
  free energy    TOTEN  =      -987.16291058 eV

  energy without entropy =     -987.16291058  energy(sigma->0) =     -987.16291058


--------------------------------------------------------------------------------------------------------




--------------------------------------- Iteration      1(   4)  ---------------------------------------


     EDDAV:  cpu time   65.6894: real time   65.7024
       DOS:  cpu time    0.0010: real time    0.0010
    --------------------------------------------
      LOOP:  cpu time   65.6904: real time   65.7033

 eigenvalue-minimisations  : 11064
 total energy-change (2. order) :-0.4872884E+02  (-0.4852581E+02)
 number of electron     864.0000000 magnetization 
 augmentation part      864.0000000 magnetization 

 Free energy of the ion-electron system (eV)
  ---------------------------------------------------
  alpha Z        PSCENC =      1870.29120978
  Ewald energy   TEWEN  =    -33322.70706786
  -Hartree energ DENC   =    -26817.29397611
  -exchange      EXHF   =         0.00000000
  -V(xc)+E(xc)   XCENC  =      3114.63779687
  PAW double counting   =     50594.51003143   -49994.65612350
  entropy T*S    EENTRO =        -0.00000000
  eigenvalues    EBANDS =    -11449.21385015
  atomic energy  EATOM  =     64968.54023382
  Solvation  Ediel_sol  =         0.00000000
  ---------------------------------------------------
  free energy    TOTEN  =     -1035.89174572 eV

  energy without entropy =    -1035.89174572  energy(sigma->0) =    -1035.89174572


--------------------------------------------------------------------------------------------------------




--------------------------------------- Iteration      1(   5)  ---------------------------------------


     EDDAV:  cpu time   84.0186: real time   84.0348
       DOS:  cpu time    0.0011: real time    0.0011
    CHARGE:  cpu time    2.6438: real time    2.6437
    MIXING:  cpu time    0.0124: real time    0.0125
    --------------------------------------------
      LOOP:  cpu time   86.6759: real time   86.6921

 eigenvalue-minimisations  : 14984
 total energy-change (2. order) :-0.6619522E+01  (-0.6616219E+01)
 number of electron     864.0000006 magnetization 
 augmentation part      133.5088259 magnetization 

 Broyden mixing:
  rms(total) = 0.84491E+01    rms(broyden)= 0.84483E+01
  rms(prec ) = 0.10038E+02
  weight for this iteration     100.00

 Free energy of the ion-electron system (eV)
  ---------------------------------------------------
  alpha Z        PSCENC =      1870.29120978
  Ewald energy   TEWEN  =    -33322.70706786
  -Hartree energ DENC   =    -26817.29397611
  -exchange      EXHF   =         0.00000000
  -V(xc)+E(xc)   XCENC  =      3114.63779687
  PAW double counting   =     50594.51003143   -49994.65612350
  entropy T*S    EENTRO =        -0.00000000
  eigenvalues    EBANDS =    -11455.83337222
  atomic energy  EATOM  =     64968.54023382
  Solvation  Ediel_sol  =         0.00000000
  ---------------------------------------------------
  free energy    TOTEN  =     -1042.51126779 eV

  energy without entropy =    -1042.51126779  energy(sigma->0) =    -1042.51126779


--------------------------------------------------------------------------------------------------------




--------------------------------------- Iteration      1(   6)  ---------------------------------------


    POTLOK:  cpu time    0.2241: real time    0.2361
    SETDIJ:  cpu time    0.3780: real time    0.3780
     EDDAV:  cpu time   61.1646: real time   61.1637
       DOS:  cpu time    0.0025: real time    0.0025
    CHARGE:  cpu time    2.6452: real time    2.6451
    MIXING:  cpu time    0.0119: real time    0.0120
    --------------------------------------------
      LOOP:  cpu time   64.4263: real time   64.4374

 eigenvalue-minimisations  : 10208
 total energy-change (2. order) : 0.1667792E+03  (-0.8699476E+02)
 number of electron     864.0000006 magnetization 
 augmentation part      116.3564976 magnetization 

 Broyden mixing:
  rms(total) = 0.43135E+01    rms(broyden)= 0.43120E+01
  rms(prec ) = 0.49314E+01
  weight for this iteration     100.00

 eigenvalues of (default mixing * dielectric matrix)
  average eigenvalue GAMMA=   0.8209
  0.8209

 Free energy of the ion-electron system (eV)
  ---------------------------------------------------
  alpha Z        PSCENC =      1870.29120978
  Ewald energy   TEWEN  =    -33322.70706786
  -Hartree energ DENC   =    -28503.16779496
  -exchange      EXHF   =         0.00000000
  -V(xc)+E(xc)   XCENC  =      3217.77086286
  PAW double counting   =     62831.18741024   -62373.23631658
  entropy T*S    EENTRO =        -0.05086286
  eigenvalues    EBANDS =     -9564.35979031
  atomic energy  EATOM  =     64968.54023382
  Solvation  Ediel_sol  =         0.00000000
  ---------------------------------------------------
  free energy    TOTEN  =      -875.73211586 eV

  energy without entropy =     -875.68125300  energy(sigma->0) =     -875.70668443


--------------------------------------------------------------------------------------------------------




--------------------------------------- Iteration      1(   7)  ---------------------------------------


    POTLOK:  cpu time    0.2223: real time    0.2399
    SETDIJ:  cpu time    0.4110: real time    0.4129
     EDDAV:  cpu time   63.4644: real time   63.4631
       DOS:  cpu time    0.0024: real time    0.0024
    CHARGE:  cpu time    2.6353: real time    2.6352
    MIXING:  cpu time    0.0100: real time    0.0100
    --------------------------------------------
      LOOP:  cpu time   66.7455: real time   66.7635

 eigenvalue-minimisations  : 10696
 total energy-change (2. order) :-0.4619865E+01  (-0.1934169E+02)
 number of electron     864.0000006 magnetization 
 augmentation part      117.5430696 magnetization 

 Broyden mixing:
  rms(total) = 0.28168E+01    rms(broyden)= 0.28162E+01
  rms(prec ) = 0.33496E+01
  weight for this iteration     100.00

 eigenvalues of (default mixing * dielectric matrix)
  average eigenvalue GAMMA=   0.7842
  0.7842  0.7842

 Free energy of the ion-electron system (eV)
  ---------------------------------------------------
  alpha Z        PSCENC =      1870.29120978
  Ewald energy   TEWEN  =    -33322.70706786
  -Hartree energ DENC   =    -28456.91425375
  -exchange      EXHF   =         0.00000000
  -V(xc)+E(xc)   XCENC  =      3211.07459769
  PAW double counting   =     70423.46264189   -70006.75978503
  entropy T*S    EENTRO =        -0.00171593
  eigenvalues    EBANDS =     -9567.33784185
  atomic energy  EATOM  =     64968.54023382
  Solvation  Ediel_sol  =         0.00000000
  ---------------------------------------------------
  free energy    TOTEN  =      -880.35198123 eV

  energy without entropy =     -880.35026529  energy(sigma->0) =     -880.35112326


--------------------------------------------------------------------------------------------------------




--------------------------------------- Iteration      1(   8)  ---------------------------------------


    POTLOK:  cpu time    0.2175: real time    0.2321
    SETDIJ:  cpu time    0.3900: real time    0.3900
     EDDAV:  cpu time   69.8241: real time   69.8253
       DOS:  cpu time    0.0025: real time    0.0025
    CHARGE:  cpu time    2.6442: real time    2.6441
    MIXING:  cpu time    0.0095: real time    0.0095
    --------------------------------------------
      LOOP:  cpu time   73.0878: real time   73.1035

 eigenvalue-minimisations  : 12064
 total energy-change (2. order) : 0.1017486E+02  (-0.3485553E+01)
 number of electron     864.0000006 magnetization 
 augmentation part      117.1659522 magnetization 

 Broyden mixing:
  rms(total) = 0.21588E+01    rms(broyden)= 0.21581E+01
  rms(prec ) = 0.26809E+01
  weight for this iteration     100.00

 eigenvalues of (default mixing * dielectric matrix)
  average eigenvalue GAMMA=   0.7609
  0.8818  0.8818  0.5190

 Free energy of the ion-electron system (eV)
  ---------------------------------------------------
  alpha Z        PSCENC =      1870.29120978
  Ewald energy   TEWEN  =    -33322.70706786
  -Hartree energ DENC   =    -28499.53033659
  -exchange      EXHF   =         0.00000000
  -V(xc)+E(xc)   XCENC  =      3211.39647092
  PAW double counting   =     73849.24908350   -73456.48807824
  entropy T*S    EENTRO =        -0.01200115
  eigenvalues    EBANDS =     -9490.91663655
  atomic energy  EATOM  =     64968.54023382
  Solvation  Ediel_sol  =         0.00000000
  ---------------------------------------------------
  free energy    TOTEN  =      -870.17712236 eV

  energy without entropy =     -870.16512121  energy(sigma->0) =     -870.17112179


--------------------------------------------------------------------------------------------------------




--------------------------------------- Iteration      1(   9)  ---------------------------------------


    POTLOK:  cpu time    0.2293: real time    0.2502
    SETDIJ:  cpu time    0.3946: real time    0.3946
     EDDAV:  cpu time   64.7662: real time   64.7652
       DOS:  cpu time    0.0022: real time    0.0022
    CHARGE:  cpu time    2.6324: real time    2.6324
    MIXING:  cpu time    0.0108: real time    0.0108
    --------------------------------------------
      LOOP:  cpu time   68.0356: real time   68.0554

 eigenvalue-minimisations  : 10984
 total energy-change (2. order) :-0.1617400E+00  (-0.2555456E+01)
 number of electron     864.0000006 magnetization 
 augmentation part      117.2265355 magnetization 

 Broyden mixing:
  rms(total) = 0.18094E+01    rms(broyden)= 0.18086E+01
  rms(prec ) = 0.22157E+01
  weight for this iteration     100.00

 eigenvalues of (default mixing * dielectric matrix)
  average eigenvalue GAMMA=   0.7982
  1.4086  0.9642  0.4100  0.4100

 Free energy of the ion-electron system (eV)
  ---------------------------------------------------
  alpha Z        PSCENC =      1870.29120978
  Ewald energy   TEWEN  =    -33322.70706786
  -Hartree energ DENC   =    -28536.47573155
  -exchange      EXHF   =         0.00000000
  -V(xc)+E(xc)   XCENC  =      3212.31571422
  PAW double counting   =     76038.23075617   -75658.28090646
  entropy T*S    EENTRO =        -0.00005437
  eigenvalues    EBANDS =     -9442.25301607
  atomic energy  EATOM  =     64968.54023382
  Solvation  Ediel_sol  =         0.00000000
  ---------------------------------------------------
  free energy    TOTEN  =      -870.33886232 eV

  energy without entropy =     -870.33880794  energy(sigma->0) =     -870.33883513


--------------------------------------------------------------------------------------------------------




--------------------------------------- Iteration      1(  10)  ---------------------------------------


    POTLOK:  cpu time    0.2226: real time    0.2394
    SETDIJ:  cpu time    0.3994: real time    0.3994
     EDDAV:  cpu time   65.7069: real time   65.7101
       DOS:  cpu time    0.0015: real time    0.0015
    CHARGE:  cpu time    2.6063: real time    2.6063
    MIXING:  cpu time    0.0106: real time    0.0106
    --------------------------------------------
      LOOP:  cpu time   68.9472: real time   68.9672

 eigenvalue-minimisations  : 11168
 total energy-change (2. order) : 0.5345435E+00  (-0.1028171E+01)
 number of electron     864.0000006 magnetization 
 augmentation part      116.8438164 magnetization 

 Broyden mixing:
  rms(total) = 0.19122E+01    rms(broyden)= 0.19115E+01
  rms(prec ) = 0.25119E+01
  weight for this iteration     100.00

 eigenvalues of (default mixing * dielectric matrix)
  average eigenvalue GAMMA=   0.7670
  1.7288  0.9625  0.4705  0.3367  0.3367

 Free energy of the ion-electron system (eV)
  ---------------------------------------------------
  alpha Z        PSCENC =      1870.29120978
  Ewald energy   TEWEN  =    -33322.70706786
  -Hartree energ DENC   =    -28606.49784293
  -exchange      EXHF   =         0.00000000
  -V(xc)+E(xc)   XCENC  =      3214.86147739
  PAW double counting   =     79504.51016975   -79145.26274250
  entropy T*S    EENTRO =        -0.00000012
  eigenvalues    EBANDS =     -9353.53975615
  atomic energy  EATOM  =     64968.54023382
  Solvation  Ediel_sol  =         0.00000000
  ---------------------------------------------------
  free energy    TOTEN  =      -869.80431881 eV

  energy without entropy =     -869.80431869  energy(sigma->0) =     -869.80431875


--------------------------------------------------------------------------------------------------------




--------------------------------------- Iteration      1(  11)  ---------------------------------------


    POTLOK:  cpu time    0.2153: real time    0.2291
    SETDIJ:  cpu time    0.4004: real time    0.4004
     EDDAV:  cpu time   67.6543: real time   67.6540
       DOS:  cpu time    0.0027: real time    0.0027
    CHARGE:  cpu time    2.6455: real time    2.6454
    MIXING:  cpu time    0.0122: real time    0.0122
    --------------------------------------------
      LOOP:  cpu time   70.9306: real time   70.9440

 eigenvalue-minimisations  : 11552
 total energy-change (2. order) : 0.2488735E+01  (-0.6029936E+00)
 number of electron     864.0000006 magnetization 
 augmentation part      117.0522210 magnetization 

 Broyden mixing:
  rms(total) = 0.88230E+00    rms(broyden)= 0.88141E+00
  rms(prec ) = 0.11320E+01
  weight for this iteration     100.00

 eigenvalues of (default mixing * dielectric matrix)
  average eigenvalue GAMMA=   0.7922
  2.0191  0.9241  0.7137  0.4226  0.4226  0.2509

 Free energy of the ion-electron system (eV)
  ---------------------------------------------------
  alpha Z        PSCENC =      1870.29120978
  Ewald energy   TEWEN  =    -33322.70706786
  -Hartree energ DENC   =    -28641.02189541
  -exchange      EXHF   =         0.00000000
  -V(xc)+E(xc)   XCENC  =      3215.88297542
  PAW double counting   =     81129.82591790   -80779.83711633
  entropy T*S    EENTRO =        -0.05319178
  eigenvalues    EBANDS =     -9308.23664979
  atomic energy  EATOM  =     64968.54023382
  Solvation  Ediel_sol  =         0.00000000
  ---------------------------------------------------
  free energy    TOTEN  =      -867.31558424 eV

  energy without entropy =     -867.26239246  energy(sigma->0) =     -867.28898835


--------------------------------------------------------------------------------------------------------




--------------------------------------- Iteration      1(  12)  ---------------------------------------


    POTLOK:  cpu time    0.2290: real time    0.2451
    SETDIJ:  cpu time    0.3891: real time    0.3891
     EDDAV:  cpu time   65.5160: real time   65.5169
       DOS:  cpu time    0.0029: real time    0.0029
    CHARGE:  cpu time    2.5800: real time    2.5799
    MIXING:  cpu time    0.0120: real time    0.0120
    --------------------------------------------
      LOOP:  cpu time   68.7289: real time   68.7458

 eigenvalue-minimisations  : 11128
 total energy-change (2. order) : 0.8955248E-01  (-0.8793711E+00)
 number of electron     864.0000006 magnetization 
 augmentation part      116.8641495 magnetization 

 Broyden mixing:
  rms(total) = 0.13619E+01    rms(broyden)= 0.13616E+01
  rms(prec ) = 0.17986E+01
  weight for this iteration     100.00

 eigenvalues of (default mixing * dielectric matrix)
  average eigenvalue GAMMA=   0.7402
  2.1087  0.9566  0.5439  0.5439  0.5208  0.2537  0.2537

 Free energy of the ion-electron system (eV)
  ---------------------------------------------------
  alpha Z        PSCENC =      1870.29120978
  Ewald energy   TEWEN  =    -33322.70706786
  -Hartree energ DENC   =    -28675.81876340
  -exchange      EXHF   =         0.00000000
  -V(xc)+E(xc)   XCENC  =      3217.35769093
  PAW double counting   =     82227.40063849   -81883.62228387
  entropy T*S    EENTRO =        -0.06871951
  eigenvalues    EBANDS =     -9268.59897015
  atomic energy  EATOM  =     64968.54023382
  Solvation  Ediel_sol  =         0.00000000
  ---------------------------------------------------
  free energy    TOTEN  =      -867.22603176 eV

  energy without entropy =     -867.15731226  energy(sigma->0) =     -867.19167201


--------------------------------------------------------------------------------------------------------




--------------------------------------- Iteration      1(  13)  ---------------------------------------


    POTLOK:  cpu time    0.2247: real time    0.2374
    SETDIJ:  cpu time    0.3782: real time    0.3782
     EDDAV:  cpu time   65.5064: real time   65.5060
       DOS:  cpu time    0.0027: real time    0.0027
    CHARGE:  cpu time    2.6322: real time    2.6321
    MIXING:  cpu time    0.0109: real time    0.0109
    --------------------------------------------
      LOOP:  cpu time   68.7551: real time   68.7674

 eigenvalue-minimisations  : 11120
 total energy-change (2. order) : 0.2719235E+00  (-0.1058459E+01)
 number of electron     864.0000006 magnetization 
 augmentation part      116.9702806 magnetization 

 Broyden mixing:
  rms(total) = 0.11266E+01    rms(broyden)= 0.11259E+01
  rms(prec ) = 0.15601E+01
  weight for this iteration     100.00

 eigenvalues of (default mixing * dielectric matrix)
  average eigenvalue GAMMA=   0.6591
  2.1154  0.9516  0.5382  0.5382  0.5484  0.2564  0.2564  0.0684

 Free energy of the ion-electron system (eV)
  ---------------------------------------------------
  alpha Z        PSCENC =      1870.29120978
  Ewald energy   TEWEN  =    -33322.70706786
  -Hartree energ DENC   =    -28685.20409923
  -exchange      EXHF   =         0.00000000
  -V(xc)+E(xc)   XCENC  =      3217.72695338
  PAW double counting   =     82557.87910655   -82216.40065448
  entropy T*S    EENTRO =        -0.00819690
  eigenvalues    EBANDS =     -9257.07159332
  atomic energy  EATOM  =     64968.54023382
  Solvation  Ediel_sol  =         0.00000000
  ---------------------------------------------------
  free energy    TOTEN  =      -866.95410825 eV

  energy without entropy =     -866.94591135  energy(sigma->0) =     -866.95000980


--------------------------------------------------------------------------------------------------------




--------------------------------------- Iteration      1(  14)  ---------------------------------------


    POTLOK:  cpu time    0.2317: real time    0.2462
    SETDIJ:  cpu time    0.4136: real time    0.4154
     EDDAV:  cpu time   61.6186: real time   61.6173
       DOS:  cpu time    0.0032: real time    0.0032
    CHARGE:  cpu time    2.6419: real time    2.6419
    MIXING:  cpu time    0.0106: real time    0.0106
    --------------------------------------------
      LOOP:  cpu time   64.9196: real time   64.9346

 eigenvalue-minimisations  : 10200
 total energy-change (2. order) : 0.3621891E+00  (-0.3259314E-01)
 number of electron     864.0000006 magnetization 
 augmentation part      116.9587447 magnetization 

 Broyden mixing:
  rms(total) = 0.69502E+00    rms(broyden)= 0.69456E+00
  rms(prec ) = 0.95191E+00
  weight for this iteration     100.00

 eigenvalues of (default mixing * dielectric matrix)
  average eigenvalue GAMMA=   0.6077
  2.1286  0.9434  0.5701  0.5454  0.5454  0.2707  0.2707  0.0974  0.0974

 Free energy of the ion-electron system (eV)
  ---------------------------------------------------
  alpha Z        PSCENC =      1870.29120978
  Ewald energy   TEWEN  =    -33322.70706786
  -Hartree energ DENC   =    -28687.38376192
  -exchange      EXHF   =         0.00000000
  -V(xc)+E(xc)   XCENC  =      3217.81056437
  PAW double counting   =     82582.09950953   -82240.75832678
  entropy T*S    EENTRO =        -0.07404848
  eigenvalues    EBANDS =     -9254.41023167
  atomic energy  EATOM  =     64968.54023382
  Solvation  Ediel_sol  =         0.00000000
  ---------------------------------------------------
  free energy    TOTEN  =      -866.59191920 eV

  energy without entropy =     -866.51787072  energy(sigma->0) =     -866.55489496


--------------------------------------------------------------------------------------------------------




--------------------------------------- Iteration      1(  15)  ---------------------------------------


    POTLOK:  cpu time    0.1760: real time    0.1899
    SETDIJ:  cpu time    0.3750: real time    0.3750
     EDDAV:  cpu time   67.9227: real time   67.9224
       DOS:  cpu time    0.0026: real time    0.0026
    CHARGE:  cpu time    2.6183: real time    2.6183
    MIXING:  cpu time    0.0105: real time    0.0105
    --------------------------------------------
      LOOP:  cpu time   71.1052: real time   71.1188

 eigenvalue-minimisations  : 11640
 total energy-change (2. order) : 0.1472859E+00  (-0.1090901E+00)
 number of electron     864.0000006 magnetization 
 augmentation part      116.9342393 magnetization 

 Broyden mixing:
  rms(total) = 0.79477E+00    rms(broyden)= 0.79459E+00
  rms(prec ) = 0.11092E+01
  weight for this iteration     100.00

 eigenvalues of (default mixing * dielectric matrix)
  average eigenvalue GAMMA=   0.6093
  2.1357  0.9517  0.6747  0.6747  0.4120  0.3515  0.3515  0.2408  0.2408  0.0596

 Free energy of the ion-electron system (eV)
  ---------------------------------------------------
  alpha Z        PSCENC =      1870.29120978
  Ewald energy   TEWEN  =    -33322.70706786
  -Hartree energ DENC   =    -28691.27221561
  -exchange      EXHF   =         0.00000000
  -V(xc)+E(xc)   XCENC  =      3217.96478315
  PAW double counting   =     82628.33229604   -82287.26454176
  entropy T*S    EENTRO =        -0.04669676
  eigenvalues    EBANDS =     -9250.28263413
  atomic energy  EATOM  =     64968.54023382
  Solvation  Ediel_sol  =         0.00000000
  ---------------------------------------------------
  free energy    TOTEN  =      -866.44463332 eV

  energy without entropy =     -866.39793656  energy(sigma->0) =     -866.42128494


--------------------------------------------------------------------------------------------------------




--------------------------------------- Iteration      1(  16)  ---------------------------------------


    POTLOK:  cpu time    0.2105: real time    0.2258
    SETDIJ:  cpu time    0.4099: real time    0.4099
     EDDAV:  cpu time   66.5984: real time   66.5991
       DOS:  cpu time    0.0027: real time    0.0027
    CHARGE:  cpu time    2.6093: real time    2.6093
    MIXING:  cpu time    0.0113: real time    0.0113
    --------------------------------------------
      LOOP:  cpu time   69.8421: real time   69.8581

 eigenvalue-minimisations  : 11336
 total energy-change (2. order) : 0.2459241E+00  (-0.4600921E-01)
 number of electron     864.0000006 magnetization 
 augmentation part      116.8863865 magnetization 

 Broyden mixing:
  rms(total) = 0.62552E+00    rms(broyden)= 0.62548E+00
  rms(prec ) = 0.88442E+00
  weight for this iteration     100.00

 eigenvalues of (default mixing * dielectric matrix)
  average eigenvalue GAMMA=   0.6354
  2.1695  0.9847  0.8174  0.8174  0.6042  0.3956  0.3956  0.2713  0.2366  0.2366
  0.0604

 Free energy of the ion-electron system (eV)
  ---------------------------------------------------
  alpha Z        PSCENC =      1870.29120978
  Ewald energy   TEWEN  =    -33322.70706786
  -Hartree energ DENC   =    -28699.21849479
  -exchange      EXHF   =         0.00000000
  -V(xc)+E(xc)   XCENC  =      3218.25458537
  PAW double counting   =     82666.67454583   -82325.96061637
  entropy T*S    EENTRO =        -0.06339415
  eigenvalues    EBANDS =     -9242.00971086
  atomic energy  EATOM  =     64968.54023382
  Solvation  Ediel_sol  =         0.00000000
  ---------------------------------------------------
  free energy    TOTEN  =      -866.19870923 eV

  energy without entropy =     -866.13531508  energy(sigma->0) =     -866.16701215


--------------------------------------------------------------------------------------------------------




--------------------------------------- Iteration      1(  17)  ---------------------------------------


    POTLOK:  cpu time    0.2161: real time    0.2306
    SETDIJ:  cpu time    0.3766: real time    0.3766
     EDDAV:  cpu time   65.4016: real time   65.4016
       DOS:  cpu time    0.0023: real time    0.0023
    CHARGE:  cpu time    2.6158: real time    2.6158
    MIXING:  cpu time    0.0111: real time    0.0111
    --------------------------------------------
      LOOP:  cpu time   68.6235: real time   68.6381

 eigenvalue-minimisations  : 11080
 total energy-change (2. order) : 0.1220782E+00  (-0.7861881E-01)
 number of electron     864.0000006 magnetization 
 augmentation part      116.7127602 magnetization 

 Broyden mixing:
  rms(total) = 0.61346E+00    rms(broyden)= 0.61297E+00
  rms(prec ) = 0.79063E+00
  weight for this iteration     100.00

 eigenvalues of (default mixing * dielectric matrix)
  average eigenvalue GAMMA=   0.6170
  2.2051  1.1171  0.8604  0.8604  0.5754  0.4033  0.4033  0.2858  0.2464  0.2464
  0.1403  0.0605

 Free energy of the ion-electron system (eV)
  ---------------------------------------------------
  alpha Z        PSCENC =      1870.29120978
  Ewald energy   TEWEN  =    -33322.70706786
  -Hartree energ DENC   =    -28708.78461603
  -exchange      EXHF   =         0.00000000
  -V(xc)+E(xc)   XCENC  =      3218.55596087
  PAW double counting   =     82719.88152048   -82379.46897458
  entropy T*S    EENTRO =        -0.07808551
  eigenvalues    EBANDS =     -9232.30681198
  atomic energy  EATOM  =     64968.54023382
  Solvation  Ediel_sol  =         0.00000000
  ---------------------------------------------------
  free energy    TOTEN  =      -866.07663100 eV

  energy without entropy =     -865.99854550  energy(sigma->0) =     -866.03758825


--------------------------------------------------------------------------------------------------------




--------------------------------------- Iteration      1(  18)  ---------------------------------------


    POTLOK:  cpu time    0.1743: real time    0.1884
    SETDIJ:  cpu time    0.3757: real time    0.3774
     EDDAV:  cpu time   65.2912: real time   65.2902
       DOS:  cpu time    0.0025: real time    0.0025
    CHARGE:  cpu time    2.6080: real time    2.6080
    MIXING:  cpu time    0.0114: real time    0.0114
    --------------------------------------------
      LOOP:  cpu time   68.4632: real time   68.4779

 eigenvalue-minimisations  : 11056
 total energy-change (2. order) : 0.8092415E-01  (-0.8040676E-01)
 number of electron     864.0000006 magnetization 
 augmentation part      116.7555728 magnetization 

 Broyden mixing:
  rms(total) = 0.34073E+00    rms(broyden)= 0.34035E+00
  rms(prec ) = 0.44302E+00
  weight for this iteration     100.00

 eigenvalues of (default mixing * dielectric matrix)
  average eigenvalue GAMMA=   0.6127
  2.2312  1.1915  0.7696  0.7696  0.6467  0.6467  0.3855  0.3855  0.2586  0.2362
  0.2362  0.1472  0.0605

 Free energy of the ion-electron system (eV)
  ---------------------------------------------------
  alpha Z        PSCENC =      1870.29120978
  Ewald energy   TEWEN  =    -33322.70706786
  -Hartree energ DENC   =    -28712.53756817
  -exchange      EXHF   =         0.00000000
  -V(xc)+E(xc)   XCENC  =      3218.68467635
  PAW double counting   =     82727.82399096   -82387.52690580
  entropy T*S    EENTRO =        -0.10100808
  eigenvalues    EBANDS =     -9228.46326785
  atomic energy  EATOM  =     64968.54023382
  Solvation  Ediel_sol  =         0.00000000
  ---------------------------------------------------
  free energy    TOTEN  =      -865.99570685 eV

  energy without entropy =     -865.89469877  energy(sigma->0) =     -865.94520281


--------------------------------------------------------------------------------------------------------




--------------------------------------- Iteration      1(  19)  ---------------------------------------


    POTLOK:  cpu time    0.2220: real time    0.2389
    SETDIJ:  cpu time    0.3764: real time    0.3764
     EDDAV:  cpu time   65.9410: real time   65.9445
       DOS:  cpu time    0.0027: real time    0.0027
    CHARGE:  cpu time    2.6107: real time    2.6107
    MIXING:  cpu time    0.0131: real time    0.0131
    --------------------------------------------
      LOOP:  cpu time   69.1660: real time   69.1863

 eigenvalue-minimisations  : 11200
 total energy-change (2. order) :-0.7469226E-01  (-0.5546623E-01)
 number of electron     864.0000006 magnetization 
 augmentation part      116.7982415 magnetization 

 Broyden mixing:
  rms(total) = 0.50677E+00    rms(broyden)= 0.50644E+00
  rms(prec ) = 0.69830E+00
  weight for this iteration     100.00

 eigenvalues of (default mixing * dielectric matrix)
  average eigenvalue GAMMA=   0.6027
  2.2830  1.2670  0.8673  0.7403  0.7403  0.5996  0.4296  0.4296  0.2557  0.2400
  0.2400  0.1427  0.1427  0.0605

 Free energy of the ion-electron system (eV)
  ---------------------------------------------------
  alpha Z        PSCENC =      1870.29120978
  Ewald energy   TEWEN  =    -33322.70706786
  -Hartree energ DENC   =    -28715.12655626
[...]
   0.561E+02 0.304E+02 -.968E+02   -.745E+02 -.101E+02 0.120E+03   0.187E+02 -.216E+02 -.191E+02   -.161E-02 0.114E-02 -.725E-03
   0.379E+01 -.104E+03 -.976E+02   -.205E+02 0.102E+03 0.119E+03   0.153E+02 0.175E+01 -.222E+02   -.507E-02 0.679E-02 0.285E-02
   -.663E+02 -.228E+02 0.131E+03   0.621E+02 0.489E+02 -.143E+03   0.321E+01 -.235E+02 0.121E+02   -.184E-02 0.433E-03 -.335E-02
   0.540E+01 -.109E+03 0.135E+03   -.377E+00 0.116E+03 -.142E+03   -.710E+01 -.794E+01 0.774E+01   -.280E-02 -.591E-03 0.297E-02
   -.343E+02 0.144E+03 -.100E+03   0.570E+02 -.147E+03 0.794E+02   -.213E+02 0.174E+01 0.241E+02   -.135E-01 0.192E-02 0.415E-04
   0.569E+02 0.143E+03 -.451E+01   -.622E+02 -.142E+03 0.301E+01   0.418E+01 -.341E+01 0.329E+01   0.283E-02 -.522E-02 0.164E-02
   -.744E+02 0.120E+03 -.791E+02   0.858E+02 -.112E+03 0.763E+02   -.156E+02 -.880E+01 0.629E+01   -.587E-03 -.319E-02 0.795E-03
   -.437E+02 0.150E+03 -.130E+03   0.727E+02 -.141E+03 0.145E+03   -.295E+02 -.924E+01 -.155E+02   -.570E-02 -.486E-02 0.291E-03
   -.846E+02 -.488E+02 0.135E+03   0.971E+02 0.622E+02 -.152E+03   -.153E+02 -.148E+02 0.188E+02   0.417E-02 0.202E-02 -.323E-02
   0.190E+02 0.102E+03 0.136E+03   -.325E+02 -.118E+03 -.149E+03   0.162E+02 0.159E+02 0.131E+02   -.385E-02 -.164E-02 0.194E-02
   0.862E+02 -.122E+03 0.242E+03   -.101E+03 0.141E+03 -.251E+03   0.175E+02 -.221E+02 0.789E+01   -.442E-02 0.234E-02 -.105E-04
   -.805E+02 -.145E+03 0.112E+02   0.790E+02 0.137E+03 -.197E+02   0.223E+01 0.127E+02 0.101E+02   -.742E-03 0.119E-02 -.146E-02
   0.130E+03 -.498E+02 0.139E+03   -.161E+03 0.206E+02 -.123E+03   0.252E+02 0.226E+02 -.124E+02   0.374E-02 -.436E-02 -.108E-02
   -.125E+02 -.154E+03 0.390E+02   0.290E+02 0.164E+03 -.495E+02   -.138E+02 -.900E+01 0.120E+02   -.181E-03 0.372E-02 0.752E-03
   -.704E+01 -.572E+02 -.206E+03   -.919E+01 0.454E+02 0.219E+03   0.152E+02 0.159E+02 -.943E+01   -.288E-02 -.488E-03 0.636E-03
   -.193E+03 0.154E+01 0.175E+03   0.207E+03 -.118E+02 -.197E+03   -.161E+02 0.986E+01 0.227E+02   0.275E-02 0.183E-02 0.969E-03
   0.153E+02 -.109E+03 -.643E+02   -.218E+02 0.125E+03 0.699E+02   0.841E+01 -.188E+02 -.524E+01   -.342E-02 0.324E-02 0.101E-02
   -.623E+02 -.146E+03 0.129E+03   0.680E+02 0.161E+03 -.127E+03   -.618E+01 -.184E+02 -.330E+01   -.111E-02 -.608E-03 0.484E-03
   -.393E+02 0.738E+02 -.120E+03   0.385E+02 -.788E+02 0.127E+03   0.512E+00 0.528E+01 -.470E+01   0.104E-02 0.105E-02 -.120E-02
   0.156E+02 -.358E+02 0.481E+02   -.163E+02 0.352E+02 -.717E+02   -.214E+01 0.358E+00 0.251E+02   -.288E-02 0.221E-03 -.222E-02
   -.354E+02 -.139E+03 0.232E+03   0.443E+02 0.135E+03 -.254E+03   -.841E+01 0.688E+01 0.237E+02   -.524E-02 0.393E-02 -.214E-02
   0.711E+02 -.356E+02 -.213E+02   -.656E+02 0.266E+02 -.994E+01   -.808E+01 0.570E+01 0.276E+02   -.407E-02 0.453E-02 0.239E-02
   0.107E+02 -.724E+02 -.111E+03   -.370E+02 0.553E+02 0.129E+03   0.219E+02 0.142E+02 -.154E+02   -.136E-02 -.985E-03 -.705E-03
   0.271E+02 -.162E+03 -.154E+03   -.428E+02 0.187E+03 0.175E+03   0.161E+02 -.248E+02 -.207E+02   -.231E-02 -.736E-03 0.255E-02
   0.156E+03 0.567E+02 0.870E+02   -.162E+03 -.606E+02 -.103E+03   0.606E+01 0.595E+01 0.188E+02   0.452E-04 0.218E-02 0.195E-02
   -.148E+03 -.454E+02 -.560E+02   0.156E+03 0.683E+02 0.659E+02   -.678E+01 -.229E+02 -.105E+02   0.485E-02 -.366E-02 0.129E-02
   -.897E+02 0.681E+00 0.162E+02   0.119E+03 0.615E+00 -.858E+01   -.299E+02 -.701E-01 -.733E+01   -.315E-02 0.120E-02 -.714E-03
   0.651E+02 -.217E+03 0.571E+02   -.828E+02 0.235E+03 -.451E+02   0.189E+02 -.188E+02 -.140E+02   0.513E-02 0.313E-02 0.329E-02
   -.444E+02 0.142E+03 -.535E+02   0.665E+02 -.144E+03 0.755E+02   -.225E+02 -.582E+00 -.209E+02   -.295E-02 -.666E-02 -.203E-03
   0.536E+02 -.262E+02 0.490E+02   -.433E+02 0.122E+02 -.522E+02   -.138E+02 0.158E+02 0.637E+01   -.940E-02 -.324E-03 0.517E-03
   -.115E+03 0.704E+02 0.393E+02   0.130E+03 -.665E+02 -.486E+02   -.145E+02 -.537E+01 0.647E+01   -.160E-03 -.931E-03 0.299E-03
   -.304E+02 0.370E+02 0.880E+02   0.313E+02 -.435E+02 -.101E+03   -.923E+00 0.776E+01 0.161E+02   0.141E-02 0.142E-02 -.287E-02
   0.828E+02 0.259E+03 -.130E+03   -.938E+02 -.262E+03 0.137E+03   0.162E+02 0.134E+01 -.936E+01   -.436E-02 -.223E-02 0.244E-02
   0.166E+02 -.155E+03 -.385E+02   -.420E+02 0.167E+03 0.558E+02   0.245E+02 -.140E+02 -.162E+02   0.778E-02 0.153E-02 -.324E-02
   0.195E+03 0.120E+02 -.291E+02   -.215E+03 -.115E+02 0.311E+02   0.212E+02 0.146E+01 -.344E+01   -.495E-02 -.120E-02 0.839E-03
   -.172E+03 -.397E+00 -.370E+02   0.170E+03 0.193E+02 0.357E+02   0.417E+01 -.208E+02 0.154E+01   0.123E-02 0.173E-02 0.314E-02
   -.180E+02 0.423E+02 -.145E+03   0.135E+02 -.431E+02 0.145E+03   0.626E+01 0.340E+00 0.557E+00   0.259E-02 -.116E-02 -.472E-04
   0.183E+03 0.513E+02 0.362E+02   -.198E+03 -.385E+02 -.427E+02   0.183E+02 -.159E+02 0.792E+01   -.752E-03 -.354E-02 0.252E-02
   0.174E+03 -.106E+03 -.813E+02   -.203E+03 0.989E+02 0.760E+02   0.293E+02 0.654E+01 0.350E+01   0.980E-03 0.303E-02 0.241E-02
   0.206E+03 -.141E+03 -.168E+02   -.203E+03 0.161E+03 0.177E+02   -.501E+01 -.219E+02 -.247E+01   -.192E-02 -.505E-02 0.120E-03
   0.190E+03 0.107E+03 0.173E+03   -.192E+03 -.109E+03 -.188E+03   -.562E+00 0.158E+01 0.170E+02   -.331E-02 -.160E-02 0.755E-03
   0.101E+03 0.976E+02 0.664E+02   -.115E+03 -.109E+03 -.769E+02   0.134E+02 0.949E+01 0.775E+01   0.314E-02 0.124E-02 0.968E-03
   0.141E+03 0.519E+02 -.109E+03   -.157E+03 -.649E+02 0.114E+03   0.127E+02 0.150E+02 0.161E+01   -.306E-02 0.114E-03 0.128E-02
   -.858E+02 0.954E+02 0.990E+01   0.861E+02 -.101E+03 -.132E+02   0.113E+01 0.679E+01 0.433E+01   -.179E-02 -.668E-03 -.514E-03
   -.132E+03 -.939E+02 0.917E+02   0.164E+03 0.103E+03 -.954E+02   -.325E+02 -.108E+02 0.593E+01   -.268E-02 -.537E-03 -.201E-02
   0.628E+02 0.320E+02 -.932E+02   -.553E+02 -.483E+02 0.914E+02   -.820E+01 0.195E+02 0.617E+01   0.365E-02 -.322E-02 -.225E-02
   0.107E+03 -.425E+02 0.201E+03   -.119E+03 0.519E+02 -.220E+03   0.132E+02 -.113E+02 0.189E+02   -.284E-02 0.355E-02 -.710E-03
   -.126E+03 0.488E+01 0.275E+02   0.159E+03 -.647E+00 -.230E+02   -.327E+02 -.443E+00 -.533E+01   0.368E-02 0.163E-02 -.444E-03
 -----------------------------------------------------------------------------------------------
   -.906E+02 0.225E+02 0.770E+02   0.682E-12 0.198E-12 -.178E-13   0.906E+02 -.226E+02 -.770E+02   0.254E-01 0.380E-01 0.179E-01
 
 
 POSITION                                       TOTAL-FORCE (eV/Angst)
 -----------------------------------------------------------------------------------
     13.35209      8.05511      3.14946        -0.050398     -0.344429     -2.605576
      3.80651      7.83924      2.63825        -1.366587     -1.116955     -0.258227
      5.94777      7.34736      6.78350         3.174108     -1.059463     -3.349977
     13.57045     12.17527      5.07072        -0.727326      0.785371     -0.717791
      2.93913     10.40415     11.89401        -0.709172      0.986356      2.618493
      8.30280      8.67177      2.34049        -1.726402      0.362342     -2.000830
      1.07155      1.45407      2.94457         1.024709     -0.099350     -2.913991
      2.63925     11.62436      8.79641        -1.041103     -0.735430     -0.819355
      9.43148      1.76633      1.21544        -0.185824      0.716766      1.487372
      8.25031     13.56029     12.82673        -1.201113      0.044614     -0.352383
      4.43745      0.40620      1.56989        -0.209963      0.929988      0.105931
      7.32486      4.87792     10.49464         2.394305      0.502794      0.790244
      9.30155      7.97221     12.46024         4.853390      0.766867     -1.658850
      3.71341      0.91155      8.23220        -1.801465     -0.207294      3.169217
     12.70683      2.62344      4.89106        -0.478169     -0.398493     -2.869110
      1.29538      7.43896     11.93827        -0.911907      2.427421      2.483255
      1.83342      2.79363      6.59810        -1.677574     -0.280105      0.420201
     12.88132      1.23455      9.41185         0.593270      0.282579     -0.517848
      9.77261     10.29666      9.62200        -0.761433     -0.397759      1.976029
      7.96151     11.56154      3.75545         1.920001      1.702836     -0.937564
      6.53178     12.37365      8.38489         0.814915     -4.081047     -2.256203
     10.27940      5.56548      3.99631         0.995277      0.880695      0.787975
     12.55812      7.66029      6.30035        -0.746722     -0.320387     -0.210525
      3.37994      6.39162      8.63930         0.687122     -0.291797      0.235984
      3.93292      3.27690     11.96003         1.139757     -1.488894      1.491530
      4.42720     11.82755      5.12231        -2.234169      1.217335      0.416133
     11.61624      5.23457     11.26003         1.527476     -0.568608     -1.534265
      0.84650     13.18267     13.42747        -1.667082      2.801327      1.292943
      0.12948      6.25332      8.99980         0.658237      0.169116     -0.587920
     12.75833     11.10414      8.39616        -4.543189     -0.823172      0.589775
      6.00749      9.13271     13.65435        -2.572893     -0.254974     -1.445787
      2.65576      4.32235      4.04697         1.371268      3.907571     -1.596922
      5.18966      9.20245      9.54899         1.750715      0.046348      1.602767
      2.27480      4.96802     11.60289        -2.429113     -1.846791     -3.047650
     12.18386     13.25843      1.70115         1.136529     -0.657969     -3.229731
      1.46885      9.70981      4.30925        -1.324110     -1.579101      1.733189
      8.07777     10.89232      0.24421        -3.555399     -1.095795     -2.866211
      8.91230      8.46728      5.18403        -3.116098     -3.177076      2.968326
      4.63443      1.74191      5.46878         0.353969     -3.272728     -4.850874
      0.74754      4.43630      1.91610         9.294518      9.176825     -3.335556
      4.93926     11.32481      1.69319         0.351372     -0.134519     -8.418460
      6.15030      2.10123     13.51856         1.124534     -3.165013      0.492299
      7.59923      6.67699      0.35104        -4.316291     -3.189053     -2.143550
     12.43042      4.00965      7.68283        -1.175843      0.292522     -2.182827
      0.00640      9.74506      0.22700        -2.267959     -1.326239      0.410601
     11.94742      8.62182      9.56733        -3.279147     -2.088944     -1.964617
      9.43696      4.98786      0.53796         1.639656      3.979857     -2.505271
      9.80790     11.02951      6.83777         4.152305      2.604112      4.475957
     10.19002      0.94507      3.87917        -0.726605      2.607534      2.125033
     13.41952     11.70396     10.86630        -0.969540      0.729052      2.552607
     10.20827      2.93730      9.81448         2.879152      1.621601     -1.213707
      5.51108      3.75559      7.68540         4.238288      2.124160     -3.085092
      7.16468      1.64440      8.45319         6.136583      0.904667     -5.026771
     11.16286     10.52791      1.61322         1.989707     -1.757320     -4.135929
     11.93470     12.18907      9.73945         2.706050     -3.283263      0.005340
      8.63504      6.98407      6.27930         1.503728      2.820521     -2.084645
      0.20857      9.83133     12.24956        -0.504255      0.119588     -0.489823
     10.86969      8.58755     10.82742         0.943746      0.601921     -2.218227
      1.67594      8.91739      2.81556         1.578730      1.874219      1.146246
      9.01258      2.08290      9.28389        -4.475451     -2.135751     -0.421904
      4.79570      8.31640     12.92035         1.542285      0.753855     -0.788644
      0.02990      6.51909     10.57043         2.025735     -1.584852      3.049173
      4.05727      9.06795     10.75507         0.598466      0.342070     -3.747482
      1.24217     11.29025     10.63479         3.805450      0.458184      0.126291
     12.67825     12.51157      3.01920        -0.086116      1.172443     -0.273873
      9.90129      4.49512     10.15493        -2.317134      0.247782      0.102751
     13.11164      9.95837      4.51584         3.456697     -1.174021      0.535843
      9.03007     11.62544      8.10980        -1.534402     -0.468824     -1.444032
      2.91252      6.05310     12.42052         0.122575      3.686863      4.158411
      7.72507      1.13997      6.92421        -1.911923      0.098217      3.041832
     11.54328     11.86733      0.73611        -0.628665      3.479931      1.197535
      1.98783      8.44160      5.34695        -0.770664      1.641994     -1.129237
      4.64427      0.53877      6.53837         0.271221      0.244830     -0.431098
     11.43916      2.38553     10.65935         0.001109     -1.346508      3.563950
      0.49007     11.71367      8.53920         0.544801      1.290822     -3.346006
      0.80097     11.61823      0.14894         1.225492     -1.430918      1.410487
      3.71456      3.01014      4.88895        -0.561632      0.551759      0.372290
     11.51696      2.96692      8.58343        -0.995973      0.994823     -2.439931
     13.56169      4.54281      8.90614        -0.590631      2.067109     -1.641377
      0.19786      8.03002      0.31455         0.639403      3.183284     -0.015961
     11.47750      1.04966      1.74330        -2.424411     -0.850735      1.652135
      7.65466      4.87638      0.38426         2.265555      1.441537      0.478534
     10.20159      0.57502      5.42470         1.430905     -1.730958      0.592568
     12.71886      9.92984      1.87137         0.862369     -0.266431     -1.501217
      1.02666      5.95957      1.34650        -1.277123     -3.722840      1.101858
      6.76998      0.28735      0.95931        -0.512474      3.833987     -2.832483
     13.29961      0.47832      0.36261        -0.638516     -2.245057      2.853839
      4.34266     12.11596      2.83299         0.264607     -1.277769      4.591010
      9.94681     10.49956      2.63201        -1.373881      0.691653     -0.361252
      5.26761      5.21817      7.25992        -0.978251      2.631124      0.027775
      8.41464      2.17030     12.98178        -2.077322     -0.415368      0.205220
      9.54107      8.25864      3.72497         1.269255     -1.604672      3.493708
     11.87109      7.23950      4.23863        -1.117647     -2.263538      1.790883
     10.63891      5.57571     12.93965        -4.181697     -1.222831      3.459039
      9.04185      6.89542      1.02666        -0.518148     -0.008685     -0.206923
      1.43874      6.89308      8.11295        -2.775996     -1.426393      1.501518
      5.01743      1.54188     12.36775         2.703456     -0.091272      0.026942
      6.34668     10.89417     13.32438         2.320205     -2.967992     -1.039465
      4.39030      0.30046      4.11210         0.736247      3.881754      1.566363
     13.56086      3.45989      2.47684        -6.544620     -6.629995      3.616462
     11.39935     11.42934      6.98193         2.719797      0.369102      1.572602
      6.22071      0.45941      9.02226        -1.018332      4.125514      2.891495
      2.45376      3.75973      2.48291        -1.753402     -0.444325      0.308727
      7.23595     11.78224      1.64736         2.000104     -2.758235      0.381838
      2.00596      0.98145      0.29792        -0.483897     -3.415059     -1.113064
      0.41585      0.79861      4.66730        -0.234267      0.217809      1.614196
      5.18565      8.59626      8.07336        -2.903808     -0.243053      1.526264
      8.73498     11.11959     12.39647         0.499276      3.172997      1.238646
      9.58612     10.23728      5.58536        -2.590118     -3.254242     -3.672503
      4.48446      2.90489      8.30188        -4.389987     -2.914180      2.678904
      5.32633      3.19381      0.64495         0.419946      0.093422     -0.271792
     11.09942      8.95184      7.93022        -0.167573      2.108687      2.826361
      1.87176     11.17872      4.86714         1.454219      0.025581     -0.565818
      6.74723      9.40374      9.88221        -0.428597      1.227390      0.269412
     13.28827     12.89828     12.02086         1.251218     -0.202973     -2.047557
     10.27596      4.85633      1.84355        -0.395863     -2.153801      1.185744
      8.48511      9.22860      0.14133        -3.481234      1.772703      3.159186
      3.57538      5.06981     10.52752         0.658788     -1.491678     -2.827952
     11.12755      9.44453     13.62407         0.011520      1.242345      2.796392
      5.97947      7.65567      1.37735         5.254150     -1.261660     -2.054170
      1.45185      4.50676      5.04718        -0.957200     -1.980325      1.153360
      7.21823      8.69191      5.23352         0.602692      1.954071     -1.406847
      3.00779      6.00318      3.75225         1.754655     -1.884592      0.199014
      1.33217      1.30837      8.32086         1.755725     -0.460973      0.441990
     11.50178      5.36907      6.81274         3.275028     -3.016656      1.408470
      8.74343      0.43653      3.33575         1.067695     -0.183681     -1.791509
     10.76165      2.55430      4.01094        -1.788529     -1.327692     -1.510758
      7.77714      6.61757     12.12303        -2.135723     -0.531673      2.279139
     12.43016      7.22617      8.96748        -0.048918     -2.282641     -2.725688
      5.06236      9.76830      1.11643        -3.031946      1.998310      6.330842
      4.19078     11.32959      7.37257         1.389133      1.245098      1.034266
      7.08357      3.49460      8.04503        -0.893668     -1.558195      2.290907
     13.30633      2.79939      6.73178        -0.742035      3.197512      4.382961
      4.13300     12.24375      0.48214         1.065015     -1.944445      0.035307
     13.24678      9.54278      9.45897        -0.183583      3.785992     -0.859277
 -----------------------------------------------------------------------------------
    total drift:                               -0.007050     -0.026837      0.002213


--------------------------------------------------------------------------------------------------------



  FREE ENERGIE OF THE ION-ELECTRON SYSTEM (eV)
  ---------------------------------------------------
  free  energy   TOTEN  =      -865.97174098 eV

  energy  without entropy=     -865.86555739  energy(sigma->0) =     -865.91864918
 


--------------------------------------------------------------------------------------------------------


    POTLOK:  cpu time    0.5500: real time    0.5500


--------------------------------------------------------------------------------------------------------


     LOOP+:  cpu time 2543.5817: real time 2544.1660
    4ORBIT:  cpu time    0.0000: real time    0.0000

 total amount of memory used by VASP MPI-rank0   221584. kBytes
=======================================================================

   base      :      30000. kBytes
   nonlr-proj:      21973. kBytes
   fftplans  :      36392. kBytes
   grid      :      20695. kBytes
   one-center:        171. kBytes
   wavefun   :     112353. kBytes
 
  
  
 General timing and accounting informations for this job:
 ========================================================
  
                  Total CPU time used (sec):     2578.665
                            User time (sec):     2571.189
                          System time (sec):        7.476
                         Elapsed time (sec):     2579.424
  
                   Maximum memory used (kb):      380532.
                   Average memory used (kb):           0.
  
                          Minor page faults:       340172
                          Major page faults:            0
                 Voluntary context switches:         3478
