 vasp.5.4.4.18Apr17-6-g9f103f2a35 (build Mar 16 2023 09:39:13) complex          
  
 executed on             LinuxIFC date 2024.04.30  10:13:59
 running on   48 total cores
 distrk:  each k-point on   48 cores,    1 groups
 distr:  one band on NCORES_PER_BAND=  12 cores,    4 groups


--------------------------------------------------------------------------------------------------------


 INCAR:
 POTCAR:    PAW_PBE Ca_sv 06Sep2000               
 POTCAR:    PAW_PBE Si 05Jan2001                  
 POTCAR:    PAW_PBE O 08Apr2002                   
 POTCAR:    PAW_PBE Ca_sv 06Sep2000               
   SHA256 =  a47365830e737f14e0e6c5cf1ed81b94e081eecf0a33df105380881bc9da05d5 Ca
   COPYR  = (c) Copyright 06Sep2000 Georg Kresse                                
   COPYR  = This file is part of the software VASP. Any use, copying, and all ot
   COPYR  = If you do not have a valid VASP license, you may not use, copy or di
   VRHFIN =Ca: 3s3p4s                                                           
   LEXCH  = PE                                                                  
   EATOM  =  1006.0909 eV,   73.9456 Ry                                         
                                                                                
   TITEL  = PAW_PBE Ca_sv 06Sep2000                                             
   LULTRA =        F    use ultrasoft PP ?                                      
   IUNSCR =        1    unscreen: 0-lin 1-nonlin 2-no                           
   RPACOR =    2.000    partial core radius                                     
   POMASS =   40.078; ZVAL   =   10.000    mass and valenz                      
   RCORE  =    2.300    outmost cutoff radius                                   
   RWIGS  =    2.500; RWIGS  =    1.323    wigner-seitz radius (au A)           
   ENMAX  =  266.622; ENMIN  =  199.967 eV                                      
   RCLOC  =    1.808    cutoff for local pot                                    
   LCOR   =        T    correct aug charges                                     
   LPAW   =        T    paw PP                                                  
   EAUG   =  420.852                                                            
   RMAX   =    2.359    core radius for proj-oper                               
   RAUG   =    1.300    factor for augmentation sphere                          
   RDEP   =    2.392    radius for radial grids                                 
   RDEPT  =    1.987    core radius for aug-charge                              
                                                                                
   Atomic configuration                                                         
    7 entries                                                                   
     n  l   j            E        occ.                                          
     1  0  0.50     -3949.1705   2.0000                                         
     2  0  0.50      -414.3434   2.0000                                         
     2  1  1.50      -334.7047   6.0000                                         
     3  0  0.50       -47.0896   2.0000                                         
     4  0  0.50        -3.7663   2.0000                                         
     3  1  1.50       -28.0061   6.0000                                         
     3  2  1.50        -4.0817   0.0000                                         
   Description                                                                  
     l       E           TYP  RCUT    TYP  RCUT                                 
     0    -47.0896403     23  2.300                                             
     0     -3.7663320     23  2.300                                             
     1    -28.0060855     23  2.300                                             
     1      6.8029130     23  2.300                                             
     2     -4.0817478     23  2.300                                             
     2      0.4464412     23  2.300                                             
  local pseudopotential read in
  partial core-charges read in
  partial kinetic energy density read in
  atomic valenz-charges read in
  non local Contribution for L=           0  read in
    real space projection operators read in
  non local Contribution for L=           0  read in
    real space projection operators read in
  non local Contribution for L=           1  read in
    real space projection operators read in
  non local Contribution for L=           1  read in
    real space projection operators read in
  non local Contribution for L=           2  read in
    real space projection operators read in
  non local Contribution for L=           2  read in
    real space projection operators read in
    PAW grid and wavefunctions read in
 
   number of l-projection  operators is LMAX  =           6
   number of lm-projection operators is LMMAX =          18
 
 POTCAR:    PAW_PBE Si 05Jan2001                  
   SHA256 =  79d9987ad8750f624c4d6acb2a16d13abf6a777132adc04dc6c8399be72b42bb Si
   COPYR  = (c) Copyright 05Jan2001 Georg Kresse                                
   COPYR  = This file is part of the software VASP. Any use, copying, and all ot
   COPYR  = If you do not have a valid VASP license, you may not use, copy or di
   VRHFIN =Si: s2p2                                                             
   LEXCH  = PE                                                                  
   EATOM  =   103.0669 eV,    7.5752 Ry                                         
                                                                                
   TITEL  = PAW_PBE Si 05Jan2001                                                
   LULTRA =        F    use ultrasoft PP ?                                      
   IUNSCR =        1    unscreen: 0-lin 1-nonlin 2-no                           
   RPACOR =    1.500    partial core radius                                     
   POMASS =   28.085; ZVAL   =    4.000    mass and valenz                      
   RCORE  =    1.900    outmost cutoff radius                                   
   RWIGS  =    2.480; RWIGS  =    1.312    wigner-seitz radius (au A)           
   ENMAX  =  245.345; ENMIN  =  184.009 eV                                      
   ICORE  =        2    local potential                                         
   LCOR   =        T    correct aug charges                                     
   LPAW   =        T    paw PP                                                  
   EAUG   =  322.069                                                            
   DEXC   =    0.000                                                            
   RMAX   =    1.950    core radius for proj-oper                               
   RAUG   =    1.300    factor for augmentation sphere                          
   RDEP   =    1.993    radius for radial grids                                 
   RDEPT  =    1.837    core radius for aug-charge                              
                                                                                
   Atomic configuration                                                         
    6 entries                                                                   
     n  l   j            E        occ.                                          
     1  0  0.50     -1785.8828   2.0000                                         
     2  0  0.50      -139.4969   2.0000                                         
     2  1  1.50       -95.5546   6.0000                                         
     3  0  0.50       -10.8127   2.0000                                         
     3  1  0.50        -4.0811   2.0000                                         
     3  2  1.50        -4.0817   0.0000                                         
   Description                                                                  
     l       E           TYP  RCUT    TYP  RCUT                                 
     0    -10.8127223     23  1.900                                             
     0     -7.6451159     23  1.900                                             
     1     -4.0811372     23  1.900                                             
     1      2.4879257     23  1.900                                             
     2     -4.0817478      7  1.900                                             
  local pseudopotential read in
  partial core-charges read in
  partial kinetic energy density read in
  atomic valenz-charges read in
  non local Contribution for L=           0  read in
    real space projection operators read in
  non local Contribution for L=           0  read in
    real space projection operators read in
  non local Contribution for L=           1  read in
    real space projection operators read in
  non local Contribution for L=           1  read in
    real space projection operators read in
    PAW grid and wavefunctions read in
 
   number of l-projection  operators is LMAX  =           4
   number of lm-projection operators is LMMAX =           8
 
 POTCAR:    PAW_PBE O 08Apr2002                   
   SHA256 =  818f92134a0a090dccd8ba1447fa70422a3b330e708bb4f08108d8ae51209ddf O/
   COPYR  = (c) Copyright 08Apr2002 Georg Kresse                                
   COPYR  = This file is part of the software VASP. Any use, copying, and all ot
   COPYR  = If you do not have a valid VASP license, you may not use, copy or di
   VRHFIN =O: s2p4                                                              
   LEXCH  = PE                                                                  
   EATOM  =   432.3788 eV,   31.7789 Ry                                         
                                                                                
   TITEL  = PAW_PBE O 08Apr2002                                                 
   LULTRA =        F    use ultrasoft PP ?                                      
   IUNSCR =        1    unscreen: 0-lin 1-nonlin 2-no                           
   RPACOR =    1.200    partial core radius                                     
   POMASS =   16.000; ZVAL   =    6.000    mass and valenz                      
   RCORE  =    1.520    outmost cutoff radius                                   
   RWIGS  =    1.550; RWIGS  =    0.820    wigner-seitz radius (au A)           
   ENMAX  =  400.000; ENMIN  =  300.000 eV                                      
   ICORE  =        2    local potential                                         
   LCOR   =        T    correct aug charges                                     
   LPAW   =        T    paw PP                                                  
   EAUG   =  605.392                                                            
   DEXC   =    0.000                                                            
   RMAX   =    1.553    core radius for proj-oper                               
   RAUG   =    1.300    factor for augmentation sphere                          
   RDEP   =    1.550    radius for radial grids                                 
   RDEPT  =    1.329    core radius for aug-charge                              
                                                                                
   Atomic configuration                                                         
    4 entries                                                                   
     n  l   j            E        occ.                                          
     1  0  0.50      -514.6923   2.0000                                         
     2  0  0.50       -23.9615   2.0000                                         
     2  1  0.50        -9.0305   4.0000                                         
     3  2  1.50        -9.5241   0.0000                                         
   Description                                                                  
     l       E           TYP  RCUT    TYP  RCUT                                 
     0    -23.9615318     23  1.200                                             
     0     -9.5240782     23  1.200                                             
     1     -9.0304911     23  1.520                                             
     1      8.1634956     23  1.520                                             
     2     -9.5240782      7  1.500                                             
  local pseudopotential read in
  partial core-charges read in
  partial kinetic energy density read in
  kinetic energy density of atom read in
  atomic valenz-charges read in
  non local Contribution for L=           0  read in
    real space projection operators read in
  non local Contribution for L=           0  read in
    real space projection operators read in
  non local Contribution for L=           1  read in
    real space projection operators read in
  non local Contribution for L=           1  read in
    real space projection operators read in
    PAW grid and wavefunctions read in
 
   number of l-projection  operators is LMAX  =           4
   number of lm-projection operators is LMMAX =           8
 
 Optimization of the real space projectors (new method)

 maximal supplied QI-value         = 16.25
 optimisation between [QCUT,QGAM] = [ 12.51, 25.03] = [ 43.85,175.40] Ry 
 Optimized for a Real-space Cutoff    1.47 Angstroem

   l    n(q)    QCUT    max X(q) W(low)/X(q) W(high)/X(q)  e(spline) 
   0     11    12.514    11.817    0.25E-04    0.32E-05    0.87E-07
   0     11    12.514     8.461    0.39E-04    0.59E-05    0.18E-06
   1     11    12.514     3.957    0.97E-05    0.57E-05    0.28E-07
   1     11    12.514     4.314    0.42E-04    0.14E-04    0.23E-06
   2     10    12.514    14.565    0.79E-04    0.50E-03    0.16E-05
   2     10    12.514    14.552    0.75E-04    0.48E-03    0.15E-05
 Optimization of the real space projectors (new method)

 maximal supplied QI-value         = 19.84
 optimisation between [QCUT,QGAM] = [ 12.50, 25.00] = [ 43.76,175.03] Ry 
 Optimized for a Real-space Cutoff    1.16 Angstroem

   l    n(q)    QCUT    max X(q) W(low)/X(q) W(high)/X(q)  e(spline) 
   0      9    12.501   159.560    0.10E-03    0.83E-04    0.71E-07
   0      9    12.501   115.863    0.99E-04    0.81E-04    0.70E-07
   1      8    12.501    88.339    0.20E-03    0.25E-03    0.76E-07
   1      8    12.501    48.592    0.20E-03    0.24E-03    0.75E-07
 Optimization of the real space projectors (new method)

 maximal supplied QI-value         = 24.76
 optimisation between [QCUT,QGAM] = [ 12.38, 25.00] = [ 42.90,175.06] Ry 
 Optimized for a Real-space Cutoff    1.16 Angstroem

   l    n(q)    QCUT    max X(q) W(low)/X(q) W(high)/X(q)  e(spline) 
   0      9    12.378    20.381    0.16E-03    0.67E-05    0.31E-06
   0      9    12.378    15.268    0.17E-03    0.81E-05    0.33E-06
   1      8    12.378     5.964    0.20E-03    0.16E-03    0.30E-06
   1      8    12.378     5.382    0.18E-03    0.14E-03    0.26E-06
  PAW_PBE Ca_sv 06Sep2000               :
 energy of atom  1       EATOM=-1006.0909
 kinetic energy error for atom=    0.0012 (will be added to EATOM!!)
  PAW_PBE Si 05Jan2001                  :
 energy of atom  2       EATOM= -103.0669
 kinetic energy error for atom=    0.0003 (will be added to EATOM!!)
  PAW_PBE O 08Apr2002                   :
 energy of atom  3       EATOM= -432.3788
 kinetic energy error for atom=    0.0168 (will be added to EATOM!!)
 
 
 POSCAR: Ca Si  O                                
  positions in direct lattice
  No initial velocities read in
 exchange correlation table for  LEXCH =        8
   RHO(1)=    0.500       N(1)  =     2000
   RHO(2)=  100.500       N(2)  =     4000
 


--------------------------------------------------------------------------------------------------------


 ion  position               nearest neighbor table
   1  0.128  0.981  0.994-  83 2.17  68 2.18 126 2.30
   2  0.455  0.240  0.304- 111 2.35  89 2.36 135 2.40  45 2.89
   3  0.772  0.285  0.713-  56 2.13  36 3.13
   4  0.879  0.795  0.772- 108 2.13  78 2.14  86 2.38  82 2.55  43 3.08
   5  0.434  0.789  0.238- 131 1.96 114 2.42 121 2.56
   6  0.598  0.381  0.539- 129 2.22  94 2.38 106 2.39  56 2.52 127 2.56  38 2.83
   7  0.006  0.348  0.367- 117 2.15  73 2.37  28 3.00  30 3.03
   8  0.598  0.419  0.065-  75 1.97 111 2.18 110 2.38  59 2.40 118 2.57  37 3.00  32 3.12
   9  0.100  0.404  0.856-  64 2.08  60 2.23  97 2.35  42 3.02  39 3.06
  10  0.732  0.906  0.473-  92 2.27 130 2.29 105 2.31  81 2.33  34 2.89  52 3.10
  11  0.132  0.008  0.712-  68 2.21  55 2.29 120 2.48  42 3.08
  12  0.346  0.627  0.827- 119 2.17 132 2.21 124 2.46
  13  0.151  0.526  0.133-  60 2.24 109 2.50
  14  0.602  0.576  0.350-  96 2.38 113 2.45
  15  0.213  0.216  0.158-  89 2.05 126 2.44  67 2.50  54 3.11
  16  0.450  0.886  0.711- 133 2.16  71 2.24
  17  0.207  0.795  0.594- 112 2.22 102 2.24 124 2.32  35 3.14
  18  0.917  0.259  0.034-  70 1.96  99 2.41  41 3.06  54 3.14
  19  0.933  0.670  0.217-  95 2.21 101 2.38  76 2.45  41 3.03  28 3.08
  20  0.010  0.119  0.436- 116 2.08  55 2.54 105 2.57
  21  0.769  0.573  0.965-  59 2.06  76 2.28 110 2.55  41 3.08
  22  0.873  0.034  0.957-  84 2.09  86 2.27  43 3.04
  23  0.846  0.694  0.502-  93 2.00  92 2.40  28 3.09
  24  0.097  0.312  0.632-  85 2.07  72 2.24  73 2.36  47 2.88  42 3.09
  25  0.333  0.146  0.851- 120 2.31  87 2.44 133 2.45
  26  0.758  0.145  0.298-  61 2.18  81 2.31 135 2.31
  27  0.590  0.973  0.226- 131 2.30  61 2.52  81 2.54 121 2.56  46 2.95  45 3.12
  28  0.849  0.509  0.361- 123 1.57  93 1.61  95 1.73  96 1.82  44 2.68   7 3.00  19 3.08  23 3.09
                            41 3.13
  29  0.910  0.541  0.740-  78 1.58  97 1.67  80 1.70 134 1.82  44 2.86
  30  0.234  0.347  0.357-  57 1.56  89 1.59  73 1.80 115 1.87   7 3.03  38 3.08
  31  0.700  0.810  0.072-  88 1.53  77 1.73 121 1.75  74 1.85  43 3.10
  32  0.391  0.378  0.963-  67 1.63  75 1.66 103 1.83 132 1.84  37 3.00   8 3.12
  33  0.553  0.678  0.932- 119 1.50  74 1.68  59 1.69 125 1.71  37 2.94
  34  0.880  0.931  0.315- 107 1.52 101 1.65  81 1.69 105 1.80  10 2.89
  35  0.172  0.803  0.827- 124 1.63  82 1.64  68 1.66  79 1.70  39 2.95  17 3.14
  36  0.672  0.186  0.901-  65 1.47  91 1.53 100 1.66  69 1.76  53 2.96  51 3.04   3 3.13
  37  0.429  0.568  0.078- 125 1.57 109 1.58  75 1.69 118 1.84  33 2.94  32 3.00   8 3.00
  38  0.410  0.448  0.466-  98 1.58 115 1.70 129 1.70 113 1.71   6 2.83  30 3.08
  39  0.067  0.626  0.908-  60 1.65  63 1.79  97 1.84  79 1.95  35 2.95   9 3.06
  40  0.616  0.687  0.587-  92 1.57 127 1.61  58 1.71  49 2.72
  41  0.885  0.464  0.134-  99 1.52 110 1.61  76 1.68  19 3.03  18 3.06  21 3.08  28 3.13
  42  0.037  0.190  0.820-  72 1.65  64 1.70  84 1.71 120 1.76   9 3.02  11 3.08  24 3.09
  43  0.921  0.814  0.999-  83 1.53  86 1.64  63 1.66  77 1.94  22 3.04   4 3.08  31 3.10
  44  0.870  0.445  0.551-  56 1.58 117 1.68  93 1.69  80 1.87  28 2.68  29 2.86
  45  0.560  0.181  0.123-  61 1.63 104 1.73 111 1.74  91 1.80   2 2.89  46 2.95  27 3.12
  46  0.418  0.014  0.093- 104 1.60 131 1.66  87 1.66  90 1.75  45 2.95  27 2.95
  47  0.312  0.292  0.638- 122 1.57  85 1.69 128 1.72  98 1.92  48 2.81  24 2.88
  48  0.357  0.088  0.609- 122 1.56  62 1.61 133 1.67 112 2.39  47 2.81
  49  0.438  0.692  0.487- 102 1.56 113 1.71  58 1.72 114 1.84  40 2.72
  50  0.587  0.103  0.459- 135 1.54 130 1.56 106 1.67  62 2.17
  51  0.527  0.313  0.780- 103 1.57 100 1.59  94 1.63 128 1.82  36 3.04
  52  0.949  0.916  0.558-  55 1.60 108 1.61  66 1.71 105 1.81  10 3.10
  53  0.593  0.980  0.933-  71 1.58  90 1.60  69 1.73  88 1.81  36 2.96
  54  0.007  0.116  0.198- 126 1.56 116 1.76  70 1.86 107 1.88  15 3.11  18 3.14
  55  0.005  0.015  0.596-  52 1.60  11 2.29  20 2.54
  56  0.773  0.405  0.607-  44 1.58   3 2.13   6 2.52
  57  0.173  0.383  0.263-  30 1.56
  58  0.497  0.737  0.593-  40 1.71  49 1.72
  59  0.615  0.575  0.975-  33 1.69  21 2.06   8 2.40
  60  0.102  0.525  0.972-  39 1.65   9 2.23  13 2.24
  61  0.666  0.135  0.163-  45 1.63  26 2.18  27 2.52
  62  0.440  0.120  0.527-  48 1.61  50 2.17
  63  0.974  0.719  0.938-  43 1.66  39 1.79
  64  0.075  0.263  0.917-  42 1.70   9 2.08
  65  0.765  0.247  0.902-  36 1.47
  66  0.018  0.830  0.492-  52 1.71
  67  0.329  0.306  0.040-  32 1.63  15 2.50
  68  0.178  0.925  0.849-  35 1.66   1 2.18  11 2.21
  69  0.683  0.056  0.877-  53 1.73  36 1.76
  70  0.889  0.169  0.146-  54 1.86  18 1.96
  71  0.560  0.939  0.827-  53 1.58  16 2.24
  72  0.976  0.238  0.723-  42 1.65  24 2.24
  73  0.154  0.331  0.465-  30 1.80  24 2.36   7 2.37
  74  0.662  0.735  0.962-  33 1.68  31 1.85
  75  0.455  0.450  0.041-  32 1.66  37 1.69   8 1.97
  76  0.908  0.568  0.066-  41 1.68  21 2.28  19 2.45
  77  0.824  0.794  0.106-  31 1.73  43 1.94
  78  0.890  0.652  0.701-  29 1.58   4 2.14
  79  0.176  0.722  0.926-  35 1.70  39 1.95
  80  0.956  0.450  0.662-  29 1.70  44 1.87
  81  0.760  0.972  0.313-  34 1.69  26 2.31  10 2.33  27 2.54
  82  0.069  0.772  0.767-  35 1.64   4 2.55
  83  0.998  0.892  0.034-  43 1.53   1 2.17
  84  0.986  0.078  0.858-  42 1.71  22 2.09
  85  0.226  0.355  0.707-  47 1.69  24 2.07
  86  0.836  0.870  0.930-  43 1.64  22 2.27   4 2.38
  87  0.334  0.055  0.009-  46 1.66  25 2.44
  88  0.653  0.905  0.029-  31 1.53  53 1.81
  89  0.279  0.258  0.291-  30 1.59  15 2.05   2 2.36
  90  0.505  0.031  0.997-  53 1.60  46 1.75
  91  0.615  0.197  0.000-  36 1.53  45 1.80
  92  0.697  0.770  0.569-  40 1.57  10 2.27  23 2.40
  93  0.861  0.547  0.476-  28 1.61  44 1.69  23 2.00
  94  0.592  0.395  0.717-  51 1.63   6 2.38
  95  0.963  0.531  0.302-  28 1.73  19 2.21
  96  0.774  0.621  0.336-  28 1.82  14 2.38
  97  0.019  0.551  0.802-  29 1.67  39 1.84   9 2.35
  98  0.375  0.402  0.570-  38 1.58  47 1.92
  99  0.974  0.393  0.142-  41 1.52  18 2.41
 100  0.605  0.226  0.805-  51 1.59  36 1.66
 101  0.951  0.837  0.278-  34 1.65  19 2.38
 102  0.326  0.700  0.522-  49 1.56  17 2.24
 103  0.501  0.336  0.893-  51 1.57  32 1.83
 104  0.454  0.111  0.153-  46 1.60  45 1.73
 105  0.893  0.966  0.445-  34 1.80  52 1.81  10 2.31  20 2.57
 106  0.607  0.201  0.534-  50 1.67   6 2.39
 107  0.936  0.025  0.280-  34 1.52  54 1.88
 108  0.864  0.875  0.634-  52 1.61   4 2.13
 109  0.329  0.583  0.141-  37 1.58  13 2.50
 110  0.773  0.435  0.098-  41 1.61   8 2.38  21 2.55
 111  0.554  0.303  0.171-  45 1.74   8 2.18   2 2.35
 112  0.250  0.953  0.560-  17 2.22  48 2.39
 113  0.456  0.567  0.462-  38 1.71  49 1.71  14 2.45
 114  0.521  0.748  0.392-  49 1.84   5 2.42
 115  0.319  0.456  0.377-  38 1.70  30 1.87
 116  0.076  0.161  0.300-  54 1.76  20 2.08
 117  0.926  0.342  0.507-  44 1.68   7 2.15
 118  0.537  0.573  0.165-  37 1.84   8 2.57
 119  0.484  0.711  0.850-  33 1.50  12 2.17
 120  0.166  0.163  0.809-  42 1.76  25 2.31  11 2.48
 121  0.613  0.791  0.169-  31 1.75   5 2.56  27 2.56
 122  0.284  0.180  0.613-  48 1.56  47 1.57
 123  0.812  0.399  0.343-  28 1.57
 124  0.269  0.780  0.756-  35 1.63  17 2.32  12 2.46
 125  0.447  0.654  0.999-  37 1.57  33 1.71
 126  0.097  0.076  0.135-  54 1.56   1 2.30  15 2.44
 127  0.628  0.569  0.560-  40 1.61   6 2.56
 128  0.408  0.275  0.723-  47 1.72  51 1.82
 129  0.510  0.405  0.399-  38 1.70   6 2.22
 130  0.591  0.997  0.509-  50 1.56  10 2.29
 131  0.447  0.910  0.154-  46 1.66   5 1.96  27 2.30
 132  0.327  0.472  0.884-  32 1.84  12 2.21
 133  0.401  0.041  0.716-  48 1.67  16 2.16  25 2.45
 134  0.828  0.458  0.809-  29 1.82
 135  0.592  0.130  0.346-  50 1.54  26 2.31   2 2.40
 

IMPORTANT INFORMATION: All symmetrisations will be switched off!
NOSYMM: (Re-)initialisation of all symmetry stuff for point group C_1.

 
 

Automatic generation of k-mesh.
 generate k-points for:    2    2    2
Space group operators:
 irot       det(A)        alpha          n_x          n_y          n_z        tau_x        tau_y        tau_z
    1     1.000000     0.000001     1.000000     0.000000     0.000000     0.000000     0.000000     0.000000
 
 Subroutine IBZKPT returns following result:
 ===========================================
 
 Found      8 irreducible k-points:
 
 Following reciprocal coordinates:
            Coordinates               Weight
  0.000000  0.000000  0.000000      1.000000
  0.500000  0.000000  0.000000      1.000000
  0.000000  0.500000  0.000000      1.000000
  0.500000  0.500000  0.000000      1.000000
  0.000000  0.000000  0.500000      1.000000
  0.500000  0.000000  0.500000      1.000000
  0.000000  0.500000  0.500000      1.000000
  0.500000  0.500000  0.500000      1.000000
 
 Following cartesian coordinates:
            Coordinates               Weight
  0.000000  0.000000  0.000000      1.000000
  0.037563  0.000000  0.000000      1.000000
  0.000000  0.037563  0.000000      1.000000
  0.037563  0.037563  0.000000      1.000000
  0.000000  0.000000  0.037563      1.000000
  0.037563  0.000000  0.037563      1.000000
  0.000000  0.037563  0.037563      1.000000
  0.037563  0.037563  0.037563      1.000000
 


--------------------------------------------------------------------------------------------------------




 Dimension of arrays:
   k-points           NKPTS =      8   k-points in BZ     NKDIM =      8   number of bands    NBANDS=    520
   number of dos      NEDOS =    301   number of ions     NIONS =    135
   non local maximal  LDIM  =      6   non local SUM 2l+1 LMDIM =     18
   total plane-waves  NPLWV = ******
   max r-space proj   IRMAX =   7167   max aug-charges    IRDMAX= 204049
   dimension x,y,z NGX =   108 NGY =  108 NGZ =  108
   dimension x,y,z NGXF=   216 NGYF=  216 NGZF=  216
   support grid    NGXF=   432 NGYF=  432 NGZF=  432
   ions per type =              27  27  81
   NGX,Y,Z   is equivalent  to a cutoff of  13.49, 13.49, 13.49 a.u.
   NGXF,Y,Z  is equivalent  to a cutoff of  26.98, 26.98, 26.98 a.u.

 SYSTEM =  unknown system                          
 POSCAR =  Ca Si  O                                

 Startparameter for this run:
   NWRITE =      2    write-flag & timer
   PREC   = a         normal or accurate (medium, high low for compatibility)
   ISTART =      0    job   : 0-new  1-cont  2-samecut
   ICHARG =      2    charge: 1-file 2-atom 10-const
   ISPIN  =      1    spin polarized calculation?
   LNONCOLLINEAR =      F non collinear calculations
   LSORBIT =      F    spin-orbit coupling
   INIWAV =      1    electr: 0-lowe 1-rand  2-diag
   LASPH  =      F    aspherical Exc in radial PAW
   METAGGA=      F    non-selfconsistent MetaGGA calc.

 Electronic Relaxation 1
   ENCUT  =  600.0 eV  44.10 Ry    6.64 a.u.  26.59 26.59 26.59*2*pi/ulx,y,z
   ENINI  =  600.0     initial cutoff
   ENAUG  =  605.4 eV  augmentation charge cutoff
   NELM   =     60;   NELMIN=  2; NELMDL= -5     # of ELM steps 
   EDIFF  = 0.1E-05   stopping-criterion for ELM
   LREAL  =      T    real-space projection
   NLSPLINE    = F    spline interpolate recip. space projectors
   LCOMPAT=      F    compatible to vasp.4.4
   GGA_COMPAT  = T    GGA compatible to vasp.4.4-vasp.4.6
   LMAXPAW     = -100 max onsite density
   LMAXMIX     =    2 max onsite mixed and CHGCAR
   VOSKOWN=      0    Vosko Wilk Nusair interpolation
   ROPT   =   -0.00025  -0.00025  -0.00025
 Ionic relaxation
   EDIFFG = -.1E-01   stopping-criterion for IOM
   NSW    =      1    number of steps for IOM
   NBLOCK =      1;   KBLOCK =      1    inner block; outer block 
   IBRION =     -1    ionic relax: 0-MD 1-quasi-New 2-CG
   NFREE  =      0    steps in history (QN), initial steepest desc. (CG)
   ISIF   =      2    stress and relaxation
   IWAVPR =     10    prediction:  0-non 1-charg 2-wave 3-comb
   ISYM   =      0    0-nonsym 1-usesym 2-fastsym
   LCORR  =      T    Harris-Foulkes like correction to forces

   POTIM  = 1.0000    time-step for ionic-motion
   TEIN   =    0.0    initial temperature
   TEBEG  =    0.0;   TEEND  =   0.0 temperature during run
   SMASS  =  -3.00    Nose mass-parameter (am)
   estimated Nose-frequenzy (Omega)   =  0.10E-29 period in steps =****** mass=  -0.405E-26a.u.
   SCALEE = 1.0000    scale energy and forces
   NPACO  =    256;   APACO  = 16.0  distance and # of slots for P.C.
   PSTRESS=    0.0 pullay stress

  Mass of Ions in am
   POMASS =  40.08 28.09 16.00
  Ionic Valenz
   ZVAL   =  10.00  4.00  6.00
  Atomic Wigner-Seitz radii
   RWIGS  =  -1.00 -1.00 -1.00
  virtual crystal weights 
   VCA    =   1.00  1.00  1.00
   NELECT =     864.0000    total number of electrons
   NUPDOWN=      -1.0000    fix difference up-down

 DOS related values:
   EMIN   =  10.00;   EMAX   =-10.00  energy-range for DOS
   EFERMI =   0.00
   ISMEAR =     0;   SIGMA  =   0.05  broadening in eV -4-tet -1-fermi 0-gaus

 Electronic relaxation 2 (details)
   IALGO  =     38    algorithm
   LDIAG  =      T    sub-space diagonalisation (order eigenvalues)
   LSUBROT=      F    optimize rotation matrix (better conditioning)
   TURBO    =      0    0=normal 1=particle mesh
   IRESTART =      0    0=no restart 2=restart with 2 vectors
   NREBOOT  =      0    no. of reboots
   NMIN     =      0    reboot dimension
   EREF     =   0.00    reference energy to select bands
   IMIX   =      4    mixing-type and parameters
     AMIX     =   0.40;   BMIX     =  1.00
     AMIX_MAG =   1.60;   BMIX_MAG =  1.00
     AMIN     =   0.10
     WC   =   100.;   INIMIX=   1;  MIXPRE=   1;  MAXMIX= -45

 Intra band minimization:
   WEIMIN = 0.0000     energy-eigenvalue tresh-hold
   EBREAK =  0.48E-09  absolut break condition
   DEPER  =   0.30     relativ break condition  

   TIME   =   0.40     timestep for ELM

  volume/ion in A,a.u.               =      17.47       117.89
  Fermi-wavevector in a.u.,A,eV,Ry     =   1.171397  2.213620 18.669524  1.372171
  Thomas-Fermi vector in A             =   2.307841
 
 Write flags
   LWAVE        =      F    write WAVECAR
   LDOWNSAMPLE  =      F    k-point downsampling of WAVECAR
   LCHARG       =      F    write CHGCAR
   LVTOT        =      F    write LOCPOT, total local potential
   LVHAR        =      F    write LOCPOT, Hartree potential only
   LELF         =      F    write electronic localiz. function (ELF)
   LORBIT       =      0    0 simple, 1 ext, 2 COOP (PROOUT), +10 PAW based schemes


 Dipole corrections
   LMONO  =      F    monopole corrections only (constant potential shift)
   LDIPOL =      F    correct potential (dipole corrections)
   IDIPOL =      0    1-x, 2-y, 3-z, 4-all directions 
   EPSILON=  1.0000000 bulk dielectric constant

 Exchange correlation treatment:
   GGA     =    --    GGA type
   LEXCH   =     8    internal setting for exchange type
   VOSKOWN=      0    Vosko Wilk Nusair interpolation
   LHFCALC =     F    Hartree Fock is set to
   LHFONE  =     F    Hartree Fock one center treatment
   AEXX    =    0.0000 exact exchange contribution

 Linear response parameters
   LEPSILON=     F    determine dielectric tensor
   LRPA    =     F    only Hartree local field effects (RPA)
   LNABLA  =     F    use nabla operator in PAW spheres
   LVEL    =     F    velocity operator in full k-point grid
   LINTERFAST=   F  fast interpolation
   KINTER  =     0    interpolate to denser k-point grid
   CSHIFT  =0.1000    complex shift for real part using Kramers Kronig
   OMEGAMAX=  -1.0    maximum frequency
   DEG_THRESHOLD= 0.2000000E-02 threshold for treating states as degnerate
   RTIME   =   -0.100 relaxation time in fs
  (WPLASMAI=    0.000 imaginary part of plasma frequency in eV, 0.658/RTIME)
   DFIELD  = 0.0000000 0.0000000 0.0000000 field for delta impulse in time
 
 Orbital magnetization related:
   ORBITALMAG=     F  switch on orbital magnetization
   LCHIMAG   =     F  perturbation theory with respect to B field
   DQ        =  0.001000  dq finite difference perturbation B field
   LLRAUG    =     F  two centre corrections for induced B field



--------------------------------------------------------------------------------------------------------


 Static calculation
 charge density and potential will be updated during run
 non-spin polarized calculation
 Variant of blocked Davidson
 Davidson routine will perform the subspace rotation
 perform sub-space diagonalisation
    after iterative eigenvector-optimisation
 modified Broyden-mixing scheme, WC =      100.0
 initial mixing is a Kerker type mixing with AMIX =  0.4000 and BMIX =      1.0000
 Hartree-type preconditioning will be used
 using additional bands           88
 real space projection scheme for non local part
 use partial core corrections
 calculate Harris-corrections to forces 
   (improved forces if not selfconsistent)
 use gradient corrections 
 use of overlap-Matrix (Vanderbilt PP)
 Gauss-broadening in eV      SIGMA  =   0.05


--------------------------------------------------------------------------------------------------------


  energy-cutoff  :      600.00
  volume of cell :     2358.44
      direct lattice vectors                 reciprocal lattice vectors
    13.310935620  0.000000000  0.000000000     0.075126199  0.000000000  0.000000000
     0.000000000 13.310935620  0.000000000     0.000000000  0.075126199  0.000000000
     0.000000000  0.000000000 13.310935620     0.000000000  0.000000000  0.075126199

  length of vectors
    13.310935620 13.310935620 13.310935620     0.075126199  0.075126199  0.075126199


 
 k-points in units of 2pi/SCALE and weight: read from INCAR                         
   0.00000000  0.00000000  0.00000000       0.125
   0.03756310  0.00000000  0.00000000       0.125
   0.00000000  0.03756310  0.00000000       0.125
   0.03756310  0.03756310  0.00000000       0.125
   0.00000000  0.00000000  0.03756310       0.125
   0.03756310  0.00000000  0.03756310       0.125
   0.00000000  0.03756310  0.03756310       0.125
   0.03756310  0.03756310  0.03756310       0.125
 
 k-points in reciprocal lattice and weights: read from INCAR                         
   0.00000000  0.00000000  0.00000000       0.125
   0.50000000  0.00000000  0.00000000       0.125
   0.00000000  0.50000000  0.00000000       0.125
   0.50000000  0.50000000  0.00000000       0.125
   0.00000000  0.00000000  0.50000000       0.125
   0.50000000  0.00000000  0.50000000       0.125
   0.00000000  0.50000000  0.50000000       0.125
   0.50000000  0.50000000  0.50000000       0.125
 
 position of ions in fractional coordinates (direct lattice) 
   0.12817803  0.98138053  0.99420108
   0.45499397  0.23997519  0.30368895
   0.77188824  0.28537866  0.71290483
   0.87893676  0.79541214  0.77223981
   0.43370273  0.78906097  0.23831007
   0.59807145  0.38051228  0.53872610
   0.00634168  0.34764279  0.36658652
   0.59784564  0.41941489  0.06461514
   0.09966345  0.40425535  0.85583833
   0.73239157  0.90636277  0.47315975
   0.13151534  0.00783030  0.71247325
   0.34628589  0.62731109  0.82711809
   0.15062888  0.52626730  0.13285663
   0.60206140  0.57562115  0.35003807
   0.21344889  0.21636822  0.15812684
   0.45003208  0.88610845  0.71123576
   0.20706399  0.79531702  0.59374113
   0.91727896  0.25930820  0.03363939
   0.93250929  0.66994225  0.21719797
   0.01045437  0.11912259  0.43584741
   0.76909701  0.57304435  0.96517490
   0.87254536  0.03365491  0.95691754
   0.84570394  0.69409151  0.50207177
   0.09732255  0.31201486  0.63189727
   0.33297510  0.14586243  0.85053906
   0.75792086  0.14458813  0.29848512
   0.58989145  0.97332600  0.22648154
   0.84930491  0.50940592  0.36136896
   0.91034377  0.54100439  0.73988082
   0.23368029  0.34658958  0.35673908
   0.70022633  0.80973417  0.07212503
   0.39054981  0.37836905  0.96277493
   0.55344195  0.67816847  0.93228432
   0.87986443  0.93142801  0.31544644
   0.17207362  0.80261794  0.82698592
   0.67232890  0.18572445  0.90144107
   0.42888891  0.56838675  0.07830519
   0.41026062  0.44797371  0.46608675
   0.06651195  0.62587826  0.90811841
   0.61575998  0.68684167  0.58672983
   0.88485907  0.46370858  0.13354229
   0.03673711  0.18963747  0.81958307
   0.92142321  0.81415749  0.99870513
   0.87031135  0.44533078  0.55130781
   0.55986868  0.18128488  0.12308424
   0.41762221  0.01383043  0.09265037
   0.31236710  0.29211407  0.63836462
   0.35666950  0.08815992  0.60891879
   0.43775135  0.69191610  0.48717375
   0.58683238  0.10333723  0.45875805
   0.52680363  0.31293863  0.77954384
   0.94928536  0.91573422  0.55795987
   0.59336050  0.98048938  0.93298755
   0.00655964  0.11565497  0.19780864
   0.00518291  0.01543792  0.59559961
   0.77337366  0.40475427  0.60650646
   0.17291715  0.38263048  0.26325455
   0.49707608  0.73654965  0.59318281
   0.61477730  0.57549982  0.97522815
   0.10163693  0.52530761  0.97197453
   0.66552373  0.13503188  0.16322633
   0.44013511  0.12005815  0.52720024
   0.97421739  0.71854502  0.93781255
   0.07520484  0.26275143  0.91665863
   0.76466471  0.24676233  0.90212113
   0.01848072  0.82968849  0.49220133
   0.32913228  0.30566017  0.04025648
   0.17802252  0.92549121  0.84894318
   0.68265429  0.05628525  0.87658989
   0.88851675  0.16863588  0.14563405
   0.56011425  0.93875130  0.82704214
   0.97629964  0.23829968  0.72273059
   0.15401227  0.33148597  0.46486558
   0.66188139  0.73492445  0.96172989
   0.45508272  0.45006466  0.04143650
   0.90762728  0.56780259  0.06625711
   0.82446243  0.79405375  0.10588911
   0.89026815  0.65154155  0.70143646
   0.17573391  0.72164530  0.92607789
   0.95564009  0.45034706  0.66237177
   0.75974953  0.97194024  0.31316351
   0.06927955  0.77175581  0.76682356
   0.99766698  0.89247327  0.03364849
   0.98614841  0.07846148  0.85836216
   0.22612524  0.35527961  0.70743135
   0.83602929  0.86960584  0.92951052
   0.33382061  0.05463897  0.00930295
   0.65310519  0.90499406  0.02905363
   0.27937350  0.25828395  0.29110865
   0.50504920  0.03139147  0.99650129
   0.61461595  0.19717565  0.00029172
   0.69705279  0.77024364  0.56902804
   0.86123150  0.54666837  0.47581097
   0.59218233  0.39533720  0.71704451
   0.96305351  0.53053171  0.30200425
   0.77433555  0.62137022  0.33615897
   0.01886877  0.55139963  0.80210201
   0.37521996  0.40192940  0.56972342
   0.97410095  0.39290694  0.14163319
   0.60473608  0.22597544  0.80460875
   0.95088399  0.83720266  0.27790352
   0.32603243  0.69992879  0.52246782
   0.50123423  0.33561086  0.89282131
   0.45428895  0.11142627  0.15279158
   0.89317288  0.96636321  0.44534657
   0.60721922  0.20116586  0.53400810
   0.93560090  0.02473429  0.27996193
   0.86422636  0.87466134  0.63399390
   0.32923464  0.58318525  0.14106074
   0.77265481  0.43511648  0.09836004
   0.55352826  0.30290307  0.17103179
   0.25008788  0.95256124  0.56012985
   0.45644266  0.56744084  0.46171679
   0.52089438  0.74810373  0.39223106
   0.31915833  0.45605916  0.37736293
   0.07611495  0.16055857  0.30045943
   0.92618311  0.34154377  0.50693913
   0.53665288  0.57290673  0.16456919
   0.48422384  0.71108919  0.85001232
   0.16564413  0.16308353  0.80935168
   0.61276624  0.79087911  0.16887407
   0.28412511  0.18026951  0.61272711
   0.81160531  0.39893839  0.34325641
   0.26889569  0.77982060  0.75611064
   0.44667845  0.65429299  0.99937912
   0.09737537  0.07611848  0.13540982
   0.62774958  0.56914466  0.55984662
   0.40820663  0.27463224  0.72327391
   0.51019128  0.40528591  0.39920084
   0.59102044  0.99733422  0.50920059
   0.44677113  0.90957006  0.15426200
   0.32663309  0.47240378  0.88427312
   0.40146461  0.04113576  0.71606185
   0.82750133  0.45751006  0.80908387
   0.59161597  0.13003465  0.34635810
 
 position of ions in cartesian coordinates  (Angst):
   1.70616952 13.06309300 13.23374661
   6.05639541  3.19429437  4.04238403
  10.27455470  3.79865702  9.48943031
  11.69947063 10.58767973 10.27923443
   5.77298917 10.50313980  3.17212998
   7.96089059  5.06497443  7.17094839
   0.08441367  4.62745082  4.87960954
   7.95788478  5.58280461  0.86008797
   1.32661383  5.38101693 11.39200897
   9.74881707 12.06453645  6.29819897
   1.75059221  0.10422867  9.48368552
   4.60938917  8.35009754 11.00971560
   2.00501132  7.00511016  1.76844610
   8.01400049  7.66205604  4.65933421
   2.84120437  2.88006344  2.10481620
   5.99034808 11.79493247  9.46721344
   2.75621543 10.58641361  7.90324998
  12.20984115  3.45163472  0.44777175
  12.41257112  8.91755817  2.89110819
   0.13915739  1.58563319  5.80153686
  10.23740080  7.62775644 12.84738102
  11.61439508  0.44797828 12.73746774
  11.25711064  9.23900741  6.68304507
   1.29545424  4.15320973  8.41114390
   4.43221010  1.94156547 11.32147061
  10.08863571  1.92460327  3.97311622
   7.85200715 12.95587966  3.01468119
  11.30504298  6.78066942  4.81015890
  12.11752725  7.20127454  9.84850592
   3.11050324  4.61343161  4.74853099
   9.32066756 10.77831944  0.96005158
   5.19858340  5.03644606 12.81543517
   7.36683016  9.02705687 12.40957659
  11.71181883 12.39817822  4.19888725
   2.29046082 10.68359577 11.00795628
   8.94932676  2.47216619 11.99902405
   5.70891267  7.56575937  1.04231529
   5.46095265  5.96294926  6.20405074
   0.88533630  8.33102519 12.08790564
   8.19634140  9.14250524  7.80992296
  11.77830207  6.17239500  1.77757288
   0.48900524  2.52425213 10.90941743
  12.26500498 10.83719796 13.29369971
  11.58465836  5.92776937  7.33842273
   7.45237591  2.41307140  1.63836640
   5.55894233  0.18409594  1.23326313
   4.15789835  3.88831158  8.49723036
   4.74760471  1.17349102  8.10527877
   5.82688009  9.21005062  6.48473843
   7.81128799  1.37551519  6.10649892
   7.01224926  4.16550599 10.37645782
  12.63587631 12.18927929  7.42696795
   7.89818347 13.05123100 12.41893716
   0.08731489  1.53947583  2.63301813
   0.06898937  0.20549311  7.92798800
  10.29432706  5.38765806  8.07316839
   2.30168910  5.09316967  3.50416432
   6.61654769  9.80416503  7.89581818
   8.18326110  7.66044102 12.98119910
   1.35288263  6.99233579 12.93789037
   8.85874358  1.79740065  2.17269515
   5.85861013  1.59808635  7.01752842
  12.96774497  9.56450656 12.48316248
   1.00104681  3.49746739 12.20158399
  10.17840274  3.28463754 12.00807628
   0.24599565 11.04393011  6.55166025
   4.38105863  4.06862290  0.53585140
   2.36964633 12.31915390 11.30022805
   9.08676737  0.74920929 11.66823161
  11.82698931  2.24470131  1.93852549
   7.45564475 12.49565812 11.00870470
  12.99546168  3.17199167  9.62022030
   2.05004740  4.41238846  6.18779580
   8.81026053  9.78253204 12.80152463
   6.05757674  5.99078165  0.55155863
  12.08136831  7.55798368  0.88194406
  10.97436634 10.56959837  1.40948313
  11.85030205  8.67262769  9.33677554
   2.33918276  9.60577412 12.32696313
  12.72046374  5.99454078  8.81678794
  10.11297708 12.93743402  4.16849927
   0.92217564 10.27279191 10.20713909
  13.27988088 11.87965427  0.44789287
  13.12655802  1.04439569 11.42560342
   3.00993849  4.72910406  9.41657322
  11.12833205 11.57526738 12.37265472
   4.44346461  0.72729578  0.12383096
   8.69344114 12.04631766  0.38673095
   3.71872264  3.43800097  3.87492844
   6.72267745  0.41784985 13.26436453
   8.18111333  2.62459241  0.00388301
   9.27842477 10.25266344  7.57429554
  11.46379711  7.27666752  6.33348919
   7.88250087  5.26230796  9.54453330
  12.81914330  7.06187345  4.01995912
  10.30713069  8.27101901  4.47459037
   0.25116092  7.33964494 10.67672825
   4.99452878  5.35005641  7.58355173
  12.96619498  5.22995894  1.88527032
   8.04960308  3.00794449 10.71009529
  12.65715561 11.14395076  3.69915583
   4.33979674  9.31670710  6.95453548
   6.67189654  4.46729454 11.88428698
   6.04701103  1.48318784  2.03379886
  11.88896673 12.86319845  5.92797950
   8.08265592  2.67770576  7.10814748
  12.45372332  0.32923660  3.72655517
  11.50366148 11.64256081  8.43905198
   4.38242108  7.76274132  1.87765044
  10.28475838  5.79180740  1.30926415
   7.36797905  4.03192329  2.27659320
   3.32890370 12.67948129  7.45585233
   6.07567892  7.55316852  6.14588251
   6.93359158  9.95796058  5.22096236
   4.24829599  6.07057406  5.02305363
   1.01316120  2.13718475  3.99939612
  12.32836377  4.54626708  6.74783407
   7.14335199  7.62592454  2.19056990
   6.44547235  9.46526249 11.31445933
   2.20487840  2.17079439 10.77322806
   8.15649197 10.52734095  2.24787185
   3.78197100  2.39955578  8.15597118
  10.80322598  5.31024320  4.56906403
   3.57925326 10.38014179 10.06454002
   5.94570803  8.70925187 13.30267119
   1.29615733  1.01320817  1.80243135
   8.35593418  7.57584789  7.45208237
   5.43361213  3.65561208  9.62745248
   6.79112324  5.39473471  5.31373672
   7.86703505 13.27545165  6.77793630
   5.94694174 12.10722854  2.05337152
   4.34779201  6.28813634 11.77050263
   5.34386961  0.54755547  9.53145324
  11.01481693  6.08988700 10.76966326
   7.87496207  1.73088279  4.61035035
 


--------------------------------------------------------------------------------------------------------


 k-point  1 :   0.0000 0.0000 0.0000  plane waves:   78805
 k-point  2 :   0.5000 0.0000 0.0000  plane waves:   78774
 k-point  3 :   0.0000 0.5000 0.0000  plane waves:   78774
 k-point  4 :   0.5000 0.5000 0.0000  plane waves:   78724
 k-point  5 :   0.0000 0.0000 0.5000  plane waves:   78774
 k-point  6 :   0.5000 0.0000 0.5000  plane waves:   78724
 k-point  7 :   0.0000 0.5000 0.5000  plane waves:   78724
 k-point  8 :   0.5000 0.5000 0.5000  plane waves:   78792

 maximum and minimum number of plane-waves per node :      6631     6484

 maximum number of plane-waves:     78805
 maximum index in each direction: 
   IXMAX=   26   IYMAX=   26   IZMAX=   26
   IXMIN=  -27   IYMIN=  -27   IZMIN=  -27


 real space projection operators:
  total allocation   :      49139.38 KBytes
  max/ min on nodes  :       4217.16       3987.23


 parallel 3D FFT for wavefunctions:
    minimum data exchange during FFTs selected (reduces bandwidth)
 parallel 3D FFT for charge:
    minimum data exchange during FFTs selected (reduces bandwidth)


 total amount of memory used by VASP MPI-rank0   216732. kBytes
=======================================================================

   base      :      30000. kBytes
   nonlr-proj:      21369. kBytes
   fftplans  :      34308. kBytes
   grid      :      19248. kBytes
   one-center:        186. kBytes
   wavefun   :     111621. kBytes
 
     INWAV:  cpu time    0.0000: real time    0.0000
 Broyden mixing: mesh for mixing (old mesh)
   NGX = 53   NGY = 53   NGZ = 53
  (NGX  =216   NGY  =216   NGZ  =216)
  gives a total of 148877 points

 initial charge density was supplied:
 charge density of overlapping atoms calculated
 number of electron     864.0000000 magnetization 
 keeping initial charge density in first step


--------------------------------------------------------------------------------------------------------


 Maximum index for non-local projection operator          648
 Maximum index for augmentation-charges         4495 (set IRDMAX)


--------------------------------------------------------------------------------------------------------


 First call to EWALD:  gamma=   0.133
 Maximum number of real-space cells 3x 3x 3
 Maximum number of reciprocal cells 3x 3x 3

    FEWALD:  cpu time    0.0060: real time    0.0060


--------------------------------------- Iteration      1(   1)  ---------------------------------------


    POTLOK:  cpu time    0.1789: real time    0.1859
    SETDIJ:  cpu time    0.3233: real time    0.3295
     EDDAV:  cpu time   54.0611: real time   54.3376
       DOS:  cpu time    0.0023: real time    0.0025
    --------------------------------------------
      LOOP:  cpu time   54.5656: real time   54.8556

 eigenvalue-minimisations  :  8320
 total energy-change (2. order) : 0.9314476E+04  (-0.4628255E+05)
 number of electron     864.0000000 magnetization 
 augmentation part      864.0000000 magnetization 

 Free energy of the ion-electron system (eV)
  ---------------------------------------------------
  alpha Z        PSCENC =      2026.14881195
  Ewald energy   TEWEN  =    -34466.54751429
  -Hartree energ DENC   =    -26169.44193867
  -exchange      EXHF   =         0.00000000
  -V(xc)+E(xc)   XCENC  =      3133.06076827
  PAW double counting   =     50594.51003143   -49994.65612350
  entropy T*S    EENTRO =        -0.04338525
  eigenvalues    EBANDS =      -777.09451010
  atomic energy  EATOM  =     64968.54023382
  Solvation  Ediel_sol  =         0.00000000
  ---------------------------------------------------
  free energy    TOTEN  =      9314.47637367 eV

  energy without entropy =     9314.51975892  energy(sigma->0) =     9314.49806630


--------------------------------------------------------------------------------------------------------




--------------------------------------- Iteration      1(   2)  ---------------------------------------


     EDDAV:  cpu time   63.6170: real time   63.9170
       DOS:  cpu time    0.0009: real time    0.0009
    --------------------------------------------
      LOOP:  cpu time   63.6180: real time   63.9180

 eigenvalue-minimisations  : 10200
 total energy-change (2. order) :-0.9323499E+04  (-0.9049353E+04)
 number of electron     864.0000000 magnetization 
 augmentation part      864.0000000 magnetization 

 Free energy of the ion-electron system (eV)
  ---------------------------------------------------
  alpha Z        PSCENC =      2026.14881195
  Ewald energy   TEWEN  =    -34466.54751429
  -Hartree energ DENC   =    -26169.44193867
  -exchange      EXHF   =         0.00000000
  -V(xc)+E(xc)   XCENC  =      3133.06076827
  PAW double counting   =     50594.51003143   -49994.65612350
  entropy T*S    EENTRO =        -0.00000000
  eigenvalues    EBANDS =    -10100.63671329
  atomic energy  EATOM  =     64968.54023382
  Solvation  Ediel_sol  =         0.00000000
  ---------------------------------------------------
  free energy    TOTEN  =        -9.02244427 eV

  energy without entropy =       -9.02244427  energy(sigma->0) =       -9.02244427


--------------------------------------------------------------------------------------------------------




--------------------------------------- Iteration      1(   3)  ---------------------------------------


     EDDAV:  cpu time   63.6895: real time   63.9764
       DOS:  cpu time    0.0009: real time    0.0009
    --------------------------------------------
      LOOP:  cpu time   63.6904: real time   63.9774

 eigenvalue-minimisations  : 10232
 total energy-change (2. order) :-0.1029563E+04  (-0.1023601E+04)
 number of electron     864.0000000 magnetization 
 augmentation part      864.0000000 magnetization 

 Free energy of the ion-electron system (eV)
  ---------------------------------------------------
  alpha Z        PSCENC =      2026.14881195
  Ewald energy   TEWEN  =    -34466.54751429
  -Hartree energ DENC   =    -26169.44193867
  -exchange      EXHF   =         0.00000000
  -V(xc)+E(xc)   XCENC  =      3133.06076827
  PAW double counting   =     50594.51003143   -49994.65612350
  entropy T*S    EENTRO =        -0.00000000
  eigenvalues    EBANDS =    -11130.19927206
  atomic energy  EATOM  =     64968.54023382
  Solvation  Ediel_sol  =         0.00000000
  ---------------------------------------------------
  free energy    TOTEN  =     -1038.58500303 eV

  energy without entropy =    -1038.58500303  energy(sigma->0) =    -1038.58500303


--------------------------------------------------------------------------------------------------------




--------------------------------------- Iteration      1(   4)  ---------------------------------------


     EDDAV:  cpu time   67.1475: real time   67.4572
       DOS:  cpu time    0.0011: real time    0.0011
    --------------------------------------------
      LOOP:  cpu time   67.1485: real time   67.4583

 eigenvalue-minimisations  : 10872
 total energy-change (2. order) :-0.4718533E+02  (-0.4701613E+02)
 number of electron     864.0000000 magnetization 
 augmentation part      864.0000000 magnetization 

 Free energy of the ion-electron system (eV)
  ---------------------------------------------------
  alpha Z        PSCENC =      2026.14881195
  Ewald energy   TEWEN  =    -34466.54751429
  -Hartree energ DENC   =    -26169.44193867
  -exchange      EXHF   =         0.00000000
  -V(xc)+E(xc)   XCENC  =      3133.06076827
  PAW double counting   =     50594.51003143   -49994.65612350
  entropy T*S    EENTRO =        -0.00000000
  eigenvalues    EBANDS =    -11177.38460145
  atomic energy  EATOM  =     64968.54023382
  Solvation  Ediel_sol  =         0.00000000
  ---------------------------------------------------
  free energy    TOTEN  =     -1085.77033243 eV

  energy without entropy =    -1085.77033243  energy(sigma->0) =    -1085.77033243


--------------------------------------------------------------------------------------------------------




--------------------------------------- Iteration      1(   5)  ---------------------------------------


     EDDAV:  cpu time   89.7846: real time   90.1598
       DOS:  cpu time    0.0011: real time    0.0011
    CHARGE:  cpu time    2.6234: real time    2.6314
    MIXING:  cpu time    0.0106: real time    0.0110
    --------------------------------------------
      LOOP:  cpu time   92.4197: real time   92.8033

 eigenvalue-minimisations  : 15528
 total energy-change (2. order) :-0.6898781E+01  (-0.6895615E+01)
 number of electron     864.0000007 magnetization 
 augmentation part      134.0118681 magnetization 

 Broyden mixing:
  rms(total) = 0.85767E+01    rms(broyden)= 0.85759E+01
  rms(prec ) = 0.99991E+01
  weight for this iteration     100.00

 Free energy of the ion-electron system (eV)
  ---------------------------------------------------
  alpha Z        PSCENC =      2026.14881195
  Ewald energy   TEWEN  =    -34466.54751429
  -Hartree energ DENC   =    -26169.44193867
  -exchange      EXHF   =         0.00000000
  -V(xc)+E(xc)   XCENC  =      3133.06076827
  PAW double counting   =     50594.51003143   -49994.65612350
  entropy T*S    EENTRO =        -0.00000000
  eigenvalues    EBANDS =    -11184.28338220
  atomic energy  EATOM  =     64968.54023382
  Solvation  Ediel_sol  =         0.00000000
  ---------------------------------------------------
  free energy    TOTEN  =     -1092.66911318 eV

  energy without entropy =    -1092.66911318  energy(sigma->0) =    -1092.66911318


--------------------------------------------------------------------------------------------------------




--------------------------------------- Iteration      1(   6)  ---------------------------------------


    POTLOK:  cpu time    0.1647: real time    0.1757
    SETDIJ:  cpu time    0.3254: real time    0.3255
     EDDAV:  cpu time   64.4961: real time   64.7895
       DOS:  cpu time    0.0010: real time    0.0010
    CHARGE:  cpu time    2.5244: real time    2.5387
    MIXING:  cpu time    0.0109: real time    0.0110
    --------------------------------------------
      LOOP:  cpu time   67.5225: real time   67.8413

 eigenvalue-minimisations  : 10424
 total energy-change (2. order) : 0.1603952E+03  (-0.7934210E+02)
 number of electron     864.0000006 magnetization 
 augmentation part      119.5000305 magnetization 

 Broyden mixing:
  rms(total) = 0.36636E+01    rms(broyden)= 0.36622E+01
  rms(prec ) = 0.38876E+01
  weight for this iteration     100.00

 eigenvalues of (default mixing * dielectric matrix)
  average eigenvalue GAMMA=   0.9630
  0.9630

 Free energy of the ion-electron system (eV)
  ---------------------------------------------------
  alpha Z        PSCENC =      2026.14881195
  Ewald energy   TEWEN  =    -34466.54751429
  -Hartree energ DENC   =    -27750.34718815
  -exchange      EXHF   =         0.00000000
  -V(xc)+E(xc)   XCENC  =      3233.62285666
  PAW double counting   =     64828.79650699   -64373.62976260
  entropy T*S    EENTRO =        -0.00000000
  eigenvalues    EBANDS =     -9398.85788345
  atomic energy  EATOM  =     64968.54023382
  Solvation  Ediel_sol  =         0.00000000
  ---------------------------------------------------
  free energy    TOTEN  =      -932.27393907 eV

  energy without entropy =     -932.27393907  energy(sigma->0) =     -932.27393907


--------------------------------------------------------------------------------------------------------




--------------------------------------- Iteration      1(   7)  ---------------------------------------


    POTLOK:  cpu time    0.1663: real time    0.1740
    SETDIJ:  cpu time    0.3456: real time    0.3487
     EDDAV:  cpu time   68.0265: real time   68.3357
       DOS:  cpu time    0.0010: real time    0.0010
    CHARGE:  cpu time    2.5346: real time    2.5429
    MIXING:  cpu time    0.0120: real time    0.0119
    --------------------------------------------
      LOOP:  cpu time   71.0859: real time   71.4143

 eigenvalue-minimisations  : 11144
 total energy-change (2. order) :-0.9051433E+00  (-0.7625531E+01)
 number of electron     864.0000006 magnetization 
 augmentation part      119.1056692 magnetization 

 Broyden mixing:
  rms(total) = 0.18775E+01    rms(broyden)= 0.18775E+01
  rms(prec ) = 0.20589E+01
  weight for this iteration     100.00

 eigenvalues of (default mixing * dielectric matrix)
  average eigenvalue GAMMA=   1.2071
  1.2071  1.2071

 Free energy of the ion-electron system (eV)
  ---------------------------------------------------
  alpha Z        PSCENC =      2026.14881195
  Ewald energy   TEWEN  =    -34466.54751429
  -Hartree energ DENC   =    -27823.54961976
  -exchange      EXHF   =         0.00000000
  -V(xc)+E(xc)   XCENC  =      3234.50220900
  PAW double counting   =     75914.89185061   -75514.41336756
  entropy T*S    EENTRO =        -0.00000000
  eigenvalues    EBANDS =     -9272.75168611
  atomic energy  EATOM  =     64968.54023382
  Solvation  Ediel_sol  =         0.00000000
  ---------------------------------------------------
  free energy    TOTEN  =      -933.17908234 eV

  energy without entropy =     -933.17908234  energy(sigma->0) =     -933.17908234


--------------------------------------------------------------------------------------------------------




--------------------------------------- Iteration      1(   8)  ---------------------------------------


    POTLOK:  cpu time    0.1675: real time    0.1744
    SETDIJ:  cpu time    0.3205: real time    0.3254
     EDDAV:  cpu time   65.7509: real time   66.0977
       DOS:  cpu time    0.0011: real time    0.0011
    CHARGE:  cpu time    2.4595: real time    2.4668
    MIXING:  cpu time    0.0104: real time    0.0104
    --------------------------------------------
      LOOP:  cpu time   68.7099: real time   69.0758

 eigenvalue-minimisations  : 10672
 total energy-change (2. order) : 0.1880388E+01  (-0.1282006E+01)
 number of electron     864.0000006 magnetization 
 augmentation part      119.4264186 magnetization 

 Broyden mixing:
  rms(total) = 0.79652E+00    rms(broyden)= 0.79640E+00
  rms(prec ) = 0.93738E+00
  weight for this iteration     100.00

 eigenvalues of (default mixing * dielectric matrix)
  average eigenvalue GAMMA=   1.2915
  2.0521  0.9112  0.9112

 Free energy of the ion-electron system (eV)
  ---------------------------------------------------
  alpha Z        PSCENC =      2026.14881195
  Ewald energy   TEWEN  =    -34466.54751429
  -Hartree energ DENC   =    -27874.34428997
  -exchange      EXHF   =         0.00000000
  -V(xc)+E(xc)   XCENC  =      3234.20166788
  PAW double counting   =     83494.26970512   -83138.36740472
  entropy T*S    EENTRO =        -0.00000000
  eigenvalues    EBANDS =     -9175.19990463
  atomic energy  EATOM  =     64968.54023382
  Solvation  Ediel_sol  =         0.00000000
  ---------------------------------------------------
  free energy    TOTEN  =      -931.29869483 eV

  energy without entropy =     -931.29869483  energy(sigma->0) =     -931.29869483


--------------------------------------------------------------------------------------------------------




--------------------------------------- Iteration      1(   9)  ---------------------------------------


    POTLOK:  cpu time    0.1660: real time    0.1731
    SETDIJ:  cpu time    0.3197: real time    0.3254
     EDDAV:  cpu time   67.6128: real time   67.9268
       DOS:  cpu time    0.0014: real time    0.0014
    CHARGE:  cpu time    2.4411: real time    2.4572
    MIXING:  cpu time    0.0115: real time    0.0115
    --------------------------------------------
      LOOP:  cpu time   70.5525: real time   70.8955

 eigenvalue-minimisations  : 11032
 total energy-change (2. order) : 0.5557010E+00  (-0.2966872E+00)
 number of electron     864.0000006 magnetization 
 augmentation part      118.8531195 magnetization 

 Broyden mixing:
  rms(total) = 0.27027E+00    rms(broyden)= 0.27024E+00
  rms(prec ) = 0.34867E+00
  weight for this iteration     100.00

 eigenvalues of (default mixing * dielectric matrix)
  average eigenvalue GAMMA=   1.2693
  2.3333  0.9052  0.9052  0.9335

 Free energy of the ion-electron system (eV)
  ---------------------------------------------------
  alpha Z        PSCENC =      2026.14881195
  Ewald energy   TEWEN  =    -34466.54751429
  -Hartree energ DENC   =    -27987.71479025
  -exchange      EXHF   =         0.00000000
  -V(xc)+E(xc)   XCENC  =      3239.48801339
  PAW double counting   =     88809.94299078   -88479.37630586
  entropy T*S    EENTRO =        -0.00000000
  eigenvalues    EBANDS =     -9041.22443341
  atomic energy  EATOM  =     64968.54023382
  Solvation  Ediel_sol  =         0.00000000
  ---------------------------------------------------
  free energy    TOTEN  =      -930.74299386 eV

  energy without entropy =     -930.74299386  energy(sigma->0) =     -930.74299386


--------------------------------------------------------------------------------------------------------




--------------------------------------- Iteration      1(  10)  ---------------------------------------


    POTLOK:  cpu time    0.1621: real time    0.1778
    SETDIJ:  cpu time    0.3181: real time    0.3280
     EDDAV:  cpu time   72.5319: real time   73.0281
       DOS:  cpu time    0.0017: real time    0.0017
    CHARGE:  cpu time    2.4217: real time    2.4674
    MIXING:  cpu time    0.0119: real time    0.0119
    --------------------------------------------
      LOOP:  cpu time   75.4475: real time   76.0148

 eigenvalue-minimisations  : 12136
 total energy-change (2. order) :-0.5660877E-01  (-0.1266135E+00)
 number of electron     864.0000006 magnetization 
 augmentation part      118.6080896 magnetization 

 Broyden mixing:
  rms(total) = 0.14744E+00    rms(broyden)= 0.14741E+00
  rms(prec ) = 0.19679E+00
  weight for this iteration     100.00

 eigenvalues of (default mixing * dielectric matrix)
  average eigenvalue GAMMA=   1.2020
  2.4256  1.1790  0.8419  0.8419  0.7215

 Free energy of the ion-electron system (eV)
  ---------------------------------------------------
  alpha Z        PSCENC =      2026.14881195
  Ewald energy   TEWEN  =    -34466.54751429
  -Hartree energ DENC   =    -28031.77497620
  -exchange      EXHF   =         0.00000000
  -V(xc)+E(xc)   XCENC  =      3241.26916319
  PAW double counting   =     90222.65489012   -89897.00597986
  entropy T*S    EENTRO =        -0.00000291
  eigenvalues    EBANDS =     -8994.08422846
  atomic energy  EATOM  =     64968.54023382
  Solvation  Ediel_sol  =         0.00000000
  ---------------------------------------------------
  free energy    TOTEN  =      -930.79960263 eV

  energy without entropy =     -930.79959972  energy(sigma->0) =     -930.79960117


--------------------------------------------------------------------------------------------------------




--------------------------------------- Iteration      1(  11)  ---------------------------------------


    POTLOK:  cpu time    0.1671: real time    0.1773
    SETDIJ:  cpu time    0.3254: real time    0.3254
     EDDAV:  cpu time   68.7284: real time   69.1017
       DOS:  cpu time    0.0019: real time    0.0021
    CHARGE:  cpu time    2.4699: real time    2.4811
    MIXING:  cpu time    0.0114: real time    0.0115
    --------------------------------------------
      LOOP:  cpu time   71.7041: real time   72.0991

 eigenvalue-minimisations  : 11312
 total energy-change (2. order) :-0.2877740E-01  (-0.1571256E-01)
 number of electron     864.0000006 magnetization 
 augmentation part      118.6150073 magnetization 

 Broyden mixing:
  rms(total) = 0.82998E-01    rms(broyden)= 0.82995E-01
  rms(prec ) = 0.12265E+00
  weight for this iteration     100.00

 eigenvalues of (default mixing * dielectric matrix)
  average eigenvalue GAMMA=   1.2651
  2.5074  1.5961  1.0160  0.8591  0.8591  0.7527

 Free energy of the ion-electron system (eV)
  ---------------------------------------------------
  alpha Z        PSCENC =      2026.14881195
  Ewald energy   TEWEN  =    -34466.54751429
  -Hartree energ DENC   =    -28048.27630554
  -exchange      EXHF   =         0.00000000
  -V(xc)+E(xc)   XCENC  =      3241.71198419
  PAW double counting   =     90360.81876608   -90034.38669822
  entropy T*S    EENTRO =        -0.00001321
  eigenvalues    EBANDS =     -8978.83764482
  atomic energy  EATOM  =     64968.54023382
  Solvation  Ediel_sol  =         0.00000000
  ---------------------------------------------------
  free energy    TOTEN  =      -930.82838003 eV

  energy without entropy =     -930.82836683  energy(sigma->0) =     -930.82837343


--------------------------------------------------------------------------------------------------------




--------------------------------------- Iteration      1(  12)  ---------------------------------------


    POTLOK:  cpu time    0.1667: real time    0.1775
    SETDIJ:  cpu time    0.3247: real time    0.3257
     EDDAV:  cpu time   61.3496: real time   61.6911
       DOS:  cpu time    0.0021: real time    0.0021
    CHARGE:  cpu time    2.4717: real time    2.4854
    MIXING:  cpu time    0.0111: real time    0.0111
    --------------------------------------------
      LOOP:  cpu time   64.3258: real time   64.6928

 eigenvalue-minimisations  :  9776
 total energy-change (2. order) :-0.3434213E-01  (-0.7412180E-02)
 number of electron     864.0000006 magnetization 
 augmentation part      118.5769026 magnetization 

 Broyden mixing:
  rms(total) = 0.39155E-01    rms(broyden)= 0.39148E-01
  rms(prec ) = 0.65670E-01
  weight for this iteration     100.00

 eigenvalues of (default mixing * dielectric matrix)
  average eigenvalue GAMMA=   1.3447
  2.5203  2.5203  1.0229  1.0229  0.7362  0.7951  0.7951

 Free energy of the ion-electron system (eV)
  ---------------------------------------------------
  alpha Z        PSCENC =      2026.14881195
  Ewald energy   TEWEN  =    -34466.54751429
  -Hartree energ DENC   =    -28071.11246221
  -exchange      EXHF   =         0.00000000
  -V(xc)+E(xc)   XCENC  =      3242.37415730
  PAW double counting   =     90320.70437525   -89991.89214717
  entropy T*S    EENTRO =        -0.00005394
  eigenvalues    EBANDS =     -8959.07812289
  atomic energy  EATOM  =     64968.54023382
  Solvation  Ediel_sol  =         0.00000000
  ---------------------------------------------------
  free energy    TOTEN  =      -930.86272217 eV

  energy without entropy =     -930.86266822  energy(sigma->0) =     -930.86269520


--------------------------------------------------------------------------------------------------------




--------------------------------------- Iteration      1(  13)  ---------------------------------------


    POTLOK:  cpu time    0.1675: real time    0.1744
    SETDIJ:  cpu time    0.3249: real time    0.3252
     EDDAV:  cpu time   67.2173: real time   67.5803
       DOS:  cpu time    0.0021: real time    0.0021
    CHARGE:  cpu time    2.4798: real time    2.4874
    MIXING:  cpu time    0.0107: real time    0.0107
    --------------------------------------------
      LOOP:  cpu time   70.2021: real time   70.5800

 eigenvalue-minimisations  : 10976
 total energy-change (2. order) :-0.1770170E-01  (-0.3589008E-02)
 number of electron     864.0000006 magnetization 
 augmentation part      118.5930190 magnetization 

 Broyden mixing:
  rms(total) = 0.25855E-01    rms(broyden)= 0.25851E-01
  rms(prec ) = 0.38558E-01
  weight for this iteration     100.00

 eigenvalues of (default mixing * dielectric matrix)
  average eigenvalue GAMMA=   1.3307
  2.8366  2.5006  0.9148  0.9148  0.9539  0.9539  0.7856  0.7856

 Free energy of the ion-electron system (eV)
  ---------------------------------------------------
  alpha Z        PSCENC =      2026.14881195
  Ewald energy   TEWEN  =    -34466.54751429
  -Hartree energ DENC   =    -28082.80261200
  -exchange      EXHF   =         0.00000000
  -V(xc)+E(xc)   XCENC  =      3242.51899785
  PAW double counting   =     90115.69110198   -89784.76498579
  entropy T*S    EENTRO =        -0.00020286
  eigenvalues    EBANDS =     -8949.66425454
  atomic energy  EATOM  =     64968.54023382
  Solvation  Ediel_sol  =         0.00000000
  ---------------------------------------------------
  free energy    TOTEN  =      -930.88042387 eV

  energy without entropy =     -930.88022101  energy(sigma->0) =     -930.88032244


--------------------------------------------------------------------------------------------------------




--------------------------------------- Iteration      1(  14)  ---------------------------------------


    POTLOK:  cpu time    0.1687: real time    0.1789
    SETDIJ:  cpu time    0.3252: real time    0.3255
     EDDAV:  cpu time   78.9136: real time   79.7038
       DOS:  cpu time    0.0020: real time    0.0020
    CHARGE:  cpu time    2.4867: real time    2.4993
    MIXING:  cpu time    0.0125: real time    0.0125
    --------------------------------------------
      LOOP:  cpu time   81.9087: real time   82.7220

 eigenvalue-minimisations  : 11568
 total energy-change (2. order) :-0.4308903E-02  (-0.1276500E-02)
 number of electron     864.0000006 magnetization 
 augmentation part      118.5901008 magnetization 

 Broyden mixing:
  rms(total) = 0.15451E-01    rms(broyden)= 0.15448E-01
  rms(prec ) = 0.23352E-01
  weight for this iteration     100.00

 eigenvalues of (default mixing * dielectric matrix)
  average eigenvalue GAMMA=   1.3181
  2.9592  2.4912  1.0796  1.0796  0.9675  0.9675  0.7332  0.7925  0.7925

 Free energy of the ion-electron system (eV)
  ---------------------------------------------------
  alpha Z        PSCENC =      2026.14881195
  Ewald energy   TEWEN  =    -34466.54751429
  -Hartree energ DENC   =    -28088.15301090
  -exchange      EXHF   =         0.00000000
  -V(xc)+E(xc)   XCENC  =      3242.63412776
  PAW double counting   =     90083.05948902   -89751.94463310
  entropy T*S    EENTRO =        -0.00020485
  eigenvalues    EBANDS =     -8944.62203220
  atomic energy  EATOM  =     64968.54023382
  Solvation  Ediel_sol  =         0.00000000
  ---------------------------------------------------
  free energy    TOTEN  =      -930.88473277 eV

  energy without entropy =     -930.88452792  energy(sigma->0) =     -930.88463035


--------------------------------------------------------------------------------------------------------




--------------------------------------- Iteration      1(  15)  ---------------------------------------


    POTLOK:  cpu time    0.1675: real time    0.1730
    SETDIJ:  cpu time    0.3282: real time    0.3282
     EDDAV:  cpu time   60.0147: real time   60.4302
       DOS:  cpu time    0.0022: real time    0.0022
    CHARGE:  cpu time    2.4664: real time    2.4819
    MIXING:  cpu time    0.0114: real time    0.0114
    --------------------------------------------
      LOOP:  cpu time   62.9903: real time   63.4268

 eigenvalue-minimisations  :  9536
 total energy-change (2. order) :-0.2209154E-02  (-0.3038336E-03)
 number of electron     864.0000006 magnetization 
 augmentation part      118.5906140 magnetization 

 Broyden mixing:
  rms(total) = 0.89509E-02    rms(broyden)= 0.89496E-02
  rms(prec ) = 0.14411E-01
  weight for this iteration     100.00

 eigenvalues of (default mixing * dielectric matrix)
  average eigenvalue GAMMA=   1.4188
  3.4559  2.3557  2.2982  0.9154  0.9154  0.9694  0.9694  0.7342  0.7873  0.7873

 Free energy of the ion-electron system (eV)
  ---------------------------------------------------
  alpha Z        PSCENC =      2026.14881195
  Ewald energy   TEWEN  =    -34466.54751429
  -Hartree energ DENC   =    -28090.41998962
  -exchange      EXHF   =         0.00000000
  -V(xc)+E(xc)   XCENC  =      3242.64723152
  PAW double counting   =     90079.08367632   -89748.10628654
  entropy T*S    EENTRO =        -0.00030562
  eigenvalues    EBANDS =     -8942.23279947
  atomic energy  EATOM  =     64968.54023382
  Solvation  Ediel_sol  =         0.00000000
  ---------------------------------------------------
  free energy    TOTEN  =      -930.88694193 eV

  energy without entropy =     -930.88663630  energy(sigma->0) =     -930.88678911


--------------------------------------------------------------------------------------------------------




--------------------------------------- Iteration      1(  16)  ---------------------------------------


    POTLOK:  cpu time    0.1660: real time    0.1727
    SETDIJ:  cpu time    0.3190: real time    0.3253
     EDDAV:  cpu time   61.0065: real time   61.3658
       DOS:  cpu time    0.0020: real time    0.0020
    CHARGE:  cpu time    2.4638: real time    2.4767
    MIXING:  cpu time    0.0109: real time    0.0109
    --------------------------------------------
      LOOP:  cpu time   63.9683: real time   64.3534

 eigenvalue-minimisations  :  9744
 total energy-change (2. order) :-0.1325531E-02  (-0.1684497E-03)
 number of electron     864.0000006 magnetization 
 augmentation part      118.5887707 magnetization 

 Broyden mixing:
  rms(total) = 0.58436E-02    rms(broyden)= 0.58429E-02
  rms(prec ) = 0.81612E-02
  weight for this iteration     100.00

 eigenvalues of (default mixing * dielectric matrix)
  average eigenvalue GAMMA=   1.4398
  3.8862  2.4640  2.4640  0.9475  0.9475  0.9925  0.9925  0.8206  0.8206  0.7516
  0.7516

 Free energy of the ion-electron system (eV)
  ---------------------------------------------------
  alpha Z        PSCENC =      2026.14881195
  Ewald energy   TEWEN  =    -34466.54751429
  -Hartree energ DENC   =    -28093.04124533
  -exchange      EXHF   =         0.00000000
  -V(xc)+E(xc)   XCENC  =      3242.67760247
  PAW double counting   =     90089.30197294   -89758.57630406
  entropy T*S    EENTRO =        -0.00027687
  eigenvalues    EBANDS =     -8939.39154810
  atomic energy  EATOM  =     64968.54023382
  Solvation  Ediel_sol  =         0.00000000
  ---------------------------------------------------
  free energy    TOTEN  =      -930.88826746 eV

  energy without entropy =     -930.88799059  energy(sigma->0) =     -930.88812902


--------------------------------------------------------------------------------------------------------




--------------------------------------- Iteration      1(  17)  ---------------------------------------


    POTLOK:  cpu time    0.1692: real time    0.1793
    SETDIJ:  cpu time    0.3215: real time    0.3376
     EDDAV:  cpu time   70.3512: real time   70.7475
       DOS:  cpu time    0.0022: real time    0.0022
    CHARGE:  cpu time    2.4799: real time    2.4928
    MIXING:  cpu time    0.0102: real time    0.0102
    --------------------------------------------
      LOOP:  cpu time   73.3344: real time   73.7696

 eigenvalue-minimisations  : 11624
 total energy-change (2. order) :-0.2104689E-03  (-0.9203504E-04)
 number of electron     864.0000006 magnetization 
 augmentation part      118.5878535 magnetization 

 Broyden mixing:
  rms(total) = 0.37421E-02    rms(broyden)= 0.37410E-02
  rms(prec ) = 0.49785E-02
  weight for this iteration     100.00

 eigenvalues of (default mixing * dielectric matrix)
  average eigenvalue GAMMA=   1.4006
  4.1336  2.4691  2.4691  1.0058  1.0058  0.8836  0.8836  0.8625  0.8625  0.8148
  0.8061  0.6108

 Free energy of the ion-electron system (eV)
  ---------------------------------------------------
  alpha Z        PSCENC =      2026.14881195
  Ewald energy   TEWEN  =    -34466.54751429
  -Hartree energ DENC   =    -28093.61505129
  -exchange      EXHF   =         0.00000000
  -V(xc)+E(xc)   XCENC  =      3242.67831691
  PAW double counting   =     90095.12811619   -89764.47308569
  entropy T*S    EENTRO =        -0.00034507
  eigenvalues    EBANDS =     -8938.74796046
  atomic energy  EATOM  =     64968.54023382
  Solvation  Ediel_sol  =         0.00000000
  ---------------------------------------------------
  free energy    TOTEN  =      -930.88847793 eV

  energy without entropy =     -930.88813286  energy(sigma->0) =     -930.88830539


--------------------------------------------------------------------------------------------------------




--------------------------------------- Iteration      1(  18)  ---------------------------------------


    POTLOK:  cpu time    0.1674: real time    0.1747
    SETDIJ:  cpu time    0.3249: real time    0.3251
     EDDAV:  cpu time   65.1125: real time   65.4367
       DOS:  cpu time    0.0020: real time    0.0020
    CHARGE:  cpu time    2.5552: real time    2.5628
    MIXING:  cpu time    0.0123: real time    0.0123
    --------------------------------------------
      LOOP:  cpu time   68.1743: real time   68.5136

 eigenvalue-minimisations  : 10544
 total energy-change (2. order) :-0.4429776E-04  (-0.1894309E-04)
 number of electron     864.0000006 magnetization 
 augmentation part      118.5894558 magnetization 

 Broyden mixing:
  rms(total) = 0.22203E-02    rms(broyden)= 0.22196E-02
  rms(prec ) = 0.31630E-02
  weight for this iteration     100.00

 eigenvalues of (default mixing * dielectric matrix)
  average eigenvalue GAMMA=   1.4340
  4.3730  2.5475  2.4234  1.4537  0.8681  0.8681  0.9594  0.9594  1.0551  0.8161
  0.8161  0.8050  0.6975

 Free energy of the ion-electron system (eV)
  ---------------------------------------------------
  alpha Z        PSCENC =      2026.14881195
  Ewald energy   TEWEN  =    -34466.54751429
  -Hartree energ DENC   =    -28093.50533060
  -exchange      EXHF   =         0.00000000
  -V(xc)+E(xc)   XCENC  =      3242.66390629
  PAW double counting   =     90099.40290399   -89768.76047758
  entropy T*S    EENTRO =        -0.00031172
  eigenvalues    EBANDS =     -8938.83074410
  atomic energy  EATOM  =     64968.54023382
  Solvation  Ediel_sol  =         0.00000000
  ---------------------------------------------------
  free energy    TOTEN  =      -930.88852222 eV

  energy without entropy =     -930.88821051  energy(sigma->0) =     -930.88836637


--------------------------------------------------------------------------------------------------------




--------------------------------------- Iteration      1(  19)  ---------------------------------------


    POTLOK:  cpu time    0.1698: real time    0.1787
    SETDIJ:  cpu time    0.3173: real time    0.3274
     EDDAV:  cpu time   57.8873: real time   58.1544
       DOS:  cpu time    0.0128: real time    0.0128
    CHARGE:  cpu time    2.4595: real time    2.4766
    MIXING:  cpu time    0.0148: real time    0.0148
    --------------------------------------------
      LOOP:  cpu time   60.8615: real time   61.1648

 eigenvalue-minimisations  :  9088
 total energy-change (2. order) :-0.1535776E-04  (-0.6681625E-05)
 number of electron     864.0000006 magnetization 
 augmentation part      118.5888655 magnetization 

 Broyden mixing:
  rms(total) = 0.10340E-02    rms(broyden)= 0.10329E-02
  rms(prec ) = 0.15608E-02
  weight for this iteration     100.00

 eigenvalues of (default mixing * dielectric matrix)
  average eigenvalue GAMMA=   1.4850
  4.6952  2.7914  2.3293  2.3293  0.8834  0.8834  0.9644  0.9644  0.9747  0.9747
  0.7872  0.7872  0.7547  0.6706

 Free energy of the ion-electron system (eV)
[...]
   0.169E+02 -.245E+02 0.294E+02   -.256E+02 0.393E+02 -.289E+02   0.716E+01 -.798E+01 -.329E+01   -.129E-03 0.133E-03 -.167E-03
   -.569E+02 0.144E+03 -.105E+03   0.642E+02 -.161E+03 0.920E+02   -.309E+01 0.140E+02 0.145E+02   0.157E-02 -.679E-04 -.686E-04
   0.101E+03 0.694E+02 0.712E+02   -.112E+03 -.523E+02 -.747E+02   0.115E+02 -.176E+02 0.502E+01   -.301E-03 0.684E-03 -.291E-03
   0.224E+02 -.199E+02 -.189E+02   -.280E+02 0.264E+02 0.305E+02   0.147E+01 -.581E+01 -.666E+01   -.121E-02 0.131E-02 -.298E-03
   0.650E+02 -.630E+02 -.110E+03   -.468E+02 0.867E+02 0.110E+03   -.174E+02 -.241E+02 -.899E+00   0.198E-03 -.420E-03 -.323E-03
   -.127E+03 -.409E+02 -.503E+02   0.127E+03 0.616E+02 0.592E+02   0.178E+01 -.241E+02 -.554E+01   -.499E-03 0.145E-02 0.217E-03
   0.232E+02 -.189E+03 -.126E+01   -.664E+01 0.214E+03 -.812E+01   -.180E+02 -.256E+02 0.894E+01   0.123E-03 0.136E-04 0.135E-02
   -.256E+03 -.102E+03 -.636E+02   0.278E+03 0.103E+03 0.578E+02   -.234E+02 -.106E+01 0.612E+01   0.510E-03 0.204E-02 -.700E-03
   0.399E+02 -.119E+03 0.754E+02   -.505E+02 0.135E+03 -.818E+02   0.123E+02 -.181E+02 0.653E+01   -.477E-03 0.126E-02 -.860E-03
   -.116E+03 -.666E+02 0.908E+02   0.129E+03 0.597E+02 -.968E+02   -.111E+02 0.886E+01 0.922E+01   -.938E-03 0.141E-02 0.149E-02
   0.895E+02 -.112E+03 -.504E+02   -.931E+02 0.117E+03 0.746E+02   0.274E+01 -.720E+01 -.225E+02   0.121E-02 -.188E-02 -.368E-04
   -.135E+03 0.286E+02 -.477E+02   0.165E+03 -.476E+02 0.528E+02   -.277E+02 0.161E+02 -.499E+01   0.181E-03 0.582E-03 -.271E-03
   0.249E+01 0.131E+03 0.161E+03   0.204E+01 -.145E+03 -.173E+03   -.303E+01 0.108E+02 0.118E+02   -.132E-02 0.398E-03 0.740E-03
   -.271E+03 0.886E+02 -.129E+02   0.291E+03 -.103E+03 0.601E+01   -.228E+02 0.141E+02 0.763E+01   0.385E-02 -.725E-03 0.107E-02
   0.195E+03 0.205E+02 0.119E+03   -.223E+03 -.238E+02 -.110E+03   0.267E+02 0.432E+01 -.922E+01   -.196E-02 0.289E-02 -.295E-02
   0.379E+02 -.591E+02 0.120E+02   -.260E+02 0.593E+02 0.871E+01   -.161E+02 0.127E+01 -.167E+02   0.310E-03 0.170E-03 0.693E-03
   0.214E+03 0.292E+02 -.140E+03   -.225E+03 -.167E+02 0.155E+03   0.130E+02 -.984E+01 -.127E+02   0.760E-04 0.490E-03 -.107E-02
   -.679E+02 -.296E+02 -.603E+02   0.673E+02 0.414E+02 0.624E+02   -.290E+00 -.122E+02 -.155E+01   0.298E-02 -.252E-02 -.797E-03
   -.829E+02 0.466E+02 -.748E+02   0.834E+02 -.318E+02 0.938E+02   0.119E+01 -.149E+02 -.206E+02   -.226E-02 0.703E-03 0.132E-02
   -.163E+03 0.545E+02 0.401E+02   0.173E+03 -.407E+02 -.416E+02   -.578E+01 -.665E+01 -.197E+01   0.242E-02 -.223E-02 -.205E-03
   0.891E+02 -.833E+02 -.411E+02   -.109E+03 0.775E+02 0.565E+02   0.198E+02 0.604E+01 -.168E+02   0.126E-02 -.123E-02 -.650E-03
   0.182E+03 -.160E+03 -.183E+03   -.203E+03 0.163E+03 0.202E+03   0.174E+02 -.329E+01 -.190E+02   -.635E-03 0.119E-02 0.225E-02
   0.343E+02 0.527E+02 -.697E+02   -.602E+02 -.608E+02 0.639E+02   0.267E+02 0.765E+01 0.628E+01   -.161E-02 0.542E-03 -.807E-03
   0.119E+02 -.865E+02 -.128E+03   -.105E+02 0.108E+03 0.137E+03   -.288E+01 -.260E+02 -.916E+01   -.923E-03 0.132E-02 -.874E-03
   -.483E+02 0.743E+01 0.276E+03   0.462E+02 -.905E+01 -.285E+03   0.330E+01 0.377E+01 0.112E+02   -.603E-03 -.731E-03 -.183E-02
   0.172E+03 -.894E+02 -.129E+02   -.162E+03 0.877E+02 0.617E+01   -.108E+02 0.263E+01 0.762E+01   -.676E-03 0.831E-03 -.142E-02
   0.942E+02 -.140E+03 0.133E+02   -.799E+02 0.150E+03 -.228E+02   -.170E+02 -.117E+02 0.110E+02   -.149E-02 -.754E-03 -.943E-03
   0.132E+03 -.209E+03 0.404E+02   -.139E+03 0.229E+03 -.596E+02   0.582E+01 -.229E+02 0.206E+02   0.139E-02 0.157E-02 -.164E-02
   -.170E+03 0.803E+02 -.457E+02   0.189E+03 -.751E+02 0.561E+02   -.206E+02 -.367E+01 -.126E+02   0.980E-03 -.237E-02 0.225E-03
   0.148E+01 0.129E+03 -.587E+01   0.305E+01 -.149E+03 0.485E+01   -.377E+01 0.208E+02 0.376E+00   0.832E-04 0.161E-03 0.815E-03
   0.285E+02 -.848E+02 -.166E+03   -.141E+02 0.886E+02 0.174E+03   -.165E+02 -.424E+01 -.818E+01   -.414E-03 -.617E-04 0.672E-03
   -.786E+01 -.995E+02 0.175E+03   -.121E+02 0.114E+03 -.199E+03   0.191E+02 -.122E+02 0.167E+02   -.432E-03 0.484E-03 -.276E-03
   -.612E+02 0.206E+02 0.543E+01   0.775E+02 -.190E+02 -.279E+01   -.172E+02 -.323E+01 -.487E+01   0.156E-02 -.107E-02 -.657E-03
   0.364E+02 0.979E+02 -.122E+03   -.497E+02 -.107E+03 0.135E+03   0.156E+02 0.102E+02 -.138E+02   -.597E-03 -.140E-02 0.593E-04
   0.949E+02 0.773E+02 0.185E+03   -.122E+03 -.836E+02 -.191E+03   0.231E+02 0.765E+01 0.560E+01   0.609E-03 -.149E-02 0.561E-03
   0.118E+03 0.135E+03 0.384E+02   -.132E+03 -.166E+03 -.439E+02   0.134E+02 0.307E+02 0.529E+01   -.130E-02 0.913E-03 -.884E-03
   -.113E+03 0.561E+02 0.662E+02   0.133E+03 -.587E+02 -.789E+02   -.194E+02 0.192E+01 0.123E+02   0.588E-03 0.166E-02 -.106E-02
   0.178E+03 -.177E+03 -.534E+02   -.192E+03 0.197E+03 0.444E+02   0.131E+02 -.188E+02 0.897E+01   0.624E-04 -.402E-04 0.104E-02
   -.150E+03 0.166E+03 -.732E+02   0.174E+03 -.179E+03 0.617E+02   -.238E+02 0.134E+02 0.927E+01   0.216E-03 -.241E-02 0.962E-03
   0.114E+02 -.129E+02 -.108E+03   -.870E+01 -.168E+02 0.105E+03   -.228E+01 0.321E+02 0.332E+01   -.380E-03 -.150E-03 -.133E-03
   -.302E+02 -.320E+02 0.372E+02   0.313E+02 0.259E+02 -.302E+02   -.849E-01 0.597E+01 -.661E+01   0.938E-03 -.104E-02 0.480E-03
   -.676E+00 0.326E+02 0.114E+03   0.156E+02 -.377E+02 -.133E+03   -.157E+02 0.394E+01 0.196E+02   -.459E-03 0.737E-03 -.160E-02
   0.983E+02 0.113E+03 -.111E+03   -.105E+03 -.139E+03 0.130E+03   0.834E+01 0.238E+02 -.200E+02   -.201E-02 -.953E-03 0.834E-03
   0.284E+03 0.839E+02 -.383E+02   -.278E+03 -.103E+03 0.410E+02   -.784E+01 0.236E+02 -.414E+01   -.857E-03 -.129E-02 0.994E-04
   0.781E+02 -.324E+02 0.797E+02   -.866E+02 0.411E+02 -.894E+02   0.958E+01 -.115E+02 0.116E+02   0.151E-02 -.604E-03 0.168E-02
   -.609E+02 0.635E+02 0.256E+02   0.739E+02 -.698E+02 -.545E+01   -.150E+02 0.783E+01 -.210E+02   -.856E-03 0.259E-03 0.108E-03
   0.777E+02 -.123E+02 -.464E+02   -.905E+02 -.232E+01 0.543E+02   0.148E+02 0.181E+02 -.847E+01   -.157E-02 -.127E-03 0.995E-03
   0.857E+02 0.124E+02 -.759E+02   -.848E+02 -.352E+01 0.457E+02   -.147E+01 -.921E+01 0.272E+02   -.936E-03 0.272E-03 -.689E-03
 -----------------------------------------------------------------------------------------------
   0.111E+03 0.117E+03 -.235E+02   -.554E-12 -.239E-12 0.369E-12   -.111E+03 -.117E+03 0.235E+02   0.785E-02 -.411E-02 -.108E-01
 
 
 POSITION                                       TOTAL-FORCE (eV/Angst)
 -----------------------------------------------------------------------------------
      1.70617     13.06309     13.23375         0.766879      0.512274     -0.255035
      6.05640      3.19429      4.04238         0.123042      1.561229      0.508157
     10.27455      3.79866      9.48943         0.016481      1.066197      1.407292
     11.69947     10.58768     10.27923         0.771711      0.348298      0.347481
      5.77299     10.50314      3.17213         1.266541     -4.530541      0.893447
      7.96089      5.06497      7.17095         1.642632     -0.668676      2.049653
      0.08441      4.62745      4.87961         1.085496      1.188740     -1.763451
      7.95788      5.58280      0.86009         3.349974      0.591207      0.554911
      1.32661      5.38102     11.39201         1.445372      1.002751     -0.515275
      9.74882     12.06454      6.29820        -1.649500      0.759277      1.400755
      1.75059      0.10423      9.48369         0.145321      0.379659     -0.610817
      4.60939      8.35010     11.00972        -0.098037      0.107915      0.665364
      2.00501      7.00511      1.76845         1.858101     -1.326435      0.719280
      8.01400      7.66206      4.65933        -1.031940      0.295425     -1.725468
      2.84120      2.88006      2.10482         0.220891      0.718944     -1.067138
      5.99035     11.79493      9.46721         0.530144     -0.655187      1.039912
      2.75622     10.58641      7.90325        -0.495807      0.135922     -0.899769
     12.20984      3.45163      0.44777        -0.030223      3.480410     -3.054756
     12.41257      8.91756      2.89111        -1.628934      2.187933      0.194130
      0.13916      1.58563      5.80154        -0.170934     -2.435773      1.852896
     10.23740      7.62776     12.84738         0.331012     -0.409578     -0.988070
     11.61440      0.44798     12.73747        -1.771631     -1.223333     -0.082615
     11.25711      9.23901      6.68305         0.599220      2.911761      1.305171
      1.29545      4.15321      8.41114        -2.265453      0.511628     -2.007656
      4.43221      1.94157     11.32147        -0.070915     -0.369915      0.278490
     10.08864      1.92460      3.97312        -0.084691      0.363562     -1.419523
      7.85201     12.95588      3.01468         2.102824     -0.403914     -0.401491
     11.30504      6.78067      4.81016        -1.022367      3.379221     -4.641825
     12.11753      7.20127      9.84851        -1.431407     -4.487074      2.313020
      3.11050      4.61343      4.74853         0.022449      3.506421      2.708280
      9.32067     10.77832      0.96005        -2.183525     -5.034400      1.379918
      5.19858      5.03645     12.81544        -0.905528      2.880506     -1.835507
      7.36683      9.02706     12.40958         3.439849     -3.661966      5.590513
     11.71182     12.39818      4.19889         0.501898     -3.418331      1.570412
      2.29046     10.68360     11.00796        -0.576035      0.140216     -0.759156
      8.94933      2.47217     11.99902        -4.460617     -4.809659     -2.672739
      5.70891      7.56576      1.04232         3.789906     -1.234740      5.422738
      5.46095      5.96295      6.20405        -0.321482      2.554423     -5.583788
      0.88534      8.33103     12.08791        -0.296664      1.724758     -0.995601
      8.19634      9.14251      7.80992        -1.899504     -1.454024     -1.107050
     11.77830      6.17240      1.77757        -2.666464      2.786223     -2.271718
      0.48901      2.52425     10.90942         2.432601     -1.692060      1.500827
     12.26500     10.83720     13.29370        -3.934103     -0.845047     -0.004687
     11.58466      5.92777      7.33842         2.309633     -4.494912      3.381684
      7.45238      2.41307      1.63837         3.791526      3.603438     -2.353187
      5.55894      0.18410      1.23326        -0.130778     -0.594616     -6.269846
      4.15790      3.88831      8.49723         2.960062      6.685694      4.230825
      4.74760      1.17349      8.10528         3.401037     -5.758623     -1.652237
      5.82688      9.21005      6.48474         1.423222     -0.242832     -1.620013
      7.81129      1.37552      6.10650        -2.847402      2.766453      7.995603
      7.01225      4.16551     10.37646        -0.578983      1.977064     -3.554590
     12.63588     12.18928      7.42697         2.084059     -1.712671     -2.998296
      7.89818     13.05123     12.41894         2.290254     -1.650852     -1.385527
      0.08731      1.53948      2.63302        -3.329423     -1.138205      4.504888
      0.06899      0.20549      7.92799         0.868113      1.255320      0.065656
     10.29433      5.38766      8.07317        -1.526543      0.773954     -1.517234
      2.30169      5.09317      3.50416        -4.120536      2.744040     -2.515431
      6.61655      9.80417      7.89582         2.328351     -1.115671      0.557429
      8.18326      7.66044     12.98120        -1.450055     -2.073117     -1.960179
      1.35288      6.99234     12.93789        -0.132048      1.981757      0.166030
      8.85874      1.79740      2.17270        -0.701362     -1.963764      1.087471
      5.85861      1.59809      7.01753        -0.662726     -0.431193     -1.286896
     12.96774      9.56451     12.48316        -0.113790     -1.889393      0.402118
      1.00105      3.49747     12.20158        -3.583569     -0.046339      1.309891
     10.17840      3.28464     12.00808         7.374344      2.605594     -0.065569
      0.24600     11.04393      6.55166        -1.249900      0.246977      2.550966
      4.38106      4.06862      0.53585        -0.251293     -0.626672     -1.738216
      2.36965     12.31915     11.30023        -0.170587     -0.917658      0.659900
      9.08677      0.74921     11.66823         1.010008      2.120996      2.607136
     11.82699      2.24470      1.93853         3.305705     -3.103713      3.070571
      7.45564     12.49566     11.00870        -1.362015     -1.822821     -0.135900
     12.99546      3.17199      9.62022         0.846713     -0.371113      1.473400
      2.05005      4.41239      6.18780         1.496789     -0.632696     -1.989748
      8.81026      9.78253     12.80152         1.598723      2.642325      1.369345
      6.05758      5.99078      0.55156        -3.556241      1.027488     -0.971072
     12.08137      7.55798      0.88194         0.701517      0.036753      2.805715
     10.97437     10.56960      1.40948         0.176594     -0.764387     -1.854053
     11.85030      8.67263      9.33678        -1.545991     -0.128904     -1.457838
      2.33918      9.60577     12.32696        -1.638370     -2.182607     -0.565544
     12.72046      5.99454      8.81679        -0.850719      1.863900     -2.974935
     10.11298     12.93743      4.16850        -0.647390     -1.404451     -0.433306
      0.92218     10.27279     10.20714        -0.013610      0.645253     -0.180599
     13.27988     11.87965      0.44789         2.040647      2.040300      1.258698
     13.12656      1.04440     11.42560         0.762065      1.456599     -0.056355
      3.00994      4.72910      9.41657         1.346233     -1.032320     -1.645585
     11.12833     11.57527     12.37265         1.113801     -0.410824     -1.118333
      4.44346      0.72730      0.12383        -2.206006     -1.185379      2.285615
      8.69344     12.04632      0.38673        -1.564415      6.818590     -2.720075
      3.71872      3.43800      3.87493         4.200865     -3.302589      1.995488
      6.72268      0.41785     13.26436         0.392668     -0.513019      1.477502
      8.18111      2.62459      0.00388        -4.064090      0.732674      4.967040
      9.27842     10.25266      7.57430         0.790101     -0.420545     -0.121030
     11.46380      7.27667      6.33349         1.632484     -3.310922      3.412095
      7.88250      5.26231      9.54453        -1.351432     -1.376689     -0.441710
     12.81914      7.06187      4.01996        -1.568586     -0.511133      0.371827
     10.30713      8.27102      4.47459         1.736373     -2.106262      0.089271
      0.25116      7.33964     10.67673         2.130025      1.991805      3.219727
      4.99453      5.35006      7.58355        -0.876685     -2.945611      1.735993
     12.96619      5.22996      1.88527         2.331005     -2.865856      0.132629
      8.04960      3.00794     10.71010         1.503972     -2.801221     -0.909810
     12.65716     11.14395      3.69916        -2.529129     -0.265254      0.742108
      4.33980      9.31671      6.95454        -1.316852      1.012663     -0.585969
      6.67190      4.46729     11.88429        -4.242625      1.497164      3.961797
      6.04701      1.48319      2.03380         1.621036      2.655356      2.744336
     11.88897     12.86320      5.92798        -0.859135     -0.374907      0.483625
      8.08266      2.67771      7.10815         1.661279     -0.103708     -1.632176
     12.45372      0.32924      3.72656         3.914015      7.177555     -3.544914
     11.50366     11.64256      8.43905        -0.438547      0.280539     -1.325992
      4.38242      7.76274      1.87765        -2.811579      0.122766      0.136376
     10.28476      5.79181      1.30926         0.717530     -0.444893      0.480989
      7.36798      4.03192      2.27659        -1.459028     -4.426614     -0.079590
      3.32890     12.67948      7.45585         1.148970      2.160252      2.105881
      6.07568      7.55317      6.14588        -0.409081      0.937817      0.851230
      6.93359      9.95796      5.22096        -2.695041     -1.622510      1.528754
      4.24830      6.07057      5.02305        -1.180406     -3.363302      1.390404
      1.01316      2.13718      3.99940        -2.220311      1.504453     -2.224068
     12.32836      4.54627      6.74783         0.756926      0.599560     -0.636945
      7.14335      7.62592      2.19057        -2.009927     -0.398153     -0.226729
      6.44547      9.46526     11.31446        -0.872784      2.244291     -6.617248
      2.20488      2.17079     10.77323        -0.830971     -1.652095     -2.236644
      8.15649     10.52734      2.24787         2.332828      0.875318     -0.518121
      3.78197      2.39956      8.15597        -3.859162      1.346942     -0.633358
     10.80323      5.31024      4.56906        -0.063395     -0.319521     -0.191119
      3.57925     10.38014     10.06454         1.195297     -0.706483     -0.440881
      5.94571      8.70925     13.30267        -0.738422      1.462796      0.024933
      1.29616      1.01321      1.80243         0.458554      0.154779     -2.278555
      8.35593      7.57585      7.45208         0.464535      2.358101      0.242367
      5.43361      3.65561      9.62745         0.973134     -0.195193      0.380980
      6.79112      5.39473      5.31374        -0.761267     -1.129586      1.215087
      7.86704     13.27545      6.77794         1.922970     -2.093823     -1.050120
      5.94694     12.10723      2.05337        -1.619395      4.159024     -1.387068
      4.34779      6.28814     11.77050         1.042504     -2.798493      1.920514
      5.34387      0.54756      9.53145        -2.055282      1.591496     -0.826576
     11.01482      6.08989     10.76966         1.978600      3.440359     -0.522463
      7.87496      1.73088      4.61035        -0.514763     -0.288334     -2.981754
 -----------------------------------------------------------------------------------
    total drift:                               -0.010114     -0.030741     -0.015402


--------------------------------------------------------------------------------------------------------



  FREE ENERGIE OF THE ION-ELECTRON SYSTEM (eV)
  ---------------------------------------------------
  free  energy   TOTEN  =      -930.88854063 eV

  energy  without entropy=     -930.88823357  energy(sigma->0) =     -930.88838710
 


--------------------------------------------------------------------------------------------------------


    POTLOK:  cpu time    0.4877: real time    0.4935


--------------------------------------------------------------------------------------------------------


     LOOP+:  cpu time 1499.1993: real time 1508.5152
    4ORBIT:  cpu time    0.0000: real time    0.0000

 total amount of memory used by VASP MPI-rank0   216732. kBytes
=======================================================================

   base      :      30000. kBytes
   nonlr-proj:      21369. kBytes
   fftplans  :      34308. kBytes
   grid      :      19248. kBytes
   one-center:        186. kBytes
   wavefun   :     111621. kBytes
 
  
  
 General timing and accounting informations for this job:
 ========================================================
  
                  Total CPU time used (sec):     1531.315
                            User time (sec):     1526.435
                          System time (sec):        4.880
                         Elapsed time (sec):     1540.814
  
                   Maximum memory used (kb):      364692.
                   Average memory used (kb):           0.
  
                          Minor page faults:       313118
                          Major page faults:            0
                 Voluntary context switches:          449
