80
Config_type=0 Weight=1.0 Lattice="13.793986680 0.000000000 0.000000000 -6.896993340 11.945942880 0.000000000 0.000000000 0.000000000 27.810221070" Energy=-526.917178 Virial="8.35886 0.19077 1.63906 0.19077 11.12249 8.22246 1.63906 8.22246 7.10731" Properties=species:S:1:pos:R:3:forces:R:3
Sc	     -0.08144      2.03389     15.20755         0.073576     -0.153283     -0.315901
Sc	     -1.72799      5.04238     15.08589        -0.484644     -0.681638      0.451793
Sc	     -3.43688      7.86892     15.11987         0.173387      0.792017     -0.678807
Sc	     -5.10054     10.82602     15.18365        -0.404541      0.523659     -0.448915
Sc	      3.40842      2.00765     15.08923         0.264387     -0.203231      0.770925
Sc	      1.63633      4.89483     15.19582         0.340986      0.888601     -0.013635
Sc	     -0.06246      7.96250     15.11107         0.396040      0.225439      0.091259
Sc	     -1.60187     10.89799     15.07097        -0.595321      0.205094      0.137580
Sc	      6.92528      1.94509     15.14163        -0.036156      0.450218      0.121403
Sc	      5.14793      5.02461     15.20932        -0.172725     -0.512365     -0.737731
Sc	      3.39279      7.90243     15.17261         0.184113      1.041625     -0.161823
Sc	      1.69428     11.04398     15.06028         0.921357     -0.949398      0.713136
Sc	     10.38168      1.92838     15.09690         0.249358      0.651309     -0.327558
Sc	      8.61857      5.01165     15.22836         0.177445     -0.920223     -0.866971
Sc	      6.87057      7.91130     15.12724        -0.137688      0.546333     -0.798883
Sc	      5.14402     10.97623     15.12449        -0.152323     -0.560001      0.008438
Sc	      1.64105      1.02386     12.74461         0.371166     -0.221499     -0.172351
Sc	     -0.02695      3.95917     12.65155        -0.203669      0.992985      0.176987
Sc	     -1.64352      6.95393     12.63185        -0.802682      0.376091      0.260690
Sc	     -3.41257      9.94891     12.57901        -0.557864     -0.258661      0.664757
Sc	      5.10031      0.95452     12.70715         0.604304      0.435908      0.119100
Sc	      3.43163      4.04132     12.69322        -0.066064      0.524805      0.409705
Sc	      1.74900      7.04162     12.74106        -0.110471     -0.757386     -0.142632
Sc	      0.08976      9.92230     12.64154        -0.289318      0.343921     -0.095828
Sc	      8.74319      0.97859     12.64058        -0.770822      0.073721      0.059741
Sc	      6.87299      3.92074     12.68616         0.078382      0.429855      0.304710
Sc	      5.09823      7.05910     12.62144         0.696761     -0.448517      1.168793
Sc	      3.47529      9.86153     12.64735        -0.459753      0.928251      0.398482
Sc	     12.14946      0.99880     12.58517        -0.554370      0.060924      0.713979
Sc	     10.24973      3.94544     12.70062         0.611513      0.524684      0.019519
Sc	      8.54394      6.95979     12.62171         0.416173      0.407593      0.751200
Sc	      6.91109      9.99486     12.64058        -0.159919     -0.452630      0.686301
Cl	      0.14846      2.28910     10.86326        -0.457293     -1.049313      0.196081
Cl	     -1.91510      5.15974     10.98238         0.443096     -0.842985     -0.121414
Cl	     -3.38215      8.01094     10.92106        -0.245728      0.082326      0.180818
Cl	     -5.31006     11.02713     10.99655         0.391620      0.226351     -0.183331
Cl	      3.48536      2.05175     11.20267        -0.324202     -0.106551     -1.038846
Cl	      1.72680      5.08113     11.01846         0.078666     -0.072201      0.052681
Cl	      0.10085      7.93482     11.09454        -0.308814      0.261155     -0.907367
Cl	     -1.69030     11.00402     11.06394        -0.057286     -0.095815     -0.546695
Cl	      6.94478      1.90697     10.98195        -0.244484      0.448874      0.247577
Cl	      5.22666      5.08655     11.11641        -0.313223     -0.657690     -0.709646
Cl	      3.50033      7.95193     10.99007        -0.457970      0.105815     -0.609246
Cl	      1.70522     10.97480     10.98361         0.138582     -0.167444     -0.211529
Cl	     10.36103      1.95830     10.98947         0.231842      0.299094     -0.313618
Cl	      8.58994      5.06858     11.06230        -0.062757     -0.655350     -0.516411
Cl	      6.94626      7.94139     10.98015        -0.308478      0.439837     -0.246136
Cl	      5.11547     10.87164     11.02774         0.286491      0.495102     -0.516539
Cl	      1.68343      0.93082     16.75642         0.123051      0.148254      0.166860
Cl	     -0.14855      4.05902     16.93518         0.597769     -0.201931     -0.497708
Cl	     -1.70675      6.99252     16.80952        -0.132513     -0.041281      0.085085
Cl	     -3.27522      9.95209     16.70409        -0.528407     -0.143302      0.494563
Cl	      5.23816      0.88695     16.77775        -0.193955      0.338491     -0.132984
Cl	      3.42167      3.81120     16.91658        -0.134996      0.508434     -0.417658
Cl	      1.67877      6.94009     16.75097        -0.116740      0.133422      0.444985
Cl	      0.04185      9.97856     16.85089         0.045534     -0.102125     -0.443594
Cl	      8.80414      1.05367     16.71473        -1.093609     -0.391327      0.697545
Cl	      6.80048      3.95963     16.90507         0.386044      0.129254     -0.339546
Cl	      5.08756      6.98378     16.78021         0.291326     -0.055068      0.528673
Cl	      3.43119     10.02526     16.85681        -0.045545     -0.228704     -0.398387
Cl	     12.10210      0.91443     16.82057         0.093437      0.034092      0.098919
Cl	     10.52685      3.67811     16.88148        -0.622897      1.301360     -0.195165
Cl	      8.68366      6.94948     16.71481        -0.417254      0.199330      1.073365
Cl	      6.87602      9.77867     16.82181         0.165347      0.537263     -0.039911
C	     13.74065      0.08878     13.96647         0.173359     -0.151283     -0.816482
C	     11.96360      3.04791     13.89290         1.154818     -0.374849     -0.355171
C	     10.29474      5.97558     14.02199         0.088906     -0.204725     -0.631411
C	      8.55610      9.04148     13.84337         0.176315     -0.547798      0.249119
C	     -3.48589     11.94498     13.86738         0.268407      0.195913      0.098510
C	      1.62260      3.13199     13.91068         0.300947     -1.154698      0.167722
C	     -0.00011      6.06375     13.88169        -0.289699     -0.574054      0.351652
C	     -1.81817      8.92054     13.84108         0.933674      0.402043      0.233027
C	      7.00987      0.05424     13.92549        -1.038615     -0.206884     -0.285041
C	      5.08335      3.06781     13.95308         0.538200     -0.424867     -0.174428
C	      3.40220      6.06896     13.94994         0.242694     -0.758992     -0.000677
C	      1.69345      9.04054     13.81518        -0.089028     -0.568589      0.756212
C	      3.45021     11.93194     13.86966         0.440388      0.236503     -0.159538
C	      8.66025      3.02086     13.91775        -0.747982     -0.283953     -0.030503
C	      6.86568      6.06719     13.81240         0.093355     -0.712438      1.157690
C	      5.04447      8.96664     13.87144         0.946988     -0.052898      0.290432
80
Config_type=5 Weight=1.0 Lattice="13.793986680 0.000000000 0.000000000 -6.896993340 11.945942880 0.000000000 0.000000000 0.000000000 27.810221070" Energy=-527.195687 Virial="5.11849 1.14312 3.14137 1.14312 5.93981 -4.71956 3.14137 -4.71956 -1.91416" Properties=species:S:1:pos:R:3:forces:R:3
Sc	      0.02222      2.02139     15.17674        -0.550540     -0.090086     -0.566587
Sc	     -1.76475      4.98065     15.13084         0.365911     -0.142055      0.752969
Sc	     -3.49581      8.10548     15.14756         0.442898     -0.667828      0.440409
Sc	     -5.21626     10.95763     15.08406         0.291307      0.291678      0.432805
Sc	      3.32544      2.01544     15.18869         0.666902      0.230574     -0.321998
Sc	      1.67391      5.02439     15.18702         0.124511     -0.426629     -0.220601
Sc	      0.02604      8.00974     15.33199        -0.415484     -0.307027     -1.102948
Sc	     -1.68733     11.03212     15.13184        -0.509967     -0.686672     -0.329730
Sc	      6.85573      1.99167     15.08624         0.019300      0.113683     -0.355004
Sc	      5.11642      5.04891     15.10880        -0.042716     -0.664742      0.131532
Sc	      3.52655      7.94980     15.16870        -0.090327      0.305341     -0.593926
Sc	      1.69222     10.93343     15.09295         0.642686      0.033476      0.227056
Sc	     10.20081      1.87945     15.11761         0.825193      0.201017     -0.073405
Sc	      8.57108      4.94387     15.14918         0.024915     -0.233680     -0.218969
Sc	      6.89405      7.97661     15.11005        -0.135647      0.365911     -0.307986
Sc	      5.12550     10.88607     15.13899         0.542536      0.468060     -0.691659
Sc	      1.71179      1.08657     12.68946         0.256675     -0.480451      0.173945
Sc	     -0.04177      3.98731     12.60671         0.326673     -0.120803      0.875103
Sc	     -1.80013      6.93022     12.76942         0.568583      0.485788      0.069840
Sc	     -3.43465     10.07237     12.68041         0.436990     -0.196950      0.143238
Sc	      5.19755      1.02605     12.68770        -0.666955     -0.009475     -0.681105
Sc	      3.43984      3.97248     12.59808        -0.121817     -0.369580      1.163166
Sc	      1.73189      6.93297     12.69631         0.035670      0.241529      0.301054
Sc	      0.06092      9.80138     12.71178        -0.568054      0.733499     -0.747105
Sc	      8.60374      0.92536     12.61198         0.365476      0.021823     -0.623499
Sc	      6.86369      3.91306     12.56733         0.124004      0.404082      0.683444
Sc	      5.19386      6.84261     12.58928        -0.248430      0.952955      0.470578
Sc	      3.46446      9.84214     12.66394         0.348910      0.554185     -0.401326
Sc	     12.08972      1.06520     12.61598        -0.005551     -1.019809      0.099189
Sc	     10.35043      3.96248     12.72776        -0.118842     -0.394925     -0.465337
Sc	      8.64316      6.92775     12.77515        -0.308852      0.495585     -0.385850
Sc	      6.90511      9.99441     12.66734        -0.414111      0.043495     -0.315720
Cl	      0.10817      1.90126     10.98624        -0.392442      0.605438     -0.399450
Cl	     -1.78193      4.93772     11.03576         0.027524      0.163429     -0.228959
Cl	     -3.44159      8.04269     11.15135        -0.236802     -0.209462     -0.370222
Cl	     -5.13541     11.04291     11.11351         0.187159     -0.369981     -0.746020
Cl	      3.53470      2.02246     10.96679        -0.227135     -0.174516     -0.030720
Cl	      1.78418      4.98969     11.06168        -0.590734      0.061578     -0.650065
Cl	     -0.13891      7.78138     11.06718         0.535949      0.445018     -0.120780
Cl	     -1.56412     11.04441     10.89959        -0.389515     -0.316632      0.637976
Cl	      7.06762      2.04926     10.88245        -0.449871     -0.146333      0.100240
Cl	      5.04966      4.89911     10.91825         0.710486      0.261522     -0.179476
Cl	      3.46386      7.93538     10.88182        -0.202940     -0.275335      0.539843
Cl	      1.85554     10.76638     10.92400        -0.558441      0.325187      0.348266
Cl	     10.41199      1.91161     10.90032        -0.135054      0.324990      0.365489
Cl	      8.69798      5.07646     11.05627        -0.321329     -0.230847     -0.153907
Cl	      6.78622      8.01477     11.06686         0.848064     -0.363716     -0.376286
Cl	      5.16910     10.92062     10.89329         0.164480      0.086327      0.561330
Cl	      1.62044      0.95140     16.84008         0.331387      0.198386      0.078915
Cl	      0.02963      4.03117     16.91289        -0.170157     -0.078272     -0.382144
Cl	     -1.82179      7.03269     16.88124         0.277884     -0.318504     -0.213743
Cl	     -3.37234      9.93230     16.84157        -0.085737      0.421687     -0.036741
Cl	      5.22801      0.94191     16.74639        -0.323551      0.397331      0.487775
Cl	      3.47228      4.00861     16.89777        -0.120056      0.043965     -0.280169
Cl	      1.81905      7.06578     16.83598        -0.050817     -0.404522      0.317552
Cl	      0.15644      9.93617     16.93100        -0.354532      0.346090     -0.239055
Cl	      8.49175      1.02863     16.87312         0.260733     -0.131986     -0.485916
Cl	      6.81715      3.98604     16.65884         0.101561     -0.147013      0.829533
Cl	      5.26729      7.18649     16.83228        -0.376509     -0.706425      0.233008
Cl	      3.57206     10.02222     16.83717        -0.595081     -0.193600      0.014433
Cl	     12.00302      0.95313     16.76148         0.129236      0.260151     -0.063917
Cl	     10.35020      3.88545     16.82694        -0.133210      0.171474     -0.298181
Cl	      8.50186      6.92225     16.66204         0.619990      0.093310      0.963979
Cl	      7.00526     10.02905     16.80674        -0.409232     -0.287698      0.006015
C	     -6.77812     11.93733     13.78727        -0.894106      0.444290      0.960235
C	     -1.69407      2.93554     13.81151        -0.503193      0.461039      0.636761
C	     -3.44177      5.98634     13.99479        -0.263414     -0.372028     -0.513331
C	     -5.16763      8.95646     14.00411         0.071064      0.089918     -0.933905
C	      3.41369      0.05817     13.96994         0.792113     -0.359781     -0.372346
C	      1.66548      3.02306     13.92032         0.221007      0.084486      0.225789
C	      0.02476      5.90132     13.96069        -0.265627      0.401204      0.007370
C	     -1.67464      8.98720     13.92468        -0.111936      0.049119      0.318302
C	      6.89906      0.08446     13.73799         0.098834     -0.804855      1.530094
C	      4.98260      3.02172     13.87302         1.312918     -0.263209      0.008521
C	      3.53963      6.08390     13.89552        -0.917785     -0.416623      0.017561
C	      1.72794      8.93379     13.97164        -0.099859     -0.014409     -0.199960
C	      3.43851     11.85856     13.88080        -0.273068      0.465219      0.288618
C	      8.56401      2.93662     13.81043         0.175719      0.096079      0.576944
C	      6.81824      5.88221     13.98203         0.805979      0.540512     -1.180721
C	      5.23127      9.00308     13.82082        -0.431798     -0.383971      0.839891
80
Config_type=10 Weight=1.0 Lattice="13.793986680 0.000000000 0.000000000 -6.896993340 11.945942880 0.000000000 0.000000000 0.000000000 27.810221070" Energy=-527.259740 Virial="6.67884 -1.75817 3.68407 -1.75817 5.74565 -1.22576 3.68407 -1.22576 -0.63415" Properties=species:S:1:pos:R:3:forces:R:3
Sc	      0.05227      1.84004     15.16158        -0.269327      1.420410     -0.329002
Sc	     -1.61302      4.94372     15.09817        -0.658494      0.026603      0.511670
Sc	     -3.40680      7.88590     15.11114        -0.270156      0.407576     -0.209689
Sc	     -5.17167     10.96498     15.13001        -0.052797     -0.571505     -0.409058
Sc	      3.49570      1.92870     15.06153        -0.189264      0.463341      0.243632
Sc	      1.71955      4.96544     15.14267         0.382032      0.060443      0.671078
Sc	     -0.05143      8.02312     15.13250         0.493007     -0.421690      0.032069
Sc	     -1.79887     10.89778     15.13045         0.145379      0.116631     -0.637623
Sc	      6.89548      1.94439     15.07416        -0.087239      0.633116      0.089510
Sc	      5.28266      4.91041     15.28993        -0.915447      0.069455     -0.716761
Sc	      3.40252      7.96579     15.15592        -0.038388      0.188585      0.301814
Sc	      1.60610     11.03186     15.22468         1.000638     -0.499868     -0.579447
Sc	     10.43000      2.01536     15.16087        -0.790096      0.257801     -0.043408
Sc	      8.61210      5.00770     15.03447         0.201792     -0.405436      0.668817
Sc	      6.77809      7.97963     15.12753         1.352945      0.385695     -0.577345
Sc	      5.16453     10.96793     15.25294        -0.434234     -0.026698     -0.874009
Sc	      1.74664      1.03024     12.59609        -0.002379     -0.245324      0.595383
Sc	      0.05347      3.95293     12.67376        -0.040095     -0.198039      0.059794
Sc	     -1.69241      6.85712     12.65415         0.001398      0.636364      0.003780
Sc	     -3.44403      9.90795     12.60680        -0.302344      0.275993      0.385630
Sc	      5.18919      0.96377     12.63224         0.177643      0.452631     -0.557285
Sc	      3.43809      3.93795     12.69719        -0.026639      0.621292      0.151695
Sc	      1.68761      7.01102     12.70731         0.514815     -0.210144     -0.142104
Sc	     -0.00158     10.03151     12.64565         0.144769     -0.385449     -0.127853
Sc	      8.69136      0.98963     12.74224        -0.375465      0.426122     -0.724492
Sc	      6.75974      4.01810     12.64701         1.223896     -0.608357     -0.146387
Sc	      5.09402      6.86251     12.77080         0.172365      0.449475     -0.479871
Sc	      3.49658      9.94519     12.58479        -0.281563     -0.147297      0.925108
Sc	     12.05561      1.06846     12.68349         0.317019     -0.640066      0.273970
Sc	     10.29360      3.93200     12.67228         0.514265      0.193150      0.442344
Sc	      8.62165      7.06127     12.68216        -0.065138     -0.633333     -0.329851
Sc	      6.86088      9.99386     12.65682        -0.110948     -0.349552      0.231565
Cl	      0.05187      1.93182     10.95751        -0.403929      0.447625      0.133000
Cl	     -1.70585      4.88401     11.07856         0.180927      0.185774     -0.568630
Cl	     -3.32678      7.91869     11.04949        -0.444608      0.047118     -0.597853
Cl	     -5.33712     11.07780     10.98584         0.551394     -0.623236     -0.211114
Cl	      3.34090      2.10278     10.95474         0.508089     -0.335224     -0.083281
Cl	      1.76583      5.01284     11.03200        -0.175849      0.019621     -0.047844
Cl	      0.08135      8.01801     10.93620        -0.201495     -0.154039      0.420803
Cl	     -1.84225     10.97585     10.96406         0.482548     -0.078566     -0.224131
Cl	      6.98849      1.97447     10.91247        -0.224183     -0.010713      0.411082
Cl	      5.17991      4.99888     10.94514        -0.080767     -0.106269      0.182716
Cl	      3.59398      7.89038     11.01674        -0.568088      0.189851      0.021607
Cl	      1.79519     10.81977     10.85384        -0.247564      0.431418      0.711530
Cl	     10.42791      1.96869     11.03620        -0.341482     -0.041187     -0.353788
Cl	      8.72816      4.95574     11.16068        -0.776843      0.332153     -1.096274
Cl	      6.89029      7.99026     11.09933         0.017452     -0.243399     -0.424027
Cl	      5.12181     10.92561     10.84436         0.171285      0.154822      0.724663
Cl	      1.76439      1.03808     16.77375        -0.031638     -0.365594      0.234824
Cl	     -0.00801      4.00250     16.84343         0.026515     -0.098249     -0.163875
Cl	     -1.70451      7.04203     16.86046        -0.026015     -0.390009     -0.372462
Cl	     -3.43834      9.96299     16.78054        -0.292100     -0.030248     -0.006513
Cl	      5.00629      0.87847     16.74724         0.687348      0.309688      0.299740
Cl	      3.45883      3.89688     16.92916         0.082063      0.255309     -0.622828
Cl	      1.75370      7.01860     16.91094        -0.021888     -0.182598     -0.444565
Cl	     -0.11031      9.87925     16.82831         0.224954      0.554066      0.071244
Cl	      8.47301      1.06888     16.78941         0.440355     -0.258031      0.483521
Cl	      6.89577      3.83433     16.82512         0.179833      0.538763      0.158922
Cl	      5.32959      7.10828     16.77845        -0.959869     -0.831193      0.894374
Cl	      3.35833     10.05740     16.85125         0.188028     -0.184441      0.056351
Cl	     12.04198      1.08524     16.85036         0.234759     -0.289061      0.270230
Cl	     10.30555      3.97340     16.73736         0.115545      0.489841      0.201118
Cl	      8.70791      7.16913     16.80902        -0.435561     -0.725630     -0.151336
Cl	      6.86489     10.01965     16.89147         0.211382     -0.006459     -0.293474
C	      6.86165     11.91929     13.93335         0.307386      0.080991      0.115422
C	     -1.62208      2.98304     13.88751        -0.222266     -0.168687      0.202180
C	     10.34435      5.97392     13.81789         0.256134      0.115758      0.813220
C	      8.60591      8.92005     13.83866         0.071101      0.739137      0.429423
C	     -3.38795     11.91820     13.77621        -0.721509      0.126657      0.780659
C	      1.75058      2.99935     13.93450         0.073712     -0.480229     -0.393101
C	      0.01393      6.00519     13.92946        -0.113583     -0.187808     -0.172213
C	     -1.73866      8.98929     13.85517         0.467900     -0.117889      0.215744
C	      6.89771      0.10466     13.84320         0.078603     -1.293756      0.221490
C	      5.24594      2.92293     13.87175        -0.875451      0.361976      0.224899
C	      3.35669      5.92970     13.91725         0.500905      0.212688      0.261289
C	      1.83885      8.99549     14.01701        -1.269874      0.205426     -1.040630
C	     10.29933      0.14067     14.04510         0.538140     -0.955157     -0.887856
C	      8.64409      3.03615     13.88758        -0.124033     -0.346727      0.097203
C	      6.80877      5.89374     13.90491         0.175020      0.492527      0.572934
C	      5.14324      8.93424     13.89897         0.055268      0.471262      0.241934
80
Config_type=15 Weight=1.0 Lattice="13.793986680 0.000000000 0.000000000 -6.896993340 11.945942880 0.000000000 0.000000000 0.000000000 27.810221070" Energy=-527.695135 Virial="5.17016 -0.74275 0.45403 -0.74275 5.08713 -2.96636 0.45403 -2.96636 1.10699" Properties=species:S:1:pos:R:3:forces:R:3
Sc	      0.03089      2.04887     15.17507        -0.044613     -0.833177     -0.350364
Sc	     -1.73076      4.87650     15.15678         0.210007      0.888952      0.132098
Sc	     -3.34975      7.96541     15.16482        -0.200121      0.342116      0.263582
Sc	     -5.25281     10.95508     15.08556         0.791082     -0.323304      0.588059
Sc	      3.43476      2.07724     15.24772        -0.333077     -0.732825     -0.121637
Sc	      1.68144      4.89269     15.13982         0.324400      0.929341      0.243445
Sc	      0.00340      7.99086     15.07003         0.245965     -0.001653      0.377708
Sc	     -1.71777     11.05519     15.26538        -0.182950     -0.947796     -0.492089
Sc	      6.79494      2.00680     15.14738         0.949504     -0.152729      0.769210
Sc	      5.22509      4.97122     15.15338        -0.333368      0.746160      0.110125
Sc	      3.35973      7.98406     15.07208         0.243921     -0.141790     -0.080513
Sc	      1.81892     10.98883     15.20782        -0.558567     -0.441366     -1.155858
Sc	     10.33270      1.94181     15.06086         0.219228     -0.020612      1.059198
Sc	      8.70139      5.03254     15.20706        -0.611121     -0.376171     -0.883721
Sc	      6.96187      8.03539     15.01024        -0.451863     -0.530570      0.846508
Sc	      5.19832     10.87540     15.06260        -0.220713      0.633784     -0.125541
Sc	      1.79508      0.95268     12.69596        -0.503035     -0.006159     -0.431901
Sc	     -0.02369      3.95560     12.63651         0.447327     -0.191427      0.021147
Sc	     -1.62844      6.87992     12.66412        -0.677975      0.217988      0.319222
Sc	     -3.38242      9.91522     12.68975        -0.651134      0.139939      0.371335
Sc	      5.11770      1.00891     12.76695        -0.105579     -0.375162     -0.368342
Sc	      3.46934      4.02132     12.70793        -0.377393     -0.118793     -0.137688
Sc	      1.71367      6.95779     12.67262         0.264254     -0.220231     -0.105192
Sc	     -0.05214     10.03227     12.61585         0.217210     -0.281753      0.838111
Sc	      8.62453      1.05250     12.71577        -0.636553     -0.488711     -0.172225
Sc	      6.83651      3.98574     12.72371         0.928564      0.251032     -0.298554
Sc	      5.16258      6.95777     12.65372         0.242982      0.202415     -0.225975
Sc	      3.44657      9.96275     12.55040         0.408930     -0.397569      0.814612
Sc	     12.09959      0.98338     12.60534         0.558227     -0.414768      0.132977
Sc	     10.38638      3.85369     12.70914        -0.527381      1.498173      0.146918
Sc	      8.69866      6.98257     12.76410        -0.247333     -0.265464     -0.777959
Sc	      6.82029      9.96798     12.61961         0.743165     -0.093981     -0.990477
Cl	     -0.02441      1.96354     10.89776         0.089208      0.151157      0.452730
Cl	     -1.76819      4.94831     10.96803         0.224393     -0.014445      0.210305
Cl	     -3.47187      7.83801     11.02289         0.352930      0.334950      0.136607
Cl	     -5.24280     10.93318     10.94661         0.492093      0.051194      0.341003
Cl	      3.33608      2.13391     10.99082         0.368855     -0.572998      0.241290
Cl	      1.74817      4.93697     11.00151        -0.182142      0.164938      0.062033
Cl	      0.01694      7.94954     11.00867        -0.192619      0.072961     -0.136665
Cl	     -1.89149     10.95358     10.98100         0.605346      0.101115     -0.034474
Cl	      6.68945      1.93156     11.01212         0.639985      0.181473      0.169286
Cl	      5.23870      5.01101     11.03897        -0.249918     -0.275917     -0.274242
Cl	      3.35898      7.93262     10.97449         0.331983     -0.060397     -0.156854
Cl	      1.81590     10.92282     11.05353        -0.790380      0.659111     -0.736107
Cl	     10.38068      2.03940     11.09475        -0.388369     -0.498838     -0.931029
Cl	      8.63881      4.94210     11.05657        -0.039498     -0.195502      0.290302
Cl	      6.99252      7.91100     10.99188        -0.185115      0.043265      0.174742
Cl	      5.24871     10.88074     10.78006        -0.412002      0.187042      0.613264
Cl	      1.73527      0.89477     16.86157        -0.228486      0.320269     -0.178207
Cl	     -0.02154      3.98239     16.88458         0.088080     -0.062536     -0.075817
Cl	     -1.62960      7.05929     16.78440        -0.135578     -0.495986      0.221475
Cl	     -3.39668      9.96107     16.90246        -0.212321     -0.078388     -0.302463
Cl	      5.11768      1.03301     16.98402         0.235145      0.103155     -0.367014
Cl	      3.44205      4.04472     16.86781         0.023500     -0.035290     -0.020663
Cl	      1.71780      7.03873     16.84544         0.092776     -0.249172     -0.430386
Cl	      0.09032      9.91309     16.72633        -0.133615      0.253867      0.493990
Cl	      8.56378      0.92145     16.78111         0.256507      0.592699      0.326207
Cl	      6.94434      4.07874     16.88724        -0.311608     -0.321175     -0.294638
Cl	      5.08786      7.06435     16.58194         0.512132     -0.319374      0.798175
Cl	      3.53398      9.96593     16.81921        -0.232181      0.005983     -0.197765
Cl	     12.07699      1.04985     16.75875        -0.120591     -0.197672     -0.001066
Cl	     10.24839      4.09134     16.80874         0.730854     -0.777201      0.465859
Cl	      8.59895      6.93619     16.75627         0.000899      0.704399      0.395239
Cl	      6.78432      9.91920     16.78985         0.436612      0.087914     -0.075363
C	      6.91629     11.90437     13.76991        -0.200462      0.194867      0.895269
C	     -1.64696      2.87745     13.88702        -0.517417      0.589172      0.039094
C	     -3.34256      5.94298     14.02317        -0.326885     -0.030549     -0.709361
C	     -5.07540      8.93750     13.96561        -0.339497     -0.129430     -0.464870
C	     -3.50657     11.86270     13.98035         0.421057      0.844469     -0.443222
C	      1.75134      3.00436     13.95911        -0.186376     -0.182934      0.017560
C	     -0.00434      5.89046     13.95052        -0.043386      0.185663     -0.700683
C	     -1.65748      9.04579     13.96198        -0.190221     -0.456682     -0.676019
C	      6.88289      0.02141     13.95682        -0.063176      0.293032     -0.273444
C	      5.12919      2.88944     13.99605         0.187637      0.892691     -0.278578
C	      3.49614      5.93813     13.86168        -0.494862      0.179221      0.278119
C	      1.74046      8.92864     13.82323        -0.011049      0.247613      0.246696
C	     10.34201      0.01287     13.86042        -0.032250     -0.040164      0.124330
C	      8.61868      3.01554     13.95663        -0.000842     -0.344747     -0.421455
C	      6.84814      6.03662     13.86198         0.422091     -0.737342      0.372022
C	      5.20555      8.99656     13.77065        -0.423226      0.140634      0.498566
80
Config_type=20 Weight=1.0 Lattice="13.793986680 0.000000000 0.000000000 -6.896993340 11.945942880 0.000000000 0.000000000 0.000000000 27.810221070" Energy=-527.182255 Virial="7.60792 2.47325 -1.86678 2.47325 5.67533 6.68397 -1.86678 6.68397 -0.24069" Properties=species:S:1:pos:R:3:forces:R:3
Sc	     -0.05385      1.91464     15.10334         0.747297      0.445733      0.357338
Sc	     -1.75268      4.99226     15.17844         0.211101      0.249374     -0.273674
Sc	     -3.57873      7.98849     15.04399         1.255336      0.066769      0.431634
Sc	     -5.16162     10.93685     15.19506        -0.273575      0.303876     -0.501812