 vasp.5.4.4.18Apr17-6-g9f103f2a35 (build Oct 31 2019 15:01:46) complex          
  
 executed on             LinuxIFC date 2024.04.19  08:11:25
 running on   52 total cores
 distrk:  each k-point on   52 cores,    1 groups
 distr:  one band on NCORES_PER_BAND=  13 cores,    4 groups


--------------------------------------------------------------------------------------------------------


 INCAR:
 POTCAR:    PAW_PBE Sc_sv 07Sep2000               
 POTCAR:    PAW_PBE F 08Apr2002                   
 POTCAR:    PAW_PBE C 08Apr2002                   
 POTCAR:    PAW_PBE Sc_sv 07Sep2000               
   VRHFIN =Sc: 3p4s3d                                                           
   LEXCH  = PE                                                                  
   EATOM  =  1273.2868 eV,   93.5839 Ry                                         
                                                                                
   TITEL  = PAW_PBE Sc_sv 07Sep2000                                             
   LULTRA =        F    use ultrasoft PP ?                                      
   IUNSCR =        1    unscreen: 0-lin 1-nonlin 2-no                           
   RPACOR =    2.200    partial core radius                                     
   POMASS =   44.956; ZVAL   =   11.000    mass and valenz                      
   RCORE  =    2.500    outmost cutoff radius                                   
   RWIGS  =    2.700; RWIGS  =    1.429    wigner-seitz radius (au A)           
   ENMAX  =  222.660; ENMIN  =  166.995 eV                                      
   RCLOC  =    1.805    cutoff for local pot                                    
   LCOR   =        T    correct aug charges                                     
   LPAW   =        T    paw PP                                                  
   EAUG   =  443.063                                                            
   RMAX   =    2.551    core radius for proj-oper                               
   RAUG   =    1.300    factor for augmentation sphere                          
   RDEP   =    2.650    radius for radial grids                                 
   RDEPT  =    2.038    core radius for aug-charge                              
                                                                                
   Atomic configuration                                                         
    8 entries                                                                   
     n  l   j            E        occ.                                          
     1  0  0.50     -4394.2533   2.0000                                         
     2  0  0.50      -471.0040   2.0000                                         
     2  1  1.50      -384.9788   6.0000                                         
     3  0  0.50       -52.1410   2.0000                                         
     4  0  0.50        -3.5584   1.0000                                         
     3  1  1.50       -30.8841   6.0000                                         
     3  2  2.50        -1.3655   2.0000                                         
     4  3  2.50        -1.3606   0.0000                                         
   Description                                                                  
     l       E           TYP  RCUT    TYP  RCUT                                 
     0    -52.1409870     23  1.800                                             
     0     -3.5583698     23  2.500                                             
     1    -30.8840697     23  2.300                                             
     1      4.0817478     23  2.300                                             
     2     -1.3655397     23  2.500                                             
     2      0.3564476     23  2.500                                             
  local pseudopotential read in
  partial core-charges read in
  partial kinetic energy density read in
  atomic valenz-charges read in
  non local Contribution for L=           0  read in
    real space projection operators read in
  non local Contribution for L=           0  read in
    real space projection operators read in
  non local Contribution for L=           1  read in
    real space projection operators read in
  non local Contribution for L=           1  read in
    real space projection operators read in
  non local Contribution for L=           2  read in
    real space projection operators read in
  non local Contribution for L=           2  read in
    real space projection operators read in
    PAW grid and wavefunctions read in
 
   number of l-projection  operators is LMAX  =           6
   number of lm-projection operators is LMMAX =          18
 
 POTCAR:    PAW_PBE F 08Apr2002                   
   VRHFIN =F: s2p5                                                              
   LEXCH  = PE                                                                  
   EATOM  =   659.6475 eV,   48.4827 Ry                                         
                                                                                
   TITEL  = PAW_PBE F 08Apr2002                                                 
   LULTRA =        F    use ultrasoft PP ?                                      
   IUNSCR =        1    unscreen: 0-lin 1-nonlin 2-no                           
   RPACOR =    1.200    partial core radius                                     
   POMASS =   18.998; ZVAL   =    7.000    mass and valenz                      
   RCORE  =    1.520    outmost cutoff radius                                   
   RWIGS  =    1.500; RWIGS  =    0.794    wigner-seitz radius (au A)           
   ENMAX  =  400.000; ENMIN  =  300.000 eV                                      
   ICORE  =        2    local potential                                         
   LCOR   =        T    correct aug charges                                     
   LPAW   =        T    paw PP                                                  
   EAUG   =  613.614                                                            
   RMAX   =    1.555    core radius for proj-oper                               
   RAUG   =    1.300    factor for augmentation sphere                          
   RDEP   =    1.539    radius for radial grids                                 
   RDEPT  =    1.299    core radius for aug-charge                              
                                                                                
   Atomic configuration                                                         
    4 entries                                                                   
     n  l   j            E        occ.                                          
     1  0  0.50      -663.3661   2.0000                                         
     2  0  0.50       -29.8995   2.0000                                         
     2  1  0.50       -11.1114   5.0000                                         
     3  2  1.50       -10.8847   0.0000                                         
   Description                                                                  
     l       E           TYP  RCUT    TYP  RCUT                                 
     0    -29.8995018     23  1.200                                             
     0     -9.5240782     23  1.200                                             
     1    -11.1113914     23  1.520                                             
     1      1.3605826     23  1.520                                             
     2    -10.8846608      7  1.500                                             
  local pseudopotential read in
  partial core-charges read in
  partial kinetic energy density read in
  atomic valenz-charges read in
  non local Contribution for L=           0  read in
    real space projection operators read in
  non local Contribution for L=           0  read in
    real space projection operators read in
  non local Contribution for L=           1  read in
    real space projection operators read in
  non local Contribution for L=           1  read in
    real space projection operators read in
    PAW grid and wavefunctions read in
 
   number of l-projection  operators is LMAX  =           4
   number of lm-projection operators is LMMAX =           8
 
 POTCAR:    PAW_PBE C 08Apr2002                   
   VRHFIN =C: s2p2                                                              
   LEXCH  = PE                                                                  
   EATOM  =   147.1560 eV,   10.8157 Ry                                         
                                                                                
   TITEL  = PAW_PBE C 08Apr2002                                                 
   LULTRA =        F    use ultrasoft PP ?                                      
   IUNSCR =        1    unscreen: 0-lin 1-nonlin 2-no                           
   RPACOR =    1.200    partial core radius                                     
   POMASS =   12.011; ZVAL   =    4.000    mass and valenz                      
   RCORE  =    1.500    outmost cutoff radius                                   
   RWIGS  =    1.630; RWIGS  =    0.863    wigner-seitz radius (au A)           
   ENMAX  =  400.000; ENMIN  =  300.000 eV                                      
   ICORE  =        2    local potential                                         
   LCOR   =        T    correct aug charges                                     
   LPAW   =        T    paw PP                                                  
   EAUG   =  644.873                                                            
   DEXC   =    0.000                                                            
   RMAX   =    1.529    core radius for proj-oper                               
   RAUG   =    1.300    factor for augmentation sphere                          
   RDEP   =    1.501    radius for radial grids                                 
   RDEPT  =    1.300    core radius for aug-charge                              
                                                                                
   Atomic configuration                                                         
    4 entries                                                                   
     n  l   j            E        occ.                                          
     1  0  0.50      -273.3789   2.0000                                         
     2  0  0.50       -13.7508   2.0000                                         
     2  1  0.50        -5.2854   2.0000                                         
     3  2  1.50        -5.4423   0.0000                                         
   Description                                                                  
     l       E           TYP  RCUT    TYP  RCUT                                 
     0    -13.7508458     23  1.200                                             
     0     -8.2022199     23  1.200                                             
     1     -5.2854383     23  1.500                                             
     1     34.0145650     23  1.500                                             
     2     -5.4423304      7  1.500                                             
  local pseudopotential read in
  partial core-charges read in
  partial kinetic energy density read in
  atomic valenz-charges read in
  non local Contribution for L=           0  read in
    real space projection operators read in
  non local Contribution for L=           0  read in
    real space projection operators read in
  non local Contribution for L=           1  read in
    real space projection operators read in
  non local Contribution for L=           1  read in
    real space projection operators read in
    PAW grid and wavefunctions read in
 
   number of l-projection  operators is LMAX  =           4
   number of lm-projection operators is LMMAX =           8
 
 Optimization of the real space projectors (new method)

 maximal supplied QI-value         = 15.12
 optimisation between [QCUT,QGAM] = [ 12.55, 25.10] = [ 44.09,176.36] Ry 
 Optimized for a Real-space Cutoff    1.56 Angstroem

   l    n(q)    QCUT    max X(q) W(low)/X(q) W(high)/X(q)  e(spline) 
   0     12    12.548     2.962    0.12E-05    0.11E-06    0.46E-07
   0     12    12.548    26.414    0.30E-04    0.15E-05    0.76E-07
   1     11    12.548     3.969    0.45E-05    0.12E-05    0.60E-07
   1     11    12.548     5.137    0.15E-04    0.18E-04    0.36E-06
   2     11    12.548   143.970    0.20E-03    0.19E-03    0.76E-06
   2     11    12.548   121.201    0.20E-03    0.19E-03    0.76E-06
 Optimization of the real space projectors (new method)

 maximal supplied QI-value         = 24.76
 optimisation between [QCUT,QGAM] = [ 12.38, 25.00] = [ 42.90,175.06] Ry 
 Optimized for a Real-space Cutoff    1.16 Angstroem

   l    n(q)    QCUT    max X(q) W(low)/X(q) W(high)/X(q)  e(spline) 
   0      9    12.378    14.049    0.11E-03    0.38E-05    0.23E-06
   0      9    12.378     8.945    0.15E-03    0.56E-05    0.30E-06
   1      8    12.378     7.086    0.18E-03    0.14E-03    0.29E-06
   1      8    12.378     6.747    0.16E-03    0.13E-03    0.26E-06
 Optimization of the real space projectors (new method)

 maximal supplied QI-value         = 25.13
 optimisation between [QCUT,QGAM] = [ 12.32, 24.88] = [ 42.47,173.37] Ry 
 Optimized for a Real-space Cutoff    1.16 Angstroem

   l    n(q)    QCUT    max X(q) W(low)/X(q) W(high)/X(q)  e(spline) 
   0      9    12.315   115.676    0.19E-03    0.80E-05    0.34E-06
   0      9    12.315    87.132    0.19E-03    0.82E-05    0.34E-06
   1      8    12.315     4.429    0.18E-03    0.13E-03    0.22E-06
   1      8    12.315     2.733    0.14E-03    0.10E-03    0.18E-06
  PAW_PBE Sc_sv 07Sep2000               :
 energy of atom  1       EATOM=-1273.2868
 kinetic energy error for atom=    0.0014 (will be added to EATOM!!)
  PAW_PBE F 08Apr2002                   :
 energy of atom  2       EATOM= -659.6475
 kinetic energy error for atom=    0.0256 (will be added to EATOM!!)
  PAW_PBE C 08Apr2002                   :
 energy of atom  3       EATOM= -147.1560
 kinetic energy error for atom=    0.0057 (will be added to EATOM!!)
 
 
 POSCAR: Sc  F  C                                
  positions in cartesian coordinates
  No initial velocities read in
 exchange correlation table for  LEXCH =        8
   RHO(1)=    0.500       N(1)  =     2000
   RHO(2)=  100.500       N(2)  =     4000
 


--------------------------------------------------------------------------------------------------------


 ion  position               nearest neighbor table
   1  0.087  0.169  0.454-  50 2.04  49 2.17  61 2.18  66 2.24  65 2.34  70 2.35  18 3.08  17 3.12
                             6 3.15   4 3.18  29 3.20  13 3.26  16 3.28   2 3.30   5 3.31
   2  0.070  0.412  0.453-  51 2.22  71 2.23  67 2.23  66 2.24  62 2.29  50 2.32  30 3.16  13 3.17
                            18 3.18  14 3.22  19 3.23   3 3.25   1 3.30   6 3.32   7 3.39
   3  0.086  0.667  0.449-  67 2.21  63 2.22  68 2.28  72 2.31  51 2.33  52 2.44  19 3.11  15 3.24
                             2 3.25  31 3.25   8 3.26  20 3.29   7 3.29  14 3.37   4 3.42
   4  0.088  0.928  0.452-  64 2.11  49 2.16  69 2.17  52 2.25  65 2.30  68 2.41  17 3.15  20 3.17
                             8 3.18   1 3.18  16 3.18  32 3.25  15 3.31   5 3.34   3 3.42
   5  0.344  0.180  0.457-  54 2.06  74 2.16  70 2.23  53 2.26  69 2.30  49 2.33  10 3.10  17 3.11
                            21 3.12  22 3.15   6 3.19   9 3.22   8 3.29   1 3.31   4 3.34
   6  0.323  0.412  0.450-  55 2.21  71 2.22  70 2.25  54 2.28  50 2.30  75 2.43  18 3.11   1 3.15
                             5 3.19  23 3.20   7 3.22   2 3.32  10 3.35  22 3.39  11 3.41
   7  0.335  0.662  0.446-  55 2.13  56 2.21  51 2.24  76 2.25  71 2.31  72 2.41   6 3.22  19 3.25
                            24 3.26  23 3.27   3 3.29  12 3.30  11 3.31   2 3.39
   8  0.327  0.922  0.451-  52 2.07  72 2.14  69 2.19  56 2.24  53 2.29  73 2.38  21 3.10  20 3.13
                            24 3.15   4 3.18   3 3.26   5 3.29   9 3.30
   9  0.583  0.167  0.456-  53 2.07  58 2.12  57 2.19  74 2.24  78 2.30  73 2.31  21 3.06  26 3.10
                            14 3.22   5 3.22  10 3.29   8 3.30  25 3.31  13 3.34  12 3.36
  10  0.581  0.417  0.454-  79 2.16  58 2.17  54 2.18  75 2.19  59 2.30  74 2.36  27 3.03   5 3.10
                            26 3.16  22 3.21  11 3.21  14 3.23   9 3.29   6 3.35  15 3.38
  11  0.588  0.665  0.452-  60 2.17  59 2.21  75 2.28  80 2.30  76 2.31  55 2.35  27 3.12  23 3.17
                            28 3.17  10 3.21  12 3.27  15 3.29  16 3.30   7 3.31   6 3.41
  12  0.586  0.913  0.455-  76 2.24  56 2.25  77 2.29  73 2.33  57 2.40  60 2.48  28 3.12  24 3.14
                            11 3.27  13 3.29   7 3.30  25 3.31  16 3.32   9 3.36
  13  0.836  0.164  0.454-  62 2.11  57 2.18  66 2.18  61 2.20  77 2.26  78 2.45  29 3.14   2 3.17
                            30 3.19   1 3.26  16 3.28  12 3.29  25 3.31   9 3.34  14 3.36
  14  0.826  0.414  0.453-  63 2.19  79 2.20  58 2.23  62 2.24  78 2.25  67 2.31  31 3.12  30 3.19
                             9 3.22   2 3.22  26 3.22  10 3.23  15 3.27  13 3.36   3 3.37
  15  0.841  0.671  0.447-  64 2.16  59 2.22  63 2.25  80 2.29  79 2.35  68 2.35  31 3.18  16 3.23
                             3 3.24  32 3.25  27 3.27  14 3.27  11 3.29   4 3.31  10 3.38
  16  0.840  0.916  0.454-  61 2.09  60 2.15  64 2.20  65 2.24  80 2.28  77 2.32  29 3.12  32 3.13
                             4 3.18  28 3.22  15 3.23  13 3.28   1 3.28  11 3.30  12 3.32
  17  0.173  0.090  0.547-  37 2.10  36 2.23  33 2.24  70 2.26  69 2.29  65 2.31   5 3.11   1 3.12
                             4 3.15  20 3.24  18 3.26  22 3.28  21 3.30  29 3.33  32 3.40
  18  0.167  0.335  0.545-  33 2.14  34 2.14  70 2.23  71 2.28  38 2.29  66 2.31   1 3.08   6 3.11
                             2 3.18  17 3.26  23 3.27  22 3.33  30 3.35  29 3.37  19 3.40
  19  0.169  0.595  0.544-  35 2.09  39 2.19  67 2.30  72 2.34  34 2.37  71 2.38  24 3.10   3 3.11
                             2 3.23  20 3.24   7 3.25  31 3.31  23 3.37  18 3.40  30 3.42
  20  0.168  0.841  0.547-  68 2.23  40 2.25  35 2.26  69 2.26  36 2.29  72 2.37   8 3.13   4 3.17
                            21 3.19  24 3.20  19 3.24  17 3.24  32 3.25   3 3.29  31 3.37
  21  0.417  0.077  0.546-  73 2.17  40 2.17  41 2.22  74 2.23  69 2.35  37 2.52   9 3.06   8 3.10
                             5 3.12  24 3.17  20 3.19  26 3.23  17 3.30  25 3.31  22 3.42
  22  0.422  0.339  0.553-  38 2.14  42 2.23  70 2.29  75 2.32  37 2.32  74 2.35   5 3.15  26 3.15
                            27 3.19  23 3.20  10 3.21  17 3.28  18 3.33   6 3.39  21 3.42
  23  0.419  0.581  0.545-  39 2.09  43 2.23  38 2.24  75 2.24  76 2.26  71 2.46  11 3.17  22 3.20
                             6 3.20  28 3.23  18 3.27   7 3.27  27 3.27  24 3.36  19 3.37
  24  0.406  0.830  0.544-  72 2.14  40 2.16  73 2.19  39 2.24  76 2.35  44 2.59  19 3.10  12 3.14
                             8 3.15  21 3.17  20 3.20   7 3.26  23 3.36  25 3.41  28 3.42
  25  0.671  0.082  0.556-  44 2.16  45 2.25  41 2.29  77 2.37  78 2.43  73 2.44  29 3.22  30 3.23
                            13 3.31  21 3.31  12 3.31  28 3.31   9 3.31  26 3.34  24 3.41
  26  0.657  0.329  0.550-  74 2.18  46 2.21  78 2.24  42 2.24  41 2.26  79 2.42   9 3.10  22 3.15
                            10 3.16  27 3.22  14 3.22  21 3.23  30 3.31  25 3.34  31 3.35
  27  0.667  0.579  0.544-  47 2.17  42 2.19  43 2.19  79 2.22  75 2.22  80 2.26  10 3.03  11 3.12
                            31 3.19  22 3.19  26 3.22  23 3.27  15 3.27  32 3.27  28 3.28
  28  0.665  0.827  0.548-  48 2.09  43 2.13  77 2.32  80 2.36  44 2.36  76 2.39  12 3.12  11 3.17
                            16 3.22  23 3.23  29 3.26  32 3.27  27 3.28  25 3.31  24 3.42
  29  0.913  0.076  0.548-  45 2.13  77 2.18  65 2.19  48 2.21  66 2.36  33 2.39  16 3.12  13 3.14
                             1 3.20  25 3.22  32 3.25  28 3.26  17 3.33  18 3.37  30 3.39
  30  0.911  0.333  0.549-  78 2.18  34 2.23  45 2.29  46 2.37  66 2.39  67 2.44   2 3.16  14 3.19
                            13 3.19  25 3.23  31 3.28  26 3.31  18 3.35  29 3.39  19 3.42
  31  0.912  0.583  0.545-  47 2.22  46 2.22  35 2.25  68 2.25  67 2.27  79 2.32  14 3.12  15 3.18
                            27 3.19  32 3.21   3 3.25  30 3.28  19 3.31  26 3.35  20 3.37
  32  0.915  0.829  0.548-  47 2.09  48 2.20  36 2.22  80 2.23  65 2.27  68 2.36  16 3.13  31 3.21
                             4 3.25  20 3.25  15 3.25  29 3.25  28 3.27  27 3.27  17 3.40
  33  0.096  0.181  0.591-  18 2.14  17 2.24  29 2.39
  34  0.084  0.413  0.587-  18 2.14  30 2.23  19 2.37
  35  0.084  0.665  0.586-  19 2.09  31 2.25  20 2.26
  36  0.080  0.924  0.592-  32 2.22  17 2.23  20 2.29
  37  0.317  0.164  0.596-  17 2.10  22 2.32  21 2.52
  38  0.335  0.417  0.592-  22 2.14  23 2.24  18 2.29
  39  0.336  0.658  0.584-  23 2.09  19 2.19  24 2.24
  40  0.337  0.916  0.590-  24 2.16  21 2.17  20 2.25
  41  0.574  0.163  0.596-  21 2.22  26 2.26  25 2.29
  42  0.591  0.428  0.595-  27 2.19  22 2.23  26 2.24
  43  0.589  0.665  0.587-  28 2.13  27 2.19  23 2.23
  44  0.592  0.922  0.599-  25 2.16  28 2.36  24 2.59
  45  0.847  0.163  0.594-  29 2.13  25 2.25  30 2.29
  46  0.821  0.425  0.593-  26 2.21  31 2.22  30 2.37
  47  0.829  0.669  0.587-  32 2.09  27 2.17  31 2.22
  48  0.823  0.906  0.588-  28 2.09  32 2.20  29 2.21
  49  0.170  0.091  0.411-   4 2.16   1 2.17   5 2.33
  50  0.146  0.312  0.409-   1 2.04   6 2.30   2 2.32
  51  0.164  0.569  0.404-   2 2.22   7 2.24   3 2.33
  52  0.180  0.856  0.406-   8 2.07   4 2.25   3 2.44
  53  0.433  0.100  0.413-   9 2.07   5 2.26   8 2.29
  54  0.418  0.327  0.412-   5 2.06  10 2.18   6 2.28
  55  0.411  0.576  0.406-   7 2.13   6 2.21  11 2.35
  56  0.417  0.839  0.412-   7 2.21   8 2.24  12 2.25
  57  0.673  0.097  0.412-  13 2.18   9 2.19  12 2.40
  58  0.653  0.324  0.414-   9 2.12  10 2.17  14 2.23
  59  0.671  0.584  0.407-  11 2.21  15 2.22  10 2.30
  60  0.685  0.825  0.408-  16 2.15  11 2.17  12 2.48
  61  0.918  0.076  0.415-  16 2.09   1 2.18  13 2.20
  62  0.896  0.316  0.410-  13 2.11  14 2.24   2 2.29
  63  0.918  0.574  0.408-  14 2.19   3 2.22  15 2.25
  64  0.930  0.841  0.411-   4 2.11  15 2.16  16 2.20
  65  0.998  0.999  0.504-  29 2.19  16 2.24  32 2.27   4 2.30  17 2.31   1 2.34
  66  0.996  0.247  0.498-  13 2.18   1 2.24   2 2.24  18 2.31  29 2.36  30 2.39
  67  0.001  0.508  0.497-   3 2.21   2 2.23  31 2.27  19 2.30  14 2.31  30 2.44
  68  0.007  0.748  0.499-  20 2.23  31 2.25   3 2.28  15 2.35  32 2.36   4 2.41
  69  0.247  0.002  0.497-   4 2.17   8 2.19  20 2.26  17 2.29   5 2.30  21 2.35
  70  0.259  0.259  0.503-  18 2.23   5 2.23   6 2.25  17 2.26  22 2.29   1 2.35
  71  0.240  0.495  0.494-   6 2.22   2 2.23  18 2.28   7 2.31  19 2.38  23 2.46
  72  0.259  0.764  0.494-  24 2.14   8 2.14   3 2.31  19 2.34  20 2.37   7 2.41
  73  0.497  0.996  0.503-  21 2.17  24 2.19   9 2.31  12 2.33   8 2.38  25 2.44
  74  0.498  0.245  0.504-   5 2.16  26 2.18  21 2.23   9 2.24  22 2.35  10 2.36
  75  0.502  0.499  0.499-  10 2.19  27 2.22  23 2.24  11 2.28  22 2.32   6 2.43
  76  0.492  0.743  0.497-  12 2.24   7 2.25  23 2.26  11 2.31  24 2.35  28 2.39
  77  0.755  1.000  0.502-  29 2.18  13 2.26  12 2.29  16 2.32  28 2.32  25 2.37
  78  0.751  0.258  0.504-  30 2.18  26 2.24  14 2.25   9 2.30  25 2.43  13 2.45
  79  0.744  0.499  0.495-  10 2.16  14 2.20  27 2.22  31 2.32  15 2.35  26 2.42
  80  0.756  0.746  0.499-  32 2.23  27 2.26  16 2.28  15 2.29  11 2.30  28 2.36
 
  LATTYP: Found a hexagonal cell.
 ALAT       =    13.1286233990
 C/A-ratio  =     2.0434811347
  
  Lattice vectors:
  
 A1 = (  13.1286234000,   0.0000000000,   0.0000000000)
 A2 = (  -6.5643117000,  11.3697213800,   0.0000000000)
 A3 = (   0.0000000000,   0.0000000000,  26.8280942400)


Analysis of symmetry for initial positions (statically):
=====================================================================
 Subroutine PRICEL returns:
 Original cell was already a primitive cell.
 

 Routine SETGRP: Setting up the symmetry group for a 
 hexagonal supercell.


 Subroutine GETGRP returns: Found  1 space group operations
 (whereof  1 operations were pure point group operations)
 out of a pool of 24 trial point group operations.


The static configuration has the point symmetry C_1 .


Analysis of symmetry for dynamics (positions and initial velocities):
=====================================================================
 Subroutine PRICEL returns:
 Original cell was already a primitive cell.
 

 Routine SETGRP: Setting up the symmetry group for a 
 hexagonal supercell.


 Subroutine GETGRP returns: Found  1 space group operations
 (whereof  1 operations were pure point group operations)
 out of a pool of 24 trial point group operations.


The dynamic configuration has the point symmetry C_1 .


 Subroutine INISYM returns: Found  1 space group operations
 (whereof  1 operations are pure point group operations),
 and found     1 'primitive' translations

 
 

Automatic generation of k-mesh.
 generate k-points for:    3    3    1
Space group operators:
 irot       det(A)        alpha          n_x          n_y          n_z        tau_x        tau_y        tau_z
    1     1.000000     0.000000     1.000000     0.000000     0.000000     0.000000     0.000000     0.000000
 
 Subroutine IBZKPT returns following result:
 ===========================================
 
 Found      5 irreducible k-points:
 
 Following reciprocal coordinates:
            Coordinates               Weight
  0.000000  0.000000  0.000000      1.000000
  0.333333 -0.000000  0.000000      2.000000
  0.000000  0.333333  0.000000      2.000000
  0.333333  0.333333  0.000000      2.000000
 -0.333333  0.333333  0.000000      2.000000
 
 Following cartesian coordinates:
            Coordinates               Weight
  0.000000  0.000000  0.000000      1.000000
  0.025390  0.014659  0.000000      2.000000
  0.000000  0.029318  0.000000      2.000000
  0.025390  0.043976  0.000000      2.000000
 -0.025390  0.014659  0.000000      2.000000
 


--------------------------------------------------------------------------------------------------------




 Dimension of arrays:
   k-points           NKPTS =      5   k-points in BZ     NKDIM =      5   number of bands    NBANDS=    384
   number of dos      NEDOS =    301   number of ions     NIONS =     80
   non local maximal  LDIM  =      6   non local SUM 2l+1 LMDIM =     18
   total plane-waves  NPLWV = ******
   max r-space proj   IRMAX =  10060   max aug-charges    IRDMAX= 222480
   dimension x,y,z NGX =   108 NGY =  108 NGZ =  216
   dimension x,y,z NGXF=   216 NGYF=  216 NGZF=  432
   support grid    NGXF=   432 NGYF=  432 NGZF=  864
   ions per type =              32  32  16
   NGX,Y,Z   is equivalent  to a cutoff of  13.68, 13.68, 13.38 a.u.
   NGXF,Y,Z  is equivalent  to a cutoff of  27.35, 27.35, 26.77 a.u.

 SYSTEM =  unknown system                          
 POSCAR =  Sc  F  C                                

 Startparameter for this run:
   NWRITE =      2    write-flag & timer
   PREC   = anorma    normal or accurate (medium, high low for compatibility)
   ISTART =      0    job   : 0-new  1-cont  2-samecut
   ICHARG =      2    charge: 1-file 2-atom 10-const
   ISPIN  =      1    spin polarized calculation?
   LNONCOLLINEAR =      F non collinear calculations
   LSORBIT =      F    spin-orbit coupling
   INIWAV =      1    electr: 0-lowe 1-rand  2-diag
   LASPH  =      F    aspherical Exc in radial PAW
   METAGGA=      F    non-selfconsistent MetaGGA calc.

 Electronic Relaxation 1
   ENCUT  =  600.0 eV  44.10 Ry    6.64 a.u.  26.22 26.22 53.58*2*pi/ulx,y,z
   ENINI  =  600.0     initial cutoff
   ENAUG  =  644.9 eV  augmentation charge cutoff
   NELM   =     60;   NELMIN=  2; NELMDL= -5     # of ELM steps 
   EDIFF  = 0.1E-05   stopping-criterion for ELM
   LREAL  =      T    real-space projection
   NLSPLINE    = F    spline interpolate recip. space projectors
   LCOMPAT=      F    compatible to vasp.4.4
   GGA_COMPAT  = T    GGA compatible to vasp.4.4-vasp.4.6
   LMAXPAW     = -100 max onsite density
   LMAXMIX     =    2 max onsite mixed and CHGCAR
   VOSKOWN=      0    Vosko Wilk Nusair interpolation
   ROPT   =   -0.00025  -0.00025  -0.00025
 Ionic relaxation
   EDIFFG = -.1E-01   stopping-criterion for IOM
   NSW    =      1    number of steps for IOM
   NBLOCK =      1;   KBLOCK =      1    inner block; outer block 
   IBRION =     -1    ionic relax: 0-MD 1-quasi-New 2-CG
   NFREE  =      0    steps in history (QN), initial steepest desc. (CG)
   ISIF   =      2    stress and relaxation
   IWAVPR =     10    prediction:  0-non 1-charg 2-wave 3-comb
   ISYM   =      2    0-nonsym 1-usesym 2-fastsym
   LCORR  =      T    Harris-Foulkes like correction to forces

   POTIM  = 1.0000    time-step for ionic-motion
   TEIN   =    0.0    initial temperature
   TEBEG  =    0.0;   TEEND  =   0.0 temperature during run
   SMASS  =  -3.00    Nose mass-parameter (am)
   estimated Nose-frequenzy (Omega)   =  0.10E-29 period in steps =****** mass=  -0.394E-26a.u.
   SCALEE = 1.0000    scale energy and forces
   NPACO  =    256;   APACO  = 16.0  distance and # of slots for P.C.
   PSTRESS=    0.0 pullay stress

  Mass of Ions in am
   POMASS =  44.96 19.00 12.01
  Ionic Valenz
   ZVAL   =  11.00  7.00  4.00
  Atomic Wigner-Seitz radii
   RWIGS  =  -1.00 -1.00 -1.00
  virtual crystal weights 
   VCA    =   1.00  1.00  1.00
   NELECT =     640.0000    total number of electrons
   NUPDOWN=      -1.0000    fix difference up-down

 DOS related values:
   EMIN   =  10.00;   EMAX   =-10.00  energy-range for DOS
   EFERMI =   0.00
   ISMEAR =     0;   SIGMA  =   0.05  broadening in eV -4-tet -1-fermi 0-gaus

 Electronic relaxation 2 (details)
   IALGO  =     38    algorithm
   LDIAG  =      T    sub-space diagonalisation (order eigenvalues)
   LSUBROT=      F    optimize rotation matrix (better conditioning)
   TURBO    =      0    0=normal 1=particle mesh
   IRESTART =      0    0=no restart 2=restart with 2 vectors
   NREBOOT  =      0    no. of reboots
   NMIN     =      0    reboot dimension
   EREF     =   0.00    reference energy to select bands
   IMIX   =      4    mixing-type and parameters
     AMIX     =   0.40;   BMIX     =  1.00
     AMIX_MAG =   1.60;   BMIX_MAG =  1.00
     AMIN     =   0.10
     WC   =   100.;   INIMIX=   1;  MIXPRE=   1;  MAXMIX= -45

 Intra band minimization:
   WEIMIN = 0.0000     energy-eigenvalue tresh-hold
   EBREAK =  0.65E-09  absolut break condition
   DEPER  =   0.30     relativ break condition  

   TIME   =   0.40     timestep for ELM

  volume/ion in A,a.u.               =      50.06       337.80
  Fermi-wavevector in a.u.,A,eV,Ry     =   0.888414  1.678858 10.738790  0.789279
  Thomas-Fermi vector in A             =   2.009840
 
 Write flags
   LWAVE        =      F    write WAVECAR
   LDOWNSAMPLE  =      F    k-point downsampling of WAVECAR
   LCHARG       =      F    write CHGCAR
   LVTOT        =      F    write LOCPOT, total local potential
   LVHAR        =      F    write LOCPOT, Hartree potential only
   LELF         =      F    write electronic localiz. function (ELF)
   LORBIT       =      0    0 simple, 1 ext, 2 COOP (PROOUT), +10 PAW based schemes


 Dipole corrections
   LMONO  =      F    monopole corrections only (constant potential shift)
   LDIPOL =      F    correct potential (dipole corrections)
   IDIPOL =      0    1-x, 2-y, 3-z, 4-all directions 
   EPSILON=  1.0000000 bulk dielectric constant

 Exchange correlation treatment:
   GGA     =    --    GGA type
   LEXCH   =     8    internal setting for exchange type
   VOSKOWN=      0    Vosko Wilk Nusair interpolation
   LHFCALC =     F    Hartree Fock is set to
   LHFONE  =     F    Hartree Fock one center treatment
   AEXX    =    0.0000 exact exchange contribution

 Linear response parameters
   LEPSILON=     F    determine dielectric tensor
   LRPA    =     F    only Hartree local field effects (RPA)
   LNABLA  =     F    use nabla operator in PAW spheres
   LVEL    =     F    velocity operator in full k-point grid
   LINTERFAST=   F  fast interpolation
   KINTER  =     0    interpolate to denser k-point grid
   CSHIFT  =0.1000    complex shift for real part using Kramers Kronig
   OMEGAMAX=  -1.0    maximum frequency
   DEG_THRESHOLD= 0.2000000E-02 threshold for treating states as degnerate
   RTIME   =   -0.100 relaxation time in fs
  (WPLASMAI=    0.000 imaginary part of plasma frequency in eV, 0.658/RTIME)
   DFIELD  = 0.0000000 0.0000000 0.0000000 field for delta impulse in time
 
 Orbital magnetization related:
   ORBITALMAG=     F  switch on orbital magnetization
   LCHIMAG   =     F  perturbation theory with respect to B field
   DQ        =  0.001000  dq finite difference perturbation B field
   LLRAUG    =     F  two centre corrections for induced B field



--------------------------------------------------------------------------------------------------------


 Static calculation
 charge density and potential will be updated during run
 non-spin polarized calculation
 Variant of blocked Davidson
 Davidson routine will perform the subspace rotation
 perform sub-space diagonalisation
    after iterative eigenvector-optimisation
 modified Broyden-mixing scheme, WC =      100.0
 initial mixing is a Kerker type mixing with AMIX =  0.4000 and BMIX =      1.0000
 Hartree-type preconditioning will be used
 using additional bands           64
 real space projection scheme for non local part
 use partial core corrections
 calculate Harris-corrections to forces 
   (improved forces if not selfconsistent)
 use gradient corrections 
 use of overlap-Matrix (Vanderbilt PP)
 Gauss-broadening in eV      SIGMA  =   0.05


--------------------------------------------------------------------------------------------------------


  energy-cutoff  :      600.00
  volume of cell :     4004.60
      direct lattice vectors                 reciprocal lattice vectors
    13.128623400  0.000000000  0.000000000     0.076169448  0.043976451  0.000000000
    -6.564311700 11.369721380  0.000000000     0.000000000  0.087952903  0.000000000
     0.000000000  0.000000000 26.828094240     0.000000000  0.000000000  0.037274358

  length of vectors
    13.128623400 13.128623399 26.828094240     0.087952903  0.087952903  0.037274358


 
 k-points in units of 2pi/SCALE and weight: read from INCAR                         
   0.00000000  0.00000000  0.00000000       0.111
   0.02538982  0.01465882  0.00000000       0.222
   0.00000000  0.02931763  0.00000000       0.222
   0.02538982  0.04397645  0.00000000       0.222
  -0.02538982  0.01465882  0.00000000       0.222
 
 k-points in reciprocal lattice and weights: read from INCAR                         
   0.00000000  0.00000000  0.00000000       0.111
   0.33333333 -0.00000000  0.00000000       0.222
   0.00000000  0.33333333  0.00000000       0.222
   0.33333333  0.33333333  0.00000000       0.222
  -0.33333333  0.33333333  0.00000000       0.222
 
 position of ions in fractional coordinates (direct lattice) 
   0.08661051  0.16922837  0.45444566
   0.06990017  0.41158802  0.45252392
   0.08634059  0.66670512  0.44884221
   0.08804044  0.92802375  0.45197299
   0.34441064  0.18046883  0.45719738
   0.32295026  0.41175573  0.45011628
   0.33491364  0.66239829  0.44560281
   0.32679551  0.92181877  0.45139602
   0.58313493  0.16747543  0.45645714
   0.58083072  0.41681298  0.45440380
   0.58805127  0.66501774  0.45155624
   0.58565020  0.91310945  0.45507252
   0.83553767  0.16368352  0.45402242
   0.82575736  0.41439020  0.45315963
   0.84130242  0.67086060  0.44723460
   0.83998837  0.91594706  0.45371219
   0.17269303  0.08972777  0.54726976
   0.16680165  0.33486844  0.54518061
   0.16943041  0.59512260  0.54430164
   0.16798060  0.84085677  0.54673359
   0.41743977  0.07693294  0.54608752
   0.42196670  0.33936586  0.55317199
   0.41875214  0.58070520  0.54532787
   0.40615969  0.83015947  0.54395433
   0.67100722  0.08178337  0.55565739
   0.65659503  0.32874343  0.54960638
   0.66692542  0.57862478  0.54426004
   0.66465291  0.82686323  0.54775562
   0.91271281  0.07595947  0.54798771
   0.91061734  0.33300722  0.54891578
   0.91186400  0.58315667  0.54495123
   0.91480115  0.82914648  0.54810212
   0.09633556  0.18086878  0.59109648
   0.08437394  0.41284389  0.58721007
   0.08409809  0.66464415  0.58587372
   0.08038693  0.92437934  0.59186571
   0.31704548  0.16350777  0.59629623
   0.33500086  0.41723287  0.59188347
   0.33606818  0.65770638  0.58392935
   0.33699150  0.91610125  0.58995102
   0.57386899  0.16273511  0.59564432
   0.59148793  0.42786078  0.59484635
   0.58866021  0.66458334  0.58720126
   0.59237280  0.92209992  0.59938085
   0.84725400  0.16333906  0.59381896
   0.82119055  0.42454214  0.59303925
   0.82920177  0.66923574  0.58671293
   0.82255041  0.90580787  0.58763359
   0.17016897  0.09136848  0.41113911
   0.14615264  0.31190358  0.40884468
   0.16443701  0.56947345  0.40422873
   0.18030120  0.85583261  0.40568120
   0.43304127  0.10046311  0.41278808
   0.41764417  0.32734397  0.41224060
   0.41122512  0.57617767  0.40648962
   0.41701320  0.83889214  0.41154667
   0.67327258  0.09733621  0.41168536
   0.65260513  0.32370102  0.41380794
   0.67099939  0.58446786  0.40675652
   0.68488535  0.82467961  0.40829224
   0.91839775  0.07585991  0.41549799
   0.89559184  0.31639428  0.41009940
   0.91794836  0.57375383  0.40750437
   0.93000264  0.84053091  0.41109549
   0.99769758  0.99910437  0.50368204
   0.99635275  0.24659266  0.49808705
   0.00123694  0.50849999  0.49680030
   0.00723431  0.74843496  0.49936963
   0.24684082  0.00153283  0.49694699
   0.25887453  0.25890077  0.50278248
   0.23990522  0.49459248  0.49373135
   0.25871775  0.76359247  0.49441550
   0.49714796  0.99573289  0.50265742
   0.49829601  0.24523603  0.50377346
   0.50236059  0.49926971  0.49949473
   0.49243549  0.74264906  0.49655833
   0.75454521  0.99970960  0.50190651
   0.75053170  0.25792249  0.50448367
   0.74436103  0.49886742  0.49529141
   0.75604744  0.74591076  0.49904985
 
 position of ions in cartesian coordinates  (Angst):
   0.02620902  1.92407942 12.19191095
  -1.78409910  4.67964113 12.14035429
  -3.24292713  7.58025145 12.04158109
  -4.93598745 10.55137152 12.12557397
   3.33698397  2.05188029 12.26573443
   1.53699943  4.68154788 12.07576190
   0.04876628  7.53128398 11.95467426
  -1.76073055 10.48082263 12.11009489
   6.55639798  1.90414901 12.24587529
   4.88941753  4.73904740 12.19078804
   3.35491990  7.56106637 12.11439328
   1.69484592 10.38180004 12.20872848
   9.89498976  1.86103600 12.18055619
   8.12087096  4.71150108 12.15740928
   6.64140464  7.62749806 11.99845201
   5.01532898 10.41406292 12.17223342
   1.67822069  1.02017978 14.68220459
  -0.00830474  3.80736084 14.62615674
  -1.68218218  6.76637812 14.60257565
  -3.31429198  9.56030725 14.66782024
   4.97539770  0.87470609 14.65048739
   3.31213865  3.85849525 14.84055040
   1.68570923  6.60245628 14.63010743
  -0.11710794  9.43868191 14.59325807
   8.27254954  0.92985410 14.90722876
   6.46221457  3.73772122 14.74489178
   4.95753929  6.57880254 14.60145963
   3.29818981  9.40120452 14.69523948
  11.48404113  0.86363801 14.70146596
   9.76918894  3.78619927 14.72636416
   8.14349684  6.63032891 14.62000283
   6.56730385  9.42716441 14.70453520
   0.07747418  2.05642765 15.85799206
  -1.60232232  4.69391999 15.75372706
  -3.25883917  7.55681880 15.71787549
  -5.01254437 10.50993553 15.87862910
   3.08905476  1.85903781 15.99749151
   1.65925351  4.74382152 15.87910560
   0.09472286  7.47793825 15.66571150
  -1.58933964 10.41581593 15.82726157
   6.46586580  1.85025291 15.98000204
   4.95681073  4.86465781 15.95859384
   3.36576604  7.55612746 15.75349069
   1.72408812 10.48401920 16.08024582
  10.05107022  1.85711959 15.93103092
   7.99427455  4.82692583 15.91011287
   6.49320583  7.60902389 15.74038968
   4.85294932 10.29878307 15.76508931
   1.63431316  1.03883412 11.03007881
  -0.12864940  3.54625680 10.96852360
  -1.57936968  6.47475450 10.84468646
  -3.25084547  9.73057836 10.88365351
   5.02576463  1.14223754 11.07431740
   3.33430512  3.72180977 11.05962972
   1.61660997  6.55097958 10.90534179
  -0.03194017  9.53796990 11.04101289
   8.20019691  1.10668555 11.04473367
   6.44293255  3.68039037 11.10167842
   4.97266915  6.64523668 10.91250236
   3.57814781  9.37637742 10.95370263
  11.55933018  0.86250599 11.14701919
   9.68097733  3.59731483 11.00218531
   8.28509935  6.52342119 10.93256571
   6.69214744  9.55660231 11.02890862
   6.53996330 11.35953827 13.51282911
  11.46202888  2.80368988 13.36272642
  -3.32171320  5.78150325 13.32820539
  -4.81798387  8.50949693 13.39713559
   3.23061816  0.01742781 13.33214079
   1.69916079  2.94362963 13.48869567
  -0.09703395  5.62337874 13.24587108
  -1.61585111  8.68183363 13.26422571
  -0.00943277 11.32120558 13.48534062
   4.93213493  2.78826534 13.51528187
   3.31794104  5.67655752 13.40049160
   1.59002020  8.44371293 13.32171372
   3.34373451 11.36641966 13.46519508
   8.16036436  2.93250686 13.53433537
   6.49771442  5.67198356 13.28772459
   5.02947143  8.48079748 13.38855645
 


--------------------------------------------------------------------------------------------------------


 k-point  1 :   0.0000 0.0000 0.0000  plane waves:  133769
 k-point  2 :   0.3333-0.0000 0.0000  plane waves:  133588
 k-point  3 :   0.0000 0.3333 0.0000  plane waves:  133588
 k-point  4 :   0.3333 0.3333 0.0000  plane waves:  133608
 k-point  5 :  -0.3333 0.3333 0.0000  plane waves:  133588

 maximum and minimum number of plane-waves per node :     10323    10242

 maximum number of plane-waves:    133769
 maximum index in each direction: 
   IXMAX=   26   IYMAX=   26   IZMAX=   53
   IXMIN=  -26   IYMIN=  -26   IZMIN=  -53


 real space projection operators:
  total allocation   :      55703.22 KBytes
  max/ min on nodes  :       4703.11       4072.42


 parallel 3D FFT for wavefunctions:
    minimum data exchange during FFTs selected (reduces bandwidth)
 parallel 3D FFT for charge:
    minimum data exchange during FFTs selected (reduces bandwidth)


 total amount of memory used by VASP MPI-rank0   234681. kBytes
=======================================================================

   base      :      30000. kBytes
   nonlr-proj:      19413. kBytes
   fftplans  :      66973. kBytes
   grid      :      38377. kBytes
   one-center:        108. kBytes
   wavefun   :      79810. kBytes
 
     INWAV:  cpu time    0.0000: real time    0.0000
 Broyden mixing: mesh for mixing (old mesh)
   NGX = 53   NGY = 53   NGZ =107
  (NGX  =216   NGY  =216   NGZ  =432)
  gives a total of 300563 points

 initial charge density was supplied:
 charge density of overlapping atoms calculated
 number of electron     640.0000000 magnetization 
 keeping initial charge density in first step


--------------------------------------------------------------------------------------------------------


 Maximum index for non-local projection operator         1096
 Maximum index for augmentation-charges         5408 (set IRDMAX)


--------------------------------------------------------------------------------------------------------


 First call to EWALD:  gamma=   0.112
 Maximum number of real-space cells 4x 4x 2
 Maximum number of reciprocal cells 2x 2x 4

    FEWALD:  cpu time    0.0032: real time    0.0041


--------------------------------------- Iteration      1(   1)  ---------------------------------------


    POTLOK:  cpu time    0.4142: real time    0.4213
    SETDIJ:  cpu time    0.4292: real time    0.4322
     EDDAV:  cpu time   46.8506: real time   46.8626
       DOS:  cpu time    0.0014: real time    0.0014
    --------------------------------------------
      LOOP:  cpu time   47.6954: real time   47.7176

 eigenvalue-minimisations  :  4256
 total energy-change (2. order) : 0.1370725E+05  (-0.2785729E+05)
 number of electron     640.0000000 magnetization 
 augmentation part      640.0000000 magnetization 

 Free energy of the ion-electron system (eV)
  ---------------------------------------------------
  alpha Z        PSCENC =       871.83850952
  Ewald energy   TEWEN  =    286928.28805661
  -Hartree energ DENC   =   -341275.49949008
  -exchange      EXHF   =         0.00000000
  -V(xc)+E(xc)   XCENC  =      3043.22942183
  PAW double counting   =     50525.51240023   -50422.77561733
  entropy T*S    EENTRO =        -0.08132903
  eigenvalues    EBANDS =      -170.69791568
  atomic energy  EATOM  =     64207.43592568
  Solvation  Ediel_sol  =         0.00000000
  ---------------------------------------------------
  free energy    TOTEN  =     13707.24996176 eV

  energy without entropy =    13707.33129079  energy(sigma->0) =    13707.29062628


--------------------------------------------------------------------------------------------------------




--------------------------------------- Iteration      1(   2)  ---------------------------------------


     EDDAV:  cpu time   50.5907: real time   50.6148
       DOS:  cpu time    0.0013: real time    0.0012
    --------------------------------------------
      LOOP:  cpu time   50.5919: real time   50.6160

 eigenvalue-minimisations  :  4656
 total energy-change (2. order) :-0.1119679E+05  (-0.1089345E+05)
 number of electron     640.0000000 magnetization 
 augmentation part      640.0000000 magnetization 

 Free energy of the ion-electron system (eV)
  ---------------------------------------------------
  alpha Z        PSCENC =       871.83850952
  Ewald energy   TEWEN  =    286928.28805661
  -Hartree energ DENC   =   -341275.49949008
  -exchange      EXHF   =         0.00000000
  -V(xc)+E(xc)   XCENC  =      3043.22942183
  PAW double counting   =     50525.51240023   -50422.77561733
  entropy T*S    EENTRO =        -0.04650067
  eigenvalues    EBANDS =    -11367.51849679
  atomic energy  EATOM  =     64207.43592568
  Solvation  Ediel_sol  =         0.00000000
  ---------------------------------------------------
  free energy    TOTEN  =      2510.46420900 eV

  energy without entropy =     2510.51070968  energy(sigma->0) =     2510.48745934


--------------------------------------------------------------------------------------------------------




--------------------------------------- Iteration      1(   3)  ---------------------------------------


     EDDAV:  cpu time   69.3908: real time   69.3948
       DOS:  cpu time    0.0005: real time    0.0005
    --------------------------------------------
      LOOP:  cpu time   69.3913: real time   69.3953

 eigenvalue-minimisations  :  6792
 total energy-change (2. order) :-0.2887291E+04  (-0.2773051E+04)
 number of electron     640.0000000 magnetization 
 augmentation part      640.0000000 magnetization 

 Free energy of the ion-electron system (eV)
  ---------------------------------------------------
  alpha Z        PSCENC =       871.83850952
  Ewald energy   TEWEN  =    286928.28805661
  -Hartree energ DENC   =   -341275.49949008
  -exchange      EXHF   =         0.00000000
  -V(xc)+E(xc)   XCENC  =      3043.22942183
  PAW double counting   =     50525.51240023   -50422.77561733
  entropy T*S    EENTRO =        -0.00000000
  eigenvalues    EBANDS =    -14254.85582367
  atomic energy  EATOM  =     64207.43592568
  Solvation  Ediel_sol  =         0.00000000
  ---------------------------------------------------
  free energy    TOTEN  =      -376.82661720 eV

  energy without entropy =     -376.82661720  energy(sigma->0) =     -376.82661720


--------------------------------------------------------------------------------------------------------




--------------------------------------- Iteration      1(   4)  ---------------------------------------


     EDDAV:  cpu time   63.0659: real time   63.0752
       DOS:  cpu time    0.0006: real time    0.0006
    --------------------------------------------
      LOOP:  cpu time   63.0665: real time   63.0758

 eigenvalue-minimisations  :  6072
 total energy-change (2. order) :-0.3634608E+03  (-0.3591195E+03)
 number of electron     640.0000000 magnetization 
 augmentation part      640.0000000 magnetization 

 Free energy of the ion-electron system (eV)
  ---------------------------------------------------
  alpha Z        PSCENC =       871.83850952
  Ewald energy   TEWEN  =    286928.28805661
  -Hartree energ DENC   =   -341275.49949008
  -exchange      EXHF   =         0.00000000
  -V(xc)+E(xc)   XCENC  =      3043.22942183
  PAW double counting   =     50525.51240023   -50422.77561733
  entropy T*S    EENTRO =        -0.00000000
  eigenvalues    EBANDS =    -14618.31661143
  atomic energy  EATOM  =     64207.43592568
  Solvation  Ediel_sol  =         0.00000000
  ---------------------------------------------------
  free energy    TOTEN  =      -740.28740496 eV

  energy without entropy =     -740.28740496  energy(sigma->0) =     -740.28740496


--------------------------------------------------------------------------------------------------------




--------------------------------------- Iteration      1(   5)  ---------------------------------------


     EDDAV:  cpu time   63.1493: real time   63.1601
       DOS:  cpu time    0.0007: real time    0.0007
    CHARGE:  cpu time    3.7089: real time    3.7089
    MIXING:  cpu time    0.0288: real time    0.0291
    --------------------------------------------
      LOOP:  cpu time   66.8877: real time   66.8988

 eigenvalue-minimisations  :  6080
 total energy-change (2. order) :-0.1471745E+02  (-0.1465884E+02)
 number of electron     640.0000007 magnetization 
 augmentation part      134.5272718 magnetization 

 Broyden mixing:
  rms(total) = 0.76482E+01    rms(broyden)= 0.76480E+01
  rms(prec ) = 0.80545E+01
  weight for this iteration     100.00

 Free energy of the ion-electron system (eV)
  ---------------------------------------------------
  alpha Z        PSCENC =       871.83850952
  Ewald energy   TEWEN  =    286928.28805661
  -Hartree energ DENC   =   -341275.49949008
  -exchange      EXHF   =         0.00000000
  -V(xc)+E(xc)   XCENC  =      3043.22942183
  PAW double counting   =     50525.51240023   -50422.77561733
  entropy T*S    EENTRO =        -0.00000000
  eigenvalues    EBANDS =    -14633.03406363
  atomic energy  EATOM  =     64207.43592568
  Solvation  Ediel_sol  =         0.00000000
  ---------------------------------------------------
  free energy    TOTEN  =      -755.00485717 eV

  energy without entropy =     -755.00485717  energy(sigma->0) =     -755.00485717


--------------------------------------------------------------------------------------------------------




--------------------------------------- Iteration      1(   6)  ---------------------------------------


    POTLOK:  cpu time    0.3828: real time    0.3912
    SETDIJ:  cpu time    0.4233: real time    0.4233
     EDDAV:  cpu time   59.5552: real time   59.5561
       DOS:  cpu time    0.0006: real time    0.0006
    CHARGE:  cpu time    3.7454: real time    3.7454
    MIXING:  cpu time    0.0221: real time    0.0222
    --------------------------------------------
      LOOP:  cpu time   64.1293: real time   64.1387

 eigenvalue-minimisations  :  5664
 total energy-change (2. order) : 0.1559553E+03  (-0.8387837E+02)
 number of electron     640.0000008 magnetization 
 augmentation part      140.4890893 magnetization 

 Broyden mixing:
  rms(total) = 0.24962E+01    rms(broyden)= 0.24955E+01
  rms(prec ) = 0.25483E+01
  weight for this iteration     100.00

 eigenvalues of (default mixing * dielectric matrix)
  average eigenvalue GAMMA=   0.9794
  0.9794

 Free energy of the ion-electron system (eV)
  ---------------------------------------------------
  alpha Z        PSCENC =       871.83850952
  Ewald energy   TEWEN  =    286928.28805661
  -Hartree energ DENC   =   -341450.70026165
  -exchange      EXHF   =         0.00000000
  -V(xc)+E(xc)   XCENC  =      3055.52636755
  PAW double counting   =     56363.83108141   -56330.35072170
  entropy T*S    EENTRO =        -0.00000000
  eigenvalues    EBANDS =    -14244.91847665
  atomic energy  EATOM  =     64207.43592568
  Solvation  Ediel_sol  =         0.00000000
  ---------------------------------------------------
  free energy    TOTEN  =      -599.04951923 eV

  energy without entropy =     -599.04951923  energy(sigma->0) =     -599.04951923


--------------------------------------------------------------------------------------------------------




--------------------------------------- Iteration      1(   7)  ---------------------------------------


    POTLOK:  cpu time    0.4571: real time    0.4742
    SETDIJ:  cpu time    0.4575: real time    0.4613
     EDDAV:  cpu time   61.7166: real time   61.7190
       DOS:  cpu time    0.0006: real time    0.0006
    CHARGE:  cpu time    3.6337: real time    3.6337
    MIXING:  cpu time    0.0210: real time    0.0210
    --------------------------------------------
      LOOP:  cpu time   66.2866: real time   66.3099

 eigenvalue-minimisations  :  5920
 total energy-change (2. order) :-0.5950663E-01  (-0.5368731E+01)
 number of electron     640.0000008 magnetization 
 augmentation part      141.0659244 magnetization 

 Broyden mixing:
  rms(total) = 0.16269E+01    rms(broyden)= 0.16269E+01
  rms(prec ) = 0.16566E+01
  weight for this iteration     100.00

 eigenvalues of (default mixing * dielectric matrix)
  average eigenvalue GAMMA=   1.6645
  0.9651  2.3640

 Free energy of the ion-electron system (eV)
  ---------------------------------------------------
  alpha Z        PSCENC =       871.83850952
  Ewald energy   TEWEN  =    286928.28805661
  -Hartree energ DENC   =   -341595.91010012
  -exchange      EXHF   =         0.00000000
  -V(xc)+E(xc)   XCENC  =      3052.59373617
  PAW double counting   =     60068.12339620   -60041.70577684
  entropy T*S    EENTRO =        -0.00000000
  eigenvalues    EBANDS =    -14089.77277308
  atomic energy  EATOM  =     64207.43592568
  Solvation  Ediel_sol  =         0.00000000
  ---------------------------------------------------
  free energy    TOTEN  =      -599.10902586 eV

  energy without entropy =     -599.10902586  energy(sigma->0) =     -599.10902586


--------------------------------------------------------------------------------------------------------




--------------------------------------- Iteration      1(   8)  ---------------------------------------


    POTLOK:  cpu time    0.3724: real time    0.3825
    SETDIJ:  cpu time    0.4241: real time    0.4241
     EDDAV:  cpu time   58.7368: real time   58.7368
       DOS:  cpu time    0.0006: real time    0.0006
    CHARGE:  cpu time    3.7237: real time    3.7237
    MIXING:  cpu time    0.0229: real time    0.0229
    --------------------------------------------
      LOOP:  cpu time   63.2806: real time   63.2906

 eigenvalue-minimisations  :  5568
 total energy-change (2. order) : 0.1566445E+01  (-0.1061572E+01)
 number of electron     640.0000008 magnetization 
 augmentation part      141.0872160 magnetization 

 Broyden mixing:
  rms(total) = 0.44846E+00    rms(broyden)= 0.44836E+00
  rms(prec ) = 0.48438E+00
  weight for this iteration     100.00

 eigenvalues of (default mixing * dielectric matrix)
  average eigenvalue GAMMA=   1.4292
  2.4622  0.9127  0.9127

 Free energy of the ion-electron system (eV)
  ---------------------------------------------------
  alpha Z        PSCENC =       871.83850952
  Ewald energy   TEWEN  =    286928.28805661
  -Hartree energ DENC   =   -341865.52299722
  -exchange      EXHF   =         0.00000000
  -V(xc)+E(xc)   XCENC  =      3048.97046003
  PAW double counting   =     66502.79107414   -66493.86232057
  entropy T*S    EENTRO =        -0.00000000
  eigenvalues    EBANDS =    -13797.48128935
  atomic energy  EATOM  =     64207.43592568
  Solvation  Ediel_sol  =         0.00000000
  ---------------------------------------------------
  free energy    TOTEN  =      -597.54258116 eV

  energy without entropy =     -597.54258116  energy(sigma->0) =     -597.54258116


--------------------------------------------------------------------------------------------------------




--------------------------------------- Iteration      1(   9)  ---------------------------------------


    POTLOK:  cpu time    0.3947: real time    0.4087
    SETDIJ:  cpu time    0.4241: real time    0.4241
     EDDAV:  cpu time   58.5645: real time   58.5666
       DOS:  cpu time    0.0006: real time    0.0006
    CHARGE:  cpu time    3.7045: real time    3.7045
    MIXING:  cpu time    0.0243: real time    0.0243
    --------------------------------------------
      LOOP:  cpu time   63.1126: real time   63.1287

 eigenvalue-minimisations  :  5552
 total energy-change (2. order) : 0.5392694E+00  (-0.3018823E+00)
 number of electron     640.0000008 magnetization 
 augmentation part      141.5159380 magnetization 

 Broyden mixing:
  rms(total) = 0.21795E+00    rms(broyden)= 0.21795E+00
  rms(prec ) = 0.23599E+00
  weight for this iteration     100.00

 eigenvalues of (default mixing * dielectric matrix)
  average eigenvalue GAMMA=   1.2537
  2.1061  1.1409  0.8839  0.8839

 Free energy of the ion-electron system (eV)
  ---------------------------------------------------
  alpha Z        PSCENC =       871.83850952
  Ewald energy   TEWEN  =    286928.28805661
  -Hartree energ DENC   =   -341970.69719369
  -exchange      EXHF   =         0.00000000
  -V(xc)+E(xc)   XCENC  =      3051.01370663
  PAW double counting   =     66816.65868728   -66810.68365676
  entropy T*S    EENTRO =        -0.00000000
  eigenvalues    EBANDS =    -13690.85734699
  atomic energy  EATOM  =     64207.43592568
  Solvation  Ediel_sol  =         0.00000000
  ---------------------------------------------------
  free energy    TOTEN  =      -597.00331172 eV

  energy without entropy =     -597.00331172  energy(sigma->0) =     -597.00331172


--------------------------------------------------------------------------------------------------------




--------------------------------------- Iteration      1(  10)  ---------------------------------------


    POTLOK:  cpu time    0.3782: real time    0.3912
    SETDIJ:  cpu time    0.4257: real time    0.4257
     EDDAV:  cpu time   60.4271: real time   60.4285
       DOS:  cpu time    0.0006: real time    0.0005
    CHARGE:  cpu time    3.7340: real time    3.7340
    MIXING:  cpu time    0.0195: real time    0.0195
    --------------------------------------------
      LOOP:  cpu time   64.9851: real time   64.9995

 eigenvalue-minimisations  :  5768
 total energy-change (2. order) : 0.3545038E-01  (-0.2631315E-01)
 number of electron     640.0000008 magnetization 
 augmentation part      141.3457868 magnetization 

 Broyden mixing:
  rms(total) = 0.11451E+00    rms(broyden)= 0.11451E+00
  rms(prec ) = 0.13964E+00
  weight for this iteration     100.00

 eigenvalues of (default mixing * dielectric matrix)
  average eigenvalue GAMMA=   1.4449
  2.3712  2.3712  0.9093  0.9093  0.6636

 Free energy of the ion-electron system (eV)
  ---------------------------------------------------
  alpha Z        PSCENC =       871.83850952
  Ewald energy   TEWEN  =    286928.28805661
  -Hartree energ DENC   =   -342031.50914103
  -exchange      EXHF   =         0.00000000
  -V(xc)+E(xc)   XCENC  =      3052.28261394
  PAW double counting   =     66221.40375442   -66214.18992294
  entropy T*S    EENTRO =        -0.00000000
  eigenvalues    EBANDS =    -13632.51765754
  atomic energy  EATOM  =     64207.43592568
  Solvation  Ediel_sol  =         0.00000000
  ---------------------------------------------------
  free energy    TOTEN  =      -596.96786134 eV

  energy without entropy =     -596.96786134  energy(sigma->0) =     -596.96786134


--------------------------------------------------------------------------------------------------------




--------------------------------------- Iteration      1(  11)  ---------------------------------------


    POTLOK:  cpu time    0.4266: real time    0.4364
    SETDIJ:  cpu time    0.4654: real time    0.4654
     EDDAV:  cpu time   58.5234: real time   58.5264
       DOS:  cpu time    0.0007: real time    0.0007
    CHARGE:  cpu time    3.7084: real time    3.7084
    MIXING:  cpu time    0.0235: real time    0.0235
    --------------------------------------------
      LOOP:  cpu time   63.1480: real time   63.1608

 eigenvalue-minimisations  :  5536
 total energy-change (2. order) : 0.1249502E+00  (-0.1670631E-01)
 number of electron     640.0000008 magnetization 
 augmentation part      141.2193083 magnetization 

 Broyden mixing:
  rms(total) = 0.83295E-01    rms(broyden)= 0.83293E-01
  rms(prec ) = 0.97484E-01
  weight for this iteration     100.00

 eigenvalues of (default mixing * dielectric matrix)
  average eigenvalue GAMMA=   1.3730
  2.5852  2.0639  1.0390  0.9295  0.9295  0.6910

 Free energy of the ion-electron system (eV)
  ---------------------------------------------------
  alpha Z        PSCENC =       871.83850952
  Ewald energy   TEWEN  =    286928.28805661
  -Hartree energ DENC   =   -342200.63374916
  -exchange      EXHF   =         0.00000000
  -V(xc)+E(xc)   XCENC  =      3053.93463818
  PAW double counting   =     66133.40775098   -66126.18361428
  entropy T*S    EENTRO =        -0.00000000
  eigenvalues    EBANDS =    -13464.93042870
  atomic energy  EATOM  =     64207.43592568
  Solvation  Ediel_sol  =         0.00000000
  ---------------------------------------------------
  free energy    TOTEN  =      -596.84291116 eV

  energy without entropy =     -596.84291116  energy(sigma->0) =     -596.84291116


--------------------------------------------------------------------------------------------------------




--------------------------------------- Iteration      1(  12)  ---------------------------------------


    POTLOK:  cpu time    0.3720: real time    0.3858
    SETDIJ:  cpu time    0.4230: real time    0.4230
     EDDAV:  cpu time   60.7702: real time   60.7710
       DOS:  cpu time    0.0007: real time    0.0007
    CHARGE:  cpu time    3.7088: real time    3.7088
    MIXING:  cpu time    0.0240: real time    0.0240
    --------------------------------------------
      LOOP:  cpu time   65.2987: real time   65.3133

 eigenvalue-minimisations  :  5800
 total energy-change (2. order) : 0.2814457E-01  (-0.5985159E-02)
 number of electron     640.0000008 magnetization 
 augmentation part      141.3204321 magnetization 

 Broyden mixing:
  rms(total) = 0.34783E-01    rms(broyden)= 0.34782E-01
  rms(prec ) = 0.52035E-01
  weight for this iteration     100.00

 eigenvalues of (default mixing * dielectric matrix)
  average eigenvalue GAMMA=   1.3979
  2.5241  2.5241  1.1340  1.1340  0.9053  0.9053  0.6588

 Free energy of the ion-electron system (eV)
  ---------------------------------------------------
  alpha Z        PSCENC =       871.83850952
  Ewald energy   TEWEN  =    286928.28805661
  -Hartree energ DENC   =   -342251.88042642
  -exchange      EXHF   =         0.00000000
  -V(xc)+E(xc)   XCENC  =      3053.90700024
  PAW double counting   =     66345.10352802   -66338.43927722
  entropy T*S    EENTRO =        -0.00000000
  eigenvalues    EBANDS =    -13413.06808303
  atomic energy  EATOM  =     64207.43592568
  Solvation  Ediel_sol  =         0.00000000
  ---------------------------------------------------
  free energy    TOTEN  =      -596.81476659 eV

  energy without entropy =     -596.81476659  energy(sigma->0) =     -596.81476659


--------------------------------------------------------------------------------------------------------




--------------------------------------- Iteration      1(  13)  ---------------------------------------


    POTLOK:  cpu time    0.3688: real time    0.3784
    SETDIJ:  cpu time    0.4258: real time    0.4258
     EDDAV:  cpu time   59.5648: real time   59.5665
       DOS:  cpu time    0.0007: real time    0.0007
    CHARGE:  cpu time    3.7121: real time    3.7121
    MIXING:  cpu time    0.0242: real time    0.0242
    --------------------------------------------
      LOOP:  cpu time   64.0965: real time   64.1077

 eigenvalue-minimisations  :  5648
 total energy-change (2. order) : 0.9350289E-02  (-0.4233983E-02)
 number of electron     640.0000008 magnetization 
 augmentation part      141.2490218 magnetization 

 Broyden mixing:
  rms(total) = 0.33160E-01    rms(broyden)= 0.33158E-01
  rms(prec ) = 0.44321E-01
  weight for this iteration     100.00

 eigenvalues of (default mixing * dielectric matrix)
  average eigenvalue GAMMA=   1.3707
  2.6677  2.6677  1.2435  1.2435  0.9093  0.9093  0.7008  0.6236

 Free energy of the ion-electron system (eV)
  ---------------------------------------------------
  alpha Z        PSCENC =       871.83850952
  Ewald energy   TEWEN  =    286928.28805661
  -Hartree energ DENC   =   -342317.28327926
  -exchange      EXHF   =         0.00000000
  -V(xc)+E(xc)   XCENC  =      3054.17608759
  PAW double counting   =     66246.85709470   -66239.77189173
  entropy T*S    EENTRO =        -0.00000000
  eigenvalues    EBANDS =    -13348.34591941
  atomic energy  EATOM  =     64207.43592568
  Solvation  Ediel_sol  =         0.00000000
  ---------------------------------------------------
  free energy    TOTEN  =      -596.80541630 eV

  energy without entropy =     -596.80541630  energy(sigma->0) =     -596.80541630


--------------------------------------------------------------------------------------------------------




--------------------------------------- Iteration      1(  14)  ---------------------------------------


    POTLOK:  cpu time    0.3732: real time    0.3841
    SETDIJ:  cpu time    0.4251: real time    0.4250
     EDDAV:  cpu time   61.9972: real time   61.9979
       DOS:  cpu time    0.0006: real time    0.0006
    CHARGE:  cpu time    3.7048: real time    3.7048
    MIXING:  cpu time    0.0237: real time    0.0237
    --------------------------------------------
      LOOP:  cpu time   66.5246: real time   66.5362

 eigenvalue-minimisations  :  5944
 total energy-change (2. order) : 0.4321511E-02  (-0.1152526E-02)
 number of electron     640.0000008 magnetization 
 augmentation part      141.2741120 magnetization 

 Broyden mixing:
  rms(total) = 0.16672E-01    rms(broyden)= 0.16672E-01
  rms(prec ) = 0.26532E-01
  weight for this iteration     100.00

 eigenvalues of (default mixing * dielectric matrix)
  average eigenvalue GAMMA=   1.4604
  2.9089  2.9089  1.5404  1.5404  0.9553  0.9553  0.8451  0.8451  0.6447

 Free energy of the ion-electron system (eV)
  ---------------------------------------------------
  alpha Z        PSCENC =       871.83850952
  Ewald energy   TEWEN  =    286928.28805661
  -Hartree energ DENC   =   -342365.37332292
  -exchange      EXHF   =         0.00000000
  -V(xc)+E(xc)   XCENC  =      3054.30563424
  PAW double counting   =     66268.01879705   -66261.06404627
  entropy T*S    EENTRO =        -0.00000000
  eigenvalues    EBANDS =    -13300.25064870
  atomic energy  EATOM  =     64207.43592568
  Solvation  Ediel_sol  =         0.00000000
  ---------------------------------------------------
  free energy    TOTEN  =      -596.80109479 eV

  energy without entropy =     -596.80109479  energy(sigma->0) =     -596.80109479


--------------------------------------------------------------------------------------------------------




--------------------------------------- Iteration      1(  15)  ---------------------------------------


    POTLOK:  cpu time    0.4394: real time    0.4511
    SETDIJ:  cpu time    0.4389: real time    0.4410
     EDDAV:  cpu time   58.2576: real time   58.2591
       DOS:  cpu time    0.0006: real time    0.0006
    CHARGE:  cpu time    3.7072: real time    3.7072
    MIXING:  cpu time    0.0241: real time    0.0241
    --------------------------------------------
      LOOP:  cpu time   62.8678: real time   62.8831

 eigenvalue-minimisations  :  5504
 total energy-change (2. order) :-0.5538923E-02  (-0.1192139E-02)
 number of electron     640.0000008 magnetization 
 augmentation part      141.2896536 magnetization 

 Broyden mixing:
  rms(total) = 0.11841E-01    rms(broyden)= 0.11838E-01
  rms(prec ) = 0.16735E-01
  weight for this iteration     100.00

 eigenvalues of (default mixing * dielectric matrix)
  average eigenvalue GAMMA=   1.4984
  4.0787  2.7021  1.9052  1.1404  1.0109  1.0109  0.8780  0.8780  0.7515  0.6284

 Free energy of the ion-electron system (eV)
  ---------------------------------------------------
  alpha Z        PSCENC =       871.83850952
  Ewald energy   TEWEN  =    286928.28805661
  -Hartree energ DENC   =   -342424.02526441
  -exchange      EXHF   =         0.00000000
  -V(xc)+E(xc)   XCENC  =      3054.41075116
  PAW double counting   =     66245.92387114   -66238.98536070
  entropy T*S    EENTRO =        -0.00000000
  eigenvalues    EBANDS =    -13241.69312271
  atomic energy  EATOM  =     64207.43592568
  Solvation  Ediel_sol  =         0.00000000
  ---------------------------------------------------
  free energy    TOTEN  =      -596.80663371 eV

  energy without entropy =     -596.80663371  energy(sigma->0) =     -596.80663371


--------------------------------------------------------------------------------------------------------




--------------------------------------- Iteration      1(  16)  ---------------------------------------


    POTLOK:  cpu time    0.4107: real time    0.4199
    SETDIJ:  cpu time    0.4246: real time    0.4246
     EDDAV:  cpu time   58.4842: real time   58.4871
       DOS:  cpu time    0.0006: real time    0.0006
    CHARGE:  cpu time    3.6695: real time    3.6695
    MIXING:  cpu time    0.0254: real time    0.0254
    --------------------------------------------
      LOOP:  cpu time   63.0150: real time   63.0271

 eigenvalue-minimisations  :  5536
 total energy-change (2. order) :-0.3562481E-02  (-0.2408524E-03)
 number of electron     640.0000008 magnetization 
 augmentation part      141.2857319 magnetization 

 Broyden mixing:
  rms(total) = 0.82659E-02    rms(broyden)= 0.82656E-02
  rms(prec ) = 0.11372E-01
  weight for this iteration     100.00

 eigenvalues of (default mixing * dielectric matrix)
  average eigenvalue GAMMA=   1.5147
  4.3640  2.6876  2.2150  1.1455  1.1455  0.9956  0.9956  0.8858  0.8858  0.7150
  0.6260

 Free energy of the ion-electron system (eV)
  ---------------------------------------------------
  alpha Z        PSCENC =       871.83850952
  Ewald energy   TEWEN  =    286928.28805661
  -Hartree energ DENC   =   -342454.51576264
  -exchange      EXHF   =         0.00000000
  -V(xc)+E(xc)   XCENC  =      3054.46627635
  PAW double counting   =     66252.14257902   -66245.22740021
  entropy T*S    EENTRO =        -0.00000000
  eigenvalues    EBANDS =    -13211.23838052
  atomic energy  EATOM  =     64207.43592568
  Solvation  Ediel_sol  =         0.00000000
  ---------------------------------------------------
  free energy    TOTEN  =      -596.81019619 eV

  energy without entropy =     -596.81019619  energy(sigma->0) =     -596.81019619


--------------------------------------------------------------------------------------------------------




--------------------------------------- Iteration      1(  17)  ---------------------------------------


    POTLOK:  cpu time    0.4034: real time    0.4157
    SETDIJ:  cpu time    0.4247: real time    0.4247
     EDDAV:  cpu time   63.0411: real time   63.0421
       DOS:  cpu time    0.0007: real time    0.0007
    CHARGE:  cpu time    3.6418: real time    3.6418
    MIXING:  cpu time    0.0235: real time    0.0235
    --------------------------------------------
      LOOP:  cpu time   67.5351: real time   67.5483

 eigenvalue-minimisations  :  6072
 total energy-change (2. order) :-0.4850484E-02  (-0.2626710E-03)
 number of electron     640.0000008 magnetization 
 augmentation part      141.2927535 magnetization 

 Broyden mixing:
  rms(total) = 0.94156E-02    rms(broyden)= 0.94139E-02
  rms(prec ) = 0.10985E-01
  weight for this iteration     100.00

 eigenvalues of (default mixing * dielectric matrix)
  average eigenvalue GAMMA=   1.6123
  5.4115  2.9144  2.0352  2.0352  0.9858  0.9858  0.9965  0.9965  0.8454  0.8454
  0.6883  0.6073

 Free energy of the ion-electron system (eV)
  ---------------------------------------------------
  alpha Z        PSCENC =       871.83850952
  Ewald energy   TEWEN  =    286928.28805661
  -Hartree energ DENC   =   -342471.53472203
  -exchange      EXHF   =         0.00000000
  -V(xc)+E(xc)   XCENC  =      3054.48565504
  PAW double counting   =     66263.05216943   -66256.21051920
  entropy T*S    EENTRO =        -0.00000000
  eigenvalues    EBANDS =    -13194.17012174
  atomic energy  EATOM  =     64207.43592568
  Solvation  Ediel_sol  =         0.00000000
  ---------------------------------------------------
  free energy    TOTEN  =      -596.81504668 eV

  energy without entropy =     -596.81504668  energy(sigma->0) =     -596.81504668


--------------------------------------------------------------------------------------------------------




--------------------------------------- Iteration      1(  18)  ---------------------------------------


    POTLOK:  cpu time    0.3887: real time    0.3984
    SETDIJ:  cpu time    0.4242: real time    0.4263
     EDDAV:  cpu time   57.8736: real time   57.8755
       DOS:  cpu time    0.0007: real time    0.0007
    CHARGE:  cpu time    3.6566: real time    3.6567
    MIXING:  cpu time    0.0393: real time    0.0393
    --------------------------------------------
      LOOP:  cpu time   62.3831: real time   62.3968

 eigenvalue-minimisations  :  5456
 total energy-change (2. order) :-0.4097607E-02  (-0.9474916E-04)
 number of electron     640.0000008 magnetization 
 augmentation part      141.2801408 magnetization 

 Broyden mixing:
  rms(total) = 0.51760E-02    rms(broyden)= 0.51757E-02
  rms(prec ) = 0.61584E-02
  weight for this iteration     100.00

 eigenvalues of (default mixing * dielectric matrix)
  average eigenvalue GAMMA=   1.6263
  6.1460  2.7273  2.6515  1.7832  0.9585  0.9585  1.0475  0.9173  0.9173  0.8500
  0.8500  0.7063  0.6284

 Free energy of the ion-electron system (eV)
  ---------------------------------------------------
  alpha Z        PSCENC =       871.83850952
  Ewald energy   TEWEN  =    286928.28805661
  -Hartree energ DENC   =   -342488.41586689
  -exchange      EXHF   =         0.00000000
  -V(xc)+E(xc)   XCENC  =      3054.53753910
  PAW double counting   =     66248.42205117   -66241.55646257
  entropy T*S    EENTRO =        -0.00000000
  eigenvalues    EBANDS =    -13177.36889692
  atomic energy  EATOM  =     64207.43592568
  Solvation  Ediel_sol  =         0.00000000
  ---------------------------------------------------
  free energy    TOTEN  =      -596.81914428 eV

  energy without entropy =     -596.81914428  energy(sigma->0) =     -596.81914428


--------------------------------------------------------------------------------------------------------




--------------------------------------- Iteration      1(  19)  ---------------------------------------


    POTLOK:  cpu time    0.4270: real time    0.4376
    SETDIJ:  cpu time    0.4614: real time    0.4623
     EDDAV:  cpu time   59.2333: real time   59.2432
       DOS:  cpu time    0.0007: real time    0.0007
    CHARGE:  cpu time    3.7314: real time    3.7314
    MIXING:  cpu time    0.0240: real time    0.0240
    --------------------------------------------
      LOOP:  cpu time   63.8777: real time   63.8993

 eigenvalue-minimisations  :  5624
 total energy-change (2. order) :-0.1644864E-02  (-0.3657936E-04)
 number of electron     640.0000008 magnetization 
 augmentation part      141.2814737 magnetization 

 Broyden mixing:
  rms(total) = 0.20920E-02    rms(broyden)= 0.20902E-02
  rms(prec ) = 0.31838E-02
  weight for this iteration     100.00

 eigenvalues of (default mixing * dielectric matrix)
  average eigenvalue GAMMA=   1.6463
  6.6292  3.0723  2.3906  2.0230  1.0066  1.0066  1.0770  1.0770  0.9419  0.9419
  0.7681  0.7681  0.6264  0.7191

 Free energy of the ion-electron system (eV)
  ---------------------------------------------------
  alpha Z        PSCENC =       871.83850952
  Ewald energy   TEWEN  =    286928.28805661
  -Hartree energ DENC   =   -342493.47726017
  -exchange      EXHF   =         0.00000000
  -V(xc)+E(xc)   XCENC  =      3054.54069238
  PAW double counting   =     66254.07623589   -66247.23221316
  entropy T*S    EENTRO =        -0.00000000
  eigenvalues    EBANDS =    -13172.29073591
  atomic energy  EATOM  =     64207.43592568
  Solvation  Ediel_sol  =         0.00000000
  ---------------------------------------------------
  free energy    TOTEN  =      -596.82078915 eV

  energy without entropy =     -596.82078915  energy(sigma->0) =     -596.82078915


--------------------------------------------------------------------------------------------------------




--------------------------------------- Iteration      1(  20)  ---------------------------------------


    POTLOK:  cpu time    0.4209: real time    0.4318
    SETDIJ:  cpu time    0.4344: real time    0.4364
     EDDAV:  cpu time   57.3004: real time   57.3019
       DOS:  cpu time    0.0007: real time    0.0007
    CHARGE:  cpu time    3.7246: real time    3.7245
    MIXING:  cpu time    0.0267: real time    0.0267
    --------------------------------------------
      LOOP:  cpu time   61.9077: real time   61.9220

 eigenvalue-minimisations  :  5400
 total energy-change (2. order) :-0.2860697E-02  (-0.1729121E-04)
 number of electron     640.0000008 magnetization 
 augmentation part      141.2820459 magnetization 

 Broyden mixing:
  rms(total) = 0.22136E-02    rms(broyden)= 0.22128E-02
  rms(prec ) = 0.27658E-02
  weight for this iteration     100.00

 eigenvalues of (default mixing * dielectric matrix)
  average eigenvalue GAMMA=   1.6901
  7.0147  3.4196  2.3691  2.3691  1.5027  0.9681  0.9681  1.1476  0.9539  0.9539
  0.8342  0.8342  0.7274  0.6263  0.6621

 Free energy of the ion-electron system (eV)
  ---------------------------------------------------
  alpha Z        PSCENC =       871.83850952
  Ewald energy   TEWEN  =    286928.28805661
  -Hartree energ DENC   =   -342497.09540087
  -exchange      EXHF   =         0.00000000
  -V(xc)+E(xc)   XCENC  =      3054.53637309
  PAW double counting   =     66248.78569010   -66241.92542537
  entropy T*S    EENTRO =        -0.00000000
  eigenvalues    EBANDS =    -13168.68737861
  atomic energy  EATOM  =     64207.43592568
  Solvation  Ediel_sol  =         0.00000000
  ---------------------------------------------------
  free energy    TOTEN  =      -596.82364985 eV

  energy without entropy =     -596.82364985  energy(sigma->0) =     -596.82364985


--------------------------------------------------------------------------------------------------------




--------------------------------------- Iteration      1(  21)  ---------------------------------------


    POTLOK:  cpu time    0.3895: real time    0.3993
    SETDIJ:  cpu time    0.4238: real time    0.4239
     EDDAV:  cpu time   51.7166: real time   51.7183
       DOS:  cpu time    0.0006: real time    0.0006
    CHARGE:  cpu time    3.7070: real time    3.7070
    MIXING:  cpu time    0.0246: real time    0.0246
    --------------------------------------------
      LOOP:  cpu time   56.2622: real time   56.2737

 eigenvalue-minimisations  :  4744
 total energy-change (2. order) :-0.2379944E-02  (-0.9614436E-05)
 number of electron     640.0000008 magnetization 
[...]
    -6.564311700 11.369721380  0.000000000     0.000000000  0.087952903  0.000000000
     0.000000000  0.000000000 26.828094240     0.000000000  0.000000000  0.037274358

  length of vectors
    13.128623400 13.128623399 26.828094240     0.087952903  0.087952903  0.037274358


 FORCES acting on ions
    electron-ion (+dipol)            ewald-force                    non-local-force                 convergence-correction
 -----------------------------------------------------------------------------------------------
   -.415E+01 0.139E+02 0.117E+04   0.310E+01 -.138E+02 -.117E+04   0.639E+00 -.736E+00 -.436E+01   -.146E-04 0.365E-05 -.600E-05
   0.140E+02 -.251E+02 0.125E+04   -.129E+02 0.259E+02 -.125E+04   -.435E+00 -.607E+00 -.619E+01   0.644E-04 -.363E-04 -.382E-04
   -.291E+02 -.360E+02 0.138E+04   0.284E+02 0.354E+02 -.137E+04   0.284E+00 0.744E+00 -.710E+01   0.303E-04 0.805E-04 -.151E-04
   -.211E+02 0.428E+02 0.125E+04   0.220E+02 -.428E+02 -.125E+04   -.417E+00 -.396E+00 -.539E+01   -.585E-04 -.444E-04 0.712E-05
   0.237E+02 0.548E+02 0.114E+04   -.240E+02 -.557E+02 -.114E+04   -.158E+00 -.512E+00 -.558E+01   0.494E-05 0.838E-05 0.217E-04
   0.176E-01 -.338E+02 0.134E+04   -.269E+00 0.348E+02 -.133E+04   0.675E+00 -.546E+00 -.660E+01   -.234E-04 0.194E-04 -.272E-04
   0.208E+02 -.314E+02 0.141E+04   -.208E+02 0.310E+02 -.141E+04   -.540E+00 0.498E+00 -.555E+01   -.353E-04 0.302E-04 -.548E-04
   -.663E+02 0.155E+01 0.131E+04   0.667E+02 -.233E+01 -.130E+04   0.946E+00 0.114E+01 -.529E+01   0.150E-04 -.111E-03 0.174E-04
   -.841E+02 0.669E+02 0.112E+04   0.844E+02 -.674E+02 -.111E+04   0.429E+00 -.843E-02 -.425E+01   0.390E-04 0.173E-04 0.403E-04
   0.131E+02 -.355E+02 0.124E+04   -.123E+02 0.362E+02 -.123E+04   -.482E+00 -.658E+00 -.581E+01   0.204E-04 0.385E-04 0.192E-04
   0.706E+02 -.641E+01 0.129E+04   -.698E+02 0.686E+01 -.129E+04   -.790E+00 -.505E+00 -.568E+01   0.260E-04 -.370E-04 -.611E-04
   -.177E+02 -.157E+02 0.124E+04   0.161E+02 0.158E+02 -.123E+04   0.973E+00 0.439E+00 -.714E+01   -.335E-04 0.992E-05 -.835E-04
   0.422E+02 0.391E+02 0.119E+04   -.425E+02 -.386E+02 -.119E+04   -.267E+00 -.572E+00 -.495E+01   -.143E-04 0.191E-05 -.227E-04
   -.324E+02 -.410E+01 0.124E+04   0.324E+02 0.460E+01 -.123E+04   0.239E+00 -.663E+00 -.588E+01   -.610E-04 0.195E-04 -.238E-04
   -.303E+02 0.115E+02 0.140E+04   0.295E+02 -.123E+02 -.139E+04   0.483E+00 0.214E+00 -.615E+01   0.251E-05 -.150E-04 -.875E-04
   0.542E+02 0.174E+02 0.122E+04   -.548E+02 -.177E+02 -.121E+04   0.214E+00 -.814E-01 -.534E+01   0.772E-04 0.137E-05 -.267E-04
   0.122E+02 0.362E+02 -.124E+04   -.127E+02 -.359E+02 0.124E+04   -.141E+00 -.499E+00 0.426E+01   0.133E-05 -.218E-04 -.985E-05
   0.283E+02 -.550E+02 -.120E+04   -.292E+02 0.544E+02 0.119E+04   0.369E+00 0.790E+00 0.488E+01   0.787E-05 0.343E-04 0.354E-05
   -.175E+02 0.350E+02 -.119E+04   0.170E+02 -.366E+02 0.118E+04   0.777E+00 0.169E+00 0.590E+01   0.216E-04 0.921E-04 0.356E-04
   0.475E+01 0.322E+02 -.128E+04   -.581E+01 -.325E+02 0.128E+04   0.635E+00 -.377E-01 0.666E+01   0.171E-04 -.553E-04 -.350E-04
   0.243E+02 -.582E+01 -.126E+04   -.234E+02 0.629E+01 0.125E+04   -.120E+01 -.483E-01 0.589E+01   -.961E-05 0.869E-04 0.772E-05
   -.116E+02 0.212E+02 -.141E+04   0.102E+02 -.220E+02 0.140E+04   0.818E+00 0.137E+00 0.563E+01   0.298E-05 0.981E-06 0.353E-04
   0.360E+02 -.122E+02 -.119E+04   -.362E+02 0.124E+02 0.118E+04   -.141E+00 -.358E+00 0.566E+01   -.409E-05 -.523E-04 0.566E-04
   -.859E+02 0.163E+02 -.120E+04   0.864E+02 -.150E+02 0.119E+04   0.682E+00 -.108E+01 0.684E+01   -.483E-04 -.452E-04 -.326E-04
   0.168E+02 -.856E+01 -.142E+04   -.175E+02 0.716E+01 0.141E+04   0.157E+00 0.102E+01 0.511E+01   -.183E-04 0.346E-04 0.507E-04
   -.432E+02 0.169E+02 -.132E+04   0.448E+02 -.173E+02 0.132E+04   -.469E+00 0.698E+00 0.555E+01   -.105E-04 -.219E-04 -.494E-05
   0.189E+01 -.920E+01 -.116E+04   -.186E+01 0.100E+02 0.116E+04   -.355E-01 -.120E+00 0.565E+01   -.415E-04 -.655E-04 -.328E-04
   0.109E+03 -.131E+02 -.123E+04   -.108E+03 0.138E+02 0.122E+04   -.858E+00 -.412E+00 0.490E+01   0.857E-05 -.435E-05 0.562E-04
   -.198E+02 -.310E+02 -.130E+04   0.201E+02 0.317E+02 0.129E+04   0.446E+00 0.842E-01 0.624E+01   0.376E-04 -.150E-04 0.342E-04
   0.909E+01 -.357E+02 -.133E+04   -.842E+01 0.354E+02 0.132E+04   -.491E-01 0.562E+00 0.647E+01   -.977E-05 -.394E-04 0.625E-04
   -.526E+02 0.578E+01 -.121E+04   0.533E+02 -.584E+01 0.120E+04   -.246E+00 0.195E+00 0.614E+01   0.546E-05 -.168E-04 0.156E-04
   -.534E+02 -.152E+02 -.128E+04   0.534E+02 0.159E+02 0.127E+04   0.264E+00 -.969E-01 0.556E+01   0.164E-05 0.118E-03 -.270E-04
   0.347E+02 0.189E+02 -.159E+04   -.356E+02 -.201E+02 0.161E+04   0.677E+00 0.679E+00 -.168E+02   0.877E-05 -.231E-05 -.672E-07
   0.242E+02 -.478E+02 -.154E+04   -.243E+02 0.494E+02 0.155E+04   -.291E+00 -.113E+01 -.147E+02   -.481E-05 0.829E-06 0.217E-04
   0.743E+01 0.153E+01 -.155E+04   -.104E+02 -.102E+01 0.156E+04   0.290E+01 -.220E+00 -.151E+02   0.109E-04 0.899E-05 -.141E-05
   -.107E+02 0.229E+02 -.160E+04   0.999E+01 -.217E+02 0.162E+04   0.122E+01 -.157E+01 -.164E+02   -.357E-05 0.765E-06 -.723E-05
   -.512E+02 0.992E+01 -.164E+04   0.540E+02 -.101E+02 0.166E+04   -.218E+01 0.460E+00 -.174E+02   0.504E-05 0.133E-04 0.188E-05
   0.430E+02 -.297E+02 -.160E+04   -.464E+02 0.293E+02 0.162E+04   0.330E+01 0.679E+00 -.174E+02   0.169E-04 0.847E-06 0.628E-06
   0.158E+02 -.136E+02 -.152E+04   -.156E+02 0.141E+02 0.153E+04   -.956E+00 -.643E-01 -.155E+02   -.116E-04 -.295E-04 0.170E-04
   0.338E+01 0.294E+02 -.160E+04   -.317E+01 -.290E+02 0.162E+04   -.578E+00 -.654E+00 -.178E+02   -.306E-04 0.118E-05 0.182E-05
   -.122E+02 0.475E+01 -.163E+04   0.113E+02 -.499E+01 0.165E+04   0.112E+01 0.309E+00 -.169E+02   0.172E-04 0.329E-05 -.122E-04
   -.368E+01 -.329E+00 -.165E+04   0.508E+01 0.199E+01 0.167E+04   -.157E+01 -.204E+01 -.188E+02   -.119E-04 -.929E-05 -.304E-04
   0.335E+02 0.251E+00 -.156E+04   -.326E+02 -.214E+01 0.158E+04   -.143E+01 0.178E+01 -.167E+02   -.169E-05 -.906E-05 0.675E-05
   0.335E+02 0.576E+02 -.163E+04   -.355E+02 -.620E+02 0.165E+04   0.217E+01 0.428E+01 -.168E+02   0.286E-04 0.347E-04 0.946E-06
   0.779E+01 -.381E+02 -.161E+04   -.577E+01 0.401E+02 0.163E+04   -.286E+01 -.165E+01 -.168E+02   -.328E-04 0.127E-04 0.125E-05
   -.533E+02 -.193E+01 -.161E+04   0.532E+02 0.207E+01 0.162E+04   0.665E+00 -.144E+00 -.163E+02   -.211E-05 -.915E-05 -.231E-05
   -.309E+02 0.592E+01 -.157E+04   0.301E+02 -.768E+01 0.159E+04   0.121E+01 0.132E+01 -.166E+02   0.679E-05 -.179E-04 0.299E-05
   -.129E+02 -.145E+02 -.157E+04   0.140E+02 0.154E+02 0.159E+04   -.768E+00 -.678E+00 -.160E+02   -.266E-05 -.119E-04 0.113E-04
   -.286E+02 -.140E+02 0.159E+04   0.316E+02 0.163E+02 -.160E+04   -.294E+01 -.227E+01 0.166E+02   -.115E-04 0.188E-04 0.162E-04
   0.123E+02 -.481E+02 0.162E+04   -.148E+02 0.511E+02 -.163E+04   0.286E+01 -.209E+01 0.169E+02   0.117E-04 -.777E-05 0.201E-04
   0.107E+02 -.102E+02 0.162E+04   -.108E+02 0.882E+01 -.164E+04   -.228E+00 0.187E+01 0.157E+02   0.127E-04 0.478E-05 0.186E-04
   0.950E+01 0.462E+02 0.164E+04   -.120E+02 -.481E+02 -.165E+04   0.212E+01 0.131E+01 0.169E+02   -.105E-04 -.132E-04 0.864E-05
   0.685E+01 0.402E+02 0.157E+04   -.891E+01 -.407E+02 -.159E+04   0.151E+01 0.353E-01 0.169E+02   -.216E-06 0.313E-04 -.100E-04
   0.205E+02 -.344E+02 0.159E+04   -.207E+02 0.364E+02 -.161E+04   -.457E-01 -.145E+01 0.173E+02   -.531E-05 -.111E-04 0.173E-04
   -.321E+02 -.116E+02 0.161E+04   0.357E+02 0.111E+02 -.163E+04   -.325E+01 0.530E+00 0.158E+02   -.275E-06 -.630E-05 0.209E-04
   -.248E+02 -.234E+02 0.155E+04   0.238E+02 0.256E+02 -.156E+04   0.135E+01 -.219E+01 0.127E+02   0.202E-04 -.137E-04 0.210E-04
   0.526E+00 0.608E+02 0.155E+04   -.144E+01 -.613E+02 -.157E+04   0.896E+00 -.869E-01 0.164E+02   -.113E-05 -.821E-06 0.169E-05
   -.188E+02 -.161E+02 0.157E+04   0.184E+02 0.163E+02 -.158E+04   0.814E+00 0.236E+00 0.167E+02   -.169E-05 -.452E-05 -.611E-06
   0.411E+01 0.179E+02 0.162E+04   -.388E+01 -.195E+02 -.164E+04   -.357E+00 0.151E+01 0.160E+02   0.497E-05 0.128E-04 0.804E-05
   0.664E+02 -.320E+02 0.160E+04   -.674E+02 0.331E+02 -.162E+04   0.366E+00 -.853E+00 0.164E+02   -.721E-05 -.195E-05 0.153E-04
   0.321E+02 -.551E+01 0.154E+04   -.319E+02 0.718E+01 -.156E+04   -.300E+00 -.128E+01 0.151E+02   0.137E-04 0.419E-05 0.139E-06
   0.142E+01 -.198E+02 0.159E+04   -.275E+01 0.207E+02 -.160E+04   0.159E+01 -.289E+00 0.169E+02   0.278E-05 -.128E-04 0.353E-05
   -.112E+02 -.107E+01 0.161E+04   0.119E+02 -.626E+00 -.162E+04   -.100E+01 0.215E+01 0.155E+02   -.294E-04 0.137E-04 0.120E-04
   -.985E+00 0.104E+02 0.159E+04   0.177E+00 -.964E+01 -.160E+04   0.428E+00 -.936E+00 0.164E+02   -.560E-05 -.714E-05 0.261E-04
   -.123E+02 -.540E+00 -.460E+02   0.122E+02 0.575E+00 0.463E+02   0.790E+00 0.104E+00 -.109E+01   0.880E-05 -.112E-04 -.152E-04
   0.112E+02 -.110E+02 -.991E+01   -.111E+02 0.109E+02 0.980E+01   -.148E+00 0.369E+00 0.936E+00   -.962E-06 0.541E-05 -.128E-04
   -.547E+01 0.929E+01 0.112E+02   0.538E+01 -.908E+01 -.113E+02   0.124E+00 -.995E+00 0.778E+00   -.757E-05 0.273E-05 -.360E-05
   -.442E+01 -.266E+01 0.119E+02   0.479E+01 0.255E+01 -.118E+02   -.114E+01 0.427E+00 -.572E+00   0.769E-05 0.480E-05 -.102E-04
   -.419E+01 -.244E+01 0.148E+02   0.403E+01 0.252E+01 -.150E+02   0.565E+00 0.338E+00 0.164E+01   -.221E-05 0.267E-05 0.400E-05
   0.435E-01 -.768E+01 -.297E+02   0.660E-01 0.784E+01 0.299E+02   -.363E+00 -.583E+00 -.832E+00   0.523E-05 0.988E-07 -.147E-04
   0.584E+01 -.249E+02 0.421E+02   -.613E+01 0.247E+02 -.424E+02   0.102E+01 0.769E+00 0.858E+00   0.956E-05 -.386E-05 -.805E-05
   0.141E+01 0.299E+02 0.613E+02   -.122E+01 -.297E+02 -.617E+02   -.843E+00 -.197E+01 0.139E+01   -.165E-04 -.101E-04 -.934E-05
   -.406E+02 0.397E+01 -.124E+02   0.406E+02 -.417E+01 0.123E+02   0.885E+00 0.778E+00 0.139E-02   0.167E-04 0.151E-04 -.130E-04
   0.294E+01 -.542E+01 -.537E+02   -.289E+01 0.523E+01 0.537E+02   -.394E+00 0.901E+00 0.434E+00   0.104E-05 0.284E-05 -.204E-05
   0.310E+02 0.236E+01 0.183E+02   -.310E+02 -.216E+01 -.185E+02   -.559E+00 -.314E+00 0.229E+00   0.720E-05 0.429E-06 -.257E-05
   0.450E+01 -.121E+02 0.274E+02   -.477E+01 0.120E+02 -.274E+02   0.130E+01 0.585E+00 0.259E+00   0.778E-05 0.693E-05 -.169E-04
   0.384E+02 0.677E+01 -.908E+01   -.383E+02 -.674E+01 0.893E+01   -.113E+01 -.643E+00 0.190E+00   -.167E-04 -.238E-05 -.961E-05
   -.146E+02 0.264E+02 -.494E+02   0.145E+02 -.261E+02 0.492E+02   0.426E+00 -.115E+01 0.546E+00   -.707E-05 -.132E-04 0.132E-05
   -.214E+02 -.771E+01 0.405E+02   0.213E+02 0.776E+01 -.408E+02   0.723E+00 0.178E+00 0.122E+01   -.442E-05 -.533E-05 -.247E-05
   0.993E+01 -.192E+01 0.163E+02   -.973E+01 0.182E+01 -.163E+02   -.889E+00 0.340E+00 -.324E+00   -.646E-05 0.599E-06 -.151E-04
 -----------------------------------------------------------------------------------------------
   -.963E+01 0.454E+01 0.232E+01   -.313E-12 0.217E-12 -.924E-11   0.963E+01 -.454E+01 -.233E+01   -.110E-04 0.599E-05 -.638E-04
 
 
 POSITION                                       TOTAL-FORCE (eV/Angst)
 -----------------------------------------------------------------------------------
      0.02621      1.92408     12.19191        -0.410742     -0.654720      0.362140
     -1.78410      4.67964     12.14035         0.707479      0.199953     -0.433626
     -3.24293      7.58025     12.04158        -0.372071      0.159179      0.242388
     -4.93599     10.55137     12.12557         0.437694     -0.394459      0.306460
      3.33698      2.05188     12.26573        -0.444489     -1.346148     -0.661066
      1.53700      4.68155     12.07576         0.423143      0.399770      0.399749
      0.04877      7.53128     11.95467        -0.528915      0.154593      0.617245
     -1.76073     10.48082     12.11009         1.260237      0.360299     -0.710295
      6.55640      1.90415     12.24588         0.762686     -0.445728     -0.119784
      4.88942      4.73905     12.19079         0.322202      0.030287     -0.701352
      3.35492      7.56107     12.11439        -0.001887     -0.056371     -0.138369
      1.69485     10.38180     12.20873        -0.649132      0.521252     -0.123718
      9.89499      1.86104     12.18056        -0.567672     -0.066253      0.253475
      8.12087      4.71150     12.15741         0.261404     -0.159290     -0.163112
      6.64140      7.62750     11.99845        -0.316657     -0.610880      0.976127
      5.01533     10.41406     12.17223        -0.398792     -0.349376      0.431189
      1.67822      1.02018     14.68220        -0.629644     -0.148083      0.834760
     -0.00830      3.80736     14.62616        -0.473174      0.133061      0.607119
     -1.68218      6.76638     14.60258         0.336911     -1.444062     -0.772202
     -3.31429      9.56031     14.66782        -0.425867     -0.430351     -0.481598
      4.97540      0.87471     14.65049        -0.300704      0.416491      1.016108
      3.31214      3.85850     14.84055        -0.602625     -0.619086     -0.457515
      1.68571      6.60246     14.63011        -0.316893     -0.100494     -0.577033
     -0.11711      9.43868     14.59326         1.173907      0.233398      0.244888
      8.27255      0.92985     14.90723        -0.506237     -0.376175     -0.908673
      6.46221      3.73772     14.74489         1.072833      0.375513      0.357279
      4.95754      6.57880     14.60146        -0.005631      0.682043      0.143272
      3.29819      9.40120     14.69524        -0.164712      0.262293     -0.321710
     11.48404      0.86364     14.70147         0.720573      0.801137      0.335890
      9.76919      3.78620     14.72636         0.624077      0.243549     -0.115484
      8.14350      6.63033     14.62000         0.456854      0.132188     -0.211472
      6.56730      9.42716     14.70454         0.281580      0.554255     -0.528727
      0.07747      2.05643     15.85799        -0.218220     -0.450984     -0.309802
     -1.60232      4.69392     15.75373        -0.339733      0.483243      0.067939
     -3.25884      7.55682     15.71788        -0.113594      0.284211      0.497771
     -5.01254     10.50994     15.87863         0.485324     -0.371303     -0.306164
      3.08905      1.85904     15.99749         0.619899      0.262200     -0.527642
      1.65925      4.74382     15.87911        -0.073595      0.319904     -0.281651
      0.09472      7.47794     15.66571        -0.692191      0.379342      0.525475
     -1.58934     10.41582     15.82726        -0.368684     -0.248119      0.024382
      6.46587      1.85025     15.98000         0.278028      0.064532     -0.480049
      4.95681      4.86466     15.95859        -0.169655     -0.379113     -0.437790
      3.36577      7.55613     15.75349        -0.460253     -0.106974      0.221316
      1.72409     10.48402     16.08025         0.126456     -0.116768     -0.986201
     10.05107      1.85712     15.93103        -0.832451      0.288664     -0.145942
      7.99427      4.82693     15.91011         0.564421     -0.005318     -0.373734
      6.49321      7.60902     15.74039         0.399628     -0.442653      0.519572
      4.85295     10.29878     15.76509         0.334573      0.186054      0.562512
      1.63431      1.03883     11.03008        -0.020878     -0.006490      0.022833
     -0.12865      3.54626     10.96852         0.397269      0.910891     -0.341176
     -1.57937      6.47475     10.84469        -0.318618      0.464797      0.255276
     -3.25085      9.73058     10.88365        -0.407210     -0.583779     -0.009493
      5.02576      1.14224     11.07432        -0.543899     -0.451129     -0.221389
      3.33431      3.72181     11.05963        -0.283994      0.483654     -0.499583
      1.61661      6.55098     10.90534         0.285900      0.073780     -0.027949
     -0.03194      9.53797     11.04101         0.381942     -0.001787     -0.444078
      8.20020      1.10669     11.04473        -0.021055     -0.626103      0.260294
      6.44293      3.68039     11.10168         0.346992      0.342547     -0.397097
      4.97267      6.64524     10.91250        -0.132311     -0.083337      0.194820
      3.57815      9.37638     10.95370        -0.710793      0.233552      0.091909
     11.55933      0.86251     11.14702        -0.165252      0.386234     -0.829740
      9.68098      3.59731     11.00219         0.254866      0.593834     -0.066028
      8.28510      6.52342     10.93257        -0.229361      0.453511     -0.116866
      6.69215      9.55660     11.02891        -0.380180     -0.203363     -0.525507
      6.53996     11.35954     13.51283         0.710972      0.138619     -0.744175
     11.46203      2.80369     13.36273        -0.083924      0.281409      0.825381
     -3.32171      5.78150     13.32821         0.036112     -0.780860      0.630822
     -4.81798      8.50950     13.39714        -0.766398      0.318007     -0.444533
      3.23062      0.01743     13.33214         0.407034      0.416981      1.379600
      1.69916      2.94363     13.48870        -0.253404     -0.422408     -0.598714
     -0.09703      5.62338     13.24587         0.730270      0.547842      0.632016
     -1.61585      8.68183     13.26423        -0.656704     -1.763852      0.934195
     -0.00943     11.32121     13.48534         0.803211      0.585492     -0.133138
      4.93213      2.78827     13.51528        -0.339544      0.707686      0.522463
      3.31794      5.67656     13.40049        -0.517337     -0.118489      0.109463
      1.59002      8.44371     13.32171         1.031079      0.494155      0.197923
      3.34373     11.36642     13.46520        -1.053199     -0.614780      0.036852
      8.16036      2.93251     13.53434         0.311180     -0.865154      0.428539
      6.49771      5.67198     13.28772         0.612582      0.235846      0.924780
      5.02947      8.48080     13.38856        -0.691039      0.247991     -0.320045
 -----------------------------------------------------------------------------------
    total drift:                               -0.002214      0.002303     -0.010526


--------------------------------------------------------------------------------------------------------



  FREE ENERGIE OF THE ION-ELECTRON SYSTEM (eV)
  ---------------------------------------------------
  free  energy   TOTEN  =      -596.82859104 eV

  energy  without entropy=     -596.82859104  energy(sigma->0) =     -596.82859104
 


--------------------------------------------------------------------------------------------------------


    POTLOK:  cpu time    0.7966: real time    0.7966


--------------------------------------------------------------------------------------------------------


     LOOP+:  cpu time 1870.3401: real time 1870.8119
    4ORBIT:  cpu time    0.0000: real time    0.0000

 total amount of memory used by VASP MPI-rank0   234681. kBytes
=======================================================================

   base      :      30000. kBytes
   nonlr-proj:      19413. kBytes
   fftplans  :      66973. kBytes
   grid      :      38377. kBytes
   one-center:        108. kBytes
   wavefun   :      79810. kBytes
 
  
  
 General timing and accounting informations for this job:
 ========================================================
  
                  Total CPU time used (sec):     1904.185
                            User time (sec):     1893.542
                          System time (sec):       10.643
                         Elapsed time (sec):     1904.849
  
                   Maximum memory used (kb):      429028.
                   Average memory used (kb):           0.
  
                          Minor page faults:       144172
                          Major page faults:            0
                 Voluntary context switches:         2350
