<?xml version="1.0" encoding="ISO-8859-1"?>
<modeling>
 <generator>
  <i name="program" type="string">vasp </i>
  <i name="version" type="string">5.4.4.18Apr17-6-g9f103f2a35  </i>
  <i name="subversion" type="string">(build Oct 31 2019 15:01:46) complex            parallel </i>
  <i name="platform" type="string">LinuxIFC </i>
  <i name="date" type="string">2024 04 29 </i>
  <i name="time" type="string">22:18:55 </i>
 </generator>
 <incar>
  <i type="int" name="ISTART">     0</i>
  <i type="string" name="PREC">a</i>
  <i type="logical" name="ADDGRID"> T  </i>
  <i type="int" name="IBRION">    -1</i>
  <i name="EDIFF">      0.00000100</i>
  <i name="EDIFFG">     -0.01000000</i>
  <i type="int" name="NSW">     1</i>
  <i type="int" name="ISIF">     2</i>
  <i type="int" name="ISYM">     0</i>
  <i name="ENCUT">    600.00000000</i>
  <i name="POTIM">      1.00000000</i>
  <i type="string" name="LREAL">  Auto</i>
  <i type="int" name="ISMEAR">     0</i>
  <i name="SIGMA">      0.05000000</i>
  <i name="KSPACING">      0.30000000</i>
  <i type="logical" name="KGAMMA"> T  </i>
  <i type="logical" name="LWAVE"> F  </i>
  <i type="logical" name="LCHARG"> F  </i>
  <i type="logical" name="LSCALAPACK"> F  </i>
  <v type="int" name="KPOINT_BSE">    -1     0     0     0</v>
 </incar>
 <structure name="primitive_cell" >
  <crystal>
   <varray name="basis" >
    <v>      12.09378762       0.00000000       0.00000000 </v>
    <v>       0.00000000      12.09378762       0.00000000 </v>
    <v>       0.00000000       0.00000000      12.09378762 </v>
   </varray>
   <i name="volume">   1768.83373704 </i>
   <varray name="rec_basis" >
    <v>       0.08268708       0.00000000       0.00000000 </v>
    <v>       0.00000000       0.08268708       0.00000000 </v>
    <v>       0.00000000       0.00000000       0.08268708 </v>
   </varray>
  </crystal>
  <varray name="positions" >
   <v>      -0.18808857      -0.07859438      -0.03737253 </v>
   <v>      -0.19203577       0.07965613      -0.09114918 </v>
   <v>      -0.10095152      -0.03231131       0.11486316 </v>
   <v>      -0.29999263      -0.02147723       0.10180182 </v>
   <v>      -0.32275042      -0.18558322      -0.12511523 </v>
   <v>      -0.12109433      -0.05885620      -0.22830807 </v>
   <v>      -0.03040244      -0.22936902      -0.01490312 </v>
   <v>      -0.20188744      -0.05536507       0.18630789 </v>
   <v>      -0.18085166       0.05060167      -0.23619575 </v>
   <v>      -0.04439727       0.10679538       0.05426457 </v>
   <v>      -0.43743541      -0.02389641      -0.10660882 </v>
   <v>      -0.35453250      -0.29621015      -0.06281724 </v>
   <v>      -0.18301151      -0.17237229       0.23586392 </v>
   <v>      -0.29510274       0.01940662      -0.29198267 </v>
   <v>       0.09014175      -0.00038968      -0.10205511 </v>
   <v>       0.00234756      -0.10482779      -0.27373866 </v>
   <v>      -0.17171432       0.22563819      -0.11637972 </v>
   <v>      -0.37887707      -0.30570490       0.07519704 </v>
   <v>      -0.19398771       0.24523758       0.03767327 </v>
   <v>       0.48861328      -0.13114811       0.02036781 </v>
   <v>      -0.26511026      -0.40265294      -0.09204472 </v>
   <v>      -0.35181800       0.17603070       0.12281810 </v>
   <v>      -0.11921095       0.16765596      -0.26613625 </v>
   <v>       0.06900782      -0.30435289      -0.00904433 </v>
   <v>      -0.45145299       0.15024517      -0.06828895 </v>
   <v>      -0.21255567       0.03562058       0.30127948 </v>
   <v>      -0.28326586      -0.18384069      -0.36671239 </v>
   <v>      -0.02812605       0.23517466      -0.10616638 </v>
   <v>      -0.21023919      -0.34732819      -0.27978055 </v>
   <v>       0.17507671      -0.08699014      -0.04944233 </v>
   <v>      -0.29958921       0.25339283      -0.17477408 </v>
   <v>      -0.04322777      -0.33256980       0.20908851 </v>
   <v>       0.49865405      -0.21762894       0.13594377 </v>
   <v>       0.13456226      -0.15991267      -0.23722459 </v>
   <v>       0.17692048      -0.21270271      -0.02529817 </v>
   <v>      -0.48356128      -0.32085264      -0.11426099 </v>
   <v>      -0.01101087      -0.26259494      -0.35117675 </v>
   <v>      -0.45818807      -0.18180500       0.25851746 </v>
   <v>      -0.09286569      -0.47495421       0.05948369 </v>
   <v>       0.21634572       0.00832514       0.03785581 </v>
   <v>       0.07644177       0.20433374       0.14864201 </v>
   <v>      -0.14477246      -0.00566694      -0.46307598 </v>
   <v>       0.02349621      -0.07797041      -0.41822667 </v>
   <v>       0.08862500      -0.39902009       0.08566156 </v>
   <v>       0.09847448      -0.40735508      -0.12117660 </v>
   <v>      -0.37035673      -0.35555786      -0.33305244 </v>
   <v>       0.18228007       0.17171634      -0.02241607 </v>
   <v>       0.11702655       0.01864330       0.27765680 </v>
   <v>      -0.41851401      -0.02356928       0.34442276 </v>
   <v>      -0.43147217       0.19666182      -0.30663098 </v>
   <v>      -0.17905639       0.23433782       0.29773173 </v>
   <v>      -0.41868336       0.14282065       0.29215350 </v>
   <v>      -0.18651875      -0.22059084       0.40060498 </v>
   <v>       0.37968472       0.03294291       0.08133164 </v>
   <v>      -0.18632726       0.45925032      -0.01535628 </v>
   <v>      -0.39399015      -0.23785044      -0.42003147 </v>
   <v>       0.49614532      -0.17546498      -0.37579806 </v>
   <v>      -0.14986876       0.38428313      -0.13244901 </v>
   <v>       0.46728104       0.24939983      -0.04462396 </v>
   <v>       0.14864293      -0.34533673      -0.24699048 </v>
   <v>      -0.22658047       0.15009542       0.38208306 </v>
   <v>       0.37504947      -0.27333085      -0.00186067 </v>
   <v>       0.16250671       0.19344425      -0.24275374 </v>
   <v>       0.17268691       0.11925388       0.22822285 </v>
   <v>       0.00459657      -0.21182032       0.39899339 </v>
   <v>       0.42638180      -0.34725041      -0.21483199 </v>
   <v>       0.31553004      -0.06310315      -0.11991441 </v>
   <v>       0.03190164       0.15586303      -0.42671701 </v>
   <v>       0.38092751      -0.24466111       0.17619671 </v>
   <v>      -0.45873695      -0.32953025       0.31320918 </v>
   <v>      -0.34061520       0.45169629      -0.16172087 </v>
   <v>      -0.15580813       0.30414016      -0.37537648 </v>
   <v>       0.27349824      -0.11575893      -0.25740447 </v>
   <v>      -0.46293202       0.35389237       0.02853794 </v>
   <v>      -0.31059272       0.41915845       0.02897130 </v>
   <v>       0.07913114       0.24541857      -0.34085336 </v>
   <v>       0.40835965       0.16970152      -0.25730353 </v>
   <v>       0.19565024      -0.18217331       0.30380764 </v>
   <v>      -0.07609436       0.15172467       0.42441299 </v>
   <v>      -0.17900919       0.39364563       0.20144179 </v>
   <v>      -0.48208017      -0.46869018       0.17887414 </v>
   <v>       0.02402096       0.45937667      -0.21216823 </v>
   <v>      -0.36915199      -0.25042389       0.43965380 </v>
   <v>       0.04255271      -0.25776143      -0.49126554 </v>
   <v>       0.34763838       0.19458901       0.00679994 </v>
   <v>      -0.31190371       0.14089824       0.48075276 </v>
   <v>       0.34180191      -0.26787889      -0.23867271 </v>
   <v>      -0.25409323      -0.49285520       0.31579119 </v>
   <v>      -0.12518053       0.48365672      -0.36166612 </v>
   <v>       0.34604694      -0.05104090       0.25766471 </v>
   <v>      -0.38373818       0.25027282       0.36360480 </v>
   <v>      -0.41453929       0.33809896       0.25019049 </v>
   <v>       0.16075337      -0.36061414       0.30274687 </v>
   <v>       0.46536583      -0.44689244      -0.28523296 </v>
   <v>      -0.41849769       0.43527216       0.12998253 </v>
   <v>       0.06751868       0.40259818       0.12730939 </v>
   <v>      -0.03687269      -0.38261411      -0.49800432 </v>
   <v>       0.39091925       0.05290212      -0.40285381 </v>
   <v>       0.09907354       0.00871891       0.45579754 </v>
   <v>       0.16564090      -0.27157789      -0.46383195 </v>
   <v>       0.32665468      -0.08720152      -0.37089811 </v>
   <v>      -0.30243096      -0.48499483      -0.45241529 </v>
   <v>      -0.44360611      -0.47116234      -0.40086106 </v>
   <v>       0.01316980       0.46148067       0.27863220 </v>
   <v>       0.28844818       0.17757813       0.21949253 </v>
   <v>       0.39879847       0.36145906      -0.10229965 </v>
   <v>       0.07595181       0.37945753      -0.34713103 </v>
   <v>       0.06349556       0.27559771       0.39481152 </v>
   <v>       0.31342773      -0.42653935      -0.12537290 </v>
   <v>       0.43565490       0.05302099       0.43378963 </v>
   <v>      -0.02939069       0.48661928      -0.44657137 </v>
   <v>       0.09946589      -0.48055436       0.35031592 </v>
   <v>       0.20996981       0.17400681       0.37893465 </v>
   <v>       0.19297321       0.41880125      -0.13478471 </v>
   <v>      -0.44418703       0.40969190      -0.35400422 </v>
   <v>      -0.28308003       0.33162219       0.44373123 </v>
   <v>       0.35825209      -0.29690355      -0.44764024 </v>
   <v>       0.24404900      -0.04291284       0.44891481 </v>
   <v>       0.29121824       0.48704157       0.05430571 </v>
   <v>       0.31535655       0.03587411       0.37256087 </v>
   <v>       0.28382335       0.30739335      -0.29546746 </v>
   <v>      -0.24853507       0.46252083       0.44637301 </v>
   <v>       0.48494537      -0.44924592      -0.49785936 </v>
   <v>       0.10677561      -0.48541240      -0.49420565 </v>
   <v>       0.49202285       0.27875142       0.45030095 </v>
   <v>       0.30465223       0.44716655      -0.07486645 </v>
   <v>       0.34941148      -0.36668047       0.39169611 </v>
   <v>       0.30365725      -0.49868308       0.23157758 </v>
   <v>      -0.09914798       0.41712113       0.45475581 </v>
   <v>       0.18147355       0.40120778       0.32974194 </v>
   <v>       0.32874407       0.24016244      -0.44931658 </v>
   <v>       0.35533499       0.27566554       0.42223284 </v>
   <v>       0.38155958       0.40698980       0.37260198 </v>
   <v>       0.29609239       0.46789171      -0.42538798 </v>
   <v>       0.33409276      -0.48427138       0.46316144 </v>
  </varray>
 </structure>
 <varray name="primitive_index" >
  <v type="int" >        1 </v>
  <v type="int" >       93 </v>
  <v type="int" >      134 </v>
  <v type="int" >      125 </v>
  <v type="int" >       58 </v>
  <v type="int" >       78 </v>
  <v type="int" >      107 </v>
  <v type="int" >       28 </v>
  <v type="int" >       30 </v>
  <v type="int" >        7 </v>
  <v type="int" >       11 </v>
  <v type="int" >       46 </v>
  <v type="int" >      106 </v>
  <v type="int" >      122 </v>
  <v type="int" >      114 </v>
  <v type="int" >       45 </v>
  <v type="int" >       38 </v>
  <v type="int" >      135 </v>
  <v type="int" >       97 </v>
  <v type="int" >      127 </v>
  <v type="int" >       76 </v>
  <v type="int" >       13 </v>
  <v type="int" >      100 </v>
  <v type="int" >       31 </v>
  <v type="int" >      105 </v>
  <v type="int" >       55 </v>
  <v type="int" >      108 </v>
  <v type="int" >      117 </v>
  <v type="int" >        5 </v>
  <v type="int" >       43 </v>
  <v type="int" >      129 </v>
  <v type="int" >       18 </v>
  <v type="int" >       35 </v>
  <v type="int" >      115 </v>
  <v type="int" >       73 </v>
  <v type="int" >       87 </v>
  <v type="int" >      126 </v>
  <v type="int" >       66 </v>
  <v type="int" >       90 </v>
  <v type="int" >       92 </v>
  <v type="int" >       71 </v>
  <v type="int" >       27 </v>
  <v type="int" >       69 </v>
  <v type="int" >      110 </v>
  <v type="int" >       89 </v>
  <v type="int" >       85 </v>
  <v type="int" >        3 </v>
  <v type="int" >       84 </v>
  <v type="int" >       19 </v>
  <v type="int" >        8 </v>
  <v type="int" >       82 </v>
  <v type="int" >       63 </v>
  <v type="int" >       12 </v>
  <v type="int" >       10 </v>
  <v type="int" >       40 </v>
  <v type="int" >       37 </v>
  <v type="int" >       79 </v>
  <v type="int" >      128 </v>
  <v type="int" >       34 </v>
  <v type="int" >       15 </v>
  <v type="int" >       29 </v>
  <v type="int" >        9 </v>
  <v type="int" >       64 </v>
  <v type="int" >       41 </v>
  <v type="int" >       96 </v>
  <v type="int" >       52 </v>
  <v type="int" >       74 </v>
  <v type="int" >       81 </v>
  <v type="int" >       86 </v>
  <v type="int" >        4 </v>
  <v type="int" >       24 </v>
  <v type="int" >       26 </v>
  <v type="int" >       42 </v>
  <v type="int" >      131 </v>
  <v type="int" >      130 </v>
  <v type="int" >       51 </v>
  <v type="int" >      113 </v>
  <v type="int" >       17 </v>
  <v type="int" >      101 </v>
  <v type="int" >       25 </v>
  <v type="int" >       94 </v>
  <v type="int" >       22 </v>
  <v type="int" >      104 </v>
  <v type="int" >       39 </v>
  <v type="int" >       98 </v>
  <v type="int" >       68 </v>
  <v type="int" >       75 </v>
  <v type="int" >      123 </v>
  <v type="int" >      118 </v>
  <v type="int" >       65 </v>
  <v type="int" >       33 </v>
  <v type="int" >       62 </v>
  <v type="int" >      109 </v>
  <v type="int" >       60 </v>
  <v type="int" >       49 </v>
  <v type="int" >       16 </v>
  <v type="int" >       67 </v>
  <v type="int" >       14 </v>
  <v type="int" >       21 </v>
  <v type="int" >      119 </v>
  <v type="int" >       80 </v>
  <v type="int" >      124 </v>
  <v type="int" >       53 </v>
  <v type="int" >      116 </v>
  <v type="int" >       91 </v>
  <v type="int" >       59 </v>
  <v type="int" >       57 </v>
  <v type="int" >        6 </v>
  <v type="int" >      133 </v>
  <v type="int" >       95 </v>
  <v type="int" >       36 </v>
  <v type="int" >       47 </v>
  <v type="int" >       61 </v>
  <v type="int" >      132 </v>
  <v type="int" >       56 </v>
  <v type="int" >       77 </v>
  <v type="int" >       20 </v>
  <v type="int" >      111 </v>
  <v type="int" >      120 </v>
  <v type="int" >       54 </v>
  <v type="int" >        2 </v>
  <v type="int" >       44 </v>
  <v type="int" >       70 </v>
  <v type="int" >      103 </v>
  <v type="int" >       83 </v>
  <v type="int" >       32 </v>
  <v type="int" >       99 </v>
  <v type="int" >       23 </v>
  <v type="int" >      112 </v>
  <v type="int" >      102 </v>
  <v type="int" >      121 </v>
  <v type="int" >       48 </v>
  <v type="int" >       72 </v>
  <v type="int" >       88 </v>
  <v type="int" >       50 </v>
 </varray>
 <kpoints>
  <generation param="Gamma">
   <v type="int" name="divisions">       2        2        2 </v>
   <v name="usershift">      0.00000000       0.00000000       0.00000000 </v>
   <v name="genvec1">      0.50000000       0.00000000       0.00000000 </v>
   <v name="genvec2">      0.00000000       0.50000000       0.00000000 </v>
   <v name="genvec3">      0.00000000       0.00000000       0.50000000 </v>
   <v name="shift">      0.00000000       0.00000000       0.00000000 </v>
  </generation>
  <varray name="kpointlist" >
   <v>       0.00000000       0.00000000       0.00000000 </v>
   <v>       0.50000000       0.00000000       0.00000000 </v>
   <v>       0.00000000       0.50000000       0.00000000 </v>
   <v>       0.50000000       0.50000000       0.00000000 </v>
   <v>       0.00000000       0.00000000       0.50000000 </v>
   <v>       0.50000000       0.00000000       0.50000000 </v>
   <v>       0.00000000       0.50000000       0.50000000 </v>
   <v>       0.50000000       0.50000000       0.50000000 </v>
  </varray>
  <varray name="weights" >
   <v>       0.12500000 </v>
   <v>       0.12500000 </v>
   <v>       0.12500000 </v>
   <v>       0.12500000 </v>
   <v>       0.12500000 </v>
   <v>       0.12500000 </v>
   <v>       0.12500000 </v>
   <v>       0.12500000 </v>
  </varray>
 </kpoints>
 <parameters>
  <separator name="general" >
   <i type="string" name="SYSTEM">unknown system</i>
   <i type="logical" name="LCOMPAT"> F  </i>
  </separator>
  <separator name="electronic" >
   <i type="string" name="PREC">a</i>
   <i name="ENMAX">    600.00000000</i>
   <i name="ENAUG">    605.39200000</i>
   <i name="EDIFF">      0.00000100</i>
   <i type="int" name="IALGO">    38</i>
   <i type="int" name="IWAVPR">    10</i>
   <i type="int" name="NBANDS">   520</i>
   <i name="NELECT">    864.00000000</i>
   <i type="int" name="TURBO">     0</i>
   <i type="int" name="IRESTART">     0</i>
   <i type="int" name="NREBOOT">     0</i>
   <i type="int" name="NMIN">     0</i>
   <i name="EREF">      0.00000000</i>
   <separator name="electronic smearing" >
    <i type="int" name="ISMEAR">     0</i>
    <i name="SIGMA">      0.05000000</i>
    <i name="KSPACING">      0.30000000</i>
    <i type="logical" name="KGAMMA"> T  </i>
   </separator>
   <separator name="electronic projectors" >
    <i type="logical" name="LREAL"> T  </i>
    <v name="ROPT">     -0.00025000     -0.00025000     -0.00025000</v>
    <i type="int" name="LMAXPAW">  -100</i>
    <i type="int" name="LMAXMIX">     2</i>
    <i type="logical" name="NLSPLINE"> F  </i>
   </separator>
   <separator name="electronic startup" >
    <i type="int" name="ISTART">     0</i>
    <i type="int" name="ICHARG">     2</i>
    <i type="int" name="INIWAV">     1</i>
   </separator>
   <separator name="electronic spin" >
    <i type="int" name="ISPIN">     1</i>
    <i type="logical" name="LNONCOLLINEAR"> F  </i>
    <v name="MAGMOM">      1.00000000      1.00000000      1.00000000      1.00000000      1.00000000      1.00000000      1.00000000      1.00000000      1.00000000      1.00000000      1.00000000      1.00000000      1.00000000      1.00000000      1.00000000      1.00000000      1.00000000      1.00000000      1.00000000      1.00000000
      1.00000000      1.00000000      1.00000000      1.00000000      1.00000000      1.00000000      1.00000000      1.00000000      1.00000000      1.00000000      1.00000000      1.00000000      1.00000000      1.00000000      1.00000000      1.00000000      1.00000000      1.00000000      1.00000000      1.00000000
      1.00000000      1.00000000      1.00000000      1.00000000      1.00000000      1.00000000      1.00000000      1.00000000      1.00000000      1.00000000      1.00000000      1.00000000      1.00000000      1.00000000      1.00000000      1.00000000      1.00000000      1.00000000      1.00000000      1.00000000
      1.00000000      1.00000000      1.00000000      1.00000000      1.00000000      1.00000000      1.00000000      1.00000000      1.00000000      1.00000000      1.00000000      1.00000000      1.00000000      1.00000000      1.00000000      1.00000000      1.00000000      1.00000000      1.00000000      1.00000000
      1.00000000      1.00000000      1.00000000      1.00000000      1.00000000      1.00000000      1.00000000      1.00000000      1.00000000      1.00000000      1.00000000      1.00000000      1.00000000      1.00000000      1.00000000      1.00000000      1.00000000      1.00000000      1.00000000      1.00000000
      1.00000000      1.00000000      1.00000000      1.00000000      1.00000000      1.00000000      1.00000000      1.00000000      1.00000000      1.00000000      1.00000000      1.00000000      1.00000000      1.00000000      1.00000000      1.00000000      1.00000000      1.00000000      1.00000000      1.00000000
      1.00000000      1.00000000      1.00000000      1.00000000      1.00000000      1.00000000      1.00000000      1.00000000      1.00000000      1.00000000      1.00000000      1.00000000      1.00000000      1.00000000      1.00000000</v>
    <i name="NUPDOWN">     -1.00000000</i>
    <i type="logical" name="LSORBIT"> F  </i>
    <v name="SAXIS">      0.00000000      0.00000000      1.00000000</v>
    <i type="logical" name="LSPIRAL"> F  </i>
    <v name="QSPIRAL">      0.00000000      0.00000000      0.00000000</v>
    <i type="logical" name="LZEROZ"> F  </i>
   </separator>
   <separator name="electronic exchange-correlation" >
    <i type="logical" name="LASPH"> F  </i>
    <i type="logical" name="LMETAGGA"> F  </i>
   </separator>
   <separator name="electronic convergence" >
    <i type="int" name="NELM">    60</i>
    <i type="int" name="NELMDL">    -5</i>
    <i type="int" name="NELMIN">     2</i>
    <i name="ENINI">    600.00000000</i>
    <separator name="electronic convergence detail" >
     <i type="logical" name="LDIAG"> T  </i>
     <i type="logical" name="LSUBROT"> F  </i>
     <i name="WEIMIN">      0.00000000</i>
     <i name="EBREAK">      0.00000000</i>
     <i name="DEPER">      0.30000000</i>
     <i type="int" name="NRMM">     4</i>
     <i name="TIME">      0.40000000</i>
    </separator>
   </separator>
   <separator name="electronic mixer" >
    <i name="AMIX">      0.40000000</i>
    <i name="BMIX">      1.00000000</i>
    <i name="AMIN">      0.10000000</i>
    <i name="AMIX_MAG">      1.60000000</i>
    <i name="BMIX_MAG">      1.00000000</i>
    <separator name="electronic mixer details" >
     <i type="int" name="IMIX">     4</i>
     <i type="logical" name="MIXFIRST"> F  </i>
     <i type="int" name="MAXMIX">   -45</i>
     <i name="WC">    100.00000000</i>
     <i type="int" name="INIMIX">     1</i>
     <i type="int" name="MIXPRE">     1</i>
     <i type="int" name="MREMOVE">     5</i>
    </separator>
   </separator>
   <separator name="electronic dipolcorrection" >
    <i type="logical" name="LDIPOL"> F  </i>
    <i type="logical" name="LMONO"> F  </i>
    <i type="int" name="IDIPOL">     0</i>
    <i name="EPSILON">      1.00000000</i>
    <v name="DIPOL">   -100.00000000   -100.00000000   -100.00000000</v>
    <i name="EFIELD">      0.00000000</i>
   </separator>
  </separator>
  <separator name="grids" >
   <i type="int" name="NGX">    98</i>
   <i type="int" name="NGY">    98</i>
   <i type="int" name="NGZ">    98</i>
   <i type="int" name="NGXF">   196</i>
   <i type="int" name="NGYF">   196</i>
   <i type="int" name="NGZF">   196</i>
   <i type="logical" name="ADDGRID"> T  </i>
  </separator>
  <separator name="ionic" >
   <i type="int" name="NSW">     1</i>
   <i type="int" name="IBRION">    -1</i>
   <i type="int" name="MDALGO">     0</i>
   <i type="int" name="ISIF">     2</i>
   <i name="PSTRESS">      0.00000000</i>
   <i name="EDIFFG">     -0.01000000</i>
   <i type="int" name="NFREE">     0</i>
   <i name="POTIM">      1.00000000</i>
   <i name="SMASS">     -3.00000000</i>
   <i name="SCALEE">      1.00000000</i>
  </separator>
  <separator name="ionic md" >
   <i name="TEBEG">      0.00010000</i>
   <i name="TEEND">      0.00010000</i>
   <i type="int" name="NBLOCK">     1</i>
   <i type="int" name="KBLOCK">     1</i>
   <i type="int" name="NPACO">   256</i>
   <i name="APACO">     16.00000000</i>
  </separator>
  <separator name="symmetry" >
   <i type="int" name="ISYM">     0</i>
   <i name="SYMPREC">      0.00001000</i>
  </separator>
  <separator name="dos" >
   <i type="int" name="LORBIT">     0</i>
   <v name="RWIGS">     -1.00000000     -1.00000000     -1.00000000</v>
   <i type="int" name="NEDOS">   301</i>
   <i name="EMIN">     10.00000000</i>
   <i name="EMAX">    -10.00000000</i>
   <i name="EFERMI">      0.00000000</i>
  </separator>
  <separator name="writing" >
   <i type="int" name="NWRITE">     2</i>
   <i type="logical" name="LWAVE"> F  </i>
   <i type="logical" name="LDOWNSAMPLE"> F  </i>
   <i type="logical" name="LCHARG"> F  </i>
   <i type="logical" name="LPARD"> F  </i>
   <i type="logical" name="LVTOT"> F  </i>
   <i type="logical" name="LVHAR"> F  </i>
   <i type="logical" name="LELF"> F  </i>
   <i type="logical" name="LOPTICS"> F  </i>
   <v name="STM">      0.00000000      0.00000000      0.00000000      0.00000000      0.00000000      0.00000000      0.00000000</v>
  </separator>
  <separator name="performance" >
   <i type="int" name="NPAR">     4</i>
   <i type="int" name="NSIM">     4</i>
   <i type="int" name="NBLK">    -1</i>
   <i type="logical" name="LPLANE"> T  </i>
   <i type="logical" name="LSCALAPACK"> F  </i>
   <i type="logical" name="LSCAAWARE"> F  </i>
   <i type="logical" name="LSCALU"> F  </i>
   <i type="logical" name="LASYNC"> F  </i>
   <i type="logical" name="LORBITALREAL"> F  </i>
  </separator>
  <separator name="miscellaneous" >
   <i type="int" name="IDIOT">     3</i>
   <i type="int" name="ISPECIAL">     0</i>
   <i type="logical" name="LMUSIC"> F  </i>
   <v name="POMASS">     40.07800000     28.08500000     16.00000000</v>
   <v name="DARWINR">      0.00000000      0.00000000      0.00000000</v>
   <v name="DARWINV">      1.00000000      1.00000000      1.00000000</v>
   <i type="logical" name="LCORR"> T  </i>
  </separator>
  <i type="logical" name="GGA_COMPAT"> T  </i>
  <i type="logical" name="LBERRY"> F  </i>
  <i type="int" name="ICORELEVEL">     0</i>
  <i type="logical" name="LDAU"> F  </i>
  <i type="int" name="I_CONSTRAINED_M">     0</i>
  <separator name="electronic exchange-correlation" >
   <i type="string" name="GGA">--</i>
   <i type="int" name="VOSKOWN">     0</i>
   <i type="logical" name="LHFCALC"> F  </i>
   <i type="string" name="PRECFOCK"></i>
   <i type="logical" name="LSYMGRAD"> F  </i>
   <i type="logical" name="LHFONE"> F  </i>
   <i type="logical" name="LRHFCALC"> F  </i>
   <i type="logical" name="LTHOMAS"> F  </i>
   <i type="logical" name="LMODELHF"> F  </i>
   <i name="ENCUT4O">     -1.00000000</i>
   <i type="int" name="EXXOEP">     0</i>
   <i type="int" name="FOURORBIT">     0</i>
   <i name="AEXX">      0.00000000</i>
   <i name="HFALPHA">      0.00000000</i>
   <i name="MCALPHA">      0.00000000</i>
   <i name="ALDAX">      1.00000000</i>
   <i name="AGGAX">      1.00000000</i>
   <i name="ALDAC">      1.00000000</i>
   <i name="AGGAC">      1.00000000</i>
   <i type="int" name="NKREDX">     1</i>
   <i type="int" name="NKREDY">     1</i>
   <i type="int" name="NKREDZ">     1</i>
   <i type="logical" name="SHIFTRED"> F  </i>
   <i type="logical" name="ODDONLY"> F  </i>
   <i type="logical" name="EVENONLY"> F  </i>
   <i type="int" name="LMAXFOCK">     0</i>
   <i type="int" name="NMAXFOCKAE">     0</i>
   <i type="logical" name="LFOCKAEDFT"> F  </i>
   <i name="HFSCREEN">      0.00000000</i>
   <i name="HFSCREENC">      0.00000000</i>
   <i type="int" name="NBANDSGWLOW">     0</i>
  </separator>
  <separator name="vdW DFT" >
   <i type="logical" name="LUSE_VDW"> F  </i>
   <i name="Zab_VDW">     -0.84910000</i>
   <i name="PARAM1">      0.12340000</i>
   <i name="PARAM2">      1.00000000</i>
   <i name="PARAM3">      0.00000000</i>
  </separator>
  <separator name="model GW" >
   <i type="int" name="MODEL_GW">     0</i>
   <i name="MODEL_EPS0">      7.86148328</i>
   <i name="MODEL_ALPHA">      1.00000000</i>
  </separator>
  <separator name="linear response parameters" >
   <i type="logical" name="LEPSILON"> F  </i>
   <i type="logical" name="LRPA"> F  </i>
   <i type="logical" name="LNABLA"> F  </i>
   <i type="logical" name="LVEL"> F  </i>
   <i type="int" name="KINTER">     0</i>
   <i name="CSHIFT">      0.10000000</i>
   <i name="OMEGAMAX">     -1.00000000</i>
   <i name="DEG_THRESHOLD">      0.00200000</i>
   <i name="RTIME">     -0.10000000</i>
   <i name="WPLASMAI">      0.00000000</i>
   <v name="DFIELD">      0.00000000      0.00000000      0.00000000</v>
   <v name="WPLASMA">      0.00000000      0.00000000      0.00000000      0.00000000      0.00000000      0.00000000      0.00000000      0.00000000      0.00000000</v>
  </separator>
  <separator name="orbital magnetization" >
   <i type="logical" name="NUCIND"> F  </i>
   <v name="MAGPOS">      0.00000000      0.00000000      0.00000000</v>
   <i type="logical" name="LNICSALL"> T  </i>
   <i type="logical" name="ORBITALMAG"> F  </i>
   <i type="logical" name="LMAGBLOCH"> F  </i>
   <i type="logical" name="LCHIMAG"> F  </i>
   <i type="logical" name="LGAUGE"> T  </i>
   <i type="int" name="MAGATOM">     0</i>
   <v name="MAGDIPOL">      0.00000000      0.00000000      0.00000000</v>
   <v name="AVECCONST">      0.00000000      0.00000000      0.00000000</v>
  </separator>
  <separator name="response functions" >
   <i type="logical" name="LADDER"> F  </i>
   <i type="logical" name="LRPAFORCE"> F  </i>
   <i type="logical" name="LFXC"> F  </i>
   <i type="logical" name="LHARTREE"> T  </i>
   <i type="int" name="IBSE">     0</i>
   <v type="int" name="KPOINT">    -1     0     0     0</v>
   <i type="logical" name="LTCTE"> F  </i>
   <i type="logical" name="LTETE"> F  </i>
   <i type="logical" name="LTRIPLET"> F  </i>
   <i type="logical" name="LFXCEPS"> F  </i>
   <i type="logical" name="LFXHEG"> F  </i>
   <i type="int" name="NATURALO">     2</i>
   <i type="logical" name="L2ORDER"> F  </i>
   <i type="logical" name="LMP2LT"> F  </i>
   <i type="logical" name="LUSEW"> F  </i>
   <i name="ENCUTGW">     -2.00000000</i>
   <i name="ENCUTGWSOFT">     -2.00000000</i>
   <i name="ENCUTLF">     -1.00000000</i>
   <i type="int" name="LMAXMP2">    -1</i>
   <i name="SCISSOR">      0.00000000</i>
   <i type="int" name="NOMEGA">     0</i>
   <i type="int" name="NOMEGAR">     0</i>
   <i type="int" name="NBANDSGW">    -1</i>
   <i type="int" name="NBANDSO">    -1</i>
   <i type="int" name="NBANDSV">    -1</i>
   <i type="int" name="NELM">     1</i>
   <i type="int" name="NELMHF">     1</i>
   <i type="int" name="DIM">     3</i>
   <i type="int" name="ANTIRES">     0</i>
   <i name="OMEGAMAX">    -30.00000000</i>
   <i name="OMEGAMIN">    -30.00000000</i>
   <i name="OMEGATL">   -200.00000000</i>
   <i type="int" name="OMEGAGRID">   140</i>
   <i name="CSHIFT">     -0.10000000</i>
   <i type="logical" name="SELFENERGY"> F  </i>
   <i type="logical" name="LSPECTRAL"> F  </i>
   <i type="logical" name="LSPECTRALGW"> F  </i>
   <i type="logical" name="LSINGLES"> F  </i>
   <i type="logical" name="LFERMIGW"> F  </i>
   <i type="logical" name="ODDONLYGW"> F  </i>
   <i type="logical" name="EVENONLYGW"> F  </i>
   <i type="int" name="NKREDLFX">     1</i>
   <i type="int" name="NKREDLFY">     1</i>
   <i type="int" name="NKREDLFZ">     1</i>
   <i type="int" name="MAXMEM">  2800</i>
   <i type="int" name="TELESCOPE">     0</i>
   <i type="int" name="TAUPAR">     1</i>
   <i type="int" name="OMEGAPAR">    -1</i>
   <i name="LAMBDA">      1.00000000</i>
  </separator>
  <separator name="External order field" >
   <i name="OFIELD_KAPPA">      0.00000000</i>
   <v name="OFIELD_K">      0.00000000      0.00000000      0.00000000</v>
   <i name="OFIELD_Q6_NEAR">      0.00000000</i>
   <i name="OFIELD_Q6_FAR">      0.00000000</i>
   <i name="OFIELD_A">      0.00000000</i>
  </separator>
 </parameters>
 <atominfo>
  <atoms>     135 </atoms>
  <types>       3 </types>
  <array name="atoms" >
   <dimension dim="1">ion</dimension>
   <field type="string">element</field>
   <field type="int">atomtype</field>
   <set>
    <rc><c>Ca</c><c>   1</c></rc>
    <rc><c>Ca</c><c>   1</c></rc>
    <rc><c>Ca</c><c>   1</c></rc>
    <rc><c>Ca</c><c>   1</c></rc>
    <rc><c>Ca</c><c>   1</c></rc>
    <rc><c>Ca</c><c>   1</c></rc>
    <rc><c>Ca</c><c>   1</c></rc>
    <rc><c>Ca</c><c>   1</c></rc>
    <rc><c>Ca</c><c>   1</c></rc>
    <rc><c>Ca</c><c>   1</c></rc>
    <rc><c>Ca</c><c>   1</c></rc>
    <rc><c>Ca</c><c>   1</c></rc>
    <rc><c>Ca</c><c>   1</c></rc>
    <rc><c>Ca</c><c>   1</c></rc>
    <rc><c>Ca</c><c>   1</c></rc>
    <rc><c>Ca</c><c>   1</c></rc>
    <rc><c>Ca</c><c>   1</c></rc>
    <rc><c>Ca</c><c>   1</c></rc>
    <rc><c>Ca</c><c>   1</c></rc>
    <rc><c>Ca</c><c>   1</c></rc>
    <rc><c>Ca</c><c>   1</c></rc>
    <rc><c>Ca</c><c>   1</c></rc>
    <rc><c>Ca</c><c>   1</c></rc>
    <rc><c>Ca</c><c>   1</c></rc>
    <rc><c>Ca</c><c>   1</c></rc>
    <rc><c>Ca</c><c>   1</c></rc>
    <rc><c>Ca</c><c>   1</c></rc>
    <rc><c>Si</c><c>   2</c></rc>
    <rc><c>Si</c><c>   2</c></rc>
    <rc><c>Si</c><c>   2</c></rc>
    <rc><c>Si</c><c>   2</c></rc>
    <rc><c>Si</c><c>   2</c></rc>
    <rc><c>Si</c><c>   2</c></rc>
    <rc><c>Si</c><c>   2</c></rc>
    <rc><c>Si</c><c>   2</c></rc>
    <rc><c>Si</c><c>   2</c></rc>
    <rc><c>Si</c><c>   2</c></rc>
    <rc><c>Si</c><c>   2</c></rc>
    <rc><c>Si</c><c>   2</c></rc>
    <rc><c>Si</c><c>   2</c></rc>
    <rc><c>Si</c><c>   2</c></rc>
    <rc><c>Si</c><c>   2</c></rc>
    <rc><c>Si</c><c>   2</c></rc>
    <rc><c>Si</c><c>   2</c></rc>
    <rc><c>Si</c><c>   2</c></rc>
    <rc><c>Si</c><c>   2</c></rc>
    <rc><c>Si</c><c>   2</c></rc>
    <rc><c>Si</c><c>   2</c></rc>
    <rc><c>Si</c><c>   2</c></rc>
    <rc><c>Si</c><c>   2</c></rc>
    <rc><c>Si</c><c>   2</c></rc>
    <rc><c>Si</c><c>   2</c></rc>
    <rc><c>Si</c><c>   2</c></rc>
    <rc><c>Si</c><c>   2</c></rc>
    <rc><c>O </c><c>   3</c></rc>
    <rc><c>O </c><c>   3</c></rc>
    <rc><c>O </c><c>   3</c></rc>
    <rc><c>O </c><c>   3</c></rc>
    <rc><c>O </c><c>   3</c></rc>
    <rc><c>O </c><c>   3</c></rc>
    <rc><c>O </c><c>   3</c></rc>
    <rc><c>O </c><c>   3</c></rc>
    <rc><c>O </c><c>   3</c></rc>
    <rc><c>O </c><c>   3</c></rc>
    <rc><c>O </c><c>   3</c></rc>
    <rc><c>O </c><c>   3</c></rc>
    <rc><c>O </c><c>   3</c></rc>
    <rc><c>O </c><c>   3</c></rc>
    <rc><c>O </c><c>   3</c></rc>
    <rc><c>O </c><c>   3</c></rc>
    <rc><c>O </c><c>   3</c></rc>
    <rc><c>O </c><c>   3</c></rc>
    <rc><c>O </c><c>   3</c></rc>
    <rc><c>O </c><c>   3</c></rc>
    <rc><c>O </c><c>   3</c></rc>
    <rc><c>O </c><c>   3</c></rc>
    <rc><c>O </c><c>   3</c></rc>
    <rc><c>O </c><c>   3</c></rc>
    <rc><c>O </c><c>   3</c></rc>
    <rc><c>O </c><c>   3</c></rc>
    <rc><c>O </c><c>   3</c></rc>
    <rc><c>O </c><c>   3</c></rc>
    <rc><c>O </c><c>   3</c></rc>
    <rc><c>O </c><c>   3</c></rc>
    <rc><c>O </c><c>   3</c></rc>
    <rc><c>O </c><c>   3</c></rc>
    <rc><c>O </c><c>   3</c></rc>
    <rc><c>O </c><c>   3</c></rc>
    <rc><c>O </c><c>   3</c></rc>
    <rc><c>O </c><c>   3</c></rc>
    <rc><c>O </c><c>   3</c></rc>
    <rc><c>O </c><c>   3</c></rc>
    <rc><c>O </c><c>   3</c></rc>
    <rc><c>O </c><c>   3</c></rc>
    <rc><c>O </c><c>   3</c></rc>
    <rc><c>O </c><c>   3</c></rc>
    <rc><c>O </c><c>   3</c></rc>
    <rc><c>O </c><c>   3</c></rc>
    <rc><c>O </c><c>   3</c></rc>
    <rc><c>O </c><c>   3</c></rc>
    <rc><c>O </c><c>   3</c></rc>
    <rc><c>O </c><c>   3</c></rc>
    <rc><c>O </c><c>   3</c></rc>
    <rc><c>O </c><c>   3</c></rc>
    <rc><c>O </c><c>   3</c></rc>
    <rc><c>O </c><c>   3</c></rc>
    <rc><c>O </c><c>   3</c></rc>
    <rc><c>O </c><c>   3</c></rc>
    <rc><c>O </c><c>   3</c></rc>
    <rc><c>O </c><c>   3</c></rc>
    <rc><c>O </c><c>   3</c></rc>
    <rc><c>O </c><c>   3</c></rc>
    <rc><c>O </c><c>   3</c></rc>
    <rc><c>O </c><c>   3</c></rc>
    <rc><c>O </c><c>   3</c></rc>
    <rc><c>O </c><c>   3</c></rc>
    <rc><c>O </c><c>   3</c></rc>
    <rc><c>O </c><c>   3</c></rc>
    <rc><c>O </c><c>   3</c></rc>
    <rc><c>O </c><c>   3</c></rc>
    <rc><c>O </c><c>   3</c></rc>
    <rc><c>O </c><c>   3</c></rc>
    <rc><c>O </c><c>   3</c></rc>
    <rc><c>O </c><c>   3</c></rc>
    <rc><c>O </c><c>   3</c></rc>
    <rc><c>O </c><c>   3</c></rc>
    <rc><c>O </c><c>   3</c></rc>
    <rc><c>O </c><c>   3</c></rc>
    <rc><c>O </c><c>   3</c></rc>
    <rc><c>O </c><c>   3</c></rc>
    <rc><c>O </c><c>   3</c></rc>
    <rc><c>O </c><c>   3</c></rc>
    <rc><c>O </c><c>   3</c></rc>
    <rc><c>O </c><c>   3</c></rc>
    <rc><c>O </c><c>   3</c></rc>
   </set>
  </array>
  <array name="atomtypes" >
   <dimension dim="1">type</dimension>
   <field type="int">atomspertype</field>
   <field type="string">element</field>
   <field>mass</field>
   <field>valence</field>
   <field type="string">pseudopotential</field>
   <set>
    <rc><c>  27</c><c>Ca</c><c>     40.07800000</c><c>     10.00000000</c><c>  PAW_PBE Ca_sv 06Sep2000               </c></rc>
    <rc><c>  27</c><c>Si</c><c>     28.08500000</c><c>      4.00000000</c><c>  PAW_PBE Si 05Jan2001                  </c></rc>
    <rc><c>  81</c><c>O </c><c>     16.00000000</c><c>      6.00000000</c><c>  PAW_PBE O 08Apr2002                   </c></rc>
   </set>
  </array>
 </atominfo>
 <structure name="initialpos" >
  <crystal>
   <varray name="basis" >
    <v>      12.09378762       0.00000000       0.00000000 </v>
    <v>       0.00000000      12.09378762       0.00000000 </v>
    <v>       0.00000000       0.00000000      12.09378762 </v>
   </varray>
   <i name="volume">   1768.83373704 </i>
   <varray name="rec_basis" >
    <v>       0.08268708       0.00000000       0.00000000 </v>
    <v>       0.00000000       0.08268708       0.00000000 </v>
    <v>       0.00000000       0.00000000       0.08268708 </v>
   </varray>
  </crystal>
  <varray name="positions" >
   <v>       0.81191143       0.92140562       0.96262747 </v>
   <v>       0.28382335       0.30739335       0.70453254 </v>
   <v>       0.18228007       0.17171634       0.97758393 </v>
   <v>       0.54126305       0.67046975       0.31320918 </v>
   <v>       0.78976081       0.65267181       0.72021945 </v>
   <v>       0.06349556       0.27559771       0.39481152 </v>
   <v>       0.95560273       0.10679538       0.05426457 </v>
   <v>       0.56852783       0.19666182       0.69336902 </v>
   <v>       0.37504947       0.72666915       0.99813933 </v>
   <v>       0.37968472       0.03294291       0.08133164 </v>
   <v>       0.56256459       0.97610359       0.89339118 </v>
   <v>       0.81348125       0.77940916       0.40060498 </v>
   <v>       0.64818200       0.17603070       0.12281810 </v>
   <v>       0.39091925       0.05290212       0.59714619 </v>
   <v>       0.14864293       0.65466327       0.75300952 </v>
   <v>       0.06751868       0.40259818       0.12730939 </v>
   <v>       0.19565024       0.81782669       0.30380764 </v>
   <v>       0.95677223       0.66743020       0.20908851 </v>
   <v>       0.58148599       0.97643072       0.34442276 </v>
   <v>       0.35825209       0.70309645       0.55235976 </v>
   <v>       0.09907354       0.00871891       0.45579754 </v>
   <v>       0.02402096       0.45937667       0.78783177 </v>
   <v>       0.30365725       0.50131692       0.23157758 </v>
   <v>       0.65938480       0.45169629       0.83827913 </v>
   <v>       0.82099081       0.39364563       0.20144179 </v>
   <v>       0.84419187       0.30414016       0.62462352 </v>
   <v>       0.85522754       0.99433306       0.53692402 </v>
   <v>       0.79811256       0.94463493       0.18630789 </v>
   <v>       0.77341953       0.15009542       0.38208306 </v>
   <v>       0.81914834       0.05060167       0.76380425 </v>
   <v>       0.06900782       0.69564711       0.99095567 </v>
   <v>       0.30465223       0.44716655       0.92513355 </v>
   <v>       0.61626182       0.25027282       0.36360480 </v>
   <v>       0.46728104       0.24939983       0.95537604 </v>
   <v>       0.49865405       0.78237106       0.13594377 </v>
   <v>       0.97060931       0.48661928       0.55342863 </v>
   <v>       0.60600985       0.76214956       0.57996853 </v>
   <v>       0.82828568       0.22563819       0.88362028 </v>
   <v>       0.04255271       0.74223857       0.50873446 </v>
   <v>       0.81367274       0.45925032       0.98464372 </v>
   <v>       0.17268691       0.11925388       0.22822285 </v>
   <v>       0.27349824       0.88424107       0.74259553 </v>
   <v>       0.17507671       0.91300986       0.95055767 </v>
   <v>       0.75146493       0.46252083       0.44637301 </v>
   <v>       0.00234756       0.89517221       0.72626134 </v>
   <v>       0.64546750       0.70378985       0.93718276 </v>
   <v>       0.09946589       0.51944564       0.35031592 </v>
   <v>       0.35533499       0.27566554       0.42223284 </v>
   <v>       0.58150231       0.43527216       0.12998253 </v>
   <v>       0.33409276       0.51572862       0.46316144 </v>
   <v>       0.07913114       0.24541857       0.65914664 </v>
   <v>       0.42638180       0.65274959       0.78516801 </v>
   <v>       0.55639389       0.52883766       0.59913894 </v>
   <v>       0.31535655       0.03587411       0.37256087 </v>
   <v>       0.78744433       0.03562058       0.30127948 </v>
   <v>       0.55581297       0.40969190       0.64599578 </v>
   <v>       0.07595181       0.37945753       0.65286897 </v>
   <v>       0.67724958       0.81441678       0.87488477 </v>
   <v>       0.39879847       0.36145906       0.89770035 </v>
   <v>       0.46536583       0.55310756       0.71476704 </v>
   <v>       0.20996981       0.17400681       0.37893465 </v>
   <v>       0.58546071       0.33809896       0.25019049 </v>
   <v>       0.58131664       0.14282065       0.29215350 </v>
   <v>       0.16250671       0.19344425       0.75724626 </v>
   <v>       0.34604694       0.94895910       0.25766471 </v>
   <v>       0.54181193       0.81819500       0.25851746 </v>
   <v>       0.96312731       0.61738589       0.50199568 </v>
   <v>       0.68809629       0.14089824       0.48075276 </v>
   <v>       0.02349621       0.92202959       0.58177333 </v>
   <v>       0.48494537       0.55075408       0.50214064 </v>
   <v>       0.07644177       0.20433374       0.14864201 </v>
   <v>       0.38155958       0.40698980       0.37260198 </v>
   <v>       0.17692048       0.78729729       0.97470183 </v>
   <v>       0.31553004       0.93689685       0.88008559 </v>
   <v>       0.34180191       0.73212111       0.76132729 </v>
   <v>       0.73488974       0.59734706       0.90795528 </v>
   <v>       0.71691997       0.33162219       0.44373123 </v>
   <v>       0.87890567       0.94114380       0.77169193 </v>
   <v>       0.49614532       0.82453502       0.62420194 </v>
   <v>       0.32665468       0.91279848       0.62910189 </v>
   <v>       0.03190164       0.15586303       0.57328299 </v>
   <v>       0.82094361       0.23433782       0.29773173 </v>
   <v>       0.49202285       0.27875142       0.45030095 </v>
   <v>       0.11702655       0.01864330       0.27765680 </v>
   <v>       0.62964327       0.64444214       0.66694756 </v>
   <v>       0.38092751       0.75533889       0.17619671 </v>
   <v>       0.51643872       0.67914736       0.88573901 </v>
   <v>       0.29609239       0.46789171       0.57461202 </v>
   <v>       0.09847448       0.59264492       0.87882340 </v>
   <v>       0.90713431       0.52504579       0.05948369 </v>
   <v>       0.28844818       0.17757813       0.21949253 </v>
   <v>       0.21634572       0.00832514       0.03785581 </v>
   <v>       0.80796423       0.07965613       0.90885082 </v>
   <v>       0.51791983       0.53130982       0.17887414 </v>
   <v>       0.43565490       0.05302099       0.43378963 </v>
   <v>       0.00459657       0.78817968       0.39899339 </v>
   <v>       0.80601229       0.24523758       0.03767327 </v>
   <v>       0.34763838       0.19458901       0.00679994 </v>
   <v>       0.34941148       0.63331953       0.39169611 </v>
   <v>       0.88078905       0.16765596       0.73386375 </v>
   <v>       0.92390564       0.15172467       0.42441299 </v>
   <v>       0.18147355       0.40120778       0.32974194 </v>
   <v>       0.10677561       0.51458760       0.50579435 </v>
   <v>       0.63084801       0.74957611       0.43965380 </v>
   <v>       0.54854701       0.15024517       0.93171105 </v>
   <v>       0.81698849       0.82762771       0.23586392 </v>
   <v>       0.96959756       0.77063098       0.98509688 </v>
   <v>       0.71673414       0.81615931       0.63328761 </v>
   <v>       0.16075337       0.63938586       0.30274687 </v>
   <v>       0.08862500       0.60097991       0.08566156 </v>
   <v>       0.24404900       0.95708716       0.44891481 </v>
   <v>       0.90085202       0.41712113       0.45475581 </v>
   <v>       0.40835965       0.16970152       0.74269647 </v>
   <v>       0.09014175       0.99961032       0.89794489 </v>
   <v>       0.13456226       0.84008733       0.76277541 </v>
   <v>       0.01316980       0.46148067       0.27863220 </v>
   <v>       0.97187395       0.23517466       0.89383362 </v>
   <v>       0.87481947       0.48365672       0.63833388 </v>
   <v>       0.16564090       0.72842211       0.53616805 </v>
   <v>       0.29121824       0.48704157       0.05430571 </v>
   <v>       0.32874407       0.24016244       0.55068342 </v>
   <v>       0.70489726       0.01940662       0.70801733 </v>
   <v>       0.74590677       0.50714480       0.31579119 </v>
   <v>       0.69756904       0.51500517       0.54758471 </v>
   <v>       0.70000737       0.97852277       0.10180182 </v>
   <v>       0.98898913       0.73740506       0.64882325 </v>
   <v>       0.48861328       0.86885189       0.02036781 </v>
   <v>       0.85013124       0.38428313       0.86755099 </v>
   <v>       0.70041079       0.25339283       0.82522592 </v>
   <v>       0.68940728       0.41915845       0.02897130 </v>
   <v>       0.53706798       0.35389237       0.02853794 </v>
   <v>       0.19297321       0.41880125       0.86521529 </v>
   <v>       0.31342773       0.57346065       0.87462710 </v>
   <v>       0.89904848       0.96768869       0.11486316 </v>
   <v>       0.62112293       0.69429510       0.07519704 </v>
  </varray>
  <varray name="velocities" >
   <v>       0.00000000       0.00000000       0.00000000 </v>
   <v>       0.00000000       0.00000000       0.00000000 </v>
   <v>       0.00000000       0.00000000       0.00000000 </v>
   <v>       0.00000000       0.00000000       0.00000000 </v>
   <v>       0.00000000       0.00000000       0.00000000 </v>
   <v>       0.00000000       0.00000000       0.00000000 </v>
   <v>       0.00000000       0.00000000       0.00000000 </v>
   <v>       0.00000000       0.00000000       0.00000000 </v>
   <v>       0.00000000       0.00000000       0.00000000 </v>
   <v>       0.00000000       0.00000000       0.00000000 </v>
   <v>       0.00000000       0.00000000       0.00000000 </v>
   <v>       0.00000000       0.00000000       0.00000000 </v>
   <v>       0.00000000       0.00000000       0.00000000 </v>
   <v>       0.00000000       0.00000000       0.00000000 </v>
   <v>       0.00000000       0.00000000       0.00000000 </v>
   <v>       0.00000000       0.00000000       0.00000000 </v>
   <v>       0.00000000       0.00000000       0.00000000 </v>
   <v>       0.00000000       0.00000000       0.00000000 </v>
   <v>       0.00000000       0.00000000       0.00000000 </v>
   <v>       0.00000000       0.00000000       0.00000000 </v>
   <v>       0.00000000       0.00000000       0.00000000 </v>
   <v>       0.00000000       0.00000000       0.00000000 </v>
   <v>       0.00000000       0.00000000       0.00000000 </v>
   <v>       0.00000000       0.00000000       0.00000000 </v>
   <v>       0.00000000       0.00000000       0.00000000 </v>
   <v>       0.00000000       0.00000000       0.00000000 </v>
   <v>       0.00000000       0.00000000       0.00000000 </v>
   <v>       0.00000000       0.00000000       0.00000000 </v>
   <v>       0.00000000       0.00000000       0.00000000 </v>
   <v>       0.00000000       0.00000000       0.00000000 </v>
   <v>       0.00000000       0.00000000       0.00000000 </v>
   <v>       0.00000000       0.00000000       0.00000000 </v>
   <v>       0.00000000       0.00000000       0.00000000 </v>
   <v>       0.00000000       0.00000000       0.00000000 </v>
   <v>       0.00000000       0.00000000       0.00000000 </v>
   <v>       0.00000000       0.00000000       0.00000000 </v>
   <v>       0.00000000       0.00000000       0.00000000 </v>
   <v>       0.00000000       0.00000000       0.00000000 </v>
   <v>       0.00000000       0.00000000       0.00000000 </v>
   <v>       0.00000000       0.00000000       0.00000000 </v>
   <v>       0.00000000       0.00000000       0.00000000 </v>
   <v>       0.00000000       0.00000000       0.00000000 </v>
   <v>       0.00000000       0.00000000       0.00000000 </v>
   <v>       0.00000000       0.00000000       0.00000000 </v>
   <v>       0.00000000       0.00000000       0.00000000 </v>
   <v>       0.00000000       0.00000000       0.00000000 </v>
   <v>       0.00000000       0.00000000       0.00000000 </v>
   <v>       0.00000000       0.00000000       0.00000000 </v>
   <v>       0.00000000       0.00000000       0.00000000 </v>
   <v>       0.00000000       0.00000000       0.00000000 </v>
   <v>       0.00000000       0.00000000       0.00000000 </v>
   <v>       0.00000000       0.00000000       0.00000000 </v>
   <v>       0.00000000       0.00000000       0.00000000 </v>
   <v>       0.00000000       0.00000000       0.00000000 </v>
   <v>       0.00000000       0.00000000       0.00000000 </v>
   <v>       0.00000000       0.00000000       0.00000000 </v>
   <v>       0.00000000       0.00000000       0.00000000 </v>
   <v>       0.00000000       0.00000000       0.00000000 </v>
   <v>       0.00000000       0.00000000       0.00000000 </v>
   <v>       0.00000000       0.00000000       0.00000000 </v>
   <v>       0.00000000       0.00000000       0.00000000 </v>
   <v>       0.00000000       0.00000000       0.00000000 </v>
   <v>       0.00000000       0.00000000       0.00000000 </v>
   <v>       0.00000000       0.00000000       0.00000000 </v>
   <v>       0.00000000       0.00000000       0.00000000 </v>
   <v>       0.00000000       0.00000000       0.00000000 </v>
   <v>       0.00000000       0.00000000       0.00000000 </v>
   <v>       0.00000000       0.00000000       0.00000000 </v>
   <v>       0.00000000       0.00000000       0.00000000 </v>
   <v>       0.00000000       0.00000000       0.00000000 </v>
   <v>       0.00000000       0.00000000       0.00000000 </v>
   <v>       0.00000000       0.00000000       0.00000000 </v>
   <v>       0.00000000       0.00000000       0.00000000 </v>
   <v>       0.00000000       0.00000000       0.00000000 </v>
   <v>       0.00000000       0.00000000       0.00000000 </v>
   <v>       0.00000000       0.00000000       0.00000000 </v>
   <v>       0.00000000       0.00000000       0.00000000 </v>
   <v>       0.00000000       0.00000000       0.00000000 </v>
   <v>       0.00000000       0.00000000       0.00000000 </v>
   <v>       0.00000000       0.00000000       0.00000000 </v>
   <v>       0.00000000       0.00000000       0.00000000 </v>
   <v>       0.00000000       0.00000000       0.00000000 </v>
   <v>       0.00000000       0.00000000       0.00000000 </v>
   <v>       0.00000000       0.00000000       0.00000000 </v>
   <v>       0.00000000       0.00000000       0.00000000 </v>
   <v>       0.00000000       0.00000000       0.00000000 </v>
   <v>       0.00000000       0.00000000       0.00000000 </v>
   <v>       0.00000000       0.00000000       0.00000000 </v>
   <v>       0.00000000       0.00000000       0.00000000 </v>
   <v>       0.00000000       0.00000000       0.00000000 </v>
   <v>       0.00000000       0.00000000       0.00000000 </v>
   <v>       0.00000000       0.00000000       0.00000000 </v>
   <v>       0.00000000       0.00000000       0.00000000 </v>
   <v>       0.00000000       0.00000000       0.00000000 </v>
   <v>       0.00000000       0.00000000       0.00000000 </v>
   <v>       0.00000000       0.00000000       0.00000000 </v>
   <v>       0.00000000       0.00000000       0.00000000 </v>
   <v>       0.00000000       0.00000000       0.00000000 </v>
   <v>       0.00000000       0.00000000       0.00000000 </v>
   <v>       0.00000000       0.00000000       0.00000000 </v>
   <v>       0.00000000       0.00000000       0.00000000 </v>
   <v>       0.00000000       0.00000000       0.00000000 </v>
   <v>       0.00000000       0.00000000       0.00000000 </v>
   <v>       0.00000000       0.00000000       0.00000000 </v>
   <v>       0.00000000       0.00000000       0.00000000 </v>
   <v>       0.00000000       0.00000000       0.00000000 </v>
   <v>       0.00000000       0.00000000       0.00000000 </v>
   <v>       0.00000000       0.00000000       0.00000000 </v>
   <v>       0.00000000       0.00000000       0.00000000 </v>
   <v>       0.00000000       0.00000000       0.00000000 </v>
   <v>       0.00000000       0.00000000       0.00000000 </v>
   <v>       0.00000000       0.00000000       0.00000000 </v>
   <v>       0.00000000       0.00000000       0.00000000 </v>
   <v>       0.00000000       0.00000000       0.00000000 </v>
   <v>       0.00000000       0.00000000       0.00000000 </v>
   <v>       0.00000000       0.00000000       0.00000000 </v>
   <v>       0.00000000       0.00000000       0.00000000 </v>
   <v>       0.00000000       0.00000000       0.00000000 </v>
   <v>       0.00000000       0.00000000       0.00000000 </v>
   <v>       0.00000000       0.00000000       0.00000000 </v>
   <v>       0.00000000       0.00000000       0.00000000 </v>
   <v>       0.00000000       0.00000000       0.00000000 </v>
   <v>       0.00000000       0.00000000       0.00000000 </v>
   <v>       0.00000000       0.00000000       0.00000000 </v>
   <v>       0.00000000       0.00000000       0.00000000 </v>
   <v>       0.00000000       0.00000000       0.00000000 </v>
   <v>       0.00000000       0.00000000       0.00000000 </v>
   <v>       0.00000000       0.00000000       0.00000000 </v>
   <v>       0.00000000       0.00000000       0.00000000 </v>
   <v>       0.00000000       0.00000000       0.00000000 </v>
   <v>       0.00000000       0.00000000       0.00000000 </v>
   <v>       0.00000000       0.00000000       0.00000000 </v>
   <v>       0.00000000       0.00000000       0.00000000 </v>
   <v>       0.00000000       0.00000000       0.00000000 </v>
   <v>       0.00000000       0.00000000       0.00000000 </v>
  </varray>
 </structure>
 <calculation>
  <scstep>
   <time name="dav">   36.47   36.48</time>
   <time name="total">   36.98   36.99</time>
   <energy>
    <i name="alphaZ">   2701.53174423 </i>
    <i name="ewald"> -45657.40976825 </i>
    <i name="hartreedc"> -17767.34357522 </i>
    <i name="XCdc">   3169.33971858 </i>
    <i name="pawpsdc">  50594.51003143 </i>
    <i name="pawaedc"> -49994.65612350 </i>
    <i name="eentropy">     -0.03901161 </i>
    <i name="bandstr">   1526.98245603 </i>
    <i name="atom">  64968.54023382 </i>
    <i name="e_fr_energy">   9541.45570552 </i>
    <i name="e_wo_entrp">   9541.49471713 </i>
    <i name="e_0_energy">   9541.47521133 </i>
   </energy>
  </scstep>
  <scstep>
   <time name="dav">   41.92   41.94</time>
   <time name="total">   41.92   41.94</time>
   <energy>
    <i name="e_fr_energy">     44.17202698 </i>
    <i name="e_wo_entrp">     44.17202698 </i>
    <i name="e_0_energy">     44.17202698 </i>
   </energy>
  </scstep>
  <scstep>
   <time name="dav">   43.15   43.15</time>
   <time name="total">   43.15   43.15</time>
   <energy>
    <i name="e_fr_energy">   -997.18069404 </i>
    <i name="e_wo_entrp">   -997.18069404 </i>
    <i name="e_0_energy">   -997.18069404 </i>
   </energy>
  </scstep>
  <scstep>
   <time name="dav">   46.73   46.75</time>
   <time name="total">   46.73   46.75</time>
   <energy>
    <i name="e_fr_energy">  -1048.22659346 </i>
    <i name="e_wo_entrp">  -1048.22659346 </i>
    <i name="e_0_energy">  -1048.22659346 </i>
   </energy>
  </scstep>
  <scstep>
   <time name="dav">   56.03   56.04</time>
   <time name="total">   57.49   57.50</time>
   <energy>
    <i name="e_fr_energy">  -1053.62036803 </i>
    <i name="e_wo_entrp">  -1053.62036803 </i>
    <i name="e_0_energy">  -1053.62036803 </i>
   </energy>
  </scstep>
  <scstep>
   <time name="dav">   42.02   42.04</time>
   <time name="total">   44.00   44.03</time>
   <energy>
    <i name="e_fr_energy">   -902.26348541 </i>
    <i name="e_wo_entrp">   -902.26348541 </i>
    <i name="e_0_energy">   -902.26348541 </i>
   </energy>
  </scstep>
  <scstep>
   <time name="dav">   44.77   44.78</time>
   <time name="total">   46.75   46.75</time>
   <energy>
    <i name="e_fr_energy">   -904.29423195 </i>
    <i name="e_wo_entrp">   -904.29423195 </i>
    <i name="e_0_energy">   -904.29423195 </i>
   </energy>
  </scstep>
  <scstep>
   <time name="dav">   43.92   43.92</time>
   <time name="total">   45.81   45.83</time>
   <energy>
    <i name="e_fr_energy">   -903.10075526 </i>
    <i name="e_wo_entrp">   -903.10075526 </i>
    <i name="e_0_energy">   -903.10075526 </i>
   </energy>
  </scstep>
  <scstep>
   <time name="dav">   45.79   45.80</time>
   <time name="total">   47.74   47.74</time>
   <energy>
    <i name="e_fr_energy">   -902.78148266 </i>
    <i name="e_wo_entrp">   -902.78148266 </i>
    <i name="e_0_energy">   -902.78148266 </i>
   </energy>
  </scstep>
  <scstep>
   <time name="dav">   46.24   46.24</time>
   <time name="total">   48.22   48.24</time>
   <energy>
    <i name="e_fr_energy">   -902.88038954 </i>
    <i name="e_wo_entrp">   -902.88038954 </i>
    <i name="e_0_energy">   -902.88038954 </i>
   </energy>
  </scstep>
  <scstep>
   <time name="dav">   45.84   45.84</time>
   <time name="total">   47.80   47.80</time>
   <energy>
    <i name="e_fr_energy">   -902.90260708 </i>
    <i name="e_wo_entrp">   -902.90260708 </i>
    <i name="e_0_energy">   -902.90260708 </i>
   </energy>
  </scstep>
  <scstep>
   <time name="dav">   43.29   43.29</time>
   <time name="total">   45.24   45.26</time>
   <energy>
    <i name="e_fr_energy">   -902.91640407 </i>
    <i name="e_wo_entrp">   -902.91640407 </i>
    <i name="e_0_energy">   -902.91640407 </i>
   </energy>
  </scstep>
  <scstep>
   <time name="dav">   44.80   44.80</time>
   <time name="total">   46.68   46.69</time>
   <energy>
    <i name="e_fr_energy">   -902.92061239 </i>
    <i name="e_wo_entrp">   -902.92061239 </i>
    <i name="e_0_energy">   -902.92061239 </i>
   </energy>
  </scstep>
  <scstep>
   <time name="dav">   48.70   48.70</time>
   <time name="total">   50.63   50.65</time>
   <energy>
    <i name="e_fr_energy">   -902.92125478 </i>
    <i name="e_wo_entrp">   -902.92125478 </i>
    <i name="e_0_energy">   -902.92125478 </i>
   </energy>
  </scstep>
  <scstep>
   <time name="dav">   41.40   41.41</time>
   <time name="total">   43.35   43.36</time>
   <energy>
    <i name="e_fr_energy">   -902.92143870 </i>
    <i name="e_wo_entrp">   -902.92143870 </i>
    <i name="e_0_energy">   -902.92143870 </i>
   </energy>
  </scstep>
  <scstep>
   <time name="dav">   41.90   41.90</time>
   <time name="total">   43.86   43.89</time>
   <energy>
    <i name="e_fr_energy">   -902.92149712 </i>
    <i name="e_wo_entrp">   -902.92149712 </i>
    <i name="e_0_energy">   -902.92149712 </i>
   </energy>
  </scstep>
  <scstep>
   <time name="dav">   47.95   47.95</time>
   <time name="total">   49.88   49.89</time>
   <energy>
    <i name="e_fr_energy">   -902.92150967 </i>
    <i name="e_wo_entrp">   -902.92150967 </i>
    <i name="e_0_energy">   -902.92150967 </i>
   </energy>
  </scstep>
  <scstep>
   <time name="dav">   43.81   43.82</time>
   <time name="total">   45.81   45.83</time>
   <energy>
    <i name="e_fr_energy">   -902.92151061 </i>
    <i name="e_wo_entrp">   -902.92151061 </i>
    <i name="e_0_energy">   -902.92151061 </i>
   </energy>
  </scstep>
  <scstep>
   <time name="dav">   37.28   37.29</time>
   <time name="total">   39.26   39.27</time>
   <energy>
    <i name="e_fr_energy">   -902.92150958 </i>
    <i name="e_wo_entrp">   -902.92150958 </i>
    <i name="e_0_energy">   -902.92150958 </i>
   </energy>
  </scstep>
  <scstep>
   <time name="dav">   35.23   35.23</time>
   <time name="total">   35.74   35.77</time>
   <energy>
    <i name="alphaZ">   2701.53174423 </i>
    <i name="ewald"> -45657.40976825 </i>
    <i name="hartreedc"> -19348.51875013 </i>
    <i name="XCdc">   3269.96590138 </i>
    <i name="pawpsdc">  92203.96499108 </i>
    <i name="pawaedc"> -91862.15805520 </i>
    <i name="eentropy">     -0.00000000 </i>
    <i name="bandstr">  -7178.83780667 </i>
    <i name="atom">  64968.54023382 </i>
    <i name="e_fr_energy">   -902.92150974 </i>
    <i name="e_wo_entrp">   -902.92150974 </i>
    <i name="e_0_energy">   -902.92150974 </i>
   </energy>
  </scstep>
  <structure>
   <crystal>
    <varray name="basis" >
     <v>      12.09378762       0.00000000       0.00000000 </v>
     <v>       0.00000000      12.09378762       0.00000000 </v>
     <v>       0.00000000       0.00000000      12.09378762 </v>
    </varray>
    <i name="volume">   1768.83373704 </i>
    <varray name="rec_basis" >
     <v>       0.08268708       0.00000000       0.00000000 </v>
     <v>       0.00000000       0.08268708       0.00000000 </v>
     <v>       0.00000000       0.00000000       0.08268708 </v>
    </varray>
   </crystal>
   <varray name="positions" >
    <v>       0.81191143       0.92140562       0.96262747 </v>
    <v>       0.28382335       0.30739335       0.70453254 </v>
    <v>       0.18228007       0.17171634       0.97758393 </v>
    <v>       0.54126305       0.67046975       0.31320918 </v>
    <v>       0.78976081       0.65267181       0.72021945 </v>
    <v>       0.06349556       0.27559771       0.39481152 </v>
    <v>       0.95560273       0.10679538       0.05426457 </v>
    <v>       0.56852783       0.19666182       0.69336902 </v>
    <v>       0.37504947       0.72666915       0.99813933 </v>
    <v>       0.37968472       0.03294291       0.08133164 </v>
    <v>       0.56256459       0.97610359       0.89339118 </v>
    <v>       0.81348125       0.77940916       0.40060498 </v>
    <v>       0.64818200       0.17603070       0.12281810 </v>
    <v>       0.39091925       0.05290212       0.59714619 </v>
    <v>       0.14864293       0.65466327       0.75300952 </v>
    <v>       0.06751868       0.40259818       0.12730939 </v>
    <v>       0.19565024       0.81782669       0.30380764 </v>
    <v>       0.95677223       0.66743020       0.20908851 </v>
    <v>       0.58148599       0.97643072       0.34442276 </v>
    <v>       0.35825209       0.70309645       0.55235976 </v>
    <v>       0.09907354       0.00871891       0.45579754 </v>
    <v>       0.02402096       0.45937667       0.78783177 </v>
    <v>       0.30365725       0.50131692       0.23157758 </v>
    <v>       0.65938480       0.45169629       0.83827913 </v>
    <v>       0.82099081       0.39364563       0.20144179 </v>
    <v>       0.84419187       0.30414016       0.62462352 </v>
    <v>       0.85522754       0.99433306       0.53692402 </v>
    <v>       0.79811256       0.94463493       0.18630789 </v>
    <v>       0.77341953       0.15009542       0.38208306 </v>
    <v>       0.81914834       0.05060167       0.76380425 </v>
    <v>       0.06900782       0.69564711       0.99095567 </v>
    <v>       0.30465223       0.44716655       0.92513355 </v>
    <v>       0.61626182       0.25027282       0.36360480 </v>
    <v>       0.46728104       0.24939983       0.95537604 </v>
    <v>       0.49865405       0.78237106       0.13594377 </v>
    <v>       0.97060931       0.48661928       0.55342863 </v>
    <v>       0.60600985       0.76214956       0.57996853 </v>
    <v>       0.82828568       0.22563819       0.88362028 </v>
    <v>       0.04255271       0.74223857       0.50873446 </v>
    <v>       0.81367274       0.45925032       0.98464372 </v>
    <v>       0.17268691       0.11925388       0.22822285 </v>
    <v>       0.27349824       0.88424107       0.74259553 </v>
    <v>       0.17507671       0.91300986       0.95055767 </v>
    <v>       0.75146493       0.46252083       0.44637301 </v>
    <v>       0.00234756       0.89517221       0.72626134 </v>
    <v>       0.64546750       0.70378985       0.93718276 </v>
    <v>       0.09946589       0.51944564       0.35031592 </v>
    <v>       0.35533499       0.27566554       0.42223284 </v>
    <v>       0.58150231       0.43527216       0.12998253 </v>
    <v>       0.33409276       0.51572862       0.46316144 </v>
    <v>       0.07913114       0.24541857       0.65914664 </v>
    <v>       0.42638180       0.65274959       0.78516801 </v>
    <v>       0.55639389       0.52883766       0.59913894 </v>
    <v>       0.31535655       0.03587411       0.37256087 </v>
    <v>       0.78744433       0.03562058       0.30127948 </v>
    <v>       0.55581297       0.40969190       0.64599578 </v>
    <v>       0.07595181       0.37945753       0.65286897 </v>
    <v>       0.67724958       0.81441678       0.87488477 </v>
    <v>       0.39879847       0.36145906       0.89770035 </v>
    <v>       0.46536583       0.55310756       0.71476704 </v>
    <v>       0.20996981       0.17400681       0.37893465 </v>
    <v>       0.58546071       0.33809896       0.25019049 </v>
    <v>       0.58131664       0.14282065       0.29215350 </v>
    <v>       0.16250671       0.19344425       0.75724626 </v>
    <v>       0.34604694       0.94895910       0.25766471 </v>
    <v>       0.54181193       0.81819500       0.25851746 </v>
    <v>       0.96312731       0.61738589       0.50199568 </v>
    <v>       0.68809629       0.14089824       0.48075276 </v>
    <v>       0.02349621       0.92202959       0.58177333 </v>
    <v>       0.48494537       0.55075408       0.50214064 </v>
    <v>       0.07644177       0.20433374       0.14864201 </v>
    <v>       0.38155958       0.40698980       0.37260198 </v>
    <v>       0.17692048       0.78729729       0.97470183 </v>
    <v>       0.31553004       0.93689685       0.88008559 </v>
    <v>       0.34180191       0.73212111       0.76132729 </v>
    <v>       0.73488974       0.59734706       0.90795528 </v>
    <v>       0.71691997       0.33162219       0.44373123 </v>
    <v>       0.87890567       0.94114380       0.77169193 </v>
    <v>       0.49614532       0.82453502       0.62420194 </v>
    <v>       0.32665468       0.91279848       0.62910189 </v>
    <v>       0.03190164       0.15586303       0.57328299 </v>
    <v>       0.82094361       0.23433782       0.29773173 </v>
    <v>       0.49202285       0.27875142       0.45030095 </v>
    <v>       0.11702655       0.01864330       0.27765680 </v>
    <v>       0.62964327       0.64444214       0.66694756 </v>
    <v>       0.38092751       0.75533889       0.17619671 </v>
    <v>       0.51643872       0.67914736       0.88573901 </v>
    <v>       0.29609239       0.46789171       0.57461202 </v>
    <v>       0.09847448       0.59264492       0.87882340 </v>
    <v>       0.90713431       0.52504579       0.05948369 </v>
    <v>       0.28844818       0.17757813       0.21949253 </v>
    <v>       0.21634572       0.00832514       0.03785581 </v>
    <v>       0.80796423       0.07965613       0.90885082 </v>
    <v>       0.51791983       0.53130982       0.17887414 </v>
    <v>       0.43565490       0.05302099       0.43378963 </v>
    <v>       0.00459657       0.78817968       0.39899339 </v>
    <v>       0.80601229       0.24523758       0.03767327 </v>
    <v>       0.34763838       0.19458901       0.00679994 </v>
    <v>       0.34941148       0.63331953       0.39169611 </v>
    <v>       0.88078905       0.16765596       0.73386375 </v>
    <v>       0.92390564       0.15172467       0.42441299 </v>
    <v>       0.18147355       0.40120778       0.32974194 </v>
    <v>       0.10677561       0.51458760       0.50579435 </v>
    <v>       0.63084801       0.74957611       0.43965380 </v>
    <v>       0.54854701       0.15024517       0.93171105 </v>
    <v>       0.81698849       0.82762771       0.23586392 </v>
    <v>       0.96959756       0.77063098       0.98509688 </v>
    <v>       0.71673414       0.81615931       0.63328761 </v>
    <v>       0.16075337       0.63938586       0.30274687 </v>
    <v>       0.08862500       0.60097991       0.08566156 </v>
    <v>       0.24404900       0.95708716       0.44891481 </v>
    <v>       0.90085202       0.41712113       0.45475581 </v>
    <v>       0.40835965       0.16970152       0.74269647 </v>
    <v>       0.09014175       0.99961032       0.89794489 </v>
    <v>       0.13456226       0.84008733       0.76277541 </v>
    <v>       0.01316980       0.46148067       0.27863220 </v>
    <v>       0.97187395       0.23517466       0.89383362 </v>
    <v>       0.87481947       0.48365672       0.63833388 </v>
    <v>       0.16564090       0.72842211       0.53616805 </v>
    <v>       0.29121824       0.48704157       0.05430571 </v>
    <v>       0.32874407       0.24016244       0.55068342 </v>
    <v>       0.70489726       0.01940662       0.70801733 </v>
    <v>       0.74590677       0.50714480       0.31579119 </v>
    <v>       0.69756904       0.51500517       0.54758471 </v>
    <v>       0.70000737       0.97852277       0.10180182 </v>
    <v>       0.98898913       0.73740506       0.64882325 </v>
    <v>       0.48861328       0.86885189       0.02036781 </v>
    <v>       0.85013124       0.38428313       0.86755099 </v>
    <v>       0.70041079       0.25339283       0.82522592 </v>
    <v>       0.68940728       0.41915845       0.02897130 </v>
    <v>       0.53706798       0.35389237       0.02853794 </v>
    <v>       0.19297321       0.41880125       0.86521529 </v>
    <v>       0.31342773       0.57346065       0.87462710 </v>
    <v>       0.89904848       0.96768869       0.11486316 </v>
    <v>       0.62112293       0.69429510       0.07519704 </v>
   </varray>
  </structure>
  <varray name="forces" >
   <v>       0.78472292      -3.83799036       0.25252313 </v>
   <v>       3.31061166       2.00136805       1.41067094 </v>
   <v>      -1.39562995       1.33248768      -2.69329480 </v>
   <v>      -0.51475914      -5.89859680       2.28894859 </v>
   <v>       1.86424126       1.71575005      -1.08550512 </v>
   <v>      -1.69776574       0.07894324       0.39028289 </v>
   <v>       0.59242759       3.17373015      -1.48262492 </v>
   <v>       1.35933542       1.76338612      -0.29726191 </v>
   <v>      -4.36795910      -2.17460936      -2.62371833 </v>
   <v>       0.72646877      -0.16118347       1.69546001 </v>
   <v>       0.33377917      -0.77288386      -1.30962361 </v>
   <v>      -0.92131917      -1.54329275       1.40846915 </v>
   <v>       1.00800662       0.17803110      -0.93445083 </v>
   <v>       0.84996014       4.14445533       1.09189818 </v>
   <v>       3.64037925       2.18616426      -5.90939362 </v>
   <v>       1.79866710       0.30179083      -2.48350053 </v>
   <v>       1.53097709       0.40327380       0.02495673 </v>
   <v>       0.25154624      -0.35747068      -1.01111360 </v>
   <v>      -0.94287933      -0.99442414       0.49596221 </v>
   <v>      -0.54307175       2.87556289       1.53996247 </v>
   <v>      -4.61442250       3.45541890       0.23700702 </v>
   <v>      -1.03803392      -0.79983372       4.87796757 </v>
   <v>       1.30553718       0.90202176      -1.54994171 </v>
   <v>      -3.41175945      -2.82069149      -2.59100855 </v>
   <v>       0.10369273      -1.25666407       1.53177014 </v>
   <v>      -1.99630942      -0.90469650      -1.22812488 </v>
   <v>      -0.47547415       1.24210487       0.38526537 </v>
   <v>      -2.20648855       2.51835141       2.68296474 </v>
   <v>       8.83715495      -1.95196140      -1.28618101 </v>
   <v>      -4.36263851       6.50527731       2.08657068 </v>
   <v>       3.48088601      -6.33519022      -1.52972551 </v>
   <v>      -1.57013097       3.15794180       2.21447509 </v>
   <v>      -5.10696700       5.23567369       2.21911891 </v>
   <v>      -5.11793073       3.03699496       0.93211750 </v>
   <v>       6.29243615       4.80240807      -0.00711530 </v>
   <v>       3.39983026       3.36503832      -5.89142423 </v>
   <v>       2.42897787       0.90604403       1.15207928 </v>
   <v>       0.58076900       1.67887671       2.81829673 </v>
   <v>      -1.51474652      -4.42647287       6.79630172 </v>
   <v>       2.05410125       0.62458844      -0.79580523 </v>
   <v>      -0.28270367       5.11500547      -1.65577876 </v>
   <v>       0.66245358      -1.32297862       3.52362654 </v>
   <v>       2.04083259       5.80454932      -0.96685918 </v>
   <v>       2.26832832      -2.19073861      -4.94422900 </v>
   <v>       2.94632917      -2.96565211      -3.88919135 </v>
   <v>      -1.17814388      -0.86964067       1.50067051 </v>
   <v>       5.45537614       1.15386644       4.67877420 </v>
   <v>       1.55491691       0.97417472       2.40125284 </v>
   <v>      -0.30218604      -5.25360776       0.20566837 </v>
   <v>       4.50560851      -2.82375859      -2.46114013 </v>
   <v>       1.64315724      -5.30857888       3.13674144 </v>
   <v>       4.76505601      -8.75328731       4.90255890 </v>
   <v>       4.59464235      -0.96380065       6.46762037 </v>
   <v>       2.63435800      -1.40084211      -3.70601010 </v>
   <v>      -1.32130503      -2.99795279       0.34543452 </v>
   <v>       2.02263584      -4.68544719       2.14062773 </v>
   <v>      -0.80590519      -2.12225085      -2.78319316 </v>
   <v>       1.19711242       0.63968992       0.57229195 </v>
   <v>       2.26036047      -1.86819463      -2.20662243 </v>
   <v>      -1.02294060       0.81785863      -1.06947774 </v>
   <v>       1.15221160      -1.34504599       2.29405227 </v>
   <v>       1.86725794       1.15105895      -2.42002322 </v>
   <v>       0.89941408      -0.42549575      -0.76200743 </v>
   <v>      -2.42828918       0.88241671      -2.11879257 </v>
   <v>      -0.92034119       2.38376029       1.72808008 </v>
   <v>       2.01802128       3.87102682      -2.61667536 </v>
   <v>      -2.65782603       2.63833850      -1.30778583 </v>
   <v>      -0.88144753      -1.27415012       0.53237113 </v>
   <v>      -2.17496193       0.20366545       4.31932733 </v>
   <v>      -3.69273184       2.20207793      -5.18212907 </v>
   <v>       2.08572756      -0.70408917       1.67760432 </v>
   <v>      -2.21252930       1.08048885       0.84526351 </v>
   <v>       0.65421774      -3.05993371       1.28094292 </v>
   <v>      -2.44478804      -2.48757255      -3.59121483 </v>
   <v>      -8.02671709       9.44093899      -2.76905875 </v>
   <v>       0.33688049       0.55521442      -0.04916222 </v>
   <v>      -2.35582273      -1.03544208      -0.18804944 </v>
   <v>       5.75775000      -6.14111937      -0.72219438 </v>
   <v>       0.78887551      -1.60505457      -1.51241099 </v>
   <v>      -3.48069197      -3.13899873       2.35480770 </v>
   <v>       1.52148357       2.63230887       1.40642258 </v>
   <v>      -2.08678092       3.21985780      -4.32601349 </v>
   <v>       3.55992949      -2.53604592      -2.34726447 </v>
   <v>      -1.80288674      -3.63727432      -0.39864542 </v>
   <v>      -2.91967160      -0.27878998      -1.99710147 </v>
   <v>      -3.06892951      -2.91029184      -1.02570668 </v>
   <v>       0.37943524      -0.36691167      -0.22744538 </v>
   <v>      -0.64563831       0.85375382       1.32025480 </v>
   <v>      -4.60216099       1.78131297       5.84088717 </v>
   <v>      -2.53092445      -2.63418126      -0.33874079 </v>
   <v>       2.78142379      -1.01160861      -2.99555580 </v>
   <v>      -0.72224446      -1.57853615       2.74326517 </v>
   <v>      -0.06037098       1.39741567      -2.72558052 </v>
   <v>      -1.32811909       2.28864638       0.47807485 </v>
   <v>      -0.62210780       0.37945724      -2.03600216 </v>
   <v>      -1.69735334       3.37860581      -4.71973832 </v>
   <v>       0.55586001       0.28407177      -0.59068795 </v>
   <v>       3.46344185       0.77561720      -0.49092886 </v>
   <v>      -1.24577785      -1.37908979      -0.56533104 </v>
   <v>      -0.61147736      -1.47640258      -0.88811190 </v>
   <v>      -3.40703792      -2.70448394       1.25083275 </v>
   <v>       0.05391700       2.01842067      -0.03722705 </v>
   <v>      -0.54715565      -2.93718031      -2.69087689 </v>
   <v>       0.16951411       0.75773678       2.92488870 </v>
   <v>       0.74102998      -0.78352601       1.33037676 </v>
   <v>      -0.14948265      -3.25165487       0.94243964 </v>
   <v>      -3.71211809       2.15887675      -0.02557656 </v>
   <v>       2.43211988       0.63490357      -1.83403473 </v>
   <v>      -2.88290549      -2.97531905       0.31189934 </v>
   <v>      -0.19782988       2.49394829       1.02344228 </v>
   <v>       3.27609639      -2.13045759       0.24819582 </v>
   <v>      -0.48801327      -0.21657766       1.12406240 </v>
   <v>       0.62586919      -0.81112922       0.36390603 </v>
   <v>      -2.90793098      -0.83097036      -1.84240773 </v>
   <v>       1.48219559       1.89285309      -0.33139539 </v>
   <v>      -6.05558649       0.51985093      -2.27426685 </v>
   <v>      -0.52439082      -0.44394929       1.01585911 </v>
   <v>      -0.02233203       0.34260456       5.27141416 </v>
   <v>       3.49541249       0.27889818       0.12455539 </v>
   <v>      -0.04717673      -1.56854486       0.73968482 </v>
   <v>      -1.64769782      -0.43640618      -2.38057978 </v>
   <v>      -0.69596966       1.42688346      -0.25211870 </v>
   <v>       0.21878157       1.37338341       1.63309634 </v>
   <v>      -0.69469375       1.70436784       0.41404221 </v>
   <v>      -1.90357409       0.28869746       0.31831738 </v>
   <v>      -1.53527101       1.84797999       2.60301811 </v>
   <v>      -0.15243437      -0.70203384       2.46434108 </v>
   <v>      -1.27077310       4.14383383       1.84755032 </v>
   <v>       1.42444755       0.66790747      -0.67440603 </v>
   <v>       3.50653884       3.29582563       2.08358945 </v>
   <v>      -2.97885665      -3.21297280       0.91376523 </v>
   <v>      -1.91144677      -3.11951196      -1.21071883 </v>
   <v>       3.74802697       2.96610476      -1.92264590 </v>
   <v>       3.21607727      -0.98261606      -0.92561611 </v>
   <v>      -1.63289540       1.59212126      -0.47242314 </v>
  </varray>
  <varray name="stress" >
   <v>      95.41033828       6.15600867       9.67206632 </v>
   <v>       6.15600863      63.55130872     -16.24026335 </v>
   <v>       9.67206634     -16.24026340      61.53310949 </v>
  </varray>
  <energy>
   <i name="e_fr_energy">   -902.92150974 </i>
   <i name="e_wo_entrp">   -902.92150974 </i>
   <i name="e_0_energy">     -0.00000000 </i>
  </energy>
  <time name="totalsc">  952.00  952.32</time>
  <eigenvalues>
   <array>
    <dimension dim="1">band</dimension>
    <dimension dim="2">kpoint</dimension>
    <dimension dim="3">spin</dimension>
    <field>eigene</field>
    <field>occ</field>
    <set>
     <set comment="spin 1">
      <set comment="kpoint 1">
       <r>  -37.5807    1.0000 </r>
       <r>  -37.3551    1.0000 </r>
       <r>  -36.8823    1.0000 </r>
       <r>  -36.8269    1.0000 </r>
       <r>  -36.7453    1.0000 </r>
       <r>  -36.6882    1.0000 </r>
       <r>  -36.6192    1.0000 </r>
       <r>  -36.5123    1.0000 </r>
       <r>  -36.2065    1.0000 </r>
       <r>  -36.2032    1.0000 </r>
       <r>  -36.1546    1.0000 </r>
       <r>  -36.0020    1.0000 </r>
       <r>  -35.8972    1.0000 </r>
       <r>  -35.8760    1.0000 </r>
       <r>  -35.8325    1.0000 </r>
       <r>  -35.7600    1.0000 </r>
       <r>  -35.5560    1.0000 </r>
       <r>  -35.2342    1.0000 </r>
       <r>  -35.2048    1.0000 </r>
       <r>  -35.1769    1.0000 </r>
       <r>  -35.1096    1.0000 </r>
       <r>  -34.9933    1.0000 </r>
       <r>  -34.9105    1.0000 </r>
       <r>  -34.9055    1.0000 </r>
       <r>  -34.5446    1.0000 </r>
       <r>  -34.4331    1.0000 </r>
       <r>  -33.9612    1.0000 </r>
[...]
       <r>     4.2188     4.0000   864.0000 </r>
       <r>     4.3913     0.0000   864.0000 </r>
       <r>     4.5638     0.0000   864.0000 </r>
       <r>     4.7362     0.3034   864.0523 </r>
       <r>     4.9087     8.9606   865.5977 </r>
       <r>     5.0812     2.3324   866.0000 </r>
       <r>     5.2536     0.0475   866.0082 </r>
       <r>     5.4261    10.0285   867.7378 </r>
       <r>     5.5986    10.1735   869.4924 </r>
       <r>     5.7710     4.0619   870.1929 </r>
       <r>     5.9435    11.2151   872.1271 </r>
       <r>     6.1160     9.4394   873.7551 </r>
       <r>     6.2884     6.1562   874.8169 </r>
       <r>     6.4609    26.0284   879.3059 </r>
       <r>     6.6334    39.9308   886.1926 </r>
       <r>     6.8058    32.1209   891.7324 </r>
       <r>     6.9783    27.5421   896.4825 </r>
       <r>     7.1508    27.6994   901.2597 </r>
       <r>     7.3232    44.6190   908.9550 </r>
       <r>     7.4957    32.2958   914.5249 </r>
       <r>     7.6682    34.0438   920.3963 </r>
       <r>     7.8406    52.5002   929.4508 </r>
       <r>     8.0131    63.0294   940.3213 </r>
       <r>     8.1856    65.4874   951.6156 </r>
       <r>     8.3580    71.7298   963.9866 </r>
       <r>     8.5305    72.8108   976.5440 </r>
       <r>     8.7030    72.6104   989.0669 </r>
       <r>     8.8754    70.4014  1001.2087 </r>
       <r>     9.0479    70.7066  1013.4032 </r>
       <r>     9.2204    75.4217  1026.4109 </r>
       <r>     9.3928    64.7192  1037.5728 </r>
       <r>     9.5653    14.0714  1039.9997 </r>
       <r>     9.7378     0.0019  1040.0000 </r>
       <r>     9.9102     0.0000  1040.0000 </r>
       <r>    10.0827     0.0000  1040.0000 </r>
       <r>    10.2552     0.0000  1040.0000 </r>
       <r>    10.4276     0.0000  1040.0000 </r>
       <r>    10.6001     0.0000  1040.0000 </r>
       <r>    10.7726     0.0000  1040.0000 </r>
       <r>    10.9450     0.0000  1040.0000 </r>
       <r>    11.1175     0.0000  1040.0000 </r>
       <r>    11.2900     0.0000  1040.0000 </r>
       <r>    11.4624     0.0000  1040.0000 </r>
       <r>    11.6349     0.0000  1040.0000 </r>
       <r>    11.8074     0.0000  1040.0000 </r>
      </set>
     </set>
    </array>
   </total>
  </dos>
 </calculation>
 <structure name="finalpos" >
  <crystal>
   <varray name="basis" >
    <v>      12.09378762       0.00000000       0.00000000 </v>
    <v>       0.00000000      12.09378762       0.00000000 </v>
    <v>       0.00000000       0.00000000      12.09378762 </v>
   </varray>
   <i name="volume">   1768.83373704 </i>
   <varray name="rec_basis" >
    <v>       0.08268708       0.00000000       0.00000000 </v>
    <v>       0.00000000       0.08268708       0.00000000 </v>
    <v>       0.00000000       0.00000000       0.08268708 </v>
   </varray>
  </crystal>
  <varray name="positions" >
   <v>       0.81191143       0.92140562       0.96262747 </v>
   <v>       0.28382335       0.30739335       0.70453254 </v>
   <v>       0.18228007       0.17171634       0.97758393 </v>
   <v>       0.54126305       0.67046975       0.31320918 </v>
   <v>       0.78976081       0.65267181       0.72021945 </v>
   <v>       0.06349556       0.27559771       0.39481152 </v>
   <v>       0.95560273       0.10679538       0.05426457 </v>
   <v>       0.56852783       0.19666182       0.69336902 </v>
   <v>       0.37504947       0.72666915       0.99813933 </v>
   <v>       0.37968472       0.03294291       0.08133164 </v>
   <v>       0.56256459       0.97610359       0.89339118 </v>
   <v>       0.81348125       0.77940916       0.40060498 </v>
   <v>       0.64818200       0.17603070       0.12281810 </v>
   <v>       0.39091925       0.05290212       0.59714619 </v>
   <v>       0.14864293       0.65466327       0.75300952 </v>
   <v>       0.06751868       0.40259818       0.12730939 </v>
   <v>       0.19565024       0.81782669       0.30380764 </v>
   <v>       0.95677223       0.66743020       0.20908851 </v>
   <v>       0.58148599       0.97643072       0.34442276 </v>
   <v>       0.35825209       0.70309645       0.55235976 </v>
   <v>       0.09907354       0.00871891       0.45579754 </v>
   <v>       0.02402096       0.45937667       0.78783177 </v>
   <v>       0.30365725       0.50131692       0.23157758 </v>
   <v>       0.65938480       0.45169629       0.83827913 </v>
   <v>       0.82099081       0.39364563       0.20144179 </v>
   <v>       0.84419187       0.30414016       0.62462352 </v>
   <v>       0.85522754       0.99433306       0.53692402 </v>
   <v>       0.79811256       0.94463493       0.18630789 </v>
   <v>       0.77341953       0.15009542       0.38208306 </v>
   <v>       0.81914834       0.05060167       0.76380425 </v>
   <v>       0.06900782       0.69564711       0.99095567 </v>
   <v>       0.30465223       0.44716655       0.92513355 </v>
   <v>       0.61626182       0.25027282       0.36360480 </v>
   <v>       0.46728104       0.24939983       0.95537604 </v>
   <v>       0.49865405       0.78237106       0.13594377 </v>
   <v>       0.97060931       0.48661928       0.55342863 </v>
   <v>       0.60600985       0.76214956       0.57996853 </v>
   <v>       0.82828568       0.22563819       0.88362028 </v>
   <v>       0.04255271       0.74223857       0.50873446 </v>
   <v>       0.81367274       0.45925032       0.98464372 </v>
   <v>       0.17268691       0.11925388       0.22822285 </v>
   <v>       0.27349824       0.88424107       0.74259553 </v>
   <v>       0.17507671       0.91300986       0.95055767 </v>
   <v>       0.75146493       0.46252083       0.44637301 </v>
   <v>       0.00234756       0.89517221       0.72626134 </v>
   <v>       0.64546750       0.70378985       0.93718276 </v>
   <v>       0.09946589       0.51944564       0.35031592 </v>
   <v>       0.35533499       0.27566554       0.42223284 </v>
   <v>       0.58150231       0.43527216       0.12998253 </v>
   <v>       0.33409276       0.51572862       0.46316144 </v>
   <v>       0.07913114       0.24541857       0.65914664 </v>
   <v>       0.42638180       0.65274959       0.78516801 </v>
   <v>       0.55639389       0.52883766       0.59913894 </v>
   <v>       0.31535655       0.03587411       0.37256087 </v>
   <v>       0.78744433       0.03562058       0.30127948 </v>
   <v>       0.55581297       0.40969190       0.64599578 </v>
   <v>       0.07595181       0.37945753       0.65286897 </v>
   <v>       0.67724958       0.81441678       0.87488477 </v>
   <v>       0.39879847       0.36145906       0.89770035 </v>
   <v>       0.46536583       0.55310756       0.71476704 </v>
   <v>       0.20996981       0.17400681       0.37893465 </v>
   <v>       0.58546071       0.33809896       0.25019049 </v>
   <v>       0.58131664       0.14282065       0.29215350 </v>
   <v>       0.16250671       0.19344425       0.75724626 </v>
   <v>       0.34604694       0.94895910       0.25766471 </v>
   <v>       0.54181193       0.81819500       0.25851746 </v>
   <v>       0.96312731       0.61738589       0.50199568 </v>
   <v>       0.68809629       0.14089824       0.48075276 </v>
   <v>       0.02349621       0.92202959       0.58177333 </v>
   <v>       0.48494537       0.55075408       0.50214064 </v>
   <v>       0.07644177       0.20433374       0.14864201 </v>
   <v>       0.38155958       0.40698980       0.37260198 </v>
   <v>       0.17692048       0.78729729       0.97470183 </v>
   <v>       0.31553004       0.93689685       0.88008559 </v>
   <v>       0.34180191       0.73212111       0.76132729 </v>
   <v>       0.73488974       0.59734706       0.90795528 </v>
   <v>       0.71691997       0.33162219       0.44373123 </v>
   <v>       0.87890567       0.94114380       0.77169193 </v>
   <v>       0.49614532       0.82453502       0.62420194 </v>
   <v>       0.32665468       0.91279848       0.62910189 </v>
   <v>       0.03190164       0.15586303       0.57328299 </v>
   <v>       0.82094361       0.23433782       0.29773173 </v>
   <v>       0.49202285       0.27875142       0.45030095 </v>
   <v>       0.11702655       0.01864330       0.27765680 </v>
   <v>       0.62964327       0.64444214       0.66694756 </v>
   <v>       0.38092751       0.75533889       0.17619671 </v>
   <v>       0.51643872       0.67914736       0.88573901 </v>
   <v>       0.29609239       0.46789171       0.57461202 </v>
   <v>       0.09847448       0.59264492       0.87882340 </v>
   <v>       0.90713431       0.52504579       0.05948369 </v>
   <v>       0.28844818       0.17757813       0.21949253 </v>
   <v>       0.21634572       0.00832514       0.03785581 </v>
   <v>       0.80796423       0.07965613       0.90885082 </v>
   <v>       0.51791983       0.53130982       0.17887414 </v>
   <v>       0.43565490       0.05302099       0.43378963 </v>
   <v>       0.00459657       0.78817968       0.39899339 </v>
   <v>       0.80601229       0.24523758       0.03767327 </v>
   <v>       0.34763838       0.19458901       0.00679994 </v>
   <v>       0.34941148       0.63331953       0.39169611 </v>
   <v>       0.88078905       0.16765596       0.73386375 </v>
   <v>       0.92390564       0.15172467       0.42441299 </v>
   <v>       0.18147355       0.40120778       0.32974194 </v>
   <v>       0.10677561       0.51458760       0.50579435 </v>
   <v>       0.63084801       0.74957611       0.43965380 </v>
   <v>       0.54854701       0.15024517       0.93171105 </v>
   <v>       0.81698849       0.82762771       0.23586392 </v>
   <v>       0.96959756       0.77063098       0.98509688 </v>
   <v>       0.71673414       0.81615931       0.63328761 </v>
   <v>       0.16075337       0.63938586       0.30274687 </v>
   <v>       0.08862500       0.60097991       0.08566156 </v>
   <v>       0.24404900       0.95708716       0.44891481 </v>
   <v>       0.90085202       0.41712113       0.45475581 </v>
   <v>       0.40835965       0.16970152       0.74269647 </v>
   <v>       0.09014175       0.99961032       0.89794489 </v>
   <v>       0.13456226       0.84008733       0.76277541 </v>
   <v>       0.01316980       0.46148067       0.27863220 </v>
   <v>       0.97187395       0.23517466       0.89383362 </v>
   <v>       0.87481947       0.48365672       0.63833388 </v>
   <v>       0.16564090       0.72842211       0.53616805 </v>
   <v>       0.29121824       0.48704157       0.05430571 </v>
   <v>       0.32874407       0.24016244       0.55068342 </v>
   <v>       0.70489726       0.01940662       0.70801733 </v>
   <v>       0.74590677       0.50714480       0.31579119 </v>
   <v>       0.69756904       0.51500517       0.54758471 </v>
   <v>       0.70000737       0.97852277       0.10180182 </v>
   <v>       0.98898913       0.73740506       0.64882325 </v>
   <v>       0.48861328       0.86885189       0.02036781 </v>
   <v>       0.85013124       0.38428313       0.86755099 </v>
   <v>       0.70041079       0.25339283       0.82522592 </v>
   <v>       0.68940728       0.41915845       0.02897130 </v>
   <v>       0.53706798       0.35389237       0.02853794 </v>
   <v>       0.19297321       0.41880125       0.86521529 </v>
   <v>       0.31342773       0.57346065       0.87462710 </v>
   <v>       0.89904848       0.96768869       0.11486316 </v>
   <v>       0.62112293       0.69429510       0.07519704 </v>
  </varray>
  <varray name="velocities" >
   <v>       0.00000000       0.00000000       0.00000000 </v>
   <v>       0.00000000       0.00000000       0.00000000 </v>
   <v>       0.00000000       0.00000000       0.00000000 </v>
   <v>       0.00000000       0.00000000       0.00000000 </v>
   <v>       0.00000000       0.00000000       0.00000000 </v>
   <v>       0.00000000       0.00000000       0.00000000 </v>
   <v>       0.00000000       0.00000000       0.00000000 </v>
   <v>       0.00000000       0.00000000       0.00000000 </v>
   <v>       0.00000000       0.00000000       0.00000000 </v>
   <v>       0.00000000       0.00000000       0.00000000 </v>
   <v>       0.00000000       0.00000000       0.00000000 </v>
   <v>       0.00000000       0.00000000       0.00000000 </v>
   <v>       0.00000000       0.00000000       0.00000000 </v>
   <v>       0.00000000       0.00000000       0.00000000 </v>
   <v>       0.00000000       0.00000000       0.00000000 </v>
   <v>       0.00000000       0.00000000       0.00000000 </v>
   <v>       0.00000000       0.00000000       0.00000000 </v>
   <v>       0.00000000       0.00000000       0.00000000 </v>
   <v>       0.00000000       0.00000000       0.00000000 </v>
   <v>       0.00000000       0.00000000       0.00000000 </v>
   <v>       0.00000000       0.00000000       0.00000000 </v>
   <v>       0.00000000       0.00000000       0.00000000 </v>
   <v>       0.00000000       0.00000000       0.00000000 </v>
   <v>       0.00000000       0.00000000       0.00000000 </v>
   <v>       0.00000000       0.00000000       0.00000000 </v>
   <v>       0.00000000       0.00000000       0.00000000 </v>
   <v>       0.00000000       0.00000000       0.00000000 </v>
   <v>       0.00000000       0.00000000       0.00000000 </v>
   <v>       0.00000000       0.00000000       0.00000000 </v>
   <v>       0.00000000       0.00000000       0.00000000 </v>
   <v>       0.00000000       0.00000000       0.00000000 </v>
   <v>       0.00000000       0.00000000       0.00000000 </v>
   <v>       0.00000000       0.00000000       0.00000000 </v>
   <v>       0.00000000       0.00000000       0.00000000 </v>
   <v>       0.00000000       0.00000000       0.00000000 </v>
   <v>       0.00000000       0.00000000       0.00000000 </v>
   <v>       0.00000000       0.00000000       0.00000000 </v>
   <v>       0.00000000       0.00000000       0.00000000 </v>
   <v>       0.00000000       0.00000000       0.00000000 </v>
   <v>       0.00000000       0.00000000       0.00000000 </v>
   <v>       0.00000000       0.00000000       0.00000000 </v>
   <v>       0.00000000       0.00000000       0.00000000 </v>
   <v>       0.00000000       0.00000000       0.00000000 </v>
   <v>       0.00000000       0.00000000       0.00000000 </v>
   <v>       0.00000000       0.00000000       0.00000000 </v>
   <v>       0.00000000       0.00000000       0.00000000 </v>
   <v>       0.00000000       0.00000000       0.00000000 </v>
   <v>       0.00000000       0.00000000       0.00000000 </v>
   <v>       0.00000000       0.00000000       0.00000000 </v>
   <v>       0.00000000       0.00000000       0.00000000 </v>
   <v>       0.00000000       0.00000000       0.00000000 </v>
   <v>       0.00000000       0.00000000       0.00000000 </v>
   <v>       0.00000000       0.00000000       0.00000000 </v>
   <v>       0.00000000       0.00000000       0.00000000 </v>
   <v>       0.00000000       0.00000000       0.00000000 </v>
   <v>       0.00000000       0.00000000       0.00000000 </v>
   <v>       0.00000000       0.00000000       0.00000000 </v>
   <v>       0.00000000       0.00000000       0.00000000 </v>
   <v>       0.00000000       0.00000000       0.00000000 </v>
   <v>       0.00000000       0.00000000       0.00000000 </v>
   <v>       0.00000000       0.00000000       0.00000000 </v>
   <v>       0.00000000       0.00000000       0.00000000 </v>
   <v>       0.00000000       0.00000000       0.00000000 </v>
   <v>       0.00000000       0.00000000       0.00000000 </v>
   <v>       0.00000000       0.00000000       0.00000000 </v>
   <v>       0.00000000       0.00000000       0.00000000 </v>
   <v>       0.00000000       0.00000000       0.00000000 </v>
   <v>       0.00000000       0.00000000       0.00000000 </v>
   <v>       0.00000000       0.00000000       0.00000000 </v>
   <v>       0.00000000       0.00000000       0.00000000 </v>
   <v>       0.00000000       0.00000000       0.00000000 </v>
   <v>       0.00000000       0.00000000       0.00000000 </v>
   <v>       0.00000000       0.00000000       0.00000000 </v>
   <v>       0.00000000       0.00000000       0.00000000 </v>
   <v>       0.00000000       0.00000000       0.00000000 </v>
   <v>       0.00000000       0.00000000       0.00000000 </v>
   <v>       0.00000000       0.00000000       0.00000000 </v>
   <v>       0.00000000       0.00000000       0.00000000 </v>
   <v>       0.00000000       0.00000000       0.00000000 </v>
   <v>       0.00000000       0.00000000       0.00000000 </v>
   <v>       0.00000000       0.00000000       0.00000000 </v>
   <v>       0.00000000       0.00000000       0.00000000 </v>
   <v>       0.00000000       0.00000000       0.00000000 </v>
   <v>       0.00000000       0.00000000       0.00000000 </v>
   <v>       0.00000000       0.00000000       0.00000000 </v>
   <v>       0.00000000       0.00000000       0.00000000 </v>
   <v>       0.00000000       0.00000000       0.00000000 </v>
   <v>       0.00000000       0.00000000       0.00000000 </v>
   <v>       0.00000000       0.00000000       0.00000000 </v>
   <v>       0.00000000       0.00000000       0.00000000 </v>
   <v>       0.00000000       0.00000000       0.00000000 </v>
   <v>       0.00000000       0.00000000       0.00000000 </v>
   <v>       0.00000000       0.00000000       0.00000000 </v>
   <v>       0.00000000       0.00000000       0.00000000 </v>
   <v>       0.00000000       0.00000000       0.00000000 </v>
   <v>       0.00000000       0.00000000       0.00000000 </v>
   <v>       0.00000000       0.00000000       0.00000000 </v>
   <v>       0.00000000       0.00000000       0.00000000 </v>
   <v>       0.00000000       0.00000000       0.00000000 </v>
   <v>       0.00000000       0.00000000       0.00000000 </v>
   <v>       0.00000000       0.00000000       0.00000000 </v>
   <v>       0.00000000       0.00000000       0.00000000 </v>
   <v>       0.00000000       0.00000000       0.00000000 </v>
   <v>       0.00000000       0.00000000       0.00000000 </v>
   <v>       0.00000000       0.00000000       0.00000000 </v>
   <v>       0.00000000       0.00000000       0.00000000 </v>
   <v>       0.00000000       0.00000000       0.00000000 </v>
   <v>       0.00000000       0.00000000       0.00000000 </v>
   <v>       0.00000000       0.00000000       0.00000000 </v>
   <v>       0.00000000       0.00000000       0.00000000 </v>
   <v>       0.00000000       0.00000000       0.00000000 </v>
   <v>       0.00000000       0.00000000       0.00000000 </v>
   <v>       0.00000000       0.00000000       0.00000000 </v>
   <v>       0.00000000       0.00000000       0.00000000 </v>
   <v>       0.00000000       0.00000000       0.00000000 </v>
   <v>       0.00000000       0.00000000       0.00000000 </v>
   <v>       0.00000000       0.00000000       0.00000000 </v>
   <v>       0.00000000       0.00000000       0.00000000 </v>
   <v>       0.00000000       0.00000000       0.00000000 </v>
   <v>       0.00000000       0.00000000       0.00000000 </v>
   <v>       0.00000000       0.00000000       0.00000000 </v>
   <v>       0.00000000       0.00000000       0.00000000 </v>
   <v>       0.00000000       0.00000000       0.00000000 </v>
   <v>       0.00000000       0.00000000       0.00000000 </v>
   <v>       0.00000000       0.00000000       0.00000000 </v>
   <v>       0.00000000       0.00000000       0.00000000 </v>
   <v>       0.00000000       0.00000000       0.00000000 </v>
   <v>       0.00000000       0.00000000       0.00000000 </v>
   <v>       0.00000000       0.00000000       0.00000000 </v>
   <v>       0.00000000       0.00000000       0.00000000 </v>
   <v>       0.00000000       0.00000000       0.00000000 </v>
   <v>       0.00000000       0.00000000       0.00000000 </v>
   <v>       0.00000000       0.00000000       0.00000000 </v>
   <v>       0.00000000       0.00000000       0.00000000 </v>
   <v>       0.00000000       0.00000000       0.00000000 </v>
  </varray>
 </structure>
</modeling>
