<?xml version="1.0" encoding="ISO-8859-1"?>
<modeling>
 <generator>
  <i name="program" type="string">vasp </i>
  <i name="version" type="string">5.4.4.18Apr17-6-g9f103f2a35  </i>
  <i name="subversion" type="string">(build Oct 31 2019 15:01:46) complex            parallel </i>
  <i name="platform" type="string">LinuxIFC </i>
  <i name="date" type="string">2024 04 30 </i>
  <i name="time" type="string">15:56:37 </i>
 </generator>
 <incar>
  <i type="int" name="ISTART">     0</i>
  <i type="string" name="PREC">anormal</i>
  <i type="logical" name="ADDGRID"> T  </i>
  <i type="int" name="IBRION">    -1</i>
  <i name="EDIFF">      0.00000100</i>
  <i name="EDIFFG">     -0.01000000</i>
  <i type="int" name="NSW">     1</i>
  <i type="int" name="ISIF">     2</i>
  <i type="int" name="ISYM">     2</i>
  <i name="ENCUT">    600.00000000</i>
  <i name="POTIM">      1.00000000</i>
  <i type="string" name="LREAL"> Auto.</i>
  <i type="int" name="ISMEAR">     0</i>
  <i name="SIGMA">      0.05000000</i>
  <i name="KSPACING">      0.25000000</i>
  <i type="logical" name="LWAVE"> F  </i>
  <i type="logical" name="LCHARG"> F  </i>
  <i type="logical" name="LSCALAPACK"> F  </i>
  <v type="int" name="KPOINT_BSE">    -1     0     0     0</v>
 </incar>
 <structure name="primitive_cell" >
  <crystal>
   <varray name="basis" >
    <v>      13.79398668       0.00000000       0.00000000 </v>
    <v>      -6.89699334      11.94594288       0.00000000 </v>
    <v>       0.00000000       0.00000000      27.81022107 </v>
   </varray>
   <i name="volume">   4582.62876984 </i>
   <varray name="rec_basis" >
    <v>       0.07249536       0.04185521       0.00000000 </v>
    <v>       0.00000000       0.08371043       0.00000000 </v>
    <v>       0.00000000       0.00000000       0.03595800 </v>
   </varray>
  </crystal>
  <varray name="positions" >
   <v>       0.07591670       0.16258380      -0.45269322 </v>
   <v>      -0.00253715       0.25123722      -0.49392007 </v>
   <v>       0.00037679       0.00312998       0.49317515 </v>
   <v>       0.24725393       0.25126675       0.49908101 </v>
   <v>       0.16589968       0.08140628      -0.40118669 </v>
   <v>       0.16905168       0.33764137      -0.39273987 </v>
   <v>      -0.10158431       0.07652764      -0.38864112 </v>
   <v>       0.15945171       0.09121568       0.45446119 </v>
   <v>      -0.09384353       0.08746247       0.45833107 </v>
   <v>       0.17024483       0.33199344       0.45814657 </v>
   <v>       0.32476431       0.16031170      -0.45718407 </v>
   <v>       0.08717709      -0.08101815      -0.46254140 </v>
   <v>      -0.16935189      -0.09417681      -0.45528615 </v>
   <v>      -0.17025149       0.17272474      -0.45039191 </v>
   <v>       0.33381252       0.40862001      -0.45196168 </v>
   <v>       0.07961696       0.41987978      -0.45029015 </v>
   <v>       0.07480287       0.17403219       0.39751775 </v>
   <v>      -0.25544764      -0.00281718       0.49951471 </v>
   <v>       0.24464758      -0.00004716       0.49731873 </v>
   <v>      -0.07614036      -0.16224427      -0.39485908 </v>
   <v>      -0.08702384       0.33045818      -0.39141569 </v>
   <v>       0.40956661       0.31951468      -0.38893958 </v>
   <v>       0.25832373      -0.48715791      -0.49778871 </v>
   <v>      -0.08771876       0.32191971       0.46036833 </v>
   <v>      -0.08273848      -0.16741448       0.45618887 </v>
   <v>       0.41612573       0.33683933       0.45905484 </v>
   <v>       0.08016938       0.40624478       0.40351281 </v>
   <v>      -0.24114411      -0.24169038      -0.49769873 </v>
   <v>      -0.00600999       0.48659356      -0.49526739 </v>
   <v>      -0.16884806      -0.08132642       0.39988786 </v>
   <v>       0.32593324       0.42171046       0.40176807 </v>
   <v>      -0.33375898      -0.16304170      -0.40006310 </v>
   <v>       0.16577840      -0.16453297      -0.40197109 </v>
   <v>      -0.00555536      -0.25688031      -0.49885466 </v>
   <v>      -0.16878203       0.16830699       0.39345021 </v>
   <v>      -0.25968559       0.25078641      -0.49895936 </v>
   <v>       0.34005960       0.16983787       0.39770450 </v>
   <v>       0.41227818       0.08719930      -0.39222037 </v>
   <v>      -0.49543742       0.49753427      -0.49841885 </v>
   <v>       0.08416856      -0.08700814       0.39221409 </v>
   <v>      -0.49328714       0.24934433       0.49855917 </v>
   <v>       0.42446116      -0.42060079      -0.39076087 </v>
   <v>       0.17014056      -0.40742786      -0.38861195 </v>
   <v>      -0.36081603       0.07681106      -0.39335107 </v>
   <v>      -0.33158290      -0.17130821       0.45453006 </v>
   <v>      -0.15696851      -0.32677499      -0.45886788 </v>
   <v>       0.41525738      -0.41883852       0.45897960 </v>
   <v>      -0.41507994      -0.08435594      -0.45860288 </v>
   <v>      -0.34349980       0.08118183       0.45466255 </v>
   <v>      -0.17069619       0.41146449      -0.45924844 </v>
   <v>       0.17517986      -0.40423947       0.45731309 </v>
   <v>       0.16991312      -0.16574730       0.44816609 </v>
   <v>       0.33283496      -0.08333975      -0.46003139 </v>
   <v>       0.43122684       0.09307139       0.45333837 </v>
   <v>       0.34290000      -0.32791741      -0.45387494 </v>
   <v>      -0.41253871       0.41438445      -0.45582581 </v>
   <v>      -0.40444483      -0.32993374      -0.45195816 </v>
   <v>       0.08319703      -0.33974958      -0.45810364 </v>
   <v>      -0.42146599       0.16743112      -0.45350818 </v>
   <v>      -0.49354305      -0.24896319      -0.49852199 </v>
   <v>       0.24845254      -0.23773602       0.49646949 </v>
   <v>      -0.49607477       0.00404382      -0.49968286 </v>
   <v>      -0.33046754       0.33032392      -0.39627516 </v>
   <v>      -0.07067496      -0.41420902      -0.39816396 </v>
   <v>      -0.41639720      -0.09074644       0.39379802 </v>
   <v>       0.32893146      -0.33178732       0.39935805 </v>
   <v>      -0.16888355      -0.33623848       0.39463510 </v>
   <v>      -0.33660681      -0.43317319      -0.39654898 </v>
   <v>      -0.16256601       0.41786283       0.38519977 </v>
   <v>       0.35036813      -0.07082830       0.38895455 </v>
   <v>      -0.40278434       0.42796349       0.39667517 </v>
   <v>      -0.08043176      -0.42076028       0.45419070 </v>
   <v>      -0.33495348       0.33027422       0.45294834 </v>
   <v>      -0.33681503      -0.42144559       0.45283458 </v>
   <v>       0.41818427      -0.16900454      -0.40284572 </v>
   <v>      -0.41063752       0.16465798       0.39136395 </v>
   <v>      -0.24949505       0.49896524       0.49539411 </v>
   <v>      -0.42653045      -0.33207615       0.39446436 </v>
   <v>       0.09227019      -0.33085683       0.39245167 </v>
   <v>       0.42276928      -0.15541269       0.45330948 </v>
  </varray>
 </structure>
 <varray name="primitive_index" >
  <v type="int" >        1 </v>
  <v type="int" >       66 </v>
  <v type="int" >       65 </v>
  <v type="int" >       70 </v>
  <v type="int" >       49 </v>
  <v type="int" >       50 </v>
  <v type="int" >       61 </v>
  <v type="int" >       17 </v>
  <v type="int" >       29 </v>
  <v type="int" >       18 </v>
  <v type="int" >        5 </v>
  <v type="int" >        4 </v>
  <v type="int" >       16 </v>
  <v type="int" >       13 </v>
  <v type="int" >        6 </v>
  <v type="int" >        2 </v>
  <v type="int" >       33 </v>
  <v type="int" >       77 </v>
  <v type="int" >       69 </v>
  <v type="int" >       64 </v>
  <v type="int" >       62 </v>
  <v type="int" >       54 </v>
  <v type="int" >       71 </v>
  <v type="int" >       30 </v>
  <v type="int" >       32 </v>
  <v type="int" >       22 </v>
  <v type="int" >       34 </v>
  <v type="int" >       80 </v>
  <v type="int" >       67 </v>
  <v type="int" >       48 </v>
  <v type="int" >       38 </v>
  <v type="int" >       60 </v>
  <v type="int" >       52 </v>
  <v type="int" >       68 </v>
  <v type="int" >       45 </v>
  <v type="int" >       78 </v>
  <v type="int" >       37 </v>
  <v type="int" >       53 </v>
  <v type="int" >       75 </v>
  <v type="int" >       36 </v>
  <v type="int" >       74 </v>
  <v type="int" >       55 </v>
  <v type="int" >       51 </v>
  <v type="int" >       57 </v>
  <v type="int" >       28 </v>
  <v type="int" >       15 </v>
  <v type="int" >       23 </v>
  <v type="int" >       12 </v>
  <v type="int" >       25 </v>
  <v type="int" >       14 </v>
  <v type="int" >       19 </v>
  <v type="int" >       20 </v>
  <v type="int" >        8 </v>
  <v type="int" >       21 </v>
  <v type="int" >        7 </v>
  <v type="int" >       10 </v>
  <v type="int" >       11 </v>
  <v type="int" >        3 </v>
  <v type="int" >        9 </v>
  <v type="int" >       76 </v>
  <v type="int" >       72 </v>
  <v type="int" >       73 </v>
  <v type="int" >       58 </v>
  <v type="int" >       63 </v>
  <v type="int" >       44 </v>
  <v type="int" >       39 </v>
  <v type="int" >       47 </v>
  <v type="int" >       59 </v>
  <v type="int" >       46 </v>
  <v type="int" >       40 </v>
  <v type="int" >       42 </v>
  <v type="int" >       31 </v>
  <v type="int" >       26 </v>
  <v type="int" >       27 </v>
  <v type="int" >       56 </v>
  <v type="int" >       41 </v>
  <v type="int" >       79 </v>
  <v type="int" >       43 </v>
  <v type="int" >       35 </v>
  <v type="int" >       24 </v>
 </varray>
 <kpoints>
  <generation param="Gamma">
   <v type="int" name="divisions">       3        3        1 </v>
   <v name="usershift">      0.00000000       0.00000000       0.00000000 </v>
   <v name="genvec1">      0.33333333      -0.00000000       0.00000000 </v>
   <v name="genvec2">      0.00000000       0.33333333       0.00000000 </v>
   <v name="genvec3">      0.00000000       0.00000000       1.00000000 </v>
   <v name="shift">      0.00000000       0.00000000       0.00000000 </v>
  </generation>
  <varray name="kpointlist" >
   <v>       0.00000000       0.00000000       0.00000000 </v>
   <v>       0.33333333      -0.00000000       0.00000000 </v>
   <v>       0.00000000       0.33333333       0.00000000 </v>
   <v>       0.33333333       0.33333333       0.00000000 </v>
   <v>      -0.33333333       0.33333333       0.00000000 </v>
  </varray>
  <varray name="weights" >
   <v>       0.11111111 </v>
   <v>       0.22222222 </v>
   <v>       0.22222222 </v>
   <v>       0.22222222 </v>
   <v>       0.22222222 </v>
  </varray>
 </kpoints>
 <parameters>
  <separator name="general" >
   <i type="string" name="SYSTEM">unknown system</i>
   <i type="logical" name="LCOMPAT"> F  </i>
  </separator>
  <separator name="electronic" >
   <i type="string" name="PREC">anorma</i>
   <i name="ENMAX">    600.00000000</i>
   <i name="ENAUG">    644.87300000</i>
   <i name="EDIFF">      0.00000100</i>
   <i type="int" name="IALGO">    38</i>
   <i type="int" name="IWAVPR">    10</i>
   <i type="int" name="NBANDS">   384</i>
   <i name="NELECT">    640.00000000</i>
   <i type="int" name="TURBO">     0</i>
   <i type="int" name="IRESTART">     0</i>
   <i type="int" name="NREBOOT">     0</i>
   <i type="int" name="NMIN">     0</i>
   <i name="EREF">      0.00000000</i>
   <separator name="electronic smearing" >
    <i type="int" name="ISMEAR">     0</i>
    <i name="SIGMA">      0.05000000</i>
    <i name="KSPACING">      0.25000000</i>
    <i type="logical" name="KGAMMA"> T  </i>
   </separator>
   <separator name="electronic projectors" >
    <i type="logical" name="LREAL"> T  </i>
    <v name="ROPT">     -0.00025000     -0.00025000     -0.00025000</v>
    <i type="int" name="LMAXPAW">  -100</i>
    <i type="int" name="LMAXMIX">     2</i>
    <i type="logical" name="NLSPLINE"> F  </i>
   </separator>
   <separator name="electronic startup" >
    <i type="int" name="ISTART">     0</i>
    <i type="int" name="ICHARG">     2</i>
    <i type="int" name="INIWAV">     1</i>
   </separator>
   <separator name="electronic spin" >
    <i type="int" name="ISPIN">     1</i>
    <i type="logical" name="LNONCOLLINEAR"> F  </i>
    <v name="MAGMOM">      1.00000000      1.00000000      1.00000000      1.00000000      1.00000000      1.00000000      1.00000000      1.00000000      1.00000000      1.00000000      1.00000000      1.00000000      1.00000000      1.00000000      1.00000000      1.00000000      1.00000000      1.00000000      1.00000000      1.00000000
      1.00000000      1.00000000      1.00000000      1.00000000      1.00000000      1.00000000      1.00000000      1.00000000      1.00000000      1.00000000      1.00000000      1.00000000      1.00000000      1.00000000      1.00000000      1.00000000      1.00000000      1.00000000      1.00000000      1.00000000
      1.00000000      1.00000000      1.00000000      1.00000000      1.00000000      1.00000000      1.00000000      1.00000000      1.00000000      1.00000000      1.00000000      1.00000000      1.00000000      1.00000000      1.00000000      1.00000000      1.00000000      1.00000000      1.00000000      1.00000000
      1.00000000      1.00000000      1.00000000      1.00000000      1.00000000      1.00000000      1.00000000      1.00000000      1.00000000      1.00000000      1.00000000      1.00000000      1.00000000      1.00000000      1.00000000      1.00000000      1.00000000      1.00000000      1.00000000      1.00000000
</v>
    <i name="NUPDOWN">     -1.00000000</i>
    <i type="logical" name="LSORBIT"> F  </i>
    <v name="SAXIS">      0.00000000      0.00000000      1.00000000</v>
    <i type="logical" name="LSPIRAL"> F  </i>
    <v name="QSPIRAL">      0.00000000      0.00000000      0.00000000</v>
    <i type="logical" name="LZEROZ"> F  </i>
   </separator>
   <separator name="electronic exchange-correlation" >
    <i type="logical" name="LASPH"> F  </i>
    <i type="logical" name="LMETAGGA"> F  </i>
   </separator>
   <separator name="electronic convergence" >
    <i type="int" name="NELM">    60</i>
    <i type="int" name="NELMDL">    -5</i>
    <i type="int" name="NELMIN">     2</i>
    <i name="ENINI">    600.00000000</i>
    <separator name="electronic convergence detail" >
     <i type="logical" name="LDIAG"> T  </i>
     <i type="logical" name="LSUBROT"> F  </i>
     <i name="WEIMIN">      0.00000000</i>
     <i name="EBREAK">      0.00000000</i>
     <i name="DEPER">      0.30000000</i>
     <i type="int" name="NRMM">     4</i>
     <i name="TIME">      0.40000000</i>
    </separator>
   </separator>
   <separator name="electronic mixer" >
    <i name="AMIX">      0.40000000</i>
    <i name="BMIX">      1.00000000</i>
    <i name="AMIN">      0.10000000</i>
    <i name="AMIX_MAG">      1.60000000</i>
    <i name="BMIX_MAG">      1.00000000</i>
    <separator name="electronic mixer details" >
     <i type="int" name="IMIX">     4</i>
     <i type="logical" name="MIXFIRST"> F  </i>
     <i type="int" name="MAXMIX">   -45</i>
     <i name="WC">    100.00000000</i>
     <i type="int" name="INIMIX">     1</i>
     <i type="int" name="MIXPRE">     1</i>
     <i type="int" name="MREMOVE">     5</i>
    </separator>
   </separator>
   <separator name="electronic dipolcorrection" >
    <i type="logical" name="LDIPOL"> F  </i>
    <i type="logical" name="LMONO"> F  </i>
    <i type="int" name="IDIPOL">     0</i>
    <i name="EPSILON">      1.00000000</i>
    <v name="DIPOL">   -100.00000000   -100.00000000   -100.00000000</v>
    <i name="EFIELD">      0.00000000</i>
   </separator>
  </separator>
  <separator name="grids" >
   <i type="int" name="NGX">   112</i>
   <i type="int" name="NGY">   112</i>
   <i type="int" name="NGZ">   224</i>
   <i type="int" name="NGXF">   224</i>
   <i type="int" name="NGYF">   224</i>
   <i type="int" name="NGZF">   448</i>
   <i type="logical" name="ADDGRID"> T  </i>
  </separator>
  <separator name="ionic" >
   <i type="int" name="NSW">     1</i>
   <i type="int" name="IBRION">    -1</i>
   <i type="int" name="MDALGO">     0</i>
   <i type="int" name="ISIF">     2</i>
   <i name="PSTRESS">      0.00000000</i>
   <i name="EDIFFG">     -0.01000000</i>
   <i type="int" name="NFREE">     0</i>
   <i name="POTIM">      1.00000000</i>
   <i name="SMASS">     -3.00000000</i>
   <i name="SCALEE">      1.00000000</i>
  </separator>
  <separator name="ionic md" >
   <i name="TEBEG">      0.00010000</i>
   <i name="TEEND">      0.00010000</i>
   <i type="int" name="NBLOCK">     1</i>
   <i type="int" name="KBLOCK">     1</i>
   <i type="int" name="NPACO">   256</i>
   <i name="APACO">     16.00000000</i>
  </separator>
  <separator name="symmetry" >
   <i type="int" name="ISYM">     2</i>
   <i name="SYMPREC">      0.00001000</i>
  </separator>
  <separator name="dos" >
   <i type="int" name="LORBIT">     0</i>
   <v name="RWIGS">     -1.00000000     -1.00000000     -1.00000000</v>
   <i type="int" name="NEDOS">   301</i>
   <i name="EMIN">     10.00000000</i>
   <i name="EMAX">    -10.00000000</i>
   <i name="EFERMI">      0.00000000</i>
  </separator>
  <separator name="writing" >
   <i type="int" name="NWRITE">     2</i>
   <i type="logical" name="LWAVE"> F  </i>
   <i type="logical" name="LDOWNSAMPLE"> F  </i>
   <i type="logical" name="LCHARG"> F  </i>
   <i type="logical" name="LPARD"> F  </i>
   <i type="logical" name="LVTOT"> F  </i>
   <i type="logical" name="LVHAR"> F  </i>
   <i type="logical" name="LELF"> F  </i>
   <i type="logical" name="LOPTICS"> F  </i>
   <v name="STM">      0.00000000      0.00000000      0.00000000      0.00000000      0.00000000      0.00000000      0.00000000</v>
  </separator>
  <separator name="performance" >
   <i type="int" name="NPAR">     4</i>
   <i type="int" name="NSIM">     4</i>
   <i type="int" name="NBLK">    -1</i>
   <i type="logical" name="LPLANE"> T  </i>
   <i type="logical" name="LSCALAPACK"> F  </i>
   <i type="logical" name="LSCAAWARE"> F  </i>
   <i type="logical" name="LSCALU"> F  </i>
   <i type="logical" name="LASYNC"> F  </i>
   <i type="logical" name="LORBITALREAL"> F  </i>
  </separator>
  <separator name="miscellaneous" >
   <i type="int" name="IDIOT">     3</i>
   <i type="int" name="ISPECIAL">     0</i>
   <i type="logical" name="LMUSIC"> F  </i>
   <v name="POMASS">     44.95600000     35.45300000     12.01100000</v>
   <v name="DARWINR">      0.00000000      0.00000000      0.00000000</v>
   <v name="DARWINV">      1.00000000      1.00000000      1.00000000</v>
   <i type="logical" name="LCORR"> T  </i>
  </separator>
  <i type="logical" name="GGA_COMPAT"> T  </i>
  <i type="logical" name="LBERRY"> F  </i>
  <i type="int" name="ICORELEVEL">     0</i>
  <i type="logical" name="LDAU"> F  </i>
  <i type="int" name="I_CONSTRAINED_M">     0</i>
  <separator name="electronic exchange-correlation" >
   <i type="string" name="GGA">--</i>
   <i type="int" name="VOSKOWN">     0</i>
   <i type="logical" name="LHFCALC"> F  </i>
   <i type="string" name="PRECFOCK"></i>
   <i type="logical" name="LSYMGRAD"> F  </i>
   <i type="logical" name="LHFONE"> F  </i>
   <i type="logical" name="LRHFCALC"> F  </i>
   <i type="logical" name="LTHOMAS"> F  </i>
   <i type="logical" name="LMODELHF"> F  </i>
   <i name="ENCUT4O">     -1.00000000</i>
   <i type="int" name="EXXOEP">     0</i>
   <i type="int" name="FOURORBIT">     0</i>
   <i name="AEXX">      0.00000000</i>
   <i name="HFALPHA">      0.00000000</i>
   <i name="MCALPHA">      0.00000000</i>
   <i name="ALDAX">      1.00000000</i>
   <i name="AGGAX">      1.00000000</i>
   <i name="ALDAC">      1.00000000</i>
   <i name="AGGAC">      1.00000000</i>
   <i type="int" name="NKREDX">     1</i>
   <i type="int" name="NKREDY">     1</i>
   <i type="int" name="NKREDZ">     1</i>
   <i type="logical" name="SHIFTRED"> F  </i>
   <i type="logical" name="ODDONLY"> F  </i>
   <i type="logical" name="EVENONLY"> F  </i>
   <i type="int" name="LMAXFOCK">     0</i>
   <i type="int" name="NMAXFOCKAE">     0</i>
   <i type="logical" name="LFOCKAEDFT"> F  </i>
   <i name="HFSCREEN">      0.00000000</i>
   <i name="HFSCREENC">      0.00000000</i>
   <i type="int" name="NBANDSGWLOW">     0</i>
  </separator>
  <separator name="vdW DFT" >
   <i type="logical" name="LUSE_VDW"> F  </i>
   <i name="Zab_VDW">     -0.84910000</i>
   <i name="PARAM1">      0.12340000</i>
   <i name="PARAM2">      1.00000000</i>
   <i name="PARAM3">      0.00000000</i>
  </separator>
  <separator name="model GW" >
   <i type="int" name="MODEL_GW">     0</i>
   <i name="MODEL_EPS0">     34.36971577</i>
   <i name="MODEL_ALPHA">      1.00000000</i>
  </separator>
  <separator name="linear response parameters" >
   <i type="logical" name="LEPSILON"> F  </i>
   <i type="logical" name="LRPA"> F  </i>
   <i type="logical" name="LNABLA"> F  </i>
   <i type="logical" name="LVEL"> F  </i>
   <i type="int" name="KINTER">     0</i>
   <i name="CSHIFT">      0.10000000</i>
   <i name="OMEGAMAX">     -1.00000000</i>
   <i name="DEG_THRESHOLD">      0.00200000</i>
   <i name="RTIME">     -0.10000000</i>
   <i name="WPLASMAI">      0.00000000</i>
   <v name="DFIELD">      0.00000000      0.00000000      0.00000000</v>
   <v name="WPLASMA">      0.00000000      0.00000000      0.00000000      0.00000000      0.00000000      0.00000000      0.00000000      0.00000000      0.00000000</v>
  </separator>
  <separator name="orbital magnetization" >
   <i type="logical" name="NUCIND"> F  </i>
   <v name="MAGPOS">      0.00000000      0.00000000      0.00000000</v>
   <i type="logical" name="LNICSALL"> T  </i>
   <i type="logical" name="ORBITALMAG"> F  </i>
   <i type="logical" name="LMAGBLOCH"> F  </i>
   <i type="logical" name="LCHIMAG"> F  </i>
   <i type="logical" name="LGAUGE"> T  </i>
   <i type="int" name="MAGATOM">     0</i>
   <v name="MAGDIPOL">      0.00000000      0.00000000      0.00000000</v>
   <v name="AVECCONST">      0.00000000      0.00000000      0.00000000</v>
  </separator>
  <separator name="response functions" >
   <i type="logical" name="LADDER"> F  </i>
   <i type="logical" name="LRPAFORCE"> F  </i>
   <i type="logical" name="LFXC"> F  </i>
   <i type="logical" name="LHARTREE"> T  </i>
   <i type="int" name="IBSE">     0</i>
   <v type="int" name="KPOINT">    -1     0     0     0</v>
   <i type="logical" name="LTCTE"> F  </i>
   <i type="logical" name="LTETE"> F  </i>
   <i type="logical" name="LTRIPLET"> F  </i>
   <i type="logical" name="LFXCEPS"> F  </i>
   <i type="logical" name="LFXHEG"> F  </i>
   <i type="int" name="NATURALO">     2</i>
   <i type="logical" name="L2ORDER"> F  </i>
   <i type="logical" name="LMP2LT"> F  </i>
   <i type="logical" name="LUSEW"> F  </i>
   <i name="ENCUTGW">     -2.00000000</i>
   <i name="ENCUTGWSOFT">     -2.00000000</i>
   <i name="ENCUTLF">     -1.00000000</i>
   <i type="int" name="LMAXMP2">    -1</i>
   <i name="SCISSOR">      0.00000000</i>
   <i type="int" name="NOMEGA">     0</i>
   <i type="int" name="NOMEGAR">     0</i>
   <i type="int" name="NBANDSGW">    -1</i>
   <i type="int" name="NBANDSO">    -1</i>
   <i type="int" name="NBANDSV">    -1</i>
   <i type="int" name="NELM">     1</i>
   <i type="int" name="NELMHF">     1</i>
   <i type="int" name="DIM">     3</i>
   <i type="int" name="ANTIRES">     0</i>
   <i name="OMEGAMAX">    -30.00000000</i>
   <i name="OMEGAMIN">    -30.00000000</i>
   <i name="OMEGATL">   -200.00000000</i>
   <i type="int" name="OMEGAGRID">   140</i>
   <i name="CSHIFT">     -0.10000000</i>
   <i type="logical" name="SELFENERGY"> F  </i>
   <i type="logical" name="LSPECTRAL"> F  </i>
   <i type="logical" name="LSPECTRALGW"> F  </i>
   <i type="logical" name="LSINGLES"> F  </i>
   <i type="logical" name="LFERMIGW"> F  </i>
   <i type="logical" name="ODDONLYGW"> F  </i>
   <i type="logical" name="EVENONLYGW"> F  </i>
   <i type="int" name="NKREDLFX">     1</i>
   <i type="int" name="NKREDLFY">     1</i>
   <i type="int" name="NKREDLFZ">     1</i>
   <i type="int" name="MAXMEM">  2800</i>
   <i type="int" name="TELESCOPE">     0</i>
   <i type="int" name="TAUPAR">     1</i>
   <i type="int" name="OMEGAPAR">    -1</i>
   <i name="LAMBDA">      1.00000000</i>
  </separator>
  <separator name="External order field" >
   <i name="OFIELD_KAPPA">      0.00000000</i>
   <v name="OFIELD_K">      0.00000000      0.00000000      0.00000000</v>
   <i name="OFIELD_Q6_NEAR">      0.00000000</i>
   <i name="OFIELD_Q6_FAR">      0.00000000</i>
   <i name="OFIELD_A">      0.00000000</i>
  </separator>
 </parameters>
 <atominfo>
  <atoms>      80 </atoms>
  <types>       3 </types>
  <array name="atoms" >
   <dimension dim="1">ion</dimension>
   <field type="string">element</field>
   <field type="int">atomtype</field>
   <set>
    <rc><c>Sc</c><c>   1</c></rc>
    <rc><c>Sc</c><c>   1</c></rc>
    <rc><c>Sc</c><c>   1</c></rc>
    <rc><c>Sc</c><c>   1</c></rc>
    <rc><c>Sc</c><c>   1</c></rc>
    <rc><c>Sc</c><c>   1</c></rc>
    <rc><c>Sc</c><c>   1</c></rc>
    <rc><c>Sc</c><c>   1</c></rc>
    <rc><c>Sc</c><c>   1</c></rc>
    <rc><c>Sc</c><c>   1</c></rc>
    <rc><c>Sc</c><c>   1</c></rc>
    <rc><c>Sc</c><c>   1</c></rc>
    <rc><c>Sc</c><c>   1</c></rc>
    <rc><c>Sc</c><c>   1</c></rc>
    <rc><c>Sc</c><c>   1</c></rc>
    <rc><c>Sc</c><c>   1</c></rc>
    <rc><c>Sc</c><c>   1</c></rc>
    <rc><c>Sc</c><c>   1</c></rc>
    <rc><c>Sc</c><c>   1</c></rc>
    <rc><c>Sc</c><c>   1</c></rc>
    <rc><c>Sc</c><c>   1</c></rc>
    <rc><c>Sc</c><c>   1</c></rc>
    <rc><c>Sc</c><c>   1</c></rc>
    <rc><c>Sc</c><c>   1</c></rc>
    <rc><c>Sc</c><c>   1</c></rc>
    <rc><c>Sc</c><c>   1</c></rc>
    <rc><c>Sc</c><c>   1</c></rc>
    <rc><c>Sc</c><c>   1</c></rc>
    <rc><c>Sc</c><c>   1</c></rc>
    <rc><c>Sc</c><c>   1</c></rc>
    <rc><c>Sc</c><c>   1</c></rc>
    <rc><c>Sc</c><c>   1</c></rc>
    <rc><c>Cl</c><c>   2</c></rc>
    <rc><c>Cl</c><c>   2</c></rc>
    <rc><c>Cl</c><c>   2</c></rc>
    <rc><c>Cl</c><c>   2</c></rc>
    <rc><c>Cl</c><c>   2</c></rc>
    <rc><c>Cl</c><c>   2</c></rc>
    <rc><c>Cl</c><c>   2</c></rc>
    <rc><c>Cl</c><c>   2</c></rc>
    <rc><c>Cl</c><c>   2</c></rc>
    <rc><c>Cl</c><c>   2</c></rc>
    <rc><c>Cl</c><c>   2</c></rc>
    <rc><c>Cl</c><c>   2</c></rc>
    <rc><c>Cl</c><c>   2</c></rc>
    <rc><c>Cl</c><c>   2</c></rc>
    <rc><c>Cl</c><c>   2</c></rc>
    <rc><c>Cl</c><c>   2</c></rc>
    <rc><c>Cl</c><c>   2</c></rc>
    <rc><c>Cl</c><c>   2</c></rc>
    <rc><c>Cl</c><c>   2</c></rc>
    <rc><c>Cl</c><c>   2</c></rc>
    <rc><c>Cl</c><c>   2</c></rc>
    <rc><c>Cl</c><c>   2</c></rc>
    <rc><c>Cl</c><c>   2</c></rc>
    <rc><c>Cl</c><c>   2</c></rc>
    <rc><c>Cl</c><c>   2</c></rc>
    <rc><c>Cl</c><c>   2</c></rc>
    <rc><c>Cl</c><c>   2</c></rc>
    <rc><c>Cl</c><c>   2</c></rc>
    <rc><c>Cl</c><c>   2</c></rc>
    <rc><c>Cl</c><c>   2</c></rc>
    <rc><c>Cl</c><c>   2</c></rc>
    <rc><c>Cl</c><c>   2</c></rc>
    <rc><c>C </c><c>   3</c></rc>
    <rc><c>C </c><c>   3</c></rc>
    <rc><c>C </c><c>   3</c></rc>
    <rc><c>C </c><c>   3</c></rc>
    <rc><c>C </c><c>   3</c></rc>
    <rc><c>C </c><c>   3</c></rc>
    <rc><c>C </c><c>   3</c></rc>
    <rc><c>C </c><c>   3</c></rc>
    <rc><c>C </c><c>   3</c></rc>
    <rc><c>C </c><c>   3</c></rc>
    <rc><c>C </c><c>   3</c></rc>
    <rc><c>C </c><c>   3</c></rc>
    <rc><c>C </c><c>   3</c></rc>
    <rc><c>C </c><c>   3</c></rc>
    <rc><c>C </c><c>   3</c></rc>
    <rc><c>C </c><c>   3</c></rc>
   </set>
  </array>
  <array name="atomtypes" >
   <dimension dim="1">type</dimension>
   <field type="int">atomspertype</field>
   <field type="string">element</field>
   <field>mass</field>
   <field>valence</field>
   <field type="string">pseudopotential</field>
   <set>
    <rc><c>  32</c><c>Sc</c><c>     44.95600000</c><c>     11.00000000</c><c>  PAW_PBE Sc_sv 07Sep2000               </c></rc>
    <rc><c>  32</c><c>Cl</c><c>     35.45300000</c><c>      7.00000000</c><c>  PAW_PBE Cl 06Sep2000                  </c></rc>
    <rc><c>  16</c><c>C </c><c>     12.01100000</c><c>      4.00000000</c><c>  PAW_PBE C 08Apr2002                   </c></rc>
   </set>
  </array>
 </atominfo>
 <structure name="initialpos" >
  <crystal>
   <varray name="basis" >
    <v>      13.79398668       0.00000000       0.00000000 </v>
    <v>      -6.89699334      11.94594288       0.00000000 </v>
    <v>       0.00000000       0.00000000      27.81022107 </v>
   </varray>
   <i name="volume">   4582.62876984 </i>
   <varray name="rec_basis" >
    <v>       0.07249536       0.04185521       0.00000000 </v>
    <v>       0.00000000       0.08371043       0.00000000 </v>
    <v>       0.00000000       0.00000000       0.03595800 </v>
   </varray>
  </crystal>
  <varray name="positions" >
   <v>       0.07591670       0.16258380       0.54730678 </v>
   <v>       0.07961696       0.41987978       0.54970985 </v>
   <v>       0.08319703       0.66025042       0.54189636 </v>
   <v>       0.08717709       0.91898185       0.53745860 </v>
   <v>       0.32476431       0.16031170       0.54281593 </v>
   <v>       0.33381252       0.40862001       0.54803832 </v>
   <v>       0.34290000       0.67208259       0.54612506 </v>
   <v>       0.33283496       0.91666025       0.53996861 </v>
   <v>       0.57853401       0.16743112       0.54649182 </v>
   <v>       0.58746129       0.41438445       0.54417419 </v>
   <v>       0.59555517       0.67006626       0.54804184 </v>
   <v>       0.58492006       0.91564406       0.54139712 </v>
   <v>       0.82974851       0.17272474       0.54960809 </v>
   <v>       0.82930381       0.41146449       0.54075156 </v>
   <v>       0.84303149       0.67322501       0.54113212 </v>
   <v>       0.83064811       0.90582319       0.54471385 </v>
   <v>       0.15945171       0.09121568       0.45446119 </v>
   <v>       0.17024483       0.33199344       0.45814657 </v>
   <v>       0.17517986       0.59576053       0.45731309 </v>
   <v>       0.16991312       0.83425270       0.44816609 </v>
   <v>       0.43122684       0.09307139       0.45333837 </v>
   <v>       0.41612573       0.33683933       0.45905484 </v>
   <v>       0.41525738       0.58116148       0.45897960 </v>
   <v>       0.42276928       0.84458731       0.45330948 </v>
   <v>       0.65650020       0.08118183       0.45466255 </v>
   <v>       0.66504652       0.33027422       0.45294834 </v>
   <v>       0.66318497       0.57855441       0.45283458 </v>
   <v>       0.66841710       0.82869179       0.45453006 </v>
   <v>       0.90615647       0.08746247       0.45833107 </v>
   <v>       0.91228124       0.32191971       0.46036833 </v>
   <v>       0.91956824       0.57923972       0.45419070 </v>
   <v>       0.91726152       0.83258552       0.45618887 </v>
   <v>       0.07480287       0.17403219       0.39751775 </v>
   <v>       0.08016938       0.40624478       0.40351281 </v>
   <v>       0.09227019       0.66914317       0.39245167 </v>
   <v>       0.08416856       0.91299186       0.39221409 </v>
   <v>       0.34005960       0.16983787       0.39770450 </v>
   <v>       0.32593324       0.42171046       0.40176807 </v>
   <v>       0.32893146       0.66821268       0.39935805 </v>
   <v>       0.35036813       0.92917170       0.38895455 </v>
   <v>       0.58936248       0.16465798       0.39136395 </v>
   <v>       0.59721566       0.42796349       0.39667517 </v>
   <v>       0.57346955       0.66792385       0.39446436 </v>
   <v>       0.58360280       0.90925356       0.39379802 </v>
   <v>       0.83121797       0.16830699       0.39345021 </v>
   <v>       0.83743399       0.41786283       0.38519977 </v>
   <v>       0.83111645       0.66376152       0.39463510 </v>
   <v>       0.83115194       0.91867358       0.39988786 </v>
   <v>       0.16589968       0.08140628       0.59881331 </v>
   <v>       0.16905168       0.33764137       0.60726013 </v>
   <v>       0.17014056       0.59257214       0.61138805 </v>
   <v>       0.16577840       0.83546703       0.59802891 </v>
   <v>       0.41227818       0.08719930       0.60777963 </v>
   <v>       0.40956661       0.31951468       0.61106042 </v>
   <v>       0.42446116       0.57939921       0.60923913 </v>
   <v>       0.41818427       0.83099546       0.59715428 </v>
   <v>       0.63918397       0.07681106       0.60664893 </v>
   <v>       0.66953246       0.33032392       0.60372484 </v>
   <v>       0.66339319       0.56682681       0.60345102 </v>
   <v>       0.66624102       0.83695830       0.59993690 </v>
   <v>       0.89841569       0.07652764       0.61135888 </v>
   <v>       0.91297616       0.33045818       0.60858431 </v>
   <v>       0.92932504       0.58579098       0.60183604 </v>
   <v>       0.92385964       0.83775573       0.60514092 </v>
   <v>       0.00037679       0.00312998       0.49317515 </v>
   <v>       0.99746285       0.25123722       0.50607993 </v>
   <v>       0.99399001       0.48659356       0.50473261 </v>
   <v>       0.99444464       0.74311969       0.50114534 </v>
   <v>       0.24464758       0.99995284       0.49731873 </v>
   <v>       0.24725393       0.25126675       0.49908101 </v>
   <v>       0.25832373       0.51284209       0.50221129 </v>
   <v>       0.24845254       0.76226398       0.49646949 </v>
   <v>       0.50392523       0.00404382       0.50031714 </v>
   <v>       0.50671286       0.24934433       0.49855917 </v>
   <v>       0.50456258       0.49753427       0.50158115 </v>
   <v>       0.50645695       0.75103681       0.50147801 </v>
   <v>       0.74455236       0.99718282       0.49951471 </v>
   <v>       0.74031441       0.25078641       0.50104064 </v>
   <v>       0.75050495       0.49896524       0.49539411 </v>
   <v>       0.75885589       0.75830962       0.50230127 </v>
  </varray>
  <varray name="velocities" >
   <v>       0.00000000       0.00000000       0.00000000 </v>
   <v>       0.00000000       0.00000000       0.00000000 </v>
   <v>       0.00000000       0.00000000       0.00000000 </v>
   <v>       0.00000000       0.00000000       0.00000000 </v>
   <v>       0.00000000       0.00000000       0.00000000 </v>
   <v>       0.00000000       0.00000000       0.00000000 </v>
   <v>       0.00000000       0.00000000       0.00000000 </v>
   <v>       0.00000000       0.00000000       0.00000000 </v>
   <v>       0.00000000       0.00000000       0.00000000 </v>
   <v>       0.00000000       0.00000000       0.00000000 </v>
   <v>       0.00000000       0.00000000       0.00000000 </v>
   <v>       0.00000000       0.00000000       0.00000000 </v>
   <v>       0.00000000       0.00000000       0.00000000 </v>
   <v>       0.00000000       0.00000000       0.00000000 </v>
   <v>       0.00000000       0.00000000       0.00000000 </v>
   <v>       0.00000000       0.00000000       0.00000000 </v>
   <v>       0.00000000       0.00000000       0.00000000 </v>
   <v>       0.00000000       0.00000000       0.00000000 </v>
   <v>       0.00000000       0.00000000       0.00000000 </v>
   <v>       0.00000000       0.00000000       0.00000000 </v>
   <v>       0.00000000       0.00000000       0.00000000 </v>
   <v>       0.00000000       0.00000000       0.00000000 </v>
   <v>       0.00000000       0.00000000       0.00000000 </v>
   <v>       0.00000000       0.00000000       0.00000000 </v>
   <v>       0.00000000       0.00000000       0.00000000 </v>
   <v>       0.00000000       0.00000000       0.00000000 </v>
   <v>       0.00000000       0.00000000       0.00000000 </v>
   <v>       0.00000000       0.00000000       0.00000000 </v>
   <v>       0.00000000       0.00000000       0.00000000 </v>
   <v>       0.00000000       0.00000000       0.00000000 </v>
   <v>       0.00000000       0.00000000       0.00000000 </v>
   <v>       0.00000000       0.00000000       0.00000000 </v>
   <v>       0.00000000       0.00000000       0.00000000 </v>
   <v>       0.00000000       0.00000000       0.00000000 </v>
   <v>       0.00000000       0.00000000       0.00000000 </v>
   <v>       0.00000000       0.00000000       0.00000000 </v>
   <v>       0.00000000       0.00000000       0.00000000 </v>
   <v>       0.00000000       0.00000000       0.00000000 </v>
   <v>       0.00000000       0.00000000       0.00000000 </v>
   <v>       0.00000000       0.00000000       0.00000000 </v>
   <v>       0.00000000       0.00000000       0.00000000 </v>
   <v>       0.00000000       0.00000000       0.00000000 </v>
   <v>       0.00000000       0.00000000       0.00000000 </v>
   <v>       0.00000000       0.00000000       0.00000000 </v>
   <v>       0.00000000       0.00000000       0.00000000 </v>
   <v>       0.00000000       0.00000000       0.00000000 </v>
   <v>       0.00000000       0.00000000       0.00000000 </v>
   <v>       0.00000000       0.00000000       0.00000000 </v>
   <v>       0.00000000       0.00000000       0.00000000 </v>
   <v>       0.00000000       0.00000000       0.00000000 </v>
   <v>       0.00000000       0.00000000       0.00000000 </v>
   <v>       0.00000000       0.00000000       0.00000000 </v>
   <v>       0.00000000       0.00000000       0.00000000 </v>
   <v>       0.00000000       0.00000000       0.00000000 </v>
   <v>       0.00000000       0.00000000       0.00000000 </v>
   <v>       0.00000000       0.00000000       0.00000000 </v>
   <v>       0.00000000       0.00000000       0.00000000 </v>
   <v>       0.00000000       0.00000000       0.00000000 </v>
   <v>       0.00000000       0.00000000       0.00000000 </v>
   <v>       0.00000000       0.00000000       0.00000000 </v>
   <v>       0.00000000       0.00000000       0.00000000 </v>
   <v>       0.00000000       0.00000000       0.00000000 </v>
   <v>       0.00000000       0.00000000       0.00000000 </v>
   <v>       0.00000000       0.00000000       0.00000000 </v>
   <v>       0.00000000       0.00000000       0.00000000 </v>
   <v>       0.00000000       0.00000000       0.00000000 </v>
   <v>       0.00000000       0.00000000       0.00000000 </v>
   <v>       0.00000000       0.00000000       0.00000000 </v>
   <v>       0.00000000       0.00000000       0.00000000 </v>
   <v>       0.00000000       0.00000000       0.00000000 </v>
   <v>       0.00000000       0.00000000       0.00000000 </v>
   <v>       0.00000000       0.00000000       0.00000000 </v>
   <v>       0.00000000       0.00000000       0.00000000 </v>
   <v>       0.00000000       0.00000000       0.00000000 </v>
   <v>       0.00000000       0.00000000       0.00000000 </v>
   <v>       0.00000000       0.00000000       0.00000000 </v>
   <v>       0.00000000       0.00000000       0.00000000 </v>
   <v>       0.00000000       0.00000000       0.00000000 </v>
   <v>       0.00000000       0.00000000       0.00000000 </v>
   <v>       0.00000000       0.00000000       0.00000000 </v>
  </varray>
 </structure>
 <calculation>
  <scstep>
   <time name="dav">   50.27   50.27</time>
   <time name="total">   51.10   51.11</time>
   <energy>
    <i name="alphaZ">    784.57699423 </i>
    <i name="ewald"> 252922.60618738 </i>
    <i name="hartreedc">-300570.35490342 </i>
    <i name="XCdc">   2503.39893498 </i>
    <i name="pawpsdc">  43679.68029659 </i>
    <i name="pawaedc"> -43417.33247688 </i>
    <i name="eentropy">     -0.06180380 </i>
    <i name="bandstr">     81.09971302 </i>
    <i name="atom">  56210.72393729 </i>
    <i name="e_fr_energy">  12194.33687939 </i>
    <i name="e_wo_entrp">  12194.39868319 </i>
    <i name="e_0_energy">  12194.36778129 </i>
   </energy>
  </scstep>
  <scstep>
   <time name="dav">   57.05   57.06</time>
   <time name="total">   57.05   57.07</time>
   <energy>
    <i name="e_fr_energy">   1730.75786032 </i>
    <i name="e_wo_entrp">   1730.80848651 </i>
    <i name="e_0_energy">   1730.78317342 </i>
   </energy>
  </scstep>
  <scstep>
   <time name="dav">   71.17   71.17</time>
   <time name="total">   71.17   71.17</time>
   <energy>
    <i name="e_fr_energy">   -409.27980836 </i>
    <i name="e_wo_entrp">   -409.27980795 </i>
    <i name="e_0_energy">   -409.27980816 </i>
   </energy>
  </scstep>
  <scstep>
   <time name="dav">   64.97   64.98</time>
   <time name="total">   64.97   64.98</time>
   <energy>
    <i name="e_fr_energy">   -644.07632604 </i>
    <i name="e_wo_entrp">   -644.07632604 </i>
    <i name="e_0_energy">   -644.07632604 </i>
   </energy>
  </scstep>
  <scstep>
   <time name="dav">   64.77   64.79</time>
   <time name="total">   68.68   68.70</time>
   <energy>
    <i name="e_fr_energy">   -654.37416739 </i>
    <i name="e_wo_entrp">   -654.37416739 </i>
    <i name="e_0_energy">   -654.37416739 </i>
   </energy>
  </scstep>
  <scstep>
   <time name="dav">   62.87   62.87</time>
   <time name="total">   67.59   67.60</time>
   <energy>
    <i name="e_fr_energy">   -523.72304240 </i>
    <i name="e_wo_entrp">   -523.72304240 </i>
    <i name="e_0_energy">   -523.72304240 </i>
   </energy>
  </scstep>
  <scstep>
   <time name="dav">   63.11   63.11</time>
   <time name="total">   67.83   67.83</time>
   <energy>
    <i name="e_fr_energy">   -528.63608588 </i>
    <i name="e_wo_entrp">   -528.63608588 </i>
    <i name="e_0_energy">   -528.63608588 </i>
   </energy>
  </scstep>
  <scstep>
   <time name="dav">   63.76   63.77</time>
   <time name="total">   68.47   68.50</time>
   <energy>
    <i name="e_fr_energy">   -526.39038174 </i>
    <i name="e_wo_entrp">   -526.39038174 </i>
    <i name="e_0_energy">   -526.39038174 </i>
   </energy>
  </scstep>
  <scstep>
   <time name="dav">   58.84   58.85</time>
   <time name="total">   63.56   63.58</time>
   <energy>
    <i name="e_fr_energy">   -525.87489963 </i>
    <i name="e_wo_entrp">   -525.87489963 </i>
    <i name="e_0_energy">   -525.87489963 </i>
   </energy>
  </scstep>
  <scstep>
   <time name="dav">   61.15   61.16</time>
   <time name="total">   65.87   65.89</time>
   <energy>
    <i name="e_fr_energy">   -525.74598813 </i>
    <i name="e_wo_entrp">   -525.74598813 </i>
    <i name="e_0_energy">   -525.74598813 </i>
   </energy>
  </scstep>
  <scstep>
   <time name="dav">   61.98   61.99</time>
   <time name="total">   66.69   66.71</time>
   <energy>
    <i name="e_fr_energy">   -525.72717434 </i>
    <i name="e_wo_entrp">   -525.72717434 </i>
    <i name="e_0_energy">   -525.72717434 </i>
   </energy>
  </scstep>
  <scstep>
   <time name="dav">   64.88   64.89</time>
   <time name="total">   69.59   69.62</time>
   <energy>
    <i name="e_fr_energy">   -525.71240354 </i>
    <i name="e_wo_entrp">   -525.71240354 </i>
    <i name="e_0_energy">   -525.71240354 </i>
   </energy>
  </scstep>
  <scstep>
   <time name="dav">   58.60   58.60</time>
   <time name="total">   63.32   63.32</time>
   <energy>
    <i name="e_fr_energy">   -525.70972747 </i>
    <i name="e_wo_entrp">   -525.70972747 </i>
    <i name="e_0_energy">   -525.70972747 </i>
   </energy>
  </scstep>
  <scstep>
   <time name="dav">   57.49   57.49</time>
   <time name="total">   62.21   62.21</time>
   <energy>
    <i name="e_fr_energy">   -525.70827010 </i>
    <i name="e_wo_entrp">   -525.70827010 </i>
    <i name="e_0_energy">   -525.70827010 </i>
   </energy>
  </scstep>
  <scstep>
   <time name="dav">   60.63   60.63</time>
   <time name="total">   65.36   65.37</time>
   <energy>
    <i name="e_fr_energy">   -525.70991651 </i>
    <i name="e_wo_entrp">   -525.70991651 </i>
    <i name="e_0_energy">   -525.70991651 </i>
   </energy>
  </scstep>
  <scstep>
   <time name="dav">   63.29   63.29</time>
   <time name="total">   68.01   68.02</time>
   <energy>
    <i name="e_fr_energy">   -525.71233026 </i>
    <i name="e_wo_entrp">   -525.71233026 </i>
    <i name="e_0_energy">   -525.71233026 </i>
   </energy>
  </scstep>
  <scstep>
   <time name="dav">   54.05   54.05</time>
   <time name="total">   58.78   58.78</time>
   <energy>
    <i name="e_fr_energy">   -525.71592719 </i>
    <i name="e_wo_entrp">   -525.71592719 </i>
    <i name="e_0_energy">   -525.71592719 </i>
   </energy>
  </scstep>
  <scstep>
   <time name="dav">   52.07   52.08</time>
   <time name="total">   56.80   56.82</time>
   <energy>
    <i name="e_fr_energy">   -525.71774775 </i>
    <i name="e_wo_entrp">   -525.71774775 </i>
    <i name="e_0_energy">   -525.71774775 </i>
   </energy>
  </scstep>
  <scstep>
   <time name="dav">   53.40   53.41</time>
   <time name="total">   58.12   58.14</time>
   <energy>
    <i name="e_fr_energy">   -525.71900252 </i>
    <i name="e_wo_entrp">   -525.71900252 </i>
    <i name="e_0_energy">   -525.71900252 </i>
   </energy>
  </scstep>
  <scstep>
   <time name="dav">   52.19   52.21</time>
   <time name="total">   56.91   56.93</time>
   <energy>
    <i name="e_fr_energy">   -525.72006839 </i>
    <i name="e_wo_entrp">   -525.72006839 </i>
    <i name="e_0_energy">   -525.72006839 </i>
   </energy>
  </scstep>
  <scstep>
   <time name="dav">   47.72   47.73</time>
   <time name="total">   52.44   52.46</time>
   <energy>
    <i name="e_fr_energy">   -525.72042421 </i>
    <i name="e_wo_entrp">   -525.72042421 </i>
    <i name="e_0_energy">   -525.72042421 </i>
   </energy>
  </scstep>
  <scstep>
   <time name="dav">   43.66   43.67</time>
   <time name="total">   48.38   48.40</time>
   <energy>
    <i name="e_fr_energy">   -525.72094289 </i>
    <i name="e_wo_entrp">   -525.72094289 </i>
    <i name="e_0_energy">   -525.72094289 </i>
   </energy>
  </scstep>
  <scstep>
   <time name="dav">   40.81   40.82</time>
   <time name="total">   45.53   45.55</time>
   <energy>
    <i name="e_fr_energy">   -525.72138952 </i>
    <i name="e_wo_entrp">   -525.72138952 </i>
    <i name="e_0_energy">   -525.72138952 </i>
   </energy>
  </scstep>
  <scstep>
   <time name="dav">   42.17   42.17</time>
   <time name="total">   46.89   46.90</time>
   <energy>
    <i name="e_fr_energy">   -525.72150815 </i>
    <i name="e_wo_entrp">   -525.72150815 </i>
    <i name="e_0_energy">   -525.72150815 </i>
   </energy>
  </scstep>
  <scstep>
   <time name="dav">   40.13   40.14</time>
   <time name="total">   44.85   44.86</time>
   <energy>
    <i name="e_fr_energy">   -525.72161066 </i>
    <i name="e_wo_entrp">   -525.72161066 </i>
    <i name="e_0_energy">   -525.72161066 </i>
   </energy>
  </scstep>
  <scstep>
   <time name="dav">   37.72   37.72</time>
   <time name="total">   42.43   42.44</time>
   <energy>
    <i name="e_fr_energy">   -525.72165767 </i>
    <i name="e_wo_entrp">   -525.72165767 </i>
    <i name="e_0_energy">   -525.72165767 </i>
   </energy>
  </scstep>
  <scstep>
   <time name="dav">   34.86   34.86</time>
   <time name="total">   39.57   39.57</time>
   <energy>
    <i name="e_fr_energy">   -525.72166804 </i>
    <i name="e_wo_entrp">   -525.72166804 </i>
    <i name="e_0_energy">   -525.72166804 </i>
   </energy>
  </scstep>
  <scstep>
   <time name="dav">   34.79   34.79</time>
   <time name="total">   39.51   39.52</time>
   <energy>
    <i name="e_fr_energy">   -525.72167945 </i>
    <i name="e_wo_entrp">   -525.72167945 </i>
    <i name="e_0_energy">   -525.72167945 </i>
   </energy>
  </scstep>
  <scstep>
   <time name="dav">   35.32   35.32</time>
   <time name="total">   40.04   40.05</time>
   <energy>
    <i name="e_fr_energy">   -525.72168931 </i>
    <i name="e_wo_entrp">   -525.72168931 </i>
    <i name="e_0_energy">   -525.72168931 </i>
   </energy>
  </scstep>
  <scstep>
   <time name="dav">   34.73   34.73</time>
   <time name="total">   39.46   39.46</time>
   <energy>
    <i name="e_fr_energy">   -525.72169431 </i>
    <i name="e_wo_entrp">   -525.72169431 </i>
    <i name="e_0_energy">   -525.72169431 </i>
   </energy>
  </scstep>
  <scstep>
   <time name="dav">   33.05   33.06</time>
   <time name="total">   37.81   37.82</time>
   <energy>
    <i name="e_fr_energy">   -525.72169642 </i>
    <i name="e_wo_entrp">   -525.72169642 </i>
    <i name="e_0_energy">   -525.72169642 </i>
   </energy>
  </scstep>
  <scstep>
   <time name="dav">   33.46   33.46</time>
   <time name="total">   38.22   38.22</time>
   <energy>
    <i name="e_fr_energy">   -525.72169756 </i>
    <i name="e_wo_entrp">   -525.72169756 </i>
    <i name="e_0_energy">   -525.72169756 </i>
   </energy>
  </scstep>
  <scstep>
   <time name="dav">   32.70   32.70</time>
   <time name="total">   33.51   33.52</time>
   <energy>
    <i name="alphaZ">    784.57699423 </i>
    <i name="ewald"> 252922.60618738 </i>
    <i name="hartreedc">-300897.07752974 </i>
    <i name="XCdc">   2490.75196835 </i>
    <i name="pawpsdc">  59679.10084815 </i>
    <i name="pawaedc"> -59511.45086304 </i>
    <i name="eentropy">     -0.00000000 </i>
    <i name="bandstr"> -12204.95324064 </i>
    <i name="atom">  56210.72393729 </i>
    <i name="e_fr_energy">   -525.72169801 </i>
    <i name="e_wo_entrp">   -525.72169801 </i>
    <i name="e_0_energy">   -525.72169801 </i>
   </energy>
  </scstep>
  <structure>
   <crystal>
    <varray name="basis" >
     <v>      13.79398668       0.00000000       0.00000000 </v>
     <v>      -6.89699334      11.94594288       0.00000000 </v>
     <v>       0.00000000       0.00000000      27.81022107 </v>
    </varray>
    <i name="volume">   4582.62876984 </i>
    <varray name="rec_basis" >
     <v>       0.07249536       0.04185521       0.00000000 </v>
     <v>       0.00000000       0.08371043       0.00000000 </v>
     <v>       0.00000000       0.00000000       0.03595800 </v>
    </varray>
   </crystal>
   <varray name="positions" >
    <v>       0.07591670       0.16258380       0.54730678 </v>
    <v>       0.07961696       0.41987978       0.54970985 </v>
    <v>       0.08319703       0.66025042       0.54189636 </v>
    <v>       0.08717709       0.91898185       0.53745860 </v>
    <v>       0.32476431       0.16031170       0.54281593 </v>
    <v>       0.33381252       0.40862001       0.54803832 </v>
    <v>       0.34290000       0.67208259       0.54612506 </v>
    <v>       0.33283496       0.91666025       0.53996861 </v>
    <v>       0.57853401       0.16743112       0.54649182 </v>
    <v>       0.58746129       0.41438445       0.54417419 </v>
    <v>       0.59555517       0.67006626       0.54804184 </v>
    <v>       0.58492006       0.91564406       0.54139712 </v>
    <v>       0.82974851       0.17272474       0.54960809 </v>
    <v>       0.82930381       0.41146449       0.54075156 </v>
    <v>       0.84303149       0.67322501       0.54113212 </v>
    <v>       0.83064811       0.90582319       0.54471385 </v>
    <v>       0.15945171       0.09121568       0.45446119 </v>
    <v>       0.17024483       0.33199344       0.45814657 </v>
    <v>       0.17517986       0.59576053       0.45731309 </v>
    <v>       0.16991312       0.83425270       0.44816609 </v>
    <v>       0.43122684       0.09307139       0.45333837 </v>
    <v>       0.41612573       0.33683933       0.45905484 </v>
    <v>       0.41525738       0.58116148       0.45897960 </v>
    <v>       0.42276928       0.84458731       0.45330948 </v>
    <v>       0.65650020       0.08118183       0.45466255 </v>
    <v>       0.66504652       0.33027422       0.45294834 </v>
    <v>       0.66318497       0.57855441       0.45283458 </v>
    <v>       0.66841710       0.82869179       0.45453006 </v>
    <v>       0.90615647       0.08746247       0.45833107 </v>
    <v>       0.91228124       0.32191971       0.46036833 </v>
    <v>       0.91956824       0.57923972       0.45419070 </v>
    <v>       0.91726152       0.83258552       0.45618887 </v>
    <v>       0.07480287       0.17403219       0.39751775 </v>
    <v>       0.08016938       0.40624478       0.40351281 </v>
    <v>       0.09227019       0.66914317       0.39245167 </v>
    <v>       0.08416856       0.91299186       0.39221409 </v>
    <v>       0.34005960       0.16983787       0.39770450 </v>
    <v>       0.32593324       0.42171046       0.40176807 </v>
    <v>       0.32893146       0.66821268       0.39935805 </v>
    <v>       0.35036813       0.92917170       0.38895455 </v>
    <v>       0.58936248       0.16465798       0.39136395 </v>
    <v>       0.59721566       0.42796349       0.39667517 </v>
    <v>       0.57346955       0.66792385       0.39446436 </v>
    <v>       0.58360280       0.90925356       0.39379802 </v>
    <v>       0.83121797       0.16830699       0.39345021 </v>
    <v>       0.83743399       0.41786283       0.38519977 </v>
    <v>       0.83111645       0.66376152       0.39463510 </v>
    <v>       0.83115194       0.91867358       0.39988786 </v>
    <v>       0.16589968       0.08140628       0.59881331 </v>
    <v>       0.16905168       0.33764137       0.60726013 </v>
    <v>       0.17014056       0.59257214       0.61138805 </v>
    <v>       0.16577840       0.83546703       0.59802891 </v>
    <v>       0.41227818       0.08719930       0.60777963 </v>
    <v>       0.40956661       0.31951468       0.61106042 </v>
    <v>       0.42446116       0.57939921       0.60923913 </v>
    <v>       0.41818427       0.83099546       0.59715428 </v>
    <v>       0.63918397       0.07681106       0.60664893 </v>
    <v>       0.66953246       0.33032392       0.60372484 </v>
    <v>       0.66339319       0.56682681       0.60345102 </v>
    <v>       0.66624102       0.83695830       0.59993690 </v>
    <v>       0.89841569       0.07652764       0.61135888 </v>
    <v>       0.91297616       0.33045818       0.60858431 </v>
    <v>       0.92932504       0.58579098       0.60183604 </v>
    <v>       0.92385964       0.83775573       0.60514092 </v>
    <v>       0.00037679       0.00312998       0.49317515 </v>
    <v>       0.99746285       0.25123722       0.50607993 </v>
    <v>       0.99399001       0.48659356       0.50473261 </v>
    <v>       0.99444464       0.74311969       0.50114534 </v>
    <v>       0.24464758       0.99995284       0.49731873 </v>
    <v>       0.24725393       0.25126675       0.49908101 </v>
    <v>       0.25832373       0.51284209       0.50221129 </v>
    <v>       0.24845254       0.76226398       0.49646949 </v>
    <v>       0.50392523       0.00404382       0.50031714 </v>
    <v>       0.50671286       0.24934433       0.49855917 </v>
    <v>       0.50456258       0.49753427       0.50158115 </v>
    <v>       0.50645695       0.75103681       0.50147801 </v>
    <v>       0.74455236       0.99718282       0.49951471 </v>
    <v>       0.74031441       0.25078641       0.50104064 </v>
    <v>       0.75050495       0.49896524       0.49539411 </v>
    <v>       0.75885589       0.75830962       0.50230127 </v>
   </varray>
  </structure>
  <varray name="forces" >
   <v>      -0.53789806       0.25032738      -0.33446820 </v>
   <v>       0.64957679       0.05419094      -0.24921852 </v>
   <v>      -0.37261038       0.79181520       0.57897703 </v>
   <v>      -0.00298631      -0.38352823       0.69707850 </v>
   <v>       1.01691864       0.08828211      -0.04236863 </v>
   <v>      -0.20293127       0.92448457       0.28690006 </v>
   <v>       0.11212452      -1.15258278      -0.39661444 </v>
   <v>      -0.71683872       0.44796345       0.46329473 </v>
   <v>       0.00307656      -0.03214894      -0.42774858 </v>
   <v>      -0.11543677      -0.07482000      -0.33977650 </v>
   <v>      -0.78587924      -0.81875818      -0.82313495 </v>
   <v>       0.00076474       0.34904596       0.17266736 </v>
   <v>       0.05127503      -1.17487442      -0.18752951 </v>
   <v>      -0.36775105       0.66257030       1.00367146 </v>
   <v>      -0.10368348      -1.13459318       1.02895004 </v>
   <v>      -0.11317817       1.64445100       0.04440835 </v>
   <v>       0.79883637      -0.74164678      -0.74181166 </v>
   <v>      -1.19881759       0.50674255       0.86059498 </v>
   <v>       0.38146898      -1.34737664       0.11799780 </v>
   <v>       0.05474046       0.57869146       0.83523648 </v>
   <v>      -1.23209540      -0.49071616       0.28555135 </v>
   <v>       0.53104269      -0.26065686      -0.66488492 </v>
   <v>       0.04531213       0.74272754       0.48654359 </v>
   <v>       0.07428553      -0.75896264       0.14825633 </v>
   <v>       1.54566085       0.18007162       0.44221546 </v>
   <v>       0.47634106       0.59157397       0.13373255 </v>
   <v>       0.38373009       0.48530884       0.97418490 </v>
   <v>      -0.63842743       0.36937813       0.69385943 </v>
   <v>       0.67973133      -0.59297463      -0.00630997 </v>
   <v>      -0.17367749       0.96774205      -0.87930985 </v>
   <v>      -0.68705729      -0.31780983      -0.43413143 </v>
   <v>       0.02186527       0.14930690      -0.99076938 </v>
   <v>       0.40228453      -0.22886648      -0.28964354 </v>
   <v>      -0.41611434       0.72975136      -0.46670426 </v>
   <v>      -0.29489341      -0.37173395       0.06514192 </v>
   <v>      -0.35865808       0.32877919       0.02169611 </v>
   <v>      -0.35346738       0.29683325      -0.25756063 </v>
   <v>       0.77971793      -0.24094588      -0.98864232 </v>
   <v>       0.47406396       0.07683965      -0.51601747 </v>
   <v>      -0.34305780      -0.32607505       0.47284089 </v>
   <v>      -0.26689881       0.27287526      -0.01438356 </v>
   <v>      -0.75738473      -0.92487593      -0.82630538 </v>
   <v>       0.47003854      -0.28730100       0.10115031 </v>
   <v>      -0.16779483       0.35844456       0.06495742 </v>
   <v>      -0.04330621      -0.13618705       0.47715310 </v>
   <v>       0.04267546       0.01322000       1.22720289 </v>
   <v>       0.13348996       0.35499198       0.11453653 </v>
   <v>       0.32099007       0.01533918      -0.71177229 </v>
   <v>      -0.35400816      -0.27649719       0.79408135 </v>
   <v>       0.02398209      -0.34396916      -0.11741012 </v>
   <v>       0.19322405      -0.17753286      -0.79716427 </v>
   <v>       0.17262142       0.00595560       0.28793843 </v>
   <v>      -0.11576188      -0.34599875      -0.67279402 </v>
   <v>      -0.05051653       0.36727485      -0.93639476 </v>
   <v>      -0.20437785       0.20935301      -0.51458404 </v>
   <v>      -0.42666029       0.69038807       1.28621015 </v>
   <v>       1.18476785      -0.04207513       0.03250352 </v>
   <v>      -0.14334873       0.32511752       0.25410095 </v>
   <v>       0.18863082       0.86903690       0.33299073 </v>
   <v>       0.14655836      -0.09927231       1.12663662 </v>
   <v>       0.50156289       0.20670013      -0.71489365 </v>
   <v>      -0.15300954       0.19207935       0.01692949 </v>
   <v>      -0.79804310      -0.20942380       0.16208745 </v>
   <v>      -0.13199136      -0.17992087      -0.30921066 </v>
   <v>      -0.18635434      -0.06630769       1.62581087 </v>
   <v>      -0.21570613      -0.47468231      -0.07803726 </v>
   <v>       0.02307720       1.24524680      -1.04710222 </v>
   <v>       0.59214863       0.44759622      -1.35953577 </v>
   <v>       0.59350381       0.37140635      -0.16445188 </v>
   <v>       0.33623932       0.06422122       0.79610317 </v>
   <v>      -0.16706789      -0.79027917       0.31492838 </v>
   <v>       0.81764208      -0.82409052      -0.12496287 </v>
   <v>      -0.46539465      -0.36080970      -0.93272389 </v>
   <v>      -0.97633484       0.02890841       0.04017342 </v>
   <v>      -0.31632850      -0.07973386      -0.03840316 </v>
   <v>      -0.27036459      -0.22339239      -0.21220668 </v>
   <v>       0.09243331       0.52801630       0.03395282 </v>
   <v>       1.08174158      -0.45635068      -0.25949857 </v>
   <v>       0.10519390       0.00799443       0.45840110 </v>
   <v>      -0.27722617      -1.04327253      -0.49316823 </v>
  </varray>
  <varray name="stress" >
   <v>       3.33445441       0.15384255      -0.50875749 </v>
   <v>       0.15384254       3.48682937       1.39855135 </v>
   <v>      -0.50875752       1.39855132       0.40698689 </v>
  </varray>
  <energy>
   <i name="e_fr_energy">   -525.72169801 </i>
   <i name="e_wo_entrp">   -525.72169801 </i>
   <i name="e_0_energy">     -0.00000000 </i>
  </energy>
  <time name="totalsc"> 1888.68 1889.11</time>
  <eigenvalues>
   <array>
    <dimension dim="1">band</dimension>
    <dimension dim="2">kpoint</dimension>
    <dimension dim="3">spin</dimension>
    <field>eigene</field>
    <field>occ</field>
    <set>
     <set comment="spin 1">
      <set comment="kpoint 1">
       <r>  -51.7761    1.0000 </r>
       <r>  -51.7704    1.0000 </r>
       <r>  -51.7440    1.0000 </r>
       <r>  -51.6863    1.0000 </r>
       <r>  -51.6533    1.0000 </r>
       <r>  -51.6258    1.0000 </r>
       <r>  -51.6114    1.0000 </r>
       <r>  -51.5495    1.0000 </r>
       <r>  -51.5381    1.0000 </r>
       <r>  -51.4904    1.0000 </r>
       <r>  -51.4726    1.0000 </r>
       <r>  -51.4724    1.0000 </r>
       <r>  -51.4640    1.0000 </r>
       <r>  -51.4468    1.0000 </r>
       <r>  -51.4240    1.0000 </r>
       <r>  -51.3895    1.0000 </r>
       <r>  -51.3888    1.0000 </r>
       <r>  -51.3807    1.0000 </r>
       <r>  -51.3688    1.0000 </r>
       <r>  -51.3562    1.0000 </r>
       <r>  -51.3369    1.0000 </r>
       <r>  -51.3188    1.0000 </r>
       <r>  -51.2945    1.0000 </r>
       <r>  -51.2759    1.0000 </r>
       <r>  -51.2385    1.0000 </r>
       <r>  -51.2238    1.0000 </r>
       <r>  -51.1944    1.0000 </r>
       <r>  -51.1939    1.0000 </r>
       <r>  -51.1667    1.0000 </r>
       <r>  -51.1397    1.0000 </r>
       <r>  -51.0328    1.0000 </r>
       <r>  -50.9725    1.0000 </r>
       <r>  -30.4854    1.0000 </r>
       <r>  -30.4599    1.0000 </r>
       <r>  -30.4446    1.0000 </r>
       <r>  -30.4253    1.0000 </r>
       <r>  -30.4244    1.0000 </r>
       <r>  -30.4176    1.0000 </r>
       <r>  -30.4046    1.0000 </r>
       <r>  -30.3951    1.0000 </r>
       <r>  -30.3899    1.0000 </r>
       <r>  -30.3765    1.0000 </r>
       <r>  -30.3683    1.0000 </r>
       <r>  -30.3628    1.0000 </r>
       <r>  -30.3562    1.0000 </r>
       <r>  -30.3456    1.0000 </r>
       <r>  -30.3239    1.0000 </r>
       <r>  -30.3197    1.0000 </r>
       <r>  -30.3108    1.0000 </r>
       <r>  -30.2956    1.0000 </r>
       <r>  -30.2917    1.0000 </r>
       <r>  -30.2779    1.0000 </r>
       <r>  -30.2738    1.0000 </r>
       <r>  -30.2640    1.0000 </r>
       <r>  -30.2545    1.0000 </r>
       <r>  -30.2488    1.0000 </r>
       <r>  -30.2321    1.0000 </r>
       <r>  -30.2267    1.0000 </r>
       <r>  -30.2156    1.0000 </r>
       <r>  -30.2011    1.0000 </r>
       <r>  -30.1942    1.0000 </r>
       <r>  -30.1888    1.0000 </r>
       <r>  -30.1799    1.0000 </r>
       <r>  -30.1614    1.0000 </r>
       <r>  -30.1598    1.0000 </r>
       <r>  -30.1557    1.0000 </r>
       <r>  -30.1519    1.0000 </r>
       <r>  -30.1431    1.0000 </r>
       <r>  -30.1381    1.0000 </r>
       <r>  -30.1281    1.0000 </r>
       <r>  -30.1204    1.0000 </r>
       <r>  -30.1170    1.0000 </r>
       <r>  -30.1065    1.0000 </r>
       <r>  -30.0983    1.0000 </r>
       <r>  -30.0907    1.0000 </r>
       <r>  -30.0889    1.0000 </r>
       <r>  -30.0840    1.0000 </r>
       <r>  -30.0766    1.0000 </r>
       <r>  -30.0729    1.0000 </r>
       <r>  -30.0703    1.0000 </r>
       <r>  -30.0694    1.0000 </r>
       <r>  -30.0643    1.0000 </r>
       <r>  -30.0604    1.0000 </r>
       <r>  -30.0570    1.0000 </r>
       <r>  -30.0396    1.0000 </r>
       <r>  -30.0352    1.0000 </r>
       <r>  -30.0263    1.0000 </r>
       <r>  -30.0205    1.0000 </r>
       <r>  -30.0159    1.0000 </r>
       <r>  -30.0086    1.0000 </r>
       <r>  -30.0041    1.0000 </r>
       <r>  -30.0008    1.0000 </r>
       <r>  -29.9978    1.0000 </r>
       <r>  -29.9941    1.0000 </r>
       <r>  -29.9812    1.0000 </r>
       <r>  -29.9752    1.0000 </r>
       <r>  -29.9602    1.0000 </r>
       <r>  -29.9572    1.0000 </r>
       <r>  -29.9476    1.0000 </r>
       <r>  -29.9318    1.0000 </r>
       <r>  -29.9219    1.0000 </r>
       <r>  -29.9199    1.0000 </r>
       <r>  -29.9138    1.0000 </r>
       <r>  -29.9059    1.0000 </r>
       <r>  -29.9035    1.0000 </r>
       <r>  -29.8975    1.0000 </r>
       <r>  -29.8914    1.0000 </r>
       <r>  -29.8868    1.0000 </r>
       <r>  -29.8753    1.0000 </r>
       <r>  -29.8604    1.0000 </r>
       <r>  -29.8532    1.0000 </r>
       <r>  -29.8488    1.0000 </r>
       <r>  -29.8451    1.0000 </r>
       <r>  -29.8365    1.0000 </r>
       <r>  -29.8251    1.0000 </r>
       <r>  -29.8191    1.0000 </r>
       <r>  -29.8114    1.0000 </r>
       <r>  -29.8104    1.0000 </r>
       <r>  -29.8018    1.0000 </r>
       <r>  -29.7989    1.0000 </r>
       <r>  -29.7683    1.0000 </r>
       <r>  -29.7320    1.0000 </r>
       <r>  -29.7088    1.0000 </r>
       <r>  -29.6969    1.0000 </r>
       <r>  -29.6839    1.0000 </r>
       <r>  -29.6556    1.0000 </r>
       <r>  -29.6340    1.0000 </r>
       <r>  -29.6117    1.0000 </r>
       <r>  -18.6130    1.0000 </r>
       <r>  -18.5943    1.0000 </r>
       <r>  -18.5245    1.0000 </r>
       <r>  -18.4423    1.0000 </r>
       <r>  -18.3944    1.0000 </r>
       <r>  -18.3527    1.0000 </r>
       <r>  -18.3109    1.0000 </r>
       <r>  -18.2930    1.0000 </r>
       <r>  -18.2883    1.0000 </r>
       <r>  -18.2502    1.0000 </r>
       <r>  -18.1590    1.0000 </r>
       <r>  -18.1369    1.0000 </r>
       <r>  -18.1023    1.0000 </r>
       <r>  -18.0801    1.0000 </r>
       <r>  -18.0458    1.0000 </r>
       <r>  -18.0252    1.0000 </r>
       <r>  -17.9883    1.0000 </r>
       <r>  -17.9700    1.0000 </r>
       <r>  -17.9239    1.0000 </r>
       <r>  -17.9167    1.0000 </r>
       <r>  -17.8779    1.0000 </r>
       <r>  -17.8665    1.0000 </r>
       <r>  -17.8462    1.0000 </r>
       <r>  -17.8330    1.0000 </r>
       <r>  -17.8278    1.0000 </r>
       <r>  -17.7497    1.0000 </r>
       <r>  -17.7402    1.0000 </r>
       <r>  -17.6890    1.0000 </r>
       <r>  -17.6584    1.0000 </r>
       <r>  -17.5662    1.0000 </r>
       <r>  -17.5194    1.0000 </r>
       <r>  -17.1841    1.0000 </r>
       <r>  -11.8010    1.0000 </r>
       <r>  -11.4967    1.0000 </r>
       <r>  -11.4568    1.0000 </r>
       <r>  -11.3967    1.0000 </r>
       <r>  -11.3802    1.0000 </r>
       <r>  -11.3265    1.0000 </r>
       <r>  -11.2880    1.0000 </r>
       <r>  -11.0129    1.0000 </r>
       <r>  -10.9636    1.0000 </r>
       <r>  -10.9340    1.0000 </r>
       <r>  -10.9103    1.0000 </r>
       <r>  -10.8814    1.0000 </r>
       <r>  -10.8258    1.0000 </r>
       <r>  -10.8206    1.0000 </r>
       <r>  -10.7947    1.0000 </r>
       <r>  -10.7309    1.0000 </r>
       <r>   -8.0357    1.0000 </r>
       <r>   -7.9966    1.0000 </r>
       <r>   -7.9755    1.0000 </r>
       <r>   -7.8620    1.0000 </r>
       <r>   -7.7780    1.0000 </r>
       <r>   -7.7561    1.0000 </r>
       <r>   -7.5993    1.0000 </r>
       <r>   -7.5795    1.0000 </r>
       <r>   -7.5684    1.0000 </r>
       <r>   -7.5549    1.0000 </r>
       <r>   -7.5155    1.0000 </r>
       <r>   -7.5010    1.0000 </r>
       <r>   -7.4713    1.0000 </r>
       <r>   -7.4491    1.0000 </r>
       <r>   -7.4200    1.0000 </r>
       <r>   -7.3761    1.0000 </r>
       <r>   -7.3571    1.0000 </r>
       <r>   -7.2966    1.0000 </r>
       <r>   -7.2305    1.0000 </r>
       <r>   -7.2042    1.0000 </r>
       <r>   -7.1730    1.0000 </r>
       <r>   -7.1102    1.0000 </r>
       <r>   -7.0948    1.0000 </r>
       <r>   -7.0604    1.0000 </r>
       <r>   -7.0360    1.0000 </r>
       <r>   -6.9904    1.0000 </r>
       <r>   -6.9700    1.0000 </r>
       <r>   -6.9207    1.0000 </r>
       <r>   -6.9129    1.0000 </r>
       <r>   -6.8775    1.0000 </r>
       <r>   -6.8650    1.0000 </r>
       <r>   -6.8621    1.0000 </r>
       <r>   -6.8351    1.0000 </r>
       <r>   -6.8155    1.0000 </r>
       <r>   -6.8065    1.0000 </r>
       <r>   -6.7871    1.0000 </r>
       <r>   -6.7723    1.0000 </r>
       <r>   -6.7502    1.0000 </r>
       <r>   -6.7316    1.0000 </r>
       <r>   -6.6989    1.0000 </r>
       <r>   -6.6873    1.0000 </r>
       <r>   -6.6739    1.0000 </r>
       <r>   -6.6639    1.0000 </r>
       <r>   -6.6447    1.0000 </r>
       <r>   -6.6302    1.0000 </r>
       <r>   -6.6203    1.0000 </r>
       <r>   -6.5971    1.0000 </r>
       <r>   -6.5885    1.0000 </r>
       <r>   -6.5703    1.0000 </r>
       <r>   -6.5623    1.0000 </r>
       <r>   -6.5596    1.0000 </r>
       <r>   -6.5503    1.0000 </r>
       <r>   -6.5319    1.0000 </r>
       <r>   -6.5226    1.0000 </r>
       <r>   -6.5030    1.0000 </r>
       <r>   -6.4951    1.0000 </r>
       <r>   -6.4749    1.0000 </r>
       <r>   -6.4668    1.0000 </r>
       <r>   -6.4444    1.0000 </r>
       <r>   -6.4384    1.0000 </r>
       <r>   -6.4038    1.0000 </r>
       <r>   -6.3840    1.0000 </r>
       <r>   -6.3756    1.0000 </r>
       <r>   -6.3638    1.0000 </r>
       <r>   -6.3399    1.0000 </r>
       <r>   -6.3096    1.0000 </r>
       <r>   -6.3053    1.0000 </r>
       <r>   -6.2772    1.0000 </r>
       <r>   -6.2606    1.0000 </r>
       <r>   -6.2394    1.0000 </r>
       <r>   -6.1821    1.0000 </r>
       <r>   -6.1554    1.0000 </r>
       <r>   -6.0878    1.0000 </r>
       <r>   -5.9705    1.0000 </r>
       <r>   -5.9670    1.0000 </r>
       <r>   -5.9236    1.0000 </r>
       <r>   -5.8782    1.0000 </r>
       <r>   -5.7956    1.0000 </r>
       <r>   -5.7725    1.0000 </r>
       <r>   -5.7111    1.0000 </r>
       <r>   -5.7029    1.0000 </r>
       <r>   -5.6461    1.0000 </r>
       <r>   -5.6016    1.0000 </r>
       <r>   -5.5948    1.0000 </r>
       <r>   -5.5122    1.0000 </r>
       <r>   -5.5022    1.0000 </r>
       <r>   -5.4946    1.0000 </r>
       <r>   -5.4660    1.0000 </r>
       <r>   -5.4562    1.0000 </r>
       <r>   -5.3924    1.0000 </r>
       <r>   -5.3458    1.0000 </r>
       <r>   -5.2370    1.0000 </r>
       <r>   -5.2035    1.0000 </r>
       <r>   -5.1011    1.0000 </r>
       <r>   -5.0917    1.0000 </r>
       <r>   -4.9825    1.0000 </r>
       <r>   -4.9190    1.0000 </r>
       <r>   -4.8117    1.0000 </r>
       <r>   -4.7418    1.0000 </r>
       <r>   -4.6855    1.0000 </r>
       <r>   -4.6563    1.0000 </r>
       <r>   -4.6062    1.0000 </r>
       <r>   -4.5655    1.0000 </r>
       <r>   -4.5091    1.0000 </r>
       <r>   -4.4827    1.0000 </r>
       <r>   -4.3166    1.0000 </r>
       <r>   -4.2248    1.0000 </r>
       <r>   -4.2048    1.0000 </r>
       <r>   -4.1479    1.0000 </r>
       <r>   -4.1244    1.0000 </r>
       <r>   -4.0891    1.0000 </r>
       <r>   -4.0838    1.0000 </r>
       <r>   -4.0446    1.0000 </r>
       <r>   -4.0147    1.0000 </r>
       <r>   -4.0002    1.0000 </r>
       <r>   -3.9886    1.0000 </r>
       <r>   -3.9497    1.0000 </r>
       <r>   -3.9278    1.0000 </r>
       <r>   -3.9160    1.0000 </r>
       <r>   -3.9008    1.0000 </r>
       <r>   -3.8166    1.0000 </r>
       <r>   -3.8065    1.0000 </r>
       <r>   -3.7706    1.0000 </r>
       <r>   -3.7476    1.0000 </r>
       <r>   -3.7159    1.0000 </r>
       <r>   -3.7086    1.0000 </r>
       <r>   -3.6381    1.0000 </r>
       <r>   -3.6050    1.0000 </r>
       <r>   -3.5630    1.0000 </r>
       <r>   -3.5245    1.0000 </r>
       <r>   -3.5204    1.0000 </r>
       <r>   -3.5007    1.0000 </r>
       <r>   -3.4802    1.0000 </r>
       <r>   -3.4162    1.0000 </r>
       <r>   -3.3808    1.0000 </r>
       <r>   -3.3032    1.0000 </r>
       <r>   -3.2932    1.0000 </r>
       <r>   -3.2858    1.0000 </r>
       <r>   -3.2444    1.0000 </r>
       <r>   -3.1860    1.0000 </r>
       <r>   -3.1683    1.0000 </r>
       <r>   -3.1294    1.0000 </r>
       <r>   -3.0011    1.0000 </r>
       <r>   -2.9469    1.0000 </r>
       <r>   -2.1345    0.0000 </r>
       <r>   -2.0861    0.0000 </r>
       <r>   -2.0566    0.0000 </r>
       <r>   -1.5180    0.0000 </r>
       <r>   -1.4765    0.0000 </r>
       <r>   -1.4599    0.0000 </r>
       <r>   -1.4461    0.0000 </r>
       <r>   -1.3745    0.0000 </r>
       <r>   -1.3634    0.0000 </r>
       <r>   -0.7678    0.0000 </r>
       <r>   -0.6892    0.0000 </r>
       <r>   -0.6666    0.0000 </r>
       <r>   -0.6019    0.0000 </r>
       <r>   -0.5807    0.0000 </r>
       <r>   -0.5543    0.0000 </r>
       <r>   -0.5338    0.0000 </r>
       <r>   -0.5154    0.0000 </r>
       <r>   -0.4892    0.0000 </r>
       <r>   -0.4705    0.0000 </r>
       <r>   -0.4316    0.0000 </r>
       <r>   -0.3919    0.0000 </r>
       <r>   -0.3738    0.0000 </r>
       <r>   -0.3302    0.0000 </r>
       <r>   -0.2744    0.0000 </r>
       <r>    0.0477    0.0000 </r>
       <r>    0.0907    0.0000 </r>
       <r>    0.1207    0.0000 </r>
       <r>    0.1264    0.0000 </r>
       <r>    0.1473    0.0000 </r>
       <r>    0.1868    0.0000 </r>
       <r>    0.2079    0.0000 </r>
       <r>    0.2323    0.0000 </r>
       <r>    0.2465    0.0000 </r>
       <r>    0.2723    0.0000 </r>
       <r>    0.3121    0.0000 </r>
       <r>    0.3445    0.0000 </r>
       <r>    0.5601    0.0000 </r>
       <r>    0.5904    0.0000 </r>
       <r>    0.6163    0.0000 </r>
       <r>    0.6194    0.0000 </r>
       <r>    0.6280    0.0000 </r>
       <r>    0.6620    0.0000 </r>
       <r>    0.6803    0.0000 </r>
       <r>    0.7058    0.0000 </r>
       <r>    0.7396    0.0000 </r>
       <r>    0.7457    0.0000 </r>
       <r>    0.7512    0.0000 </r>
       <r>    0.7828    0.0000 </r>
       <r>    0.8013    0.0000 </r>
       <r>    0.8149    0.0000 </r>
       <r>    0.8188    0.0000 </r>
       <r>    0.8299    0.0000 </r>
       <r>    0.8367    0.0000 </r>
       <r>    0.8502    0.0000 </r>
       <r>    0.8789    0.0000 </r>
       <r>    0.8978    0.0000 </r>
       <r>    0.9100    0.0000 </r>
       <r>    0.9291    0.0000 </r>
       <r>    0.9424    0.0000 </r>
       <r>    0.9780    0.0000 </r>
       <r>    0.9889    0.0000 </r>
       <r>    1.0066    0.0000 </r>
       <r>    1.0256    0.0000 </r>
       <r>    1.0517    0.0000 </r>
      </set>
      <set comment="kpoint 2">
       <r>  -51.7761    1.0000 </r>
       <r>  -51.7704    1.0000 </r>
       <r>  -51.7440    1.0000 </r>
       <r>  -51.6863    1.0000 </r>
       <r>  -51.6533    1.0000 </r>
       <r>  -51.6258    1.0000 </r>
       <r>  -51.6114    1.0000 </r>
       <r>  -51.5495    1.0000 </r>
       <r>  -51.5381    1.0000 </r>
       <r>  -51.4904    1.0000 </r>
       <r>  -51.4725    1.0000 </r>
       <r>  -51.4724    1.0000 </r>
       <r>  -51.4640    1.0000 </r>
       <r>  -51.4468    1.0000 </r>
       <r>  -51.4240    1.0000 </r>
       <r>  -51.3895    1.0000 </r>
       <r>  -51.3888    1.0000 </r>
       <r>  -51.3807    1.0000 </r>
       <r>  -51.3688    1.0000 </r>
       <r>  -51.3562    1.0000 </r>
       <r>  -51.3369    1.0000 </r>
       <r>  -51.3188    1.0000 </r>
       <r>  -51.2945    1.0000 </r>
       <r>  -51.2759    1.0000 </r>
       <r>  -51.2385    1.0000 </r>
       <r>  -51.2238    1.0000 </r>
       <r>  -51.1944    1.0000 </r>
       <r>  -51.1939    1.0000 </r>
       <r>  -51.1667    1.0000 </r>
       <r>  -51.1397    1.0000 </r>
       <r>  -51.0328    1.0000 </r>
       <r>  -50.9725    1.0000 </r>
       <r>  -30.4843    1.0000 </r>
       <r>  -30.4597    1.0000 </r>
       <r>  -30.4442    1.0000 </r>
       <r>  -30.4249    1.0000 </r>
       <r>  -30.4241    1.0000 </r>
       <r>  -30.4180    1.0000 </r>
       <r>  -30.4045    1.0000 </r>
       <r>  -30.3985    1.0000 </r>
       <r>  -30.3891    1.0000 </r>
       <r>  -30.3761    1.0000 </r>
       <r>  -30.3666    1.0000 </r>
       <r>  -30.3636    1.0000 </r>
       <r>  -30.3578    1.0000 </r>
       <r>  -30.3450    1.0000 </r>
       <r>  -30.3230    1.0000 </r>
       <r>  -30.3187    1.0000 </r>
       <r>  -30.3114    1.0000 </r>
       <r>  -30.2950    1.0000 </r>
       <r>  -30.2916    1.0000 </r>
       <r>  -30.2802    1.0000 </r>
       <r>  -30.2713    1.0000 </r>
       <r>  -30.2654    1.0000 </r>
       <r>  -30.2563    1.0000 </r>
       <r>  -30.2515    1.0000 </r>
       <r>  -30.2281    1.0000 </r>
       <r>  -30.2251    1.0000 </r>
       <r>  -30.2151    1.0000 </r>
       <r>  -30.2080    1.0000 </r>
       <r>  -30.1949    1.0000 </r>
       <r>  -30.1905    1.0000 </r>
       <r>  -30.1741    1.0000 </r>
       <r>  -30.1630    1.0000 </r>
       <r>  -30.1595    1.0000 </r>
       <r>  -30.1550    1.0000 </r>
       <r>  -30.1500    1.0000 </r>
       <r>  -30.1432    1.0000 </r>
       <r>  -30.1385    1.0000 </r>
       <r>  -30.1273    1.0000 </r>
       <r>  -30.1236    1.0000 </r>
       <r>  -30.1157    1.0000 </r>
       <r>  -30.1079    1.0000 </r>
       <r>  -30.0973    1.0000 </r>
       <r>  -30.0899    1.0000 </r>
       <r>  -30.0866    1.0000 </r>
       <r>  -30.0846    1.0000 </r>
       <r>  -30.0793    1.0000 </r>
       <r>  -30.0734    1.0000 </r>
       <r>  -30.0714    1.0000 </r>
       <r>  -30.0664    1.0000 </r>
       <r>  -30.0639    1.0000 </r>
       <r>  -30.0593    1.0000 </r>
       <r>  -30.0584    1.0000 </r>
       <r>  -30.0390    1.0000 </r>
       <r>  -30.0378    1.0000 </r>
       <r>  -30.0232    1.0000 </r>
       <r>  -30.0197    1.0000 </r>
       <r>  -30.0166    1.0000 </r>
       <r>  -30.0093    1.0000 </r>
       <r>  -30.0062    1.0000 </r>
       <r>  -30.0013    1.0000 </r>
       <r>  -29.9941    1.0000 </r>
       <r>  -29.9934    1.0000 </r>
       <r>  -29.9815    1.0000 </r>
       <r>  -29.9752    1.0000 </r>
       <r>  -29.9611    1.0000 </r>
       <r>  -29.9583    1.0000 </r>
       <r>  -29.9460    1.0000 </r>
       <r>  -29.9323    1.0000 </r>
       <r>  -29.9233    1.0000 </r>
       <r>  -29.9200    1.0000 </r>
       <r>  -29.9137    1.0000 </r>
       <r>  -29.9059    1.0000 </r>
       <r>  -29.9032    1.0000 </r>
       <r>  -29.8987    1.0000 </r>
       <r>  -29.8915    1.0000 </r>
       <r>  -29.8867    1.0000 </r>
       <r>  -29.8753    1.0000 </r>
       <r>  -29.8591    1.0000 </r>
       <r>  -29.8523    1.0000 </r>
       <r>  -29.8487    1.0000 </r>
       <r>  -29.8446    1.0000 </r>
       <r>  -29.8362    1.0000 </r>
       <r>  -29.8245    1.0000 </r>
       <r>  -29.8195    1.0000 </r>
       <r>  -29.8127    1.0000 </r>
       <r>  -29.8102    1.0000 </r>
       <r>  -29.8020    1.0000 </r>
       <r>  -29.7988    1.0000 </r>
       <r>  -29.7679    1.0000 </r>
       <r>  -29.7319    1.0000 </r>
       <r>  -29.7090    1.0000 </r>
       <r>  -29.6973    1.0000 </r>
       <r>  -29.6839    1.0000 </r>
       <r>  -29.6559    1.0000 </r>
       <r>  -29.6342    1.0000 </r>
       <r>  -29.6117    1.0000 </r>
       <r>  -18.6009    1.0000 </r>
       <r>  -18.5874    1.0000 </r>
       <r>  -18.5342    1.0000 </r>
       <r>  -18.4555    1.0000 </r>
       <r>  -18.3932    1.0000 </r>
       <r>  -18.3693    1.0000 </r>
       <r>  -18.3339    1.0000 </r>
       <r>  -18.2908    1.0000 </r>
       <r>  -18.2848    1.0000 </r>
       <r>  -18.2002    1.0000 </r>
       <r>  -18.1839    1.0000 </r>
       <r>  -18.1387    1.0000 </r>
       <r>  -18.0747    1.0000 </r>
       <r>  -18.0740    1.0000 </r>
       <r>  -18.0415    1.0000 </r>
       <r>  -18.0359    1.0000 </r>
       <r>  -17.9825    1.0000 </r>
       <r>  -17.9736    1.0000 </r>
       <r>  -17.9338    1.0000 </r>
       <r>  -17.9149    1.0000 </r>
       <r>  -17.8845    1.0000 </r>
       <r>  -17.8746    1.0000 </r>
       <r>  -17.8430    1.0000 </r>
       <r>  -17.8342    1.0000 </r>
       <r>  -17.8121    1.0000 </r>
       <r>  -17.7609    1.0000 </r>
       <r>  -17.7438    1.0000 </r>
       <r>  -17.6854    1.0000 </r>
       <r>  -17.6615    1.0000 </r>
[...]
       <r>   -32.3344     0.0000    64.0000 </r>
       <r>   -32.1407     0.0000    64.0000 </r>
       <r>   -31.9470     0.0000    64.0000 </r>
       <r>   -31.7533     0.0000    64.0000 </r>
       <r>   -31.5596     0.0000    64.0000 </r>
       <r>   -31.3659     0.0000    64.0000 </r>
       <r>   -31.1722     0.0000    64.0000 </r>
       <r>   -30.9784     0.0000    64.0000 </r>
       <r>   -30.7847     0.0000    64.0000 </r>
       <r>   -30.5910     0.0148    64.0029 </r>
       <r>   -30.3973    77.5718    79.0295 </r>
       <r>   -30.2036   210.3115   119.7695 </r>
       <r>   -30.0099   306.2725   179.0983 </r>
       <r>   -29.8162   270.2449   231.4481 </r>
       <r>   -29.6225   114.0632   253.5435 </r>
       <r>   -29.4287    12.6810   256.0000 </r>
       <r>   -29.2350     0.0000   256.0000 </r>
       <r>   -29.0413     0.0000   256.0000 </r>
       <r>   -28.8476     0.0000   256.0000 </r>
       <r>   -28.6539     0.0000   256.0000 </r>
       <r>   -28.4602     0.0000   256.0000 </r>
       <r>   -28.2665     0.0000   256.0000 </r>
       <r>   -28.0728     0.0000   256.0000 </r>
       <r>   -27.8790     0.0000   256.0000 </r>
       <r>   -27.6853     0.0000   256.0000 </r>
       <r>   -27.4916     0.0000   256.0000 </r>
       <r>   -27.2979     0.0000   256.0000 </r>
       <r>   -27.1042     0.0000   256.0000 </r>
       <r>   -26.9105     0.0000   256.0000 </r>
       <r>   -26.7168     0.0000   256.0000 </r>
       <r>   -26.5231     0.0000   256.0000 </r>
       <r>   -26.3293     0.0000   256.0000 </r>
       <r>   -26.1356     0.0000   256.0000 </r>
       <r>   -25.9419     0.0000   256.0000 </r>
       <r>   -25.7482     0.0000   256.0000 </r>
       <r>   -25.5545     0.0000   256.0000 </r>
       <r>   -25.3608     0.0000   256.0000 </r>
       <r>   -25.1671     0.0000   256.0000 </r>
       <r>   -24.9734     0.0000   256.0000 </r>
       <r>   -24.7796     0.0000   256.0000 </r>
       <r>   -24.5859     0.0000   256.0000 </r>
       <r>   -24.3922     0.0000   256.0000 </r>
       <r>   -24.1985     0.0000   256.0000 </r>
       <r>   -24.0048     0.0000   256.0000 </r>
       <r>   -23.8111     0.0000   256.0000 </r>
       <r>   -23.6174     0.0000   256.0000 </r>
       <r>   -23.4237     0.0000   256.0000 </r>
       <r>   -23.2299     0.0000   256.0000 </r>
       <r>   -23.0362     0.0000   256.0000 </r>
       <r>   -22.8425     0.0000   256.0000 </r>
       <r>   -22.6488     0.0000   256.0000 </r>
       <r>   -22.4551     0.0000   256.0000 </r>
       <r>   -22.2614     0.0000   256.0000 </r>
       <r>   -22.0677     0.0000   256.0000 </r>
       <r>   -21.8740     0.0000   256.0000 </r>
       <r>   -21.6802     0.0000   256.0000 </r>
       <r>   -21.4865     0.0000   256.0000 </r>
       <r>   -21.2928     0.0000   256.0000 </r>
       <r>   -21.0991     0.0000   256.0000 </r>
       <r>   -20.9054     0.0000   256.0000 </r>
       <r>   -20.7117     0.0000   256.0000 </r>
       <r>   -20.5180     0.0000   256.0000 </r>
       <r>   -20.3243     0.0000   256.0000 </r>
       <r>   -20.1305     0.0000   256.0000 </r>
       <r>   -19.9368     0.0000   256.0000 </r>
       <r>   -19.7431     0.0000   256.0000 </r>
       <r>   -19.5494     0.0000   256.0000 </r>
       <r>   -19.3557     0.0000   256.0000 </r>
       <r>   -19.1620     0.0000   256.0000 </r>
       <r>   -18.9683     0.0000   256.0000 </r>
       <r>   -18.7746     0.0000   256.0000 </r>
       <r>   -18.5808    14.1599   258.7429 </r>
       <r>   -18.3871    37.0184   265.9139 </r>
       <r>   -18.1934    52.4693   276.0778 </r>
       <r>   -17.9997    65.2905   288.7254 </r>
       <r>   -17.8060    82.4873   304.7042 </r>
       <r>   -17.6123    48.1292   314.0275 </r>
       <r>   -17.4186    20.4742   317.9936 </r>
       <r>   -17.2249     1.3157   318.2484 </r>
       <r>   -17.0311     9.0420   320.0000 </r>
       <r>   -16.8374     0.0001   320.0000 </r>
       <r>   -16.6437     0.0000   320.0000 </r>
       <r>   -16.4500     0.0000   320.0000 </r>
       <r>   -16.2563     0.0000   320.0000 </r>
       <r>   -16.0626     0.0000   320.0000 </r>
       <r>   -15.8689     0.0000   320.0000 </r>
       <r>   -15.6752     0.0000   320.0000 </r>
       <r>   -15.4814     0.0000   320.0000 </r>
       <r>   -15.2877     0.0000   320.0000 </r>
       <r>   -15.0940     0.0000   320.0000 </r>
       <r>   -14.9003     0.0000   320.0000 </r>
       <r>   -14.7066     0.0000   320.0000 </r>
       <r>   -14.5129     0.0000   320.0000 </r>
       <r>   -14.3192     0.0000   320.0000 </r>
       <r>   -14.1255     0.0000   320.0000 </r>
       <r>   -13.9317     0.0000   320.0000 </r>
       <r>   -13.7380     0.0000   320.0000 </r>
       <r>   -13.5443     0.0000   320.0000 </r>
       <r>   -13.3506     0.0000   320.0000 </r>
       <r>   -13.1569     0.0000   320.0000 </r>
       <r>   -12.9632     0.0000   320.0000 </r>
       <r>   -12.7695     0.0000   320.0000 </r>
       <r>   -12.5758     0.0000   320.0000 </r>
       <r>   -12.3820     0.0000   320.0000 </r>
       <r>   -12.1883     0.0000   320.0000 </r>
       <r>   -11.9946     0.0000   320.0000 </r>
       <r>   -11.8009     1.1364   320.2201 </r>
       <r>   -11.6072    16.2720   323.3722 </r>
       <r>   -11.4135    20.3230   327.3090 </r>
       <r>   -11.2198    20.3853   331.2579 </r>
       <r>   -11.0261    30.2075   337.1095 </r>
       <r>   -10.8323    40.5067   344.9561 </r>
       <r>   -10.6386    36.1729   351.9633 </r>
       <r>   -10.4449     0.1895   352.0000 </r>
       <r>   -10.2512     0.0000   352.0000 </r>
       <r>   -10.0575     0.0000   352.0000 </r>
       <r>    -9.8638     0.0000   352.0000 </r>
       <r>    -9.6701     0.0000   352.0000 </r>
       <r>    -9.4764     0.0000   352.0000 </r>
       <r>    -9.2826     0.0000   352.0000 </r>
       <r>    -9.0889     0.0000   352.0000 </r>
       <r>    -8.8952     0.0000   352.0000 </r>
       <r>    -8.7015     0.0000   352.0000 </r>
       <r>    -8.5078     0.0000   352.0000 </r>
       <r>    -8.3141     0.0000   352.0000 </r>
       <r>    -8.1204     0.0098   352.0019 </r>
       <r>    -7.9267    10.3455   354.0059 </r>
       <r>    -7.7329    38.8945   361.5403 </r>
       <r>    -7.5392    59.1876   373.0057 </r>
       <r>    -7.3455    65.6153   385.7162 </r>
       <r>    -7.1518    59.1599   397.1762 </r>
       <r>    -6.9581    72.1231   411.1473 </r>
       <r>    -6.7644    88.4974   428.2904 </r>
       <r>    -6.5707   107.6502   449.1436 </r>
       <r>    -6.3770   109.3335   470.3228 </r>
       <r>    -6.1832    78.0022   485.4328 </r>
       <r>    -5.9895    56.1842   496.3164 </r>
       <r>    -5.7958    63.3502   508.5881 </r>
       <r>    -5.6021    62.7203   520.7379 </r>
       <r>    -5.4084    59.2959   532.2242 </r>
       <r>    -5.2147    26.3881   537.3359 </r>
       <r>    -5.0210    29.0201   542.9575 </r>
       <r>    -4.8273    13.7335   545.6178 </r>
       <r>    -4.6335    44.1421   554.1687 </r>
       <r>    -4.4398    42.4602   562.3938 </r>
       <r>    -4.2461    29.5552   568.1190 </r>
       <r>    -4.0524    29.4150   573.8170 </r>
       <r>    -3.8587    68.2607   587.0400 </r>
       <r>    -3.6650    80.6474   602.6624 </r>
       <r>    -3.4713    85.8935   619.3010 </r>
       <r>    -3.2776    58.0752   630.5509 </r>
       <r>    -3.0838    37.3826   637.7924 </r>
       <r>    -2.8901    11.3196   639.9852 </r>
       <r>    -2.6964     0.0767   640.0000 </r>
       <r>    -2.5027     0.0000   640.0000 </r>
       <r>    -2.3090     0.0000   640.0000 </r>
       <r>    -2.1153     1.1306   640.2190 </r>
       <r>    -1.9216     9.2907   642.0187 </r>
       <r>    -1.7279    21.8409   646.2496 </r>
       <r>    -1.5341    12.9390   648.7560 </r>
       <r>    -1.3404    20.1535   652.6600 </r>
       <r>    -1.1467    21.6355   656.8511 </r>
       <r>    -0.9530    36.9377   664.0064 </r>
       <r>    -0.7593     9.6051   665.8670 </r>
       <r>    -0.5656    29.2408   671.5313 </r>
       <r>    -0.3719    37.5618   678.8075 </r>
       <r>    -0.1782    28.6742   684.3621 </r>
       <r>     0.0156    32.8296   690.7216 </r>
       <r>     0.2093    36.9285   697.8751 </r>
       <r>     0.4030    35.2184   704.6973 </r>
       <r>     0.5967    53.8663   715.1319 </r>
       <r>     0.7904   116.0428   737.6109 </r>
       <r>     0.9841   123.3280   761.5010 </r>
       <r>     1.1778    33.5485   767.9998 </r>
       <r>     1.3715     0.0010   768.0000 </r>
       <r>     1.5653     0.0000   768.0000 </r>
       <r>     1.7590     0.0000   768.0000 </r>
       <r>     1.9527     0.0000   768.0000 </r>
       <r>     2.1464     0.0000   768.0000 </r>
       <r>     2.3401     0.0000   768.0000 </r>
       <r>     2.5338     0.0000   768.0000 </r>
       <r>     2.7275     0.0000   768.0000 </r>
       <r>     2.9212     0.0000   768.0000 </r>
       <r>     3.1150     0.0000   768.0000 </r>
       <r>     3.3087     0.0000   768.0000 </r>
       <r>     3.5024     0.0000   768.0000 </r>
       <r>     3.6961     0.0000   768.0000 </r>
      </set>
     </set>
    </array>
   </total>
  </dos>
 </calculation>
 <structure name="finalpos" >
  <crystal>
   <varray name="basis" >
    <v>      13.79398668       0.00000000       0.00000000 </v>
    <v>      -6.89699334      11.94594288       0.00000000 </v>
    <v>       0.00000000       0.00000000      27.81022107 </v>
   </varray>
   <i name="volume">   4582.62876984 </i>
   <varray name="rec_basis" >
    <v>       0.07249536       0.04185521       0.00000000 </v>
    <v>       0.00000000       0.08371043       0.00000000 </v>
    <v>       0.00000000       0.00000000       0.03595800 </v>
   </varray>
  </crystal>
  <varray name="positions" >
   <v>       0.07591670       0.16258380       0.54730678 </v>
   <v>       0.07961696       0.41987978       0.54970985 </v>
   <v>       0.08319703       0.66025042       0.54189636 </v>
   <v>       0.08717709       0.91898185       0.53745860 </v>
   <v>       0.32476431       0.16031170       0.54281593 </v>
   <v>       0.33381252       0.40862001       0.54803832 </v>
   <v>       0.34290000       0.67208259       0.54612506 </v>
   <v>       0.33283496       0.91666025       0.53996861 </v>
   <v>       0.57853401       0.16743112       0.54649182 </v>
   <v>       0.58746129       0.41438445       0.54417419 </v>
   <v>       0.59555517       0.67006626       0.54804184 </v>
   <v>       0.58492006       0.91564406       0.54139712 </v>
   <v>       0.82974851       0.17272474       0.54960809 </v>
   <v>       0.82930381       0.41146449       0.54075156 </v>
   <v>       0.84303149       0.67322501       0.54113212 </v>
   <v>       0.83064811       0.90582319       0.54471385 </v>
   <v>       0.15945171       0.09121568       0.45446119 </v>
   <v>       0.17024483       0.33199344       0.45814657 </v>
   <v>       0.17517986       0.59576053       0.45731309 </v>
   <v>       0.16991312       0.83425270       0.44816609 </v>
   <v>       0.43122684       0.09307139       0.45333837 </v>
   <v>       0.41612573       0.33683933       0.45905484 </v>
   <v>       0.41525738       0.58116148       0.45897960 </v>
   <v>       0.42276928       0.84458731       0.45330948 </v>
   <v>       0.65650020       0.08118183       0.45466255 </v>
   <v>       0.66504652       0.33027422       0.45294834 </v>
   <v>       0.66318497       0.57855441       0.45283458 </v>
   <v>       0.66841710       0.82869179       0.45453006 </v>
   <v>       0.90615647       0.08746247       0.45833107 </v>
   <v>       0.91228124       0.32191971       0.46036833 </v>
   <v>       0.91956824       0.57923972       0.45419070 </v>
   <v>       0.91726152       0.83258552       0.45618887 </v>
   <v>       0.07480287       0.17403219       0.39751775 </v>
   <v>       0.08016938       0.40624478       0.40351281 </v>
   <v>       0.09227019       0.66914317       0.39245167 </v>
   <v>       0.08416856       0.91299186       0.39221409 </v>
   <v>       0.34005960       0.16983787       0.39770450 </v>
   <v>       0.32593324       0.42171046       0.40176807 </v>
   <v>       0.32893146       0.66821268       0.39935805 </v>
   <v>       0.35036813       0.92917170       0.38895455 </v>
   <v>       0.58936248       0.16465798       0.39136395 </v>
   <v>       0.59721566       0.42796349       0.39667517 </v>
   <v>       0.57346955       0.66792385       0.39446436 </v>
   <v>       0.58360280       0.90925356       0.39379802 </v>
   <v>       0.83121797       0.16830699       0.39345021 </v>
   <v>       0.83743399       0.41786283       0.38519977 </v>
   <v>       0.83111645       0.66376152       0.39463510 </v>
   <v>       0.83115194       0.91867358       0.39988786 </v>
   <v>       0.16589968       0.08140628       0.59881331 </v>
   <v>       0.16905168       0.33764137       0.60726013 </v>
   <v>       0.17014056       0.59257214       0.61138805 </v>
   <v>       0.16577840       0.83546703       0.59802891 </v>
   <v>       0.41227818       0.08719930       0.60777963 </v>
   <v>       0.40956661       0.31951468       0.61106042 </v>
   <v>       0.42446116       0.57939921       0.60923913 </v>
   <v>       0.41818427       0.83099546       0.59715428 </v>
   <v>       0.63918397       0.07681106       0.60664893 </v>
   <v>       0.66953246       0.33032392       0.60372484 </v>
   <v>       0.66339319       0.56682681       0.60345102 </v>
   <v>       0.66624102       0.83695830       0.59993690 </v>
   <v>       0.89841569       0.07652764       0.61135888 </v>
   <v>       0.91297616       0.33045818       0.60858431 </v>
   <v>       0.92932504       0.58579098       0.60183604 </v>
   <v>       0.92385964       0.83775573       0.60514092 </v>
   <v>       0.00037679       0.00312998       0.49317515 </v>
   <v>       0.99746285       0.25123722       0.50607993 </v>
   <v>       0.99399001       0.48659356       0.50473261 </v>
   <v>       0.99444464       0.74311969       0.50114534 </v>
   <v>       0.24464758       0.99995284       0.49731873 </v>
   <v>       0.24725393       0.25126675       0.49908101 </v>
   <v>       0.25832373       0.51284209       0.50221129 </v>
   <v>       0.24845254       0.76226398       0.49646949 </v>
   <v>       0.50392523       0.00404382       0.50031714 </v>
   <v>       0.50671286       0.24934433       0.49855917 </v>
   <v>       0.50456258       0.49753427       0.50158115 </v>
   <v>       0.50645695       0.75103681       0.50147801 </v>
   <v>       0.74455236       0.99718282       0.49951471 </v>
   <v>       0.74031441       0.25078641       0.50104064 </v>
   <v>       0.75050495       0.49896524       0.49539411 </v>
   <v>       0.75885589       0.75830962       0.50230127 </v>
  </varray>
  <varray name="velocities" >
   <v>       0.00000000       0.00000000       0.00000000 </v>
   <v>       0.00000000       0.00000000       0.00000000 </v>
   <v>       0.00000000       0.00000000       0.00000000 </v>
   <v>       0.00000000       0.00000000       0.00000000 </v>
   <v>       0.00000000       0.00000000       0.00000000 </v>
   <v>       0.00000000       0.00000000       0.00000000 </v>
   <v>       0.00000000       0.00000000       0.00000000 </v>
   <v>       0.00000000       0.00000000       0.00000000 </v>
   <v>       0.00000000       0.00000000       0.00000000 </v>
   <v>       0.00000000       0.00000000       0.00000000 </v>
   <v>       0.00000000       0.00000000       0.00000000 </v>
   <v>       0.00000000       0.00000000       0.00000000 </v>
   <v>       0.00000000       0.00000000       0.00000000 </v>
   <v>       0.00000000       0.00000000       0.00000000 </v>
   <v>       0.00000000       0.00000000       0.00000000 </v>
   <v>       0.00000000       0.00000000       0.00000000 </v>
   <v>       0.00000000       0.00000000       0.00000000 </v>
   <v>       0.00000000       0.00000000       0.00000000 </v>
   <v>       0.00000000       0.00000000       0.00000000 </v>
   <v>       0.00000000       0.00000000       0.00000000 </v>
   <v>       0.00000000       0.00000000       0.00000000 </v>
   <v>       0.00000000       0.00000000       0.00000000 </v>
   <v>       0.00000000       0.00000000       0.00000000 </v>
   <v>       0.00000000       0.00000000       0.00000000 </v>
   <v>       0.00000000       0.00000000       0.00000000 </v>
   <v>       0.00000000       0.00000000       0.00000000 </v>
   <v>       0.00000000       0.00000000       0.00000000 </v>
   <v>       0.00000000       0.00000000       0.00000000 </v>
   <v>       0.00000000       0.00000000       0.00000000 </v>
   <v>       0.00000000       0.00000000       0.00000000 </v>
   <v>       0.00000000       0.00000000       0.00000000 </v>
   <v>       0.00000000       0.00000000       0.00000000 </v>
   <v>       0.00000000       0.00000000       0.00000000 </v>
   <v>       0.00000000       0.00000000       0.00000000 </v>
   <v>       0.00000000       0.00000000       0.00000000 </v>
   <v>       0.00000000       0.00000000       0.00000000 </v>
   <v>       0.00000000       0.00000000       0.00000000 </v>
   <v>       0.00000000       0.00000000       0.00000000 </v>
   <v>       0.00000000       0.00000000       0.00000000 </v>
   <v>       0.00000000       0.00000000       0.00000000 </v>
   <v>       0.00000000       0.00000000       0.00000000 </v>
   <v>       0.00000000       0.00000000       0.00000000 </v>
   <v>       0.00000000       0.00000000       0.00000000 </v>
   <v>       0.00000000       0.00000000       0.00000000 </v>
   <v>       0.00000000       0.00000000       0.00000000 </v>
   <v>       0.00000000       0.00000000       0.00000000 </v>
   <v>       0.00000000       0.00000000       0.00000000 </v>
   <v>       0.00000000       0.00000000       0.00000000 </v>
   <v>       0.00000000       0.00000000       0.00000000 </v>
   <v>       0.00000000       0.00000000       0.00000000 </v>
   <v>       0.00000000       0.00000000       0.00000000 </v>
   <v>       0.00000000       0.00000000       0.00000000 </v>
   <v>       0.00000000       0.00000000       0.00000000 </v>
   <v>       0.00000000       0.00000000       0.00000000 </v>
   <v>       0.00000000       0.00000000       0.00000000 </v>
   <v>       0.00000000       0.00000000       0.00000000 </v>
   <v>       0.00000000       0.00000000       0.00000000 </v>
   <v>       0.00000000       0.00000000       0.00000000 </v>
   <v>       0.00000000       0.00000000       0.00000000 </v>
   <v>       0.00000000       0.00000000       0.00000000 </v>
   <v>       0.00000000       0.00000000       0.00000000 </v>
   <v>       0.00000000       0.00000000       0.00000000 </v>
   <v>       0.00000000       0.00000000       0.00000000 </v>
   <v>       0.00000000       0.00000000       0.00000000 </v>
   <v>       0.00000000       0.00000000       0.00000000 </v>
   <v>       0.00000000       0.00000000       0.00000000 </v>
   <v>       0.00000000       0.00000000       0.00000000 </v>
   <v>       0.00000000       0.00000000       0.00000000 </v>
   <v>       0.00000000       0.00000000       0.00000000 </v>
   <v>       0.00000000       0.00000000       0.00000000 </v>
   <v>       0.00000000       0.00000000       0.00000000 </v>
   <v>       0.00000000       0.00000000       0.00000000 </v>
   <v>       0.00000000       0.00000000       0.00000000 </v>
   <v>       0.00000000       0.00000000       0.00000000 </v>
   <v>       0.00000000       0.00000000       0.00000000 </v>
   <v>       0.00000000       0.00000000       0.00000000 </v>
   <v>       0.00000000       0.00000000       0.00000000 </v>
   <v>       0.00000000       0.00000000       0.00000000 </v>
   <v>       0.00000000       0.00000000       0.00000000 </v>
   <v>       0.00000000       0.00000000       0.00000000 </v>
  </varray>
 </structure>
</modeling>
