 running on   48 total cores
 distrk:  each k-point on   48 cores,    1 groups
 distr:  one band on   12 cores,    4 groups
 using from now: INCAR     
 vasp.5.4.4.18Apr17-6-g9f103f2a35 (build Mar 16 2023 09:39:13) complex          
  
 POSCAR found type information on POSCAR  Ca Si O 
 POSCAR found :  3 types and     135 ions
 scaLAPACK is switched off
 LDA part: xc-table for Pade appr. of Perdew
 generate k-points for:    2    2    2
 POSCAR, INCAR and KPOINTS ok, starting setup
 FFT: planning ...
 WAVECAR not read
 entering main loop
       N       E                     dE             d eps       ncg     rms          rms(c)
DAV:   1     0.983847839733E+04    0.98385E+04   -0.48828E+05  8320   0.188E+03
DAV:   2     0.802112295289E+02   -0.97583E+04   -0.94272E+04  9528   0.514E+02
DAV:   3    -0.993235651711E+03   -0.10734E+04   -0.10662E+04  9984   0.172E+02
DAV:   4    -0.104382780005E+04   -0.50592E+02   -0.50384E+02 11448   0.335E+01
DAV:   5    -0.104815830934E+04   -0.43305E+01   -0.43280E+01 14624   0.744E+00    0.808E+01
DAV:   6    -0.920795936975E+03    0.12736E+03   -0.55495E+02 10320   0.374E+01    0.334E+01
DAV:   7    -0.923518764276E+03   -0.27228E+01   -0.64777E+01 11320   0.123E+01    0.164E+01
DAV:   8    -0.922621626178E+03    0.89714E+00   -0.10872E+01 10496   0.574E+00    0.706E+00
DAV:   9    -0.922291301964E+03    0.33032E+00   -0.20778E+00 10208   0.316E+00    0.216E+00
DAV:  10    -0.922354631939E+03   -0.63330E-01   -0.10495E+00 11856   0.177E+00    0.147E+00
DAV:  11    -0.922354123058E+03    0.50888E-03   -0.14583E-01 11456   0.728E-01    0.730E-01
DAV:  12    -0.922355404327E+03   -0.12813E-02   -0.29877E-02 10352   0.306E-01    0.260E-01
DAV:  13    -0.922356261930E+03   -0.85760E-03   -0.62710E-03 11776   0.169E-01    0.995E-02
DAV:  14    -0.922356353112E+03   -0.91182E-04   -0.20807E-03 11568   0.815E-02    0.833E-02
DAV:  15    -0.922356353751E+03   -0.63895E-06   -0.31814E-04 10808   0.288E-02    0.540E-02
DAV:  16    -0.922356336808E+03    0.16943E-04   -0.14015E-04  9968   0.275E-02    0.128E-02
DAV:  17    -0.922356338172E+03   -0.13638E-05   -0.49814E-05 12056   0.141E-02    0.758E-03
DAV:  18    -0.922356338114E+03    0.57727E-07   -0.13183E-05 10064   0.584E-03    0.601E-03
DAV:  19    -0.922356337790E+03    0.32394E-06   -0.18317E-06  6208   0.316E-03
   1 F= -.92235634E+03 E0= -.92235634E+03  d E =-.512070E-15
