 running on   52 total cores
 distrk:  each k-point on   52 cores,    1 groups
 distr:  one band on   13 cores,    4 groups
 using from now: INCAR     
 vasp.5.4.4.18Apr17-6-g9f103f2a35 (build Oct 31 2019 15:01:46) complex          
  
 POSCAR found type information on POSCAR  Ca Si O 
 POSCAR found :  3 types and     135 ions
 scaLAPACK is switched off
 LDA part: xc-table for Pade appr. of Perdew
 generate k-points for:    2    2    2
 POSCAR, INCAR and KPOINTS ok, starting setup
 FFT: planning ...
 WAVECAR not read
 entering main loop
       N       E                     dE             d eps       ncg     rms          rms(c)
DAV:   1     0.926386748828E+04    0.92639E+04   -0.46667E+05  8320   0.176E+03
DAV:   2     0.261235921926E+02   -0.92377E+04   -0.89570E+04 10152   0.460E+02
DAV:   3    -0.100278473242E+04   -0.10289E+04   -0.10185E+04 10232   0.155E+02
DAV:   4    -0.105155172012E+04   -0.48767E+02   -0.48598E+02 11440   0.323E+01
DAV:   5    -0.105772719790E+04   -0.61755E+01   -0.61725E+01 14760   0.713E+00    0.829E+01
DAV:   6    -0.899402922789E+03    0.15832E+03   -0.79639E+02  9936   0.432E+01    0.389E+01
DAV:   7    -0.903957217582E+03   -0.45543E+01   -0.12892E+02 10672   0.168E+01    0.267E+01
DAV:   8    -0.898192545903E+03    0.57647E+01   -0.28039E+01 11968   0.106E+01    0.183E+01
DAV:   9    -0.898016089256E+03    0.17646E+00   -0.28524E+01 10792   0.870E+00    0.216E+01
DAV:  10    -0.897660809323E+03    0.35528E+00   -0.84878E+00 11408   0.567E+00    0.134E+01
DAV:  11    -0.896246785401E+03    0.14140E+01   -0.42019E+00 10520   0.342E+00    0.100E+01
DAV:  12    -0.895786822110E+03    0.45996E+00   -0.24966E+00 11432   0.270E+00    0.917E+00
DAV:  13    -0.895602434650E+03    0.18439E+00   -0.21478E+00 11440   0.253E+00    0.112E+01
DAV:  14    -0.894783207701E+03    0.81923E+00   -0.39288E+00 11128   0.202E+00    0.626E+00
DAV:  15    -0.894492685383E+03    0.29052E+00   -0.96387E-01 11472   0.134E+00    0.498E+00
DAV:  16    -0.894439432262E+03    0.53253E-01   -0.19845E-01 10736   0.672E-01    0.315E+00
DAV:  17    -0.894516473069E+03   -0.77041E-01   -0.82010E-01 11104   0.866E-01    0.792E+00
DAV:  18    -0.894342451918E+03    0.17402E+00   -0.46170E-01 10848   0.479E-01    0.169E+00
DAV:  19    -0.894680339449E+03   -0.33789E+00   -0.77222E-01 10128   0.946E-01    0.871E+00
DAV:  20    -0.894475112715E+03    0.20523E+00   -0.21514E-01 10408   0.472E-01    0.684E+00
DAV:  21    -0.894356159416E+03    0.11895E+00   -0.21213E-01 11080   0.434E-01    0.194E+00
DAV:  22    -0.894368918315E+03   -0.12759E-01   -0.11194E-01 11088   0.346E-01    0.313E+00
DAV:  23    -0.894356285984E+03    0.12632E-01   -0.36481E-02 10288   0.185E-01    0.139E+00
DAV:  24    -0.894369825440E+03   -0.13539E-01   -0.90738E-02 11584   0.191E-01    0.325E+00
DAV:  25    -0.894351109006E+03    0.18716E-01   -0.39955E-02 10320   0.167E-01    0.548E-01
DAV:  26    -0.894354671955E+03   -0.35629E-02   -0.40472E-03  9488   0.984E-02    0.339E-01
DAV:  27    -0.894355323357E+03   -0.65140E-03   -0.14870E-03 10584   0.630E-02    0.317E-01
DAV:  28    -0.894355422688E+03   -0.99331E-04   -0.14804E-03  9832   0.446E-02    0.479E-01
DAV:  29    -0.894355027307E+03    0.39538E-03   -0.14276E-03 10600   0.328E-02    0.876E-02
DAV:  30    -0.894355119467E+03   -0.92159E-04   -0.20038E-04  9464   0.205E-02    0.831E-02
DAV:  31    -0.894355135274E+03   -0.15807E-04   -0.10570E-04  9808   0.135E-02    0.643E-02
DAV:  32    -0.894355140481E+03   -0.52067E-05   -0.43454E-05 10160   0.917E-03    0.825E-02
DAV:  33    -0.894355137733E+03    0.27477E-05   -0.74652E-05  9344   0.745E-03    0.679E-02
DAV:  34    -0.894355130663E+03    0.70701E-05   -0.18535E-05  8408   0.475E-03    0.321E-02
DAV:  35    -0.894355130412E+03    0.25044E-06   -0.50833E-06  6512   0.283E-03
   1 F= -.89435513E+03 E0= -.89430922E+03  d E =-.918142E-01
