<?xml version="1.0" encoding="ISO-8859-1"?>
<modeling>
 <generator>
  <i name="program" type="string">vasp </i>
  <i name="version" type="string">5.4.4.18Apr17-6-g9f103f2a35  </i>
  <i name="subversion" type="string">(build Mar 16 2023 09:39:13) complex            parallel </i>
  <i name="platform" type="string">LinuxIFC </i>
  <i name="date" type="string">2024 04 29 </i>
  <i name="time" type="string">19:22:53 </i>
 </generator>
 <incar>
  <i type="int" name="ISTART">     0</i>
  <i type="string" name="PREC">a</i>
  <i type="logical" name="ADDGRID"> T  </i>
  <i type="int" name="IBRION">    -1</i>
  <i name="EDIFF">      0.00000100</i>
  <i name="EDIFFG">     -0.01000000</i>
  <i type="int" name="NSW">     1</i>
  <i type="int" name="ISIF">     2</i>
  <i type="int" name="ISYM">     0</i>
  <i name="ENCUT">    600.00000000</i>
  <i name="POTIM">      1.00000000</i>
  <i type="string" name="LREAL">  A</i>
  <i type="int" name="ISMEAR">     0</i>
  <i name="SIGMA">      0.05000000</i>
  <i name="KSPACING">      0.30000000</i>
  <i type="logical" name="KGAMMA"> T  </i>
  <i type="logical" name="LWAVE"> F  </i>
  <i type="logical" name="LCHARG"> F  </i>
  <i type="logical" name="LSCALAPACK"> F  </i>
  <v type="int" name="KPOINT_BSE">    -1     0     0     0</v>
 </incar>
 <structure name="primitive_cell" >
  <crystal>
   <varray name="basis" >
    <v>      13.31093562       0.00000000       0.00000000 </v>
    <v>       0.00000000      13.31093562       0.00000000 </v>
    <v>       0.00000000       0.00000000      13.31093562 </v>
   </varray>
   <i name="volume">   2358.44497833 </i>
   <varray name="rec_basis" >
    <v>       0.07512620       0.00000000       0.00000000 </v>
    <v>       0.00000000       0.07512620       0.00000000 </v>
    <v>       0.00000000       0.00000000       0.07512620 </v>
   </varray>
  </crystal>
  <varray name="positions" >
   <v>      -0.42065992       0.37756537      -0.26020383 </v>
   <v>      -0.45485973       0.48152716      -0.37953333 </v>
   <v>      -0.28258906       0.32582502      -0.14880702 </v>
   <v>      -0.44866690       0.21740910      -0.35039951 </v>
   <v>      -0.49549877       0.30387355      -0.09957242 </v>
   <v>      -0.37203376       0.15328048      -0.28864318 </v>
   <v>      -0.42649402      -0.44588862      -0.09479747 </v>
   <v>      -0.21445238       0.31202882      -0.37501064 </v>
   <v>      -0.39049983      -0.44873598      -0.44696442 </v>
   <v>      -0.18466742       0.40863157      -0.15793795 </v>
   <v>      -0.25658663       0.17707280      -0.27451487 </v>
   <v>      -0.46906028       0.29918736       0.49031240 </v>
   <v>      -0.23608855      -0.48895596      -0.11930487 </v>
   <v>       0.41096275      -0.41513065      -0.21952417 </v>
   <v>      -0.42602502       0.11912754      -0.17984804 </v>
   <v>      -0.34759001       0.41240646       0.00050465 </v>
   <v>      -0.29658620      -0.40253383      -0.38794906 </v>
   <v>      -0.13608331       0.39471328      -0.27900733 </v>
   <v>       0.30085492       0.32095371      -0.21251037 </v>
   <v>       0.41523078       0.34685052      -0.02484612 </v>
   <v>       0.47036353      -0.39909179      -0.11028809 </v>
   <v>       0.37979182       0.46056760      -0.04378193 </v>
   <v>      -0.33808273       0.17236768      -0.01775282 </v>
   <v>       0.41456042       0.12038390      -0.12732128 </v>
   <v>      -0.34245170       0.49911740       0.43955578 </v>
   <v>       0.27128802       0.49169951      -0.20018211 </v>
   <v>      -0.47603840      -0.36226362      -0.47898443 </v>
   <v>      -0.34902542       0.01952067      -0.35000064 </v>
   <v>       0.46039837       0.38035369       0.09687101 </v>
   <v>      -0.26587570       0.18258939       0.45285653 </v>
   <v>      -0.08535491       0.34581817      -0.07383738 </v>
   <v>      -0.25522556      -0.32143416      -0.08394391 </v>
   <v>       0.30046857       0.25917064      -0.02084082 </v>
   <v>       0.22778602       0.27786894      -0.12670762 </v>
   <v>       0.38005620       0.35419210       0.40614947 </v>
   <v>      -0.17071863      -0.31939441      -0.28167285 </v>
   <v>       0.48080357       0.12598550       0.44850416 </v>
   <v>      -0.23864122      -0.28235732      -0.38734536 </v>
   <v>       0.18343980       0.31220896      -0.32365861 </v>
   <v>      -0.32554567       0.25754459       0.11673991 </v>
   <v>       0.43020922      -0.29542446      -0.05509084 </v>
   <v>      -0.01975468      -0.48142151      -0.27426242 </v>
   <v>      -0.44781993      -0.46157032       0.13465412 </v>
   <v>      -0.37413224       0.03513358       0.48324366 </v>
   <v>       0.17681507       0.42261519      -0.40804739 </v>
   <v>      -0.47421611      -0.20883220      -0.37331187 </v>
   <v>       0.23668099       0.14732453      -0.13172939 </v>
   <v>      -0.30100690       0.02757144      -0.02997639 </v>
   <v>      -0.06803452      -0.38600465      -0.12758467 </v>
   <v>      -0.29284537      -0.37662111       0.09237367 </v>
   <v>       0.18035460       0.19761731      -0.35854163 </v>
   <v>      -0.33725134       0.43907360       0.17836539 </v>
   <v>       0.39777627      -0.38979533       0.39137797 </v>
   <v>      -0.14165247       0.18700472       0.43186520 </v>
   <v>      -0.23296652       0.47146324       0.33298480 </v>
   <v>       0.11968529       0.37213226      -0.20968484 </v>
   <v>       0.24705752       0.04913139      -0.26905109 </v>
   <v>      -0.30694494      -0.18246824      -0.37258183 </v>
   <v>      -0.09301361      -0.46325361       0.44573040 </v>
   <v>      -0.08389050       0.28633851       0.42609769 </v>
   <v>      -0.33049378      -0.08739478      -0.28188064 </v>
   <v>      -0.23158662      -0.05608203      -0.21716582 </v>
   <v>      -0.18987205      -0.28630443       0.49284870 </v>
   <v>      -0.39454122      -0.22163506       0.00156522 </v>
   <v>      -0.21077097      -0.02893811      -0.10511727 </v>
   <v>      -0.10016859       0.04273993      -0.12336528 </v>
   <v>      -0.46794347       0.27428837       0.26854529 </v>
   <v>      -0.42062331      -0.13881537      -0.22609669 </v>
   <v>       0.36796187       0.09302440       0.40816806 </v>
   <v>      -0.33876999       0.31053735       0.21979687 </v>
   <v>      -0.25128420       0.28218326       0.28700366 </v>
   <v>       0.01693350       0.35059772      -0.01967613 </v>
   <v>       0.13555534       0.30074534      -0.04081059 </v>
   <v>       0.29322942      -0.48483721       0.13029744 </v>
   <v>       0.42875977       0.48759607       0.26928549 </v>
   <v>       0.47500356       0.01875656       0.08631406 </v>
   <v>       0.44423607       0.37184597       0.24759704 </v>
   <v>      -0.47933200      -0.08206461      -0.03777836 </v>
   <v>       0.28858159       0.30312586       0.32028242 </v>
   <v>       0.21885460      -0.30526972      -0.45040719 </v>
   <v>      -0.33469805      -0.26499853       0.10268259 </v>
   <v>       0.00659945      -0.41981179      -0.03497457 </v>
   <v>      -0.11553612       0.07718589       0.43655355 </v>
   <v>       0.31771330       0.17893942       0.32649091 </v>
   <v>       0.33222349       0.31790173       0.20393849 </v>
   <v>      -0.06548758      -0.23221968      -0.21018590 </v>
   <v>      -0.07632016      -0.34479440       0.44208669 </v>
   <v>      -0.03277120      -0.44858916       0.08353677 </v>
   <v>       0.08929818       0.47347637      -0.03080578 </v>
   <v>       0.00752986       0.32634758       0.08688582 </v>
   <v>       0.35591149       0.07732282       0.15191887 </v>
   <v>       0.27553854       0.01576269       0.44299420 </v>
   <v>       0.09217401      -0.35089998      -0.22311979 </v>
   <v>      -0.11829904       0.29763147       0.20611206 </v>
   <v>      -0.43019243      -0.29422657       0.19544722 </v>
   <v>       0.19045225       0.29188806       0.13719162 </v>
   <v>       0.22413592      -0.39266758       0.36631122 </v>
   <v>       0.38771702      -0.25270468       0.12405582 </v>
   <v>       0.02702987       0.41093013       0.38796984 </v>
   <v>      -0.29250987      -0.02391317       0.35186694 </v>
   <v>       0.36749355      -0.15704249       0.47693160 </v>
   <v>      -0.45168600      -0.11611614       0.44517364 </v>
   <v>       0.16747512       0.30751766       0.32956808 </v>
   <v>      -0.13726437      -0.29633643       0.34223970 </v>
   <v>      -0.14937197      -0.14038540      -0.06072257 </v>
   <v>      -0.26583669      -0.21171585       0.34840011 </v>
   <v>       0.13004077      -0.24642470      -0.31694427 </v>
   <v>       0.01398891      -0.00959545      -0.15137550 </v>
   <v>       0.06253719       0.02717246      -0.26119250 </v>
   <v>       0.17078249      -0.31335025       0.43341746 </v>
   <v>       0.22823021      -0.32661052       0.12310839 </v>
   <v>       0.40918063      -0.23506561       0.31316671 </v>
   <v>       0.42199965      -0.02666004       0.32387356 </v>
   <v>      -0.15920805       0.01467511       0.33737912 </v>
   <v>       0.23167099      -0.10222105      -0.40167927 </v>
   <v>       0.02099108       0.47564099       0.15424719 </v>
   <v>       0.14124946       0.45087994       0.16562871 </v>
   <v>       0.44702729      -0.13865032       0.38144080 </v>
   <v>       0.16116074      -0.27461425       0.04421432 </v>
   <v>       0.19462681      -0.18322080      -0.04036475 </v>
   <v>      -0.04200563       0.45838759       0.24944760 </v>
   <v>       0.27361501      -0.04288298       0.08757098 </v>
   <v>       0.07868446      -0.33077232      -0.01970423 </v>
   <v>      -0.23223519      -0.19540748       0.15889143 </v>
   <v>       0.25242145      -0.10130823       0.48806246 </v>
   <v>       0.05018376      -0.30506862       0.44977909 </v>
   <v>      -0.10531620       0.08105271       0.23434229 </v>
   <v>       0.04658407      -0.14652998      -0.19280597 </v>
   <v>       0.07109689      -0.01769696      -0.02432112 </v>
   <v>      -0.08857858      -0.10276803       0.07551171 </v>
   <v>       0.16742443      -0.08760658       0.03356212 </v>
   <v>       0.18591747      -0.17454331       0.39631898 </v>
   <v>      -0.11180718      -0.08955118       0.29730176 </v>
   <v>       0.10805776      -0.18004843       0.10561798 </v>
   <v>       0.01509197      -0.18846120       0.31595628 </v>
  </varray>
 </structure>
 <varray name="primitive_index" >
  <v type="int" >        1 </v>
  <v type="int" >      118 </v>
  <v type="int" >       98 </v>
  <v type="int" >       78 </v>
  <v type="int" >       95 </v>
  <v type="int" >       40 </v>
  <v type="int" >       93 </v>
  <v type="int" >       20 </v>
  <v type="int" >       50 </v>
  <v type="int" >       41 </v>
  <v type="int" >      114 </v>
  <v type="int" >        8 </v>
  <v type="int" >      101 </v>
  <v type="int" >      103 </v>
  <v type="int" >      121 </v>
  <v type="int" >       24 </v>
  <v type="int" >       65 </v>
  <v type="int" >      100 </v>
  <v type="int" >       66 </v>
  <v type="int" >       54 </v>
  <v type="int" >       51 </v>
  <v type="int" >      102 </v>
  <v type="int" >       19 </v>
  <v type="int" >        6 </v>
  <v type="int" >       62 </v>
  <v type="int" >       12 </v>
  <v type="int" >       64 </v>
  <v type="int" >       74 </v>
  <v type="int" >       60 </v>
  <v type="int" >       76 </v>
  <v type="int" >       61 </v>
  <v type="int" >        7 </v>
  <v type="int" >       94 </v>
  <v type="int" >       47 </v>
  <v type="int" >      130 </v>
  <v type="int" >      119 </v>
  <v type="int" >      105 </v>
  <v type="int" >       37 </v>
  <v type="int" >       32 </v>
  <v type="int" >       70 </v>
  <v type="int" >      125 </v>
  <v type="int" >        9 </v>
  <v type="int" >       13 </v>
  <v type="int" >       18 </v>
  <v type="int" >      116 </v>
  <v type="int" >       26 </v>
  <v type="int" >      132 </v>
  <v type="int" >       68 </v>
  <v type="int" >      123 </v>
  <v type="int" >      111 </v>
  <v type="int" >       67 </v>
  <v type="int" >       96 </v>
  <v type="int" >        5 </v>
  <v type="int" >       31 </v>
  <v type="int" >       23 </v>
  <v type="int" >      106 </v>
  <v type="int" >        4 </v>
  <v type="int" >       88 </v>
  <v type="int" >       86 </v>
  <v type="int" >       55 </v>
  <v type="int" >       52 </v>
  <v type="int" >      112 </v>
  <v type="int" >      134 </v>
  <v type="int" >       80 </v>
  <v type="int" >       42 </v>
  <v type="int" >       72 </v>
  <v type="int" >       97 </v>
  <v type="int" >       84 </v>
  <v type="int" >       36 </v>
  <v type="int" >       35 </v>
  <v type="int" >      122 </v>
  <v type="int" >       49 </v>
  <v type="int" >      117 </v>
  <v type="int" >       22 </v>
  <v type="int" >      127 </v>
  <v type="int" >      131 </v>
  <v type="int" >       48 </v>
  <v type="int" >       27 </v>
  <v type="int" >       53 </v>
  <v type="int" >      128 </v>
  <v type="int" >       38 </v>
  <v type="int" >       33 </v>
  <v type="int" >      108 </v>
  <v type="int" >      110 </v>
  <v type="int" >      113 </v>
  <v type="int" >       14 </v>
  <v type="int" >       44 </v>
  <v type="int" >       89 </v>
  <v type="int" >      133 </v>
  <v type="int" >       56 </v>
  <v type="int" >       15 </v>
  <v type="int" >      129 </v>
  <v type="int" >       69 </v>
  <v type="int" >       11 </v>
  <v type="int" >      124 </v>
  <v type="int" >       16 </v>
  <v type="int" >      107 </v>
  <v type="int" >       25 </v>
  <v type="int" >        3 </v>
  <v type="int" >       90 </v>
  <v type="int" >       92 </v>
  <v type="int" >      126 </v>
  <v type="int" >       58 </v>
  <v type="int" >       79 </v>
  <v type="int" >       82 </v>
  <v type="int" >       10 </v>
  <v type="int" >       17 </v>
  <v type="int" >       46 </v>
  <v type="int" >      104 </v>
  <v type="int" >       39 </v>
  <v type="int" >       85 </v>
  <v type="int" >       77 </v>
  <v type="int" >       81 </v>
  <v type="int" >       34 </v>
  <v type="int" >      120 </v>
  <v type="int" >       30 </v>
  <v type="int" >      135 </v>
  <v type="int" >       29 </v>
  <v type="int" >       43 </v>
  <v type="int" >       71 </v>
  <v type="int" >       87 </v>
  <v type="int" >       57 </v>
  <v type="int" >       75 </v>
  <v type="int" >       99 </v>
  <v type="int" >       28 </v>
  <v type="int" >       83 </v>
  <v type="int" >       63 </v>
  <v type="int" >       73 </v>
  <v type="int" >      115 </v>
  <v type="int" >        2 </v>
  <v type="int" >       45 </v>
  <v type="int" >      109 </v>
  <v type="int" >       59 </v>
  <v type="int" >       91 </v>
  <v type="int" >       21 </v>
 </varray>
 <kpoints>
  <generation param="Gamma">
   <v type="int" name="divisions">       2        2        2 </v>
   <v name="usershift">      0.00000000       0.00000000       0.00000000 </v>
   <v name="genvec1">      0.50000000       0.00000000       0.00000000 </v>
   <v name="genvec2">      0.00000000       0.50000000       0.00000000 </v>
   <v name="genvec3">      0.00000000       0.00000000       0.50000000 </v>
   <v name="shift">      0.00000000       0.00000000       0.00000000 </v>
  </generation>
  <varray name="kpointlist" >
   <v>       0.00000000       0.00000000       0.00000000 </v>
   <v>       0.50000000       0.00000000       0.00000000 </v>
   <v>       0.00000000       0.50000000       0.00000000 </v>
   <v>       0.50000000       0.50000000       0.00000000 </v>
   <v>       0.00000000       0.00000000       0.50000000 </v>
   <v>       0.50000000       0.00000000       0.50000000 </v>
   <v>       0.00000000       0.50000000       0.50000000 </v>
   <v>       0.50000000       0.50000000       0.50000000 </v>
  </varray>
  <varray name="weights" >
   <v>       0.12500000 </v>
   <v>       0.12500000 </v>
   <v>       0.12500000 </v>
   <v>       0.12500000 </v>
   <v>       0.12500000 </v>
   <v>       0.12500000 </v>
   <v>       0.12500000 </v>
   <v>       0.12500000 </v>
  </varray>
 </kpoints>
 <parameters>
  <separator name="general" >
   <i type="string" name="SYSTEM">unknown system</i>
   <i type="logical" name="LCOMPAT"> F  </i>
  </separator>
  <separator name="electronic" >
   <i type="string" name="PREC">a</i>
   <i name="ENMAX">    600.00000000</i>
   <i name="ENAUG">    605.39200000</i>
   <i name="EDIFF">      0.00000100</i>
   <i type="int" name="IALGO">    38</i>
   <i type="int" name="IWAVPR">    10</i>
   <i type="int" name="NBANDS">   520</i>
   <i name="NELECT">    864.00000000</i>
   <i type="int" name="TURBO">     0</i>
   <i type="int" name="IRESTART">     0</i>
   <i type="int" name="NREBOOT">     0</i>
   <i type="int" name="NMIN">     0</i>
   <i name="EREF">      0.00000000</i>
   <separator name="electronic smearing" >
    <i type="int" name="ISMEAR">     0</i>
    <i name="SIGMA">      0.05000000</i>
    <i name="KSPACING">      0.30000000</i>
    <i type="logical" name="KGAMMA"> T  </i>
   </separator>
   <separator name="electronic projectors" >
    <i type="logical" name="LREAL"> T  </i>
    <v name="ROPT">     -0.00025000     -0.00025000     -0.00025000</v>
    <i type="int" name="LMAXPAW">  -100</i>
    <i type="int" name="LMAXMIX">     2</i>
    <i type="logical" name="NLSPLINE"> F  </i>
   </separator>
   <separator name="electronic startup" >
    <i type="int" name="ISTART">     0</i>
    <i type="int" name="ICHARG">     2</i>
    <i type="int" name="INIWAV">     1</i>
   </separator>
   <separator name="electronic spin" >
    <i type="int" name="ISPIN">     1</i>
    <i type="logical" name="LNONCOLLINEAR"> F  </i>
    <v name="MAGMOM">      1.00000000      1.00000000      1.00000000      1.00000000      1.00000000      1.00000000      1.00000000      1.00000000      1.00000000      1.00000000      1.00000000      1.00000000      1.00000000      1.00000000      1.00000000      1.00000000      1.00000000      1.00000000      1.00000000      1.00000000
      1.00000000      1.00000000      1.00000000      1.00000000      1.00000000      1.00000000      1.00000000      1.00000000      1.00000000      1.00000000      1.00000000      1.00000000      1.00000000      1.00000000      1.00000000      1.00000000      1.00000000      1.00000000      1.00000000      1.00000000
      1.00000000      1.00000000      1.00000000      1.00000000      1.00000000      1.00000000      1.00000000      1.00000000      1.00000000      1.00000000      1.00000000      1.00000000      1.00000000      1.00000000      1.00000000      1.00000000      1.00000000      1.00000000      1.00000000      1.00000000
      1.00000000      1.00000000      1.00000000      1.00000000      1.00000000      1.00000000      1.00000000      1.00000000      1.00000000      1.00000000      1.00000000      1.00000000      1.00000000      1.00000000      1.00000000      1.00000000      1.00000000      1.00000000      1.00000000      1.00000000
      1.00000000      1.00000000      1.00000000      1.00000000      1.00000000      1.00000000      1.00000000      1.00000000      1.00000000      1.00000000      1.00000000      1.00000000      1.00000000      1.00000000      1.00000000      1.00000000      1.00000000      1.00000000      1.00000000      1.00000000
      1.00000000      1.00000000      1.00000000      1.00000000      1.00000000      1.00000000      1.00000000      1.00000000      1.00000000      1.00000000      1.00000000      1.00000000      1.00000000      1.00000000      1.00000000      1.00000000      1.00000000      1.00000000      1.00000000      1.00000000
      1.00000000      1.00000000      1.00000000      1.00000000      1.00000000      1.00000000      1.00000000      1.00000000      1.00000000      1.00000000      1.00000000      1.00000000      1.00000000      1.00000000      1.00000000</v>
    <i name="NUPDOWN">     -1.00000000</i>
    <i type="logical" name="LSORBIT"> F  </i>
    <v name="SAXIS">      0.00000000      0.00000000      1.00000000</v>
    <i type="logical" name="LSPIRAL"> F  </i>
    <v name="QSPIRAL">      0.00000000      0.00000000      0.00000000</v>
    <i type="logical" name="LZEROZ"> F  </i>
   </separator>
   <separator name="electronic exchange-correlation" >
    <i type="logical" name="LASPH"> F  </i>
    <i type="logical" name="LMETAGGA"> F  </i>
   </separator>
   <separator name="electronic convergence" >
    <i type="int" name="NELM">    60</i>
    <i type="int" name="NELMDL">    -5</i>
    <i type="int" name="NELMIN">     2</i>
    <i name="ENINI">    600.00000000</i>
    <separator name="electronic convergence detail" >
     <i type="logical" name="LDIAG"> T  </i>
     <i type="logical" name="LSUBROT"> F  </i>
     <i name="WEIMIN">      0.00000000</i>
     <i name="EBREAK">      0.00000000</i>
     <i name="DEPER">      0.30000000</i>
     <i type="int" name="NRMM">     4</i>
     <i name="TIME">      0.40000000</i>
    </separator>
   </separator>
   <separator name="electronic mixer" >
    <i name="AMIX">      0.40000000</i>
    <i name="BMIX">      1.00000000</i>
    <i name="AMIN">      0.10000000</i>
    <i name="AMIX_MAG">      1.60000000</i>
    <i name="BMIX_MAG">      1.00000000</i>
    <separator name="electronic mixer details" >
     <i type="int" name="IMIX">     4</i>
     <i type="logical" name="MIXFIRST"> F  </i>
     <i type="int" name="MAXMIX">   -45</i>
     <i name="WC">    100.00000000</i>
     <i type="int" name="INIMIX">     1</i>
     <i type="int" name="MIXPRE">     1</i>
     <i type="int" name="MREMOVE">     5</i>
    </separator>
   </separator>
   <separator name="electronic dipolcorrection" >
    <i type="logical" name="LDIPOL"> F  </i>
    <i type="logical" name="LMONO"> F  </i>
    <i type="int" name="IDIPOL">     0</i>
    <i name="EPSILON">      1.00000000</i>
    <v name="DIPOL">   -100.00000000   -100.00000000   -100.00000000</v>
    <i name="EFIELD">      0.00000000</i>
   </separator>
  </separator>
  <separator name="grids" >
   <i type="int" name="NGX">   108</i>
   <i type="int" name="NGY">   108</i>
   <i type="int" name="NGZ">   108</i>
   <i type="int" name="NGXF">   216</i>
   <i type="int" name="NGYF">   216</i>
   <i type="int" name="NGZF">   216</i>
   <i type="logical" name="ADDGRID"> T  </i>
  </separator>
  <separator name="ionic" >
   <i type="int" name="NSW">     1</i>
   <i type="int" name="IBRION">    -1</i>
   <i type="int" name="MDALGO">     0</i>
   <i type="int" name="ISIF">     2</i>
   <i name="PSTRESS">      0.00000000</i>
   <i name="EDIFFG">     -0.01000000</i>
   <i type="int" name="NFREE">     0</i>
   <i name="POTIM">      1.00000000</i>
   <i name="SMASS">     -3.00000000</i>
   <i name="SCALEE">      1.00000000</i>
  </separator>
  <separator name="ionic md" >
   <i name="TEBEG">      0.00010000</i>
   <i name="TEEND">      0.00010000</i>
   <i type="int" name="NBLOCK">     1</i>
   <i type="int" name="KBLOCK">     1</i>
   <i type="int" name="NPACO">   256</i>
   <i name="APACO">     16.00000000</i>
  </separator>
  <separator name="symmetry" >
   <i type="int" name="ISYM">     0</i>
   <i name="SYMPREC">      0.00001000</i>
  </separator>
  <separator name="dos" >
   <i type="int" name="LORBIT">     0</i>
   <v name="RWIGS">     -1.00000000     -1.00000000     -1.00000000</v>
   <i type="int" name="NEDOS">   301</i>
   <i name="EMIN">     10.00000000</i>
   <i name="EMAX">    -10.00000000</i>
   <i name="EFERMI">      0.00000000</i>
  </separator>
  <separator name="writing" >
   <i type="int" name="NWRITE">     2</i>
   <i type="logical" name="LWAVE"> F  </i>
   <i type="logical" name="LDOWNSAMPLE"> F  </i>
   <i type="logical" name="LCHARG"> F  </i>
   <i type="logical" name="LPARD"> F  </i>
   <i type="logical" name="LVTOT"> F  </i>
   <i type="logical" name="LVHAR"> F  </i>
   <i type="logical" name="LELF"> F  </i>
   <i type="logical" name="LOPTICS"> F  </i>
   <v name="STM">      0.00000000      0.00000000      0.00000000      0.00000000      0.00000000      0.00000000      0.00000000</v>
  </separator>
  <separator name="performance" >
   <i type="int" name="NPAR">     4</i>
   <i type="int" name="NSIM">     4</i>
   <i type="int" name="NBLK">    -1</i>
   <i type="logical" name="LPLANE"> T  </i>
   <i type="logical" name="LSCALAPACK"> F  </i>
   <i type="logical" name="LSCAAWARE"> F  </i>
   <i type="logical" name="LSCALU"> F  </i>
   <i type="logical" name="LASYNC"> F  </i>
   <i type="logical" name="LORBITALREAL"> F  </i>
  </separator>
  <separator name="miscellaneous" >
   <i type="int" name="IDIOT">     3</i>
   <i type="int" name="ISPECIAL">     0</i>
   <i type="logical" name="LMUSIC"> F  </i>
   <v name="POMASS">     40.07800000     28.08500000     16.00000000</v>
   <v name="DARWINR">      0.00000000      0.00000000      0.00000000</v>
   <v name="DARWINV">      1.00000000      1.00000000      1.00000000</v>
   <i type="logical" name="LCORR"> T  </i>
  </separator>
  <i type="logical" name="GGA_COMPAT"> T  </i>
  <i type="logical" name="LBERRY"> F  </i>
  <i type="int" name="ICORELEVEL">     0</i>
  <i type="logical" name="LDAU"> F  </i>
  <i type="int" name="I_CONSTRAINED_M">     0</i>
  <separator name="electronic exchange-correlation" >
   <i type="string" name="GGA">--</i>
   <i type="int" name="VOSKOWN">     0</i>
   <i type="logical" name="LHFCALC"> F  </i>
   <i type="string" name="PRECFOCK"></i>
   <i type="logical" name="LSYMGRAD"> F  </i>
   <i type="logical" name="LHFONE"> F  </i>
   <i type="logical" name="LRHFCALC"> F  </i>
   <i type="logical" name="LTHOMAS"> F  </i>
   <i type="logical" name="LMODELHF"> F  </i>
   <i name="ENCUT4O">     -1.00000000</i>
   <i type="int" name="EXXOEP">     0</i>
   <i type="int" name="FOURORBIT">     0</i>
   <i name="AEXX">      0.00000000</i>
   <i name="HFALPHA">      0.00000000</i>
   <i name="MCALPHA">      0.00000000</i>
   <i name="ALDAX">      1.00000000</i>
   <i name="AGGAX">      1.00000000</i>
   <i name="ALDAC">      1.00000000</i>
   <i name="AGGAC">      1.00000000</i>
   <i type="int" name="NKREDX">     1</i>
   <i type="int" name="NKREDY">     1</i>
   <i type="int" name="NKREDZ">     1</i>
   <i type="logical" name="SHIFTRED"> F  </i>
   <i type="logical" name="ODDONLY"> F  </i>
   <i type="logical" name="EVENONLY"> F  </i>
   <i type="int" name="LMAXFOCK">     0</i>
   <i type="int" name="NMAXFOCKAE">     0</i>
   <i type="logical" name="LFOCKAEDFT"> F  </i>
   <i name="HFSCREEN">      0.00000000</i>
   <i name="HFSCREENC">      0.00000000</i>
   <i type="int" name="NBANDSGWLOW">     0</i>
  </separator>
  <separator name="vdW DFT" >
   <i type="logical" name="LUSE_VDW"> F  </i>
   <i name="Zab_VDW">     -0.84910000</i>
   <i name="PARAM1">      0.12340000</i>
   <i name="PARAM2">      1.00000000</i>
   <i name="PARAM3">      0.00000000</i>
  </separator>
  <separator name="model GW" >
   <i type="int" name="MODEL_GW">     0</i>
   <i name="MODEL_EPS0">     10.48197768</i>
   <i name="MODEL_ALPHA">      1.00000000</i>
  </separator>
  <separator name="linear response parameters" >
   <i type="logical" name="LEPSILON"> F  </i>
   <i type="logical" name="LRPA"> F  </i>
   <i type="logical" name="LNABLA"> F  </i>
   <i type="logical" name="LVEL"> F  </i>
   <i type="int" name="KINTER">     0</i>
   <i name="CSHIFT">      0.10000000</i>
   <i name="OMEGAMAX">     -1.00000000</i>
   <i name="DEG_THRESHOLD">      0.00200000</i>
   <i name="RTIME">     -0.10000000</i>
   <i name="WPLASMAI">      0.00000000</i>
   <v name="DFIELD">      0.00000000      0.00000000      0.00000000</v>
   <v name="WPLASMA">      0.00000000      0.00000000      0.00000000      0.00000000      0.00000000      0.00000000      0.00000000      0.00000000      0.00000000</v>
  </separator>
  <separator name="orbital magnetization" >
   <i type="logical" name="NUCIND"> F  </i>
   <v name="MAGPOS">      0.00000000      0.00000000      0.00000000</v>
   <i type="logical" name="LNICSALL"> T  </i>
   <i type="logical" name="ORBITALMAG"> F  </i>
   <i type="logical" name="LMAGBLOCH"> F  </i>
   <i type="logical" name="LCHIMAG"> F  </i>
   <i type="logical" name="LGAUGE"> T  </i>
   <i type="int" name="MAGATOM">     0</i>
   <v name="MAGDIPOL">      0.00000000      0.00000000      0.00000000</v>
   <v name="AVECCONST">      0.00000000      0.00000000      0.00000000</v>
  </separator>
  <separator name="response functions" >
   <i type="logical" name="LADDER"> F  </i>
   <i type="logical" name="LRPAFORCE"> F  </i>
   <i type="logical" name="LFXC"> F  </i>
   <i type="logical" name="LHARTREE"> T  </i>
   <i type="int" name="IBSE">     0</i>
   <v type="int" name="KPOINT">    -1     0     0     0</v>
   <i type="logical" name="LTCTE"> F  </i>
   <i type="logical" name="LTETE"> F  </i>
   <i type="logical" name="LTRIPLET"> F  </i>
   <i type="logical" name="LFXCEPS"> F  </i>
   <i type="logical" name="LFXHEG"> F  </i>
   <i type="int" name="NATURALO">     2</i>
   <i type="logical" name="L2ORDER"> F  </i>
   <i type="logical" name="LMP2LT"> F  </i>
   <i type="logical" name="LUSEW"> F  </i>
   <i name="ENCUTGW">     -2.00000000</i>
   <i name="ENCUTGWSOFT">     -2.00000000</i>
   <i name="ENCUTLF">     -1.00000000</i>
   <i type="int" name="LMAXMP2">    -1</i>
   <i name="SCISSOR">      0.00000000</i>
   <i type="int" name="NOMEGA">     0</i>
   <i type="int" name="NOMEGAR">     0</i>
   <i type="int" name="NBANDSGW">    -1</i>
   <i type="int" name="NBANDSO">    -1</i>
   <i type="int" name="NBANDSV">    -1</i>
   <i type="int" name="NELM">     1</i>
   <i type="int" name="NELMHF">     1</i>
   <i type="int" name="DIM">     3</i>
   <i type="int" name="ANTIRES">     0</i>
   <i name="OMEGAMAX">    -30.00000000</i>
   <i name="OMEGAMIN">    -30.00000000</i>
   <i name="OMEGATL">   -200.00000000</i>
   <i type="int" name="OMEGAGRID">   140</i>
   <i name="CSHIFT">     -0.10000000</i>
   <i type="logical" name="SELFENERGY"> F  </i>
   <i type="logical" name="LSPECTRAL"> F  </i>
   <i type="logical" name="LSPECTRALGW"> F  </i>
   <i type="logical" name="LSINGLES"> F  </i>
   <i type="logical" name="LFERMIGW"> F  </i>
   <i type="logical" name="ODDONLYGW"> F  </i>
   <i type="logical" name="EVENONLYGW"> F  </i>
   <i type="int" name="NKREDLFX">     1</i>
   <i type="int" name="NKREDLFY">     1</i>
   <i type="int" name="NKREDLFZ">     1</i>
   <i type="int" name="MAXMEM">  2800</i>
   <i type="int" name="TELESCOPE">     0</i>
   <i type="int" name="TAUPAR">     1</i>
   <i type="int" name="OMEGAPAR">    -1</i>
   <i name="LAMBDA">      1.00000000</i>
  </separator>
  <separator name="External order field" >
   <i name="OFIELD_KAPPA">      0.00000000</i>
   <v name="OFIELD_K">      0.00000000      0.00000000      0.00000000</v>
   <i name="OFIELD_Q6_NEAR">      0.00000000</i>
   <i name="OFIELD_Q6_FAR">      0.00000000</i>
   <i name="OFIELD_A">      0.00000000</i>
  </separator>
 </parameters>
 <atominfo>
  <atoms>     135 </atoms>
  <types>       3 </types>
  <array name="atoms" >
   <dimension dim="1">ion</dimension>
   <field type="string">element</field>
   <field type="int">atomtype</field>
   <set>
    <rc><c>Ca</c><c>   1</c></rc>
    <rc><c>Ca</c><c>   1</c></rc>
    <rc><c>Ca</c><c>   1</c></rc>
    <rc><c>Ca</c><c>   1</c></rc>
    <rc><c>Ca</c><c>   1</c></rc>
    <rc><c>Ca</c><c>   1</c></rc>
    <rc><c>Ca</c><c>   1</c></rc>
    <rc><c>Ca</c><c>   1</c></rc>
    <rc><c>Ca</c><c>   1</c></rc>
    <rc><c>Ca</c><c>   1</c></rc>
    <rc><c>Ca</c><c>   1</c></rc>
    <rc><c>Ca</c><c>   1</c></rc>
    <rc><c>Ca</c><c>   1</c></rc>
    <rc><c>Ca</c><c>   1</c></rc>
    <rc><c>Ca</c><c>   1</c></rc>
    <rc><c>Ca</c><c>   1</c></rc>
    <rc><c>Ca</c><c>   1</c></rc>
    <rc><c>Ca</c><c>   1</c></rc>
    <rc><c>Ca</c><c>   1</c></rc>
    <rc><c>Ca</c><c>   1</c></rc>
    <rc><c>Ca</c><c>   1</c></rc>
    <rc><c>Ca</c><c>   1</c></rc>
    <rc><c>Ca</c><c>   1</c></rc>
    <rc><c>Ca</c><c>   1</c></rc>
    <rc><c>Ca</c><c>   1</c></rc>
    <rc><c>Ca</c><c>   1</c></rc>
    <rc><c>Ca</c><c>   1</c></rc>
    <rc><c>Si</c><c>   2</c></rc>
    <rc><c>Si</c><c>   2</c></rc>
    <rc><c>Si</c><c>   2</c></rc>
    <rc><c>Si</c><c>   2</c></rc>
    <rc><c>Si</c><c>   2</c></rc>
    <rc><c>Si</c><c>   2</c></rc>
    <rc><c>Si</c><c>   2</c></rc>
    <rc><c>Si</c><c>   2</c></rc>
    <rc><c>Si</c><c>   2</c></rc>
    <rc><c>Si</c><c>   2</c></rc>
    <rc><c>Si</c><c>   2</c></rc>
    <rc><c>Si</c><c>   2</c></rc>
    <rc><c>Si</c><c>   2</c></rc>
    <rc><c>Si</c><c>   2</c></rc>
    <rc><c>Si</c><c>   2</c></rc>
    <rc><c>Si</c><c>   2</c></rc>
    <rc><c>Si</c><c>   2</c></rc>
    <rc><c>Si</c><c>   2</c></rc>
    <rc><c>Si</c><c>   2</c></rc>
    <rc><c>Si</c><c>   2</c></rc>
    <rc><c>Si</c><c>   2</c></rc>
    <rc><c>Si</c><c>   2</c></rc>
    <rc><c>Si</c><c>   2</c></rc>
    <rc><c>Si</c><c>   2</c></rc>
    <rc><c>Si</c><c>   2</c></rc>
    <rc><c>Si</c><c>   2</c></rc>
    <rc><c>Si</c><c>   2</c></rc>
    <rc><c>O </c><c>   3</c></rc>
    <rc><c>O </c><c>   3</c></rc>
    <rc><c>O </c><c>   3</c></rc>
    <rc><c>O </c><c>   3</c></rc>
    <rc><c>O </c><c>   3</c></rc>
    <rc><c>O </c><c>   3</c></rc>
    <rc><c>O </c><c>   3</c></rc>
    <rc><c>O </c><c>   3</c></rc>
    <rc><c>O </c><c>   3</c></rc>
    <rc><c>O </c><c>   3</c></rc>
    <rc><c>O </c><c>   3</c></rc>
    <rc><c>O </c><c>   3</c></rc>
    <rc><c>O </c><c>   3</c></rc>
    <rc><c>O </c><c>   3</c></rc>
    <rc><c>O </c><c>   3</c></rc>
    <rc><c>O </c><c>   3</c></rc>
    <rc><c>O </c><c>   3</c></rc>
    <rc><c>O </c><c>   3</c></rc>
    <rc><c>O </c><c>   3</c></rc>
    <rc><c>O </c><c>   3</c></rc>
    <rc><c>O </c><c>   3</c></rc>
    <rc><c>O </c><c>   3</c></rc>
    <rc><c>O </c><c>   3</c></rc>
    <rc><c>O </c><c>   3</c></rc>
    <rc><c>O </c><c>   3</c></rc>
    <rc><c>O </c><c>   3</c></rc>
    <rc><c>O </c><c>   3</c></rc>
    <rc><c>O </c><c>   3</c></rc>
    <rc><c>O </c><c>   3</c></rc>
    <rc><c>O </c><c>   3</c></rc>
    <rc><c>O </c><c>   3</c></rc>
    <rc><c>O </c><c>   3</c></rc>
    <rc><c>O </c><c>   3</c></rc>
    <rc><c>O </c><c>   3</c></rc>
    <rc><c>O </c><c>   3</c></rc>
    <rc><c>O </c><c>   3</c></rc>
    <rc><c>O </c><c>   3</c></rc>
    <rc><c>O </c><c>   3</c></rc>
    <rc><c>O </c><c>   3</c></rc>
    <rc><c>O </c><c>   3</c></rc>
    <rc><c>O </c><c>   3</c></rc>
    <rc><c>O </c><c>   3</c></rc>
    <rc><c>O </c><c>   3</c></rc>
    <rc><c>O </c><c>   3</c></rc>
    <rc><c>O </c><c>   3</c></rc>
    <rc><c>O </c><c>   3</c></rc>
    <rc><c>O </c><c>   3</c></rc>
    <rc><c>O </c><c>   3</c></rc>
    <rc><c>O </c><c>   3</c></rc>
    <rc><c>O </c><c>   3</c></rc>
    <rc><c>O </c><c>   3</c></rc>
    <rc><c>O </c><c>   3</c></rc>
    <rc><c>O </c><c>   3</c></rc>
    <rc><c>O </c><c>   3</c></rc>
    <rc><c>O </c><c>   3</c></rc>
    <rc><c>O </c><c>   3</c></rc>
    <rc><c>O </c><c>   3</c></rc>
    <rc><c>O </c><c>   3</c></rc>
    <rc><c>O </c><c>   3</c></rc>
    <rc><c>O </c><c>   3</c></rc>
    <rc><c>O </c><c>   3</c></rc>
    <rc><c>O </c><c>   3</c></rc>
    <rc><c>O </c><c>   3</c></rc>
    <rc><c>O </c><c>   3</c></rc>
    <rc><c>O </c><c>   3</c></rc>
    <rc><c>O </c><c>   3</c></rc>
    <rc><c>O </c><c>   3</c></rc>
    <rc><c>O </c><c>   3</c></rc>
    <rc><c>O </c><c>   3</c></rc>
    <rc><c>O </c><c>   3</c></rc>
    <rc><c>O </c><c>   3</c></rc>
    <rc><c>O </c><c>   3</c></rc>
    <rc><c>O </c><c>   3</c></rc>
    <rc><c>O </c><c>   3</c></rc>
    <rc><c>O </c><c>   3</c></rc>
    <rc><c>O </c><c>   3</c></rc>
    <rc><c>O </c><c>   3</c></rc>
    <rc><c>O </c><c>   3</c></rc>
    <rc><c>O </c><c>   3</c></rc>
    <rc><c>O </c><c>   3</c></rc>
    <rc><c>O </c><c>   3</c></rc>
   </set>
  </array>
  <array name="atomtypes" >
   <dimension dim="1">type</dimension>
   <field type="int">atomspertype</field>
   <field type="string">element</field>
   <field>mass</field>
   <field>valence</field>
   <field type="string">pseudopotential</field>
   <set>
    <rc><c>  27</c><c>Ca</c><c>     40.07800000</c><c>     10.00000000</c><c>  PAW_PBE Ca_sv 06Sep2000               </c></rc>
    <rc><c>  27</c><c>Si</c><c>     28.08500000</c><c>      4.00000000</c><c>  PAW_PBE Si 05Jan2001                  </c></rc>
    <rc><c>  81</c><c>O </c><c>     16.00000000</c><c>      6.00000000</c><c>  PAW_PBE O 08Apr2002                   </c></rc>
   </set>
  </array>
 </atominfo>
 <structure name="initialpos" >
  <crystal>
   <varray name="basis" >
    <v>      13.31093562       0.00000000       0.00000000 </v>
    <v>       0.00000000      13.31093562       0.00000000 </v>
    <v>       0.00000000       0.00000000      13.31093562 </v>
   </varray>
   <i name="volume">   2358.44497833 </i>
   <varray name="rec_basis" >
    <v>       0.07512620       0.00000000       0.00000000 </v>
    <v>       0.00000000       0.07512620       0.00000000 </v>
    <v>       0.00000000       0.00000000       0.07512620 </v>
   </varray>
  </crystal>
  <varray name="positions" >
   <v>       0.57934008       0.37756537       0.73979617 </v>
   <v>       0.91142142       0.89723197       0.07551171 </v>
   <v>       0.02702987       0.41093013       0.38796984 </v>
   <v>       0.24705752       0.04913139       0.73094891 </v>
   <v>       0.39777627       0.61020467       0.39137797 </v>
   <v>       0.41456042       0.12038390       0.87267872 </v>
   <v>       0.74477444       0.67856584       0.91605609 </v>
   <v>       0.53093972       0.29918736       0.49031240 </v>
   <v>       0.98024532       0.51857849       0.72573758 </v>
   <v>       0.73416331       0.78828415       0.34840011 </v>
   <v>       0.88170096       0.29763147       0.20611206 </v>
   <v>       0.27128802       0.49169951       0.79981789 </v>
   <v>       0.55218007       0.53842968       0.13465412 </v>
   <v>       0.93451242       0.76778032       0.78981410 </v>
   <v>       0.35591149       0.07732282       0.15191887 </v>
   <v>       0.19045225       0.29188806       0.13719162 </v>
   <v>       0.13004077       0.75357530       0.68305573 </v>
   <v>       0.62586776       0.03513358       0.48324366 </v>
   <v>       0.66191727       0.17236768       0.98224718 </v>
   <v>       0.78554762       0.31202882       0.62498936 </v>
   <v>       0.01509197       0.81153880       0.31595628 </v>
   <v>       0.29322942       0.51516279       0.13029744 </v>
   <v>       0.76703348       0.47146324       0.33298480 </v>
   <v>       0.65240999       0.41240646       0.00050465 </v>
   <v>       0.38771702       0.74729532       0.12405582 </v>
   <v>       0.52578389       0.79116780       0.62668813 </v>
   <v>       0.52066800       0.91793539       0.96222164 </v>
   <v>       0.25242145       0.89869177       0.48806246 </v>
   <v>       0.44702729       0.86134968       0.38144080 </v>
   <v>       0.02099108       0.47564099       0.15424719 </v>
   <v>       0.85834753       0.18700472       0.43186520 </v>
   <v>       0.18343980       0.31220896       0.67634139 </v>
   <v>       0.00659945       0.58018821       0.96502543 </v>
   <v>       0.84079195       0.01467511       0.33737912 </v>
   <v>       0.66123001       0.31053735       0.21979687 </v>
   <v>       0.36796187       0.09302440       0.40816806 </v>
   <v>       0.76135878       0.71764268       0.61265464 </v>
   <v>       0.66530195       0.73500147       0.10268259 </v>
   <v>       0.17078249       0.68664975       0.43341746 </v>
   <v>       0.62796624       0.15328048       0.71135682 </v>
   <v>       0.81533258       0.40863157       0.84206205 </v>
   <v>       0.78922903       0.97106189       0.89488273 </v>
   <v>       0.16116074       0.72538575       0.04421432 </v>
   <v>       0.92367984       0.65520560       0.44208669 </v>
   <v>       0.16742443       0.91239342       0.03356212 </v>
   <v>       0.01398891       0.99040455       0.84862450 </v>
   <v>       0.22778602       0.27786894       0.87329238 </v>
   <v>       0.44423607       0.37184597       0.24759704 </v>
   <v>       0.01693350       0.35059772       0.98032387 </v>
   <v>       0.60950017       0.55126402       0.55303558 </v>
   <v>       0.47036353       0.60090821       0.88971191 </v>
   <v>       0.66950622       0.91260522       0.71811936 </v>
   <v>       0.28858159       0.30312586       0.32028242 </v>
   <v>       0.41523078       0.34685052       0.97515388 </v>
   <v>       0.91610950       0.28633851       0.42609769 </v>
   <v>       0.00752986       0.32634758       0.08688582 </v>
   <v>       0.27361501       0.95711702       0.08757098 </v>
   <v>       0.16747512       0.30751766       0.32956808 </v>
   <v>       0.88819282       0.91044882       0.29730176 </v>
   <v>       0.46039837       0.38035369       0.09687101 </v>
   <v>       0.91464509       0.34581817       0.92616262 </v>
   <v>       0.65754830       0.49911740       0.43955578 </v>
   <v>       0.89468380       0.08105271       0.23434229 </v>
   <v>       0.52396160       0.63773638       0.52101557 </v>
   <v>       0.70341380       0.59746617       0.61205094 </v>
   <v>       0.30085492       0.32095371       0.78748963 </v>
   <v>       0.18035460       0.19761731       0.64145837 </v>
   <v>       0.69899310       0.02757144       0.97002361 </v>
   <v>       0.09217401       0.64910002       0.77688021 </v>
   <v>       0.67445433       0.25754459       0.11673991 </v>
   <v>       0.19462681       0.81677920       0.95963525 </v>
   <v>       0.89983141       0.04273993       0.87663472 </v>
   <v>       0.04658407       0.85347002       0.80719403 </v>
   <v>       0.65097458       0.01952067       0.64999936 </v>
   <v>       0.07868446       0.66922768       0.98029577 </v>
   <v>       0.73412430       0.18258939       0.45285653 </v>
   <v>       0.40918063       0.76493439       0.31316671 </v>
   <v>       0.55133310       0.21740910       0.64960049 </v>
   <v>       0.86273563       0.70366357       0.34223970 </v>
   <v>       0.60545878       0.77836494       0.00156522 </v>
   <v>       0.42199965       0.97333996       0.32387356 </v>
   <v>       0.85062803       0.85961460       0.93927743 </v>
   <v>       0.05018376       0.69493138       0.44977909 </v>
   <v>       0.57937669       0.86118463       0.77390331 </v>
   <v>       0.22823021       0.67338948       0.12310839 </v>
   <v>       0.90698639       0.53674639       0.44573040 </v>
   <v>       0.95799437       0.45838759       0.24944760 </v>
   <v>       0.69305506       0.81753176       0.62741817 </v>
   <v>       0.96722880       0.55141084       0.08353677 </v>
   <v>       0.70749013       0.97608683       0.35186694 </v>
   <v>       0.10805776       0.81995157       0.10561798 </v>
   <v>       0.36749355       0.84295751       0.47693160 </v>
   <v>       0.57350598       0.55411138       0.90520253 </v>
   <v>       0.30046857       0.25917064       0.97915918 </v>
   <v>       0.50450123       0.30387355       0.90042758 </v>
   <v>       0.66274866       0.43907360       0.17836539 </v>
   <v>       0.53205653       0.27428837       0.26854529 </v>
   <v>       0.71741094       0.32582502       0.85119298 </v>
   <v>       0.76776481       0.80459252       0.15889143 </v>
   <v>       0.86391669       0.39471328       0.72099267 </v>
   <v>       0.76391145       0.51104404       0.88069513 </v>
   <v>       0.37979182       0.46056760       0.95621807 </v>
   <v>       0.41096275       0.58486935       0.78047583 </v>
   <v>       0.06253719       0.02717246       0.73880750 </v>
   <v>       0.48080357       0.12598550       0.44850416 </v>
   <v>       0.11968529       0.37213226       0.79031516 </v>
   <v>       0.22413592       0.60733242       0.36631122 </v>
   <v>       0.88446388       0.07718589       0.43655355 </v>
   <v>       0.18591747       0.82545669       0.39631898 </v>
   <v>       0.31771330       0.17893942       0.32649091 </v>
   <v>       0.70715463       0.62337889       0.09237367 </v>
   <v>       0.76841338       0.94391797       0.78283418 </v>
   <v>       0.33222349       0.31790173       0.20393849 </v>
   <v>       0.74341337       0.17707280       0.72548513 </v>
   <v>       0.07109689       0.98230304       0.97567888 </v>
   <v>       0.17681507       0.42261519       0.59195261 </v>
   <v>       0.13555534       0.30074534       0.95918941 </v>
   <v>       0.54514027       0.48152716       0.62046667 </v>
   <v>       0.82928137       0.68060559       0.71832715 </v>
   <v>       0.23167099       0.89777895       0.59832073 </v>
   <v>       0.57397498       0.11912754       0.82015196 </v>
   <v>       0.74871580       0.28218326       0.28700366 </v>
   <v>       0.93196548       0.61399535       0.87241533 </v>
   <v>       0.56980757       0.70577343       0.19544722 </v>
   <v>       0.43020922       0.70457554       0.94490916 </v>
   <v>       0.54831400       0.88388386       0.44517364 </v>
   <v>       0.42875977       0.48759607       0.26928549 </v>
   <v>       0.21885460       0.69473028       0.54959281 </v>
   <v>       0.27553854       0.01576269       0.44299420 </v>
   <v>       0.38005620       0.35419210       0.40614947 </v>
   <v>       0.47500356       0.01875656       0.08631406 </v>
   <v>       0.23668099       0.14732453       0.86827061 </v>
   <v>       0.08929818       0.47347637       0.96919422 </v>
   <v>       0.81012795       0.71369557       0.49284870 </v>
   <v>       0.14124946       0.45087994       0.16562871 </v>
  </varray>
  <varray name="velocities" >
   <v>       0.00000000       0.00000000       0.00000000 </v>
   <v>       0.00000000       0.00000000       0.00000000 </v>
   <v>       0.00000000       0.00000000       0.00000000 </v>
   <v>       0.00000000       0.00000000       0.00000000 </v>
   <v>       0.00000000       0.00000000       0.00000000 </v>
   <v>       0.00000000       0.00000000       0.00000000 </v>
   <v>       0.00000000       0.00000000       0.00000000 </v>
   <v>       0.00000000       0.00000000       0.00000000 </v>
   <v>       0.00000000       0.00000000       0.00000000 </v>
   <v>       0.00000000       0.00000000       0.00000000 </v>
   <v>       0.00000000       0.00000000       0.00000000 </v>
   <v>       0.00000000       0.00000000       0.00000000 </v>
   <v>       0.00000000       0.00000000       0.00000000 </v>
   <v>       0.00000000       0.00000000       0.00000000 </v>
   <v>       0.00000000       0.00000000       0.00000000 </v>
   <v>       0.00000000       0.00000000       0.00000000 </v>
   <v>       0.00000000       0.00000000       0.00000000 </v>
   <v>       0.00000000       0.00000000       0.00000000 </v>
   <v>       0.00000000       0.00000000       0.00000000 </v>
   <v>       0.00000000       0.00000000       0.00000000 </v>
   <v>       0.00000000       0.00000000       0.00000000 </v>
   <v>       0.00000000       0.00000000       0.00000000 </v>
   <v>       0.00000000       0.00000000       0.00000000 </v>
   <v>       0.00000000       0.00000000       0.00000000 </v>
   <v>       0.00000000       0.00000000       0.00000000 </v>
   <v>       0.00000000       0.00000000       0.00000000 </v>
   <v>       0.00000000       0.00000000       0.00000000 </v>
   <v>       0.00000000       0.00000000       0.00000000 </v>
   <v>       0.00000000       0.00000000       0.00000000 </v>
   <v>       0.00000000       0.00000000       0.00000000 </v>
   <v>       0.00000000       0.00000000       0.00000000 </v>
   <v>       0.00000000       0.00000000       0.00000000 </v>
   <v>       0.00000000       0.00000000       0.00000000 </v>
   <v>       0.00000000       0.00000000       0.00000000 </v>
   <v>       0.00000000       0.00000000       0.00000000 </v>
   <v>       0.00000000       0.00000000       0.00000000 </v>
   <v>       0.00000000       0.00000000       0.00000000 </v>
   <v>       0.00000000       0.00000000       0.00000000 </v>
   <v>       0.00000000       0.00000000       0.00000000 </v>
   <v>       0.00000000       0.00000000       0.00000000 </v>
   <v>       0.00000000       0.00000000       0.00000000 </v>
   <v>       0.00000000       0.00000000       0.00000000 </v>
   <v>       0.00000000       0.00000000       0.00000000 </v>
   <v>       0.00000000       0.00000000       0.00000000 </v>
   <v>       0.00000000       0.00000000       0.00000000 </v>
   <v>       0.00000000       0.00000000       0.00000000 </v>
   <v>       0.00000000       0.00000000       0.00000000 </v>
   <v>       0.00000000       0.00000000       0.00000000 </v>
   <v>       0.00000000       0.00000000       0.00000000 </v>
   <v>       0.00000000       0.00000000       0.00000000 </v>
   <v>       0.00000000       0.00000000       0.00000000 </v>
   <v>       0.00000000       0.00000000       0.00000000 </v>
   <v>       0.00000000       0.00000000       0.00000000 </v>
   <v>       0.00000000       0.00000000       0.00000000 </v>
   <v>       0.00000000       0.00000000       0.00000000 </v>
   <v>       0.00000000       0.00000000       0.00000000 </v>
   <v>       0.00000000       0.00000000       0.00000000 </v>
   <v>       0.00000000       0.00000000       0.00000000 </v>
   <v>       0.00000000       0.00000000       0.00000000 </v>
   <v>       0.00000000       0.00000000       0.00000000 </v>
   <v>       0.00000000       0.00000000       0.00000000 </v>
   <v>       0.00000000       0.00000000       0.00000000 </v>
   <v>       0.00000000       0.00000000       0.00000000 </v>
   <v>       0.00000000       0.00000000       0.00000000 </v>
   <v>       0.00000000       0.00000000       0.00000000 </v>
   <v>       0.00000000       0.00000000       0.00000000 </v>
   <v>       0.00000000       0.00000000       0.00000000 </v>
   <v>       0.00000000       0.00000000       0.00000000 </v>
   <v>       0.00000000       0.00000000       0.00000000 </v>
   <v>       0.00000000       0.00000000       0.00000000 </v>
   <v>       0.00000000       0.00000000       0.00000000 </v>
   <v>       0.00000000       0.00000000       0.00000000 </v>
   <v>       0.00000000       0.00000000       0.00000000 </v>
   <v>       0.00000000       0.00000000       0.00000000 </v>
   <v>       0.00000000       0.00000000       0.00000000 </v>
   <v>       0.00000000       0.00000000       0.00000000 </v>
   <v>       0.00000000       0.00000000       0.00000000 </v>
   <v>       0.00000000       0.00000000       0.00000000 </v>
   <v>       0.00000000       0.00000000       0.00000000 </v>
   <v>       0.00000000       0.00000000       0.00000000 </v>
   <v>       0.00000000       0.00000000       0.00000000 </v>
   <v>       0.00000000       0.00000000       0.00000000 </v>
   <v>       0.00000000       0.00000000       0.00000000 </v>
   <v>       0.00000000       0.00000000       0.00000000 </v>
   <v>       0.00000000       0.00000000       0.00000000 </v>
   <v>       0.00000000       0.00000000       0.00000000 </v>
   <v>       0.00000000       0.00000000       0.00000000 </v>
   <v>       0.00000000       0.00000000       0.00000000 </v>
   <v>       0.00000000       0.00000000       0.00000000 </v>
   <v>       0.00000000       0.00000000       0.00000000 </v>
   <v>       0.00000000       0.00000000       0.00000000 </v>
   <v>       0.00000000       0.00000000       0.00000000 </v>
   <v>       0.00000000       0.00000000       0.00000000 </v>
   <v>       0.00000000       0.00000000       0.00000000 </v>
   <v>       0.00000000       0.00000000       0.00000000 </v>
   <v>       0.00000000       0.00000000       0.00000000 </v>
   <v>       0.00000000       0.00000000       0.00000000 </v>
   <v>       0.00000000       0.00000000       0.00000000 </v>
   <v>       0.00000000       0.00000000       0.00000000 </v>
   <v>       0.00000000       0.00000000       0.00000000 </v>
   <v>       0.00000000       0.00000000       0.00000000 </v>
   <v>       0.00000000       0.00000000       0.00000000 </v>
   <v>       0.00000000       0.00000000       0.00000000 </v>
   <v>       0.00000000       0.00000000       0.00000000 </v>
   <v>       0.00000000       0.00000000       0.00000000 </v>
   <v>       0.00000000       0.00000000       0.00000000 </v>
   <v>       0.00000000       0.00000000       0.00000000 </v>
   <v>       0.00000000       0.00000000       0.00000000 </v>
   <v>       0.00000000       0.00000000       0.00000000 </v>
   <v>       0.00000000       0.00000000       0.00000000 </v>
   <v>       0.00000000       0.00000000       0.00000000 </v>
   <v>       0.00000000       0.00000000       0.00000000 </v>
   <v>       0.00000000       0.00000000       0.00000000 </v>
   <v>       0.00000000       0.00000000       0.00000000 </v>
   <v>       0.00000000       0.00000000       0.00000000 </v>
   <v>       0.00000000       0.00000000       0.00000000 </v>
   <v>       0.00000000       0.00000000       0.00000000 </v>
   <v>       0.00000000       0.00000000       0.00000000 </v>
   <v>       0.00000000       0.00000000       0.00000000 </v>
   <v>       0.00000000       0.00000000       0.00000000 </v>
   <v>       0.00000000       0.00000000       0.00000000 </v>
   <v>       0.00000000       0.00000000       0.00000000 </v>
   <v>       0.00000000       0.00000000       0.00000000 </v>
   <v>       0.00000000       0.00000000       0.00000000 </v>
   <v>       0.00000000       0.00000000       0.00000000 </v>
   <v>       0.00000000       0.00000000       0.00000000 </v>
   <v>       0.00000000       0.00000000       0.00000000 </v>
   <v>       0.00000000       0.00000000       0.00000000 </v>
   <v>       0.00000000       0.00000000       0.00000000 </v>
   <v>       0.00000000       0.00000000       0.00000000 </v>
   <v>       0.00000000       0.00000000       0.00000000 </v>
   <v>       0.00000000       0.00000000       0.00000000 </v>
   <v>       0.00000000       0.00000000       0.00000000 </v>
   <v>       0.00000000       0.00000000       0.00000000 </v>
   <v>       0.00000000       0.00000000       0.00000000 </v>
  </varray>
 </structure>
 <calculation>
  <scstep>
   <time name="dav">   51.26   51.48</time>
   <time name="total">   51.75   51.99</time>
   <energy>
    <i name="alphaZ">   2026.14881195 </i>
    <i name="ewald"> -34422.31588346 </i>
    <i name="hartreedc"> -26246.45069541 </i>
    <i name="XCdc">   3131.52833506 </i>
    <i name="pawpsdc">  50594.51003143 </i>
    <i name="pawaedc"> -49994.65612350 </i>
    <i name="eentropy">     -0.03295816 </i>
    <i name="bandstr">   -782.22736234 </i>
    <i name="atom">  64968.54023382 </i>
    <i name="e_fr_energy">   9275.04438940 </i>
    <i name="e_wo_entrp">   9275.07734756 </i>
    <i name="e_0_energy">   9275.06086848 </i>
   </energy>
  </scstep>
  <scstep>
   <time name="dav">   60.00   60.28</time>
   <time name="total">   60.00   60.28</time>
   <energy>
    <i name="e_fr_energy">     -3.37735681 </i>
    <i name="e_wo_entrp">     -3.37735681 </i>
    <i name="e_0_energy">     -3.37735681 </i>
   </energy>
  </scstep>
  <scstep>
   <time name="dav">   60.48   60.83</time>
   <time name="total">   60.48   60.83</time>
   <energy>
    <i name="e_fr_energy">  -1030.78888982 </i>
    <i name="e_wo_entrp">  -1030.78888982 </i>
    <i name="e_0_energy">  -1030.78888982 </i>
   </energy>
  </scstep>
  <scstep>
   <time name="dav">   63.43   63.75</time>
   <time name="total">   63.43   63.75</time>
   <energy>
    <i name="e_fr_energy">  -1078.30509940 </i>
    <i name="e_wo_entrp">  -1078.30509940 </i>
    <i name="e_0_energy">  -1078.30509940 </i>
   </energy>
  </scstep>
  <scstep>
   <time name="dav">   84.44   85.22</time>
   <time name="total">   86.94   87.73</time>
   <energy>
    <i name="e_fr_energy">  -1085.11611800 </i>
    <i name="e_wo_entrp">  -1085.11611800 </i>
    <i name="e_0_energy">  -1085.11611800 </i>
   </energy>
  </scstep>
  <scstep>
   <time name="dav">   60.35   60.65</time>
   <time name="total">   63.32   63.64</time>
   <energy>
    <i name="e_fr_energy">   -923.02797332 </i>
    <i name="e_wo_entrp">   -923.02797332 </i>
    <i name="e_0_energy">   -923.02797332 </i>
   </energy>
  </scstep>
  <scstep>
   <time name="dav">   73.15   73.93</time>
   <time name="total">   76.06   76.87</time>
   <energy>
    <i name="e_fr_energy">   -923.63686310 </i>
    <i name="e_wo_entrp">   -923.63686310 </i>
    <i name="e_0_energy">   -923.63686310 </i>
   </energy>
  </scstep>
  <scstep>
   <time name="dav">   61.62   61.93</time>
   <time name="total">   64.58   64.90</time>
   <energy>
    <i name="e_fr_energy">   -921.39530000 </i>
    <i name="e_wo_entrp">   -921.39530000 </i>
    <i name="e_0_energy">   -921.39530000 </i>
   </energy>
  </scstep>
  <scstep>
   <time name="dav">   65.81   66.16</time>
   <time name="total">   68.77   69.18</time>
   <energy>
    <i name="e_fr_energy">   -920.76761179 </i>
    <i name="e_wo_entrp">   -920.75333729 </i>
    <i name="e_0_energy">   -920.76047454 </i>
   </energy>
  </scstep>
  <scstep>
   <time name="dav">   67.70   68.07</time>
   <time name="total">   70.75   71.13</time>
   <energy>
    <i name="e_fr_energy">   -920.86704885 </i>
    <i name="e_wo_entrp">   -920.86704792 </i>
    <i name="e_0_energy">   -920.86704839 </i>
   </energy>
  </scstep>
  <scstep>
   <time name="dav">   63.78   64.10</time>
   <time name="total">   66.73   67.07</time>
   <energy>
    <i name="e_fr_energy">   -920.87350471 </i>
    <i name="e_wo_entrp">   -920.86748949 </i>
    <i name="e_0_energy">   -920.87049710 </i>
   </energy>
  </scstep>
  <scstep>
   <time name="dav">   64.78   65.14</time>
   <time name="total">   67.79   68.17</time>
   <energy>
    <i name="e_fr_energy">   -920.90224816 </i>
    <i name="e_wo_entrp">   -920.89831263 </i>
    <i name="e_0_energy">   -920.90028039 </i>
   </energy>
  </scstep>
  <scstep>
   <time name="dav">   59.22   59.61</time>
   <time name="total">   62.16   62.58</time>
   <energy>
    <i name="e_fr_energy">   -920.91901754 </i>
    <i name="e_wo_entrp">   -920.90990382 </i>
    <i name="e_0_energy">   -920.91446068 </i>
   </energy>
  </scstep>
  <scstep>
   <time name="dav">   68.06   68.49</time>
   <time name="total">   71.00   71.45</time>
   <energy>
    <i name="e_fr_energy">   -920.92315952 </i>
    <i name="e_wo_entrp">   -920.92007404 </i>
    <i name="e_0_energy">   -920.92161678 </i>
   </energy>
  </scstep>
  <scstep>
   <time name="dav">   61.76   62.08</time>
   <time name="total">   64.71   65.06</time>
   <energy>
    <i name="e_fr_energy">   -920.92330742 </i>
    <i name="e_wo_entrp">   -920.91784022 </i>
    <i name="e_0_energy">   -920.92057382 </i>
   </energy>
  </scstep>
  <scstep>
   <time name="dav">   56.38   56.69</time>
   <time name="total">   59.30   59.66</time>
   <energy>
    <i name="e_fr_energy">   -920.92404032 </i>
    <i name="e_wo_entrp">   -920.91803557 </i>
    <i name="e_0_energy">   -920.92103794 </i>
   </energy>
  </scstep>
  <scstep>
   <time name="dav">   65.59   65.91</time>
   <time name="total">   68.59   68.92</time>
   <energy>
    <i name="e_fr_energy">   -920.92420702 </i>
    <i name="e_wo_entrp">   -920.91826054 </i>
    <i name="e_0_energy">   -920.92123378 </i>
   </energy>
  </scstep>
  <scstep>
   <time name="dav">   61.86   62.58</time>
   <time name="total">   64.79   65.60</time>
   <energy>
    <i name="e_fr_energy">   -920.92424642 </i>
    <i name="e_wo_entrp">   -920.91818433 </i>
    <i name="e_0_energy">   -920.92121537 </i>
   </energy>
  </scstep>
  <scstep>
   <time name="dav">   62.91   63.29</time>
   <time name="total">   65.86   66.27</time>
   <energy>
    <i name="e_fr_energy">   -920.92425920 </i>
    <i name="e_wo_entrp">   -920.91857645 </i>
    <i name="e_0_energy">   -920.92141782 </i>
   </energy>
  </scstep>
  <scstep>
   <time name="dav">   55.45   55.72</time>
   <time name="total">   58.41   58.71</time>
   <energy>
    <i name="e_fr_energy">   -920.92426507 </i>
    <i name="e_wo_entrp">   -920.91841167 </i>
    <i name="e_0_energy">   -920.92133837 </i>
   </energy>
  </scstep>
  <scstep>
   <time name="dav">   59.63   59.89</time>
   <time name="total">   62.59   62.87</time>
   <energy>
    <i name="e_fr_energy">   -920.92426736 </i>
    <i name="e_wo_entrp">   -920.91843608 </i>
    <i name="e_0_energy">   -920.92135172 </i>
   </energy>
  </scstep>
  <scstep>
   <time name="dav">   41.19   41.38</time>
   <time name="total">   41.69   41.89</time>
   <energy>
    <i name="alphaZ">   2026.14881195 </i>
    <i name="ewald"> -34422.31588346 </i>
    <i name="hartreedc"> -28101.05661099 </i>
    <i name="XCdc">   3239.65474180 </i>
    <i name="pawpsdc">  88497.48847238 </i>
    <i name="pawaedc"> -88163.63915384 </i>
    <i name="eentropy">     -0.00583132 </i>
    <i name="bandstr">  -8965.73904837 </i>
    <i name="atom">  64968.54023382 </i>
    <i name="e_fr_energy">   -920.92426803 </i>
    <i name="e_wo_entrp">   -920.91843670 </i>
    <i name="e_0_energy">   -920.92135236 </i>
   </energy>
  </scstep>
  <structure>
   <crystal>
    <varray name="basis" >
     <v>      13.31093562       0.00000000       0.00000000 </v>
     <v>       0.00000000      13.31093562       0.00000000 </v>
     <v>       0.00000000       0.00000000      13.31093562 </v>
    </varray>
    <i name="volume">   2358.44497833 </i>
    <varray name="rec_basis" >
     <v>       0.07512620       0.00000000       0.00000000 </v>
     <v>       0.00000000       0.07512620       0.00000000 </v>
     <v>       0.00000000       0.00000000       0.07512620 </v>
    </varray>
   </crystal>
   <varray name="positions" >
    <v>       0.57934008       0.37756537       0.73979617 </v>
    <v>       0.91142142       0.89723197       0.07551171 </v>
    <v>       0.02702987       0.41093013       0.38796984 </v>
    <v>       0.24705752       0.04913139       0.73094891 </v>
    <v>       0.39777627       0.61020467       0.39137797 </v>
    <v>       0.41456042       0.12038390       0.87267872 </v>
    <v>       0.74477444       0.67856584       0.91605609 </v>
    <v>       0.53093972       0.29918736       0.49031240 </v>
    <v>       0.98024532       0.51857849       0.72573758 </v>
    <v>       0.73416331       0.78828415       0.34840011 </v>
    <v>       0.88170096       0.29763147       0.20611206 </v>
    <v>       0.27128802       0.49169951       0.79981789 </v>
    <v>       0.55218007       0.53842968       0.13465412 </v>
    <v>       0.93451242       0.76778032       0.78981410 </v>
    <v>       0.35591149       0.07732282       0.15191887 </v>
    <v>       0.19045225       0.29188806       0.13719162 </v>
    <v>       0.13004077       0.75357530       0.68305573 </v>
    <v>       0.62586776       0.03513358       0.48324366 </v>
    <v>       0.66191727       0.17236768       0.98224718 </v>
    <v>       0.78554762       0.31202882       0.62498936 </v>
    <v>       0.01509197       0.81153880       0.31595628 </v>
    <v>       0.29322942       0.51516279       0.13029744 </v>
    <v>       0.76703348       0.47146324       0.33298480 </v>
    <v>       0.65240999       0.41240646       0.00050465 </v>
    <v>       0.38771702       0.74729532       0.12405582 </v>
    <v>       0.52578389       0.79116780       0.62668813 </v>
    <v>       0.52066800       0.91793539       0.96222164 </v>
    <v>       0.25242145       0.89869177       0.48806246 </v>
    <v>       0.44702729       0.86134968       0.38144080 </v>
    <v>       0.02099108       0.47564099       0.15424719 </v>
    <v>       0.85834753       0.18700472       0.43186520 </v>
    <v>       0.18343980       0.31220896       0.67634139 </v>
    <v>       0.00659945       0.58018821       0.96502543 </v>
    <v>       0.84079195       0.01467511       0.33737912 </v>
    <v>       0.66123001       0.31053735       0.21979687 </v>
    <v>       0.36796187       0.09302440       0.40816806 </v>
    <v>       0.76135878       0.71764268       0.61265464 </v>
    <v>       0.66530195       0.73500147       0.10268259 </v>
    <v>       0.17078249       0.68664975       0.43341746 </v>
    <v>       0.62796624       0.15328048       0.71135682 </v>
    <v>       0.81533258       0.40863157       0.84206205 </v>
    <v>       0.78922903       0.97106189       0.89488273 </v>
    <v>       0.16116074       0.72538575       0.04421432 </v>
    <v>       0.92367984       0.65520560       0.44208669 </v>
    <v>       0.16742443       0.91239342       0.03356212 </v>
    <v>       0.01398891       0.99040455       0.84862450 </v>
    <v>       0.22778602       0.27786894       0.87329238 </v>
    <v>       0.44423607       0.37184597       0.24759704 </v>
    <v>       0.01693350       0.35059772       0.98032387 </v>
    <v>       0.60950017       0.55126402       0.55303558 </v>
    <v>       0.47036353       0.60090821       0.88971191 </v>
    <v>       0.66950622       0.91260522       0.71811936 </v>
    <v>       0.28858159       0.30312586       0.32028242 </v>
    <v>       0.41523078       0.34685052       0.97515388 </v>
    <v>       0.91610950       0.28633851       0.42609769 </v>
    <v>       0.00752986       0.32634758       0.08688582 </v>
    <v>       0.27361501       0.95711702       0.08757098 </v>
    <v>       0.16747512       0.30751766       0.32956808 </v>
    <v>       0.88819282       0.91044882       0.29730176 </v>
    <v>       0.46039837       0.38035369       0.09687101 </v>
    <v>       0.91464509       0.34581817       0.92616262 </v>
    <v>       0.65754830       0.49911740       0.43955578 </v>
    <v>       0.89468380       0.08105271       0.23434229 </v>
    <v>       0.52396160       0.63773638       0.52101557 </v>
    <v>       0.70341380       0.59746617       0.61205094 </v>
    <v>       0.30085492       0.32095371       0.78748963 </v>
    <v>       0.18035460       0.19761731       0.64145837 </v>
    <v>       0.69899310       0.02757144       0.97002361 </v>
    <v>       0.09217401       0.64910002       0.77688021 </v>
    <v>       0.67445433       0.25754459       0.11673991 </v>
    <v>       0.19462681       0.81677920       0.95963525 </v>
    <v>       0.89983141       0.04273993       0.87663472 </v>
    <v>       0.04658407       0.85347002       0.80719403 </v>
    <v>       0.65097458       0.01952067       0.64999936 </v>
    <v>       0.07868446       0.66922768       0.98029577 </v>
    <v>       0.73412430       0.18258939       0.45285653 </v>
    <v>       0.40918063       0.76493439       0.31316671 </v>
    <v>       0.55133310       0.21740910       0.64960049 </v>
    <v>       0.86273563       0.70366357       0.34223970 </v>
    <v>       0.60545878       0.77836494       0.00156522 </v>
    <v>       0.42199965       0.97333996       0.32387356 </v>
    <v>       0.85062803       0.85961460       0.93927743 </v>
    <v>       0.05018376       0.69493138       0.44977909 </v>
    <v>       0.57937669       0.86118463       0.77390331 </v>
    <v>       0.22823021       0.67338948       0.12310839 </v>
    <v>       0.90698639       0.53674639       0.44573040 </v>
    <v>       0.95799437       0.45838759       0.24944760 </v>
    <v>       0.69305506       0.81753176       0.62741817 </v>
    <v>       0.96722880       0.55141084       0.08353677 </v>
    <v>       0.70749013       0.97608683       0.35186694 </v>
    <v>       0.10805776       0.81995157       0.10561798 </v>
    <v>       0.36749355       0.84295751       0.47693160 </v>
    <v>       0.57350598       0.55411138       0.90520253 </v>
    <v>       0.30046857       0.25917064       0.97915918 </v>
    <v>       0.50450123       0.30387355       0.90042758 </v>
    <v>       0.66274866       0.43907360       0.17836539 </v>
    <v>       0.53205653       0.27428837       0.26854529 </v>
    <v>       0.71741094       0.32582502       0.85119298 </v>
    <v>       0.76776481       0.80459252       0.15889143 </v>
    <v>       0.86391669       0.39471328       0.72099267 </v>
    <v>       0.76391145       0.51104404       0.88069513 </v>
    <v>       0.37979182       0.46056760       0.95621807 </v>
    <v>       0.41096275       0.58486935       0.78047583 </v>
    <v>       0.06253719       0.02717246       0.73880750 </v>
    <v>       0.48080357       0.12598550       0.44850416 </v>
    <v>       0.11968529       0.37213226       0.79031516 </v>
    <v>       0.22413592       0.60733242       0.36631122 </v>
    <v>       0.88446388       0.07718589       0.43655355 </v>
    <v>       0.18591747       0.82545669       0.39631898 </v>
    <v>       0.31771330       0.17893942       0.32649091 </v>
    <v>       0.70715463       0.62337889       0.09237367 </v>
    <v>       0.76841338       0.94391797       0.78283418 </v>
    <v>       0.33222349       0.31790173       0.20393849 </v>
    <v>       0.74341337       0.17707280       0.72548513 </v>
    <v>       0.07109689       0.98230304       0.97567888 </v>
    <v>       0.17681507       0.42261519       0.59195261 </v>
    <v>       0.13555534       0.30074534       0.95918941 </v>
    <v>       0.54514027       0.48152716       0.62046667 </v>
    <v>       0.82928137       0.68060559       0.71832715 </v>
    <v>       0.23167099       0.89777895       0.59832073 </v>
    <v>       0.57397498       0.11912754       0.82015196 </v>
    <v>       0.74871580       0.28218326       0.28700366 </v>
    <v>       0.93196548       0.61399535       0.87241533 </v>
    <v>       0.56980757       0.70577343       0.19544722 </v>
    <v>       0.43020922       0.70457554       0.94490916 </v>
    <v>       0.54831400       0.88388386       0.44517364 </v>
    <v>       0.42875977       0.48759607       0.26928549 </v>
    <v>       0.21885460       0.69473028       0.54959281 </v>
    <v>       0.27553854       0.01576269       0.44299420 </v>
    <v>       0.38005620       0.35419210       0.40614947 </v>
    <v>       0.47500356       0.01875656       0.08631406 </v>
    <v>       0.23668099       0.14732453       0.86827061 </v>
    <v>       0.08929818       0.47347637       0.96919422 </v>
    <v>       0.81012795       0.71369557       0.49284870 </v>
    <v>       0.14124946       0.45087994       0.16562871 </v>
   </varray>
  </structure>
  <varray name="forces" >
   <v>      -1.17514716       0.28939073       2.04854666 </v>
   <v>      -0.52837799       0.09298649       2.49223849 </v>
   <v>       1.89661707      -0.03276144       2.10024323 </v>
   <v>      -4.37967615       0.24064465      -1.86829384 </v>
   <v>       0.13931125       1.12610729       1.18929914 </v>
   <v>       0.49234759       2.18234565       1.15031927 </v>
   <v>      -0.17151567      -1.05373044       0.07698228 </v>
   <v>      -0.86012234      -0.62023011      -0.78319000 </v>
   <v>       1.96138944       1.09900656       0.38635462 </v>
   <v>      -1.58976554       2.40347420      -1.74296119 </v>
   <v>       1.01115973      -2.47045525      -0.82354114 </v>
   <v>      -0.65813444       1.21538128      -0.75788810 </v>
   <v>       0.11618553       3.26895446       0.49724195 </v>
   <v>      -1.05848594      -1.26834831       2.27466940 </v>
   <v>       0.38589475      -0.27308207       1.74731805 </v>
   <v>      -2.69350022      -0.58153298      -1.96313089 </v>
   <v>       2.38883558       2.32124074      -1.71288508 </v>
   <v>      -0.24366629      -0.32065678      -1.67626545 </v>
   <v>      -0.75252419       0.81975927      -1.50590372 </v>
   <v>      -0.34780031      -2.37999599      -1.05044301 </v>
   <v>      -0.11131436       0.77120721      -0.53885186 </v>
   <v>      -0.74153901      -0.15269125      -0.09895232 </v>
   <v>       0.34314908       1.34697887       0.28933375 </v>
   <v>       0.60004472       0.35928656      -1.52406562 </v>
   <v>       1.46536775       1.70393632       1.09269361 </v>
   <v>      -2.38016018      -1.49056165      -2.50326304 </v>
   <v>       1.84641873      -0.94365909       0.58164760 </v>
   <v>       2.99634091      -2.31401669      -5.19268662 </v>
   <v>      -1.50123937       1.22375124      -0.33195606 </v>
   <v>       3.96453585      -1.86294859      -1.71662687 </v>
   <v>      -6.33730711       1.74603979      -0.25010675 </v>
   <v>      -1.84013457       4.61377014      -0.96172321 </v>
   <v>      -0.03928051      -3.12017114      -1.91866893 </v>
   <v>      -2.58820334      -1.18404801      -5.10534047 </v>
   <v>      -5.63171987       1.79241984      -1.93114523 </v>
   <v>       1.77367421      -3.59251626      -2.68596349 </v>
   <v>       2.05651467      -5.75634334       1.41086615 </v>
   <v>      -0.22066583       2.35412161       4.66071217 </v>
   <v>       4.37741150       3.31924370       4.97179095 </v>
   <v>       1.42515609      -4.84012191       2.76004654 </v>
   <v>      -0.64268634      -2.73410517      -0.28908830 </v>
   <v>       2.59770080       0.56753272       4.31653524 </v>
   <v>      -1.48877589       3.47953207      -2.62959850 </v>
   <v>      -2.96994003       0.69716900      -2.47163204 </v>
   <v>       0.25414587       0.64301368      -0.43454922 </v>
   <v>       2.29014048      -2.38818174      -2.59643076 </v>
   <v>      -3.35020106      -3.55506974       1.43111303 </v>
   <v>       1.54403095      -3.47525890      -1.29868879 </v>
   <v>       7.15862994       3.63696643      -8.76326116 </v>
   <v>      -1.11758350       2.18800899      -5.03626524 </v>
   <v>      -5.19572425       2.62885195      -2.55544709 </v>
   <v>       1.03909102       2.65661770      -1.72937100 </v>
   <v>      -0.04841326      -1.93965772       6.39761067 </v>
   <v>      -0.20335294      -0.40910027       1.33095695 </v>
   <v>       1.40537277       1.99891389      -0.17150380 </v>
   <v>      -1.55013321      -0.72733736       9.76351160 </v>
   <v>      -3.62135774      -1.00863372      -1.56834229 </v>
   <v>       0.87130077       0.79785295      -1.06167053 </v>
   <v>       1.42855205      -1.58797814       1.37725187 </v>
   <v>       0.76809905      -0.29480076       0.32242434 </v>
   <v>      -3.72277421       1.29877837      -2.73673079 </v>
   <v>      -1.09144473      -0.46935598       2.21490722 </v>
   <v>      -1.60537890       1.55655412       2.05318145 </v>
   <v>       0.79669084       0.63952114      -0.06909947 </v>
   <v>       0.96861322       2.63818570       0.60395286 </v>
   <v>       0.88857118       0.60949897      -1.52632627 </v>
   <v>       0.96409538       0.55591474       0.78599140 </v>
   <v>       3.16049424      -3.89254917      -2.34564368 </v>
   <v>      -0.89846099      -3.06223595      -0.23603370 </v>
   <v>       0.46238083      -0.49326550      -2.72148458 </v>
   <v>       2.23961243      -0.99305059      -0.41159252 </v>
   <v>      -0.14639414      -1.34223713       0.81411221 </v>
   <v>       1.39779117       4.99086503       1.55705621 </v>
   <v>      -1.09531903      -0.72947003       1.10320252 </v>
   <v>       1.60059986       1.75291559       1.04837014 </v>
   <v>       1.66732068       1.69766236       1.46516370 </v>
   <v>       0.68464745      -0.28124010      -0.98650890 </v>
   <v>      -0.60932545       2.48831593      -1.81777929 </v>
   <v>       5.25161533      -1.81423563      -1.38033652 </v>
   <v>       1.61720199       0.34707922       0.44214091 </v>
   <v>      -1.09391463       1.65680111       0.29276782 </v>
   <v>      -2.27269825       1.06100029      -1.78940629 </v>
   <v>      -5.44076955      -0.62614103      -0.33284873 </v>
   <v>      -1.34670272       0.01270896       0.76056803 </v>
   <v>       2.82811769      -2.17574274       0.70244270 </v>
   <v>       1.07069786      -1.05423327       0.61543916 </v>
   <v>      -2.33439482      -1.45374176       1.77687935 </v>
   <v>       0.32533108       1.35697017       0.52670569 </v>
   <v>      -1.81776356       1.71107080      -1.07958103 </v>
   <v>       4.52374544       1.22178678       0.32908383 </v>
   <v>      -2.10383786       2.06829879       2.45527843 </v>
   <v>      -0.73303365       0.79095068       0.92194576 </v>
   <v>       2.79583242      -1.88909825       1.46861731 </v>
   <v>       5.44479524       3.13331869       2.06072014 </v>
   <v>      -0.95555606       0.04384327       1.56703022 </v>
   <v>       1.00406531      -3.08675959       2.42825330 </v>
   <v>       0.94621537       3.71695503      -0.49560059 </v>
   <v>       0.78050415       1.43461003       0.79422815 </v>
   <v>      -2.28134946      -1.05210690      -1.75584346 </v>
   <v>       0.04441851       1.84049239       3.43574498 </v>
   <v>       0.92641651      -1.19235838       0.24647625 </v>
   <v>      -1.68687084       1.74798059      -0.72986292 </v>
   <v>       0.82281776      -0.20774085       1.86753971 </v>
   <v>       0.25221305       0.88294889       2.82100738 </v>
   <v>      -2.34627613       0.91106365       0.67770254 </v>
   <v>       1.98219043      -2.16754930      -2.46831017 </v>
   <v>      -0.02803848      -1.00875514      -1.85317741 </v>
   <v>       2.79133266      -4.54718168       0.92618959 </v>
   <v>      -0.92397125      -0.20184565       0.88301084 </v>
   <v>       0.45215344      -1.42346189       0.69395701 </v>
   <v>       0.58807654      -2.07772070      -2.36563271 </v>
   <v>      -1.28206008      -1.57720692      -2.73000295 </v>
   <v>       0.85631661       1.24775249       1.11468310 </v>
   <v>       0.27150127       1.53884143      -1.53942166 </v>
   <v>       0.79149488      -0.57219189       0.28319548 </v>
   <v>       0.13200465      -3.68712598       2.75369412 </v>
   <v>      -1.80422497      -1.10741611       0.75929296 </v>
   <v>      -0.25172762      -4.47209113       1.41249012 </v>
   <v>      -2.41427225       1.25022974      -3.91245683 </v>
   <v>      -1.82657350       1.19996516       5.51557087 </v>
   <v>      -0.80170663      -0.20647877      -0.50952621 </v>
   <v>       2.06259702       1.19231257       3.11807296 </v>
   <v>      -0.13298474      -1.58686388       2.79827392 </v>
   <v>       0.22895132       0.17177884      -2.01488586 </v>
   <v>      -0.27928407      -1.70486527       1.17112695 </v>
   <v>       1.19852383      -1.24741329       0.79204486 </v>
   <v>       0.37099647       1.43494355      -1.56122020 </v>
   <v>      -1.17483865      -0.79626267      -2.01339834 </v>
   <v>      -0.07678579       1.68635495       0.54277243 </v>
   <v>      -1.39129986      -0.96288595      -3.81634323 </v>
   <v>       1.04812186       0.05682507      -2.93102071 </v>
   <v>       0.52629108      -0.13928755      -2.15084124 </v>
   <v>      -3.82724773       0.47901626      -0.84829503 </v>
   <v>       0.92204510       0.74034605       4.92321467 </v>
   <v>      -0.44909109       0.93119801       0.18510611 </v>
  </varray>
  <varray name="stress" >
   <v>     -33.79978887      10.45753463      -1.22491171 </v>
   <v>      10.45753468     -33.02401749       1.00959275 </v>
   <v>      -1.22491174       1.00959274     -17.86013480 </v>
  </varray>
  <energy>
   <i name="e_fr_energy">   -920.92426803 </i>
   <i name="e_wo_entrp">   -920.92135236 </i>
   <i name="e_0_energy">     -0.00583132 </i>
  </energy>
  <time name="totalsc"> 1478.50 1487.69</time>
  <eigenvalues>
   <array>
    <dimension dim="1">band</dimension>
    <dimension dim="2">kpoint</dimension>
    <dimension dim="3">spin</dimension>
    <field>eigene</field>
    <field>occ</field>
    <set>
     <set comment="spin 1">
      <set comment="kpoint 1">
       <r>  -40.0388    1.0000 </r>
       <r>  -39.9081    1.0000 </r>
       <r>  -39.6022    1.0000 </r>
       <r>  -39.5431    1.0000 </r>
       <r>  -39.5123    1.0000 </r>
       <r>  -39.2561    1.0000 </r>
       <r>  -39.1748    1.0000 </r>
       <r>  -39.1287    1.0000 </r>
       <r>  -39.0561    1.0000 </r>
       <r>  -38.9909    1.0000 </r>
       <r>  -38.8497    1.0000 </r>
[...]
       <r>     1.5693    36.5137   849.1609 </r>
       <r>     1.7410    24.6641   853.3952 </r>
       <r>     1.9127    22.9993   857.3436 </r>
       <r>     2.0843    15.9133   860.0756 </r>
       <r>     2.2560    11.7286   862.0891 </r>
       <r>     2.4277    12.3510   864.2095 </r>
       <r>     2.5994    10.4179   865.9980 </r>
       <r>     2.7710     0.0117   866.0000 </r>
       <r>     2.9427     0.5174   866.0888 </r>
       <r>     3.1144     8.3514   867.5226 </r>
       <r>     3.2861    14.2915   869.9761 </r>
       <r>     3.4577     0.2290   870.0154 </r>
       <r>     3.6294    14.3031   872.4709 </r>
       <r>     3.8011    17.5255   875.4796 </r>
       <r>     3.9728    10.7607   877.3270 </r>
       <r>     4.1445    14.1205   879.7511 </r>
       <r>     4.3161    22.8707   883.6775 </r>
       <r>     4.4878    26.9804   888.3094 </r>
       <r>     4.6595    36.4220   894.5622 </r>
       <r>     4.8312    44.6672   902.2305 </r>
       <r>     5.0028    43.1920   909.6455 </r>
       <r>     5.1745    49.2903   918.1075 </r>
       <r>     5.3462    51.4821   926.9458 </r>
       <r>     5.5179    67.9473   938.6107 </r>
       <r>     5.6895    60.9719   949.0782 </r>
       <r>     5.8612    70.2821   961.1439 </r>
       <r>     6.0329    78.0721   974.5471 </r>
       <r>     6.2046    84.8502   989.1138 </r>
       <r>     6.3762    92.3065  1004.9607 </r>
       <r>     6.5479    95.6458  1021.3808 </r>
       <r>     6.7196    88.8042  1036.6264 </r>
       <r>     6.8913    19.6482  1039.9995 </r>
       <r>     7.0630     0.0028  1040.0000 </r>
       <r>     7.2346     0.0000  1040.0000 </r>
       <r>     7.4063     0.0000  1040.0000 </r>
       <r>     7.5780     0.0000  1040.0000 </r>
       <r>     7.7497     0.0000  1040.0000 </r>
       <r>     7.9213     0.0000  1040.0000 </r>
       <r>     8.0930     0.0000  1040.0000 </r>
       <r>     8.2647     0.0000  1040.0000 </r>
       <r>     8.4364     0.0000  1040.0000 </r>
       <r>     8.6080     0.0000  1040.0000 </r>
       <r>     8.7797     0.0000  1040.0000 </r>
       <r>     8.9514     0.0000  1040.0000 </r>
       <r>     9.1231     0.0000  1040.0000 </r>
      </set>
     </set>
    </array>
   </total>
  </dos>
 </calculation>
 <structure name="finalpos" >
  <crystal>
   <varray name="basis" >
    <v>      13.31093562       0.00000000       0.00000000 </v>
    <v>       0.00000000      13.31093562       0.00000000 </v>
    <v>       0.00000000       0.00000000      13.31093562 </v>
   </varray>
   <i name="volume">   2358.44497833 </i>
   <varray name="rec_basis" >
    <v>       0.07512620       0.00000000       0.00000000 </v>
    <v>       0.00000000       0.07512620       0.00000000 </v>
    <v>       0.00000000       0.00000000       0.07512620 </v>
   </varray>
  </crystal>
  <varray name="positions" >
   <v>       0.57934008       0.37756537       0.73979617 </v>
   <v>       0.91142142       0.89723197       0.07551171 </v>
   <v>       0.02702987       0.41093013       0.38796984 </v>
   <v>       0.24705752       0.04913139       0.73094891 </v>
   <v>       0.39777627       0.61020467       0.39137797 </v>
   <v>       0.41456042       0.12038390       0.87267872 </v>
   <v>       0.74477444       0.67856584       0.91605609 </v>
   <v>       0.53093972       0.29918736       0.49031240 </v>
   <v>       0.98024532       0.51857849       0.72573758 </v>
   <v>       0.73416331       0.78828415       0.34840011 </v>
   <v>       0.88170096       0.29763147       0.20611206 </v>
   <v>       0.27128802       0.49169951       0.79981789 </v>
   <v>       0.55218007       0.53842968       0.13465412 </v>
   <v>       0.93451242       0.76778032       0.78981410 </v>
   <v>       0.35591149       0.07732282       0.15191887 </v>
   <v>       0.19045225       0.29188806       0.13719162 </v>
   <v>       0.13004077       0.75357530       0.68305573 </v>
   <v>       0.62586776       0.03513358       0.48324366 </v>
   <v>       0.66191727       0.17236768       0.98224718 </v>
   <v>       0.78554762       0.31202882       0.62498936 </v>
   <v>       0.01509197       0.81153880       0.31595628 </v>
   <v>       0.29322942       0.51516279       0.13029744 </v>
   <v>       0.76703348       0.47146324       0.33298480 </v>
   <v>       0.65240999       0.41240646       0.00050465 </v>
   <v>       0.38771702       0.74729532       0.12405582 </v>
   <v>       0.52578389       0.79116780       0.62668813 </v>
   <v>       0.52066800       0.91793539       0.96222164 </v>
   <v>       0.25242145       0.89869177       0.48806246 </v>
   <v>       0.44702729       0.86134968       0.38144080 </v>
   <v>       0.02099108       0.47564099       0.15424719 </v>
   <v>       0.85834753       0.18700472       0.43186520 </v>
   <v>       0.18343980       0.31220896       0.67634139 </v>
   <v>       0.00659945       0.58018821       0.96502543 </v>
   <v>       0.84079195       0.01467511       0.33737912 </v>
   <v>       0.66123001       0.31053735       0.21979687 </v>
   <v>       0.36796187       0.09302440       0.40816806 </v>
   <v>       0.76135878       0.71764268       0.61265464 </v>
   <v>       0.66530195       0.73500147       0.10268259 </v>
   <v>       0.17078249       0.68664975       0.43341746 </v>
   <v>       0.62796624       0.15328048       0.71135682 </v>
   <v>       0.81533258       0.40863157       0.84206205 </v>
   <v>       0.78922903       0.97106189       0.89488273 </v>
   <v>       0.16116074       0.72538575       0.04421432 </v>
   <v>       0.92367984       0.65520560       0.44208669 </v>
   <v>       0.16742443       0.91239342       0.03356212 </v>
   <v>       0.01398891       0.99040455       0.84862450 </v>
   <v>       0.22778602       0.27786894       0.87329238 </v>
   <v>       0.44423607       0.37184597       0.24759704 </v>
   <v>       0.01693350       0.35059772       0.98032387 </v>
   <v>       0.60950017       0.55126402       0.55303558 </v>
   <v>       0.47036353       0.60090821       0.88971191 </v>
   <v>       0.66950622       0.91260522       0.71811936 </v>
   <v>       0.28858159       0.30312586       0.32028242 </v>
   <v>       0.41523078       0.34685052       0.97515388 </v>
   <v>       0.91610950       0.28633851       0.42609769 </v>
   <v>       0.00752986       0.32634758       0.08688582 </v>
   <v>       0.27361501       0.95711702       0.08757098 </v>
   <v>       0.16747512       0.30751766       0.32956808 </v>
   <v>       0.88819282       0.91044882       0.29730176 </v>
   <v>       0.46039837       0.38035369       0.09687101 </v>
   <v>       0.91464509       0.34581817       0.92616262 </v>
   <v>       0.65754830       0.49911740       0.43955578 </v>
   <v>       0.89468380       0.08105271       0.23434229 </v>
   <v>       0.52396160       0.63773638       0.52101557 </v>
   <v>       0.70341380       0.59746617       0.61205094 </v>
   <v>       0.30085492       0.32095371       0.78748963 </v>
   <v>       0.18035460       0.19761731       0.64145837 </v>
   <v>       0.69899310       0.02757144       0.97002361 </v>
   <v>       0.09217401       0.64910002       0.77688021 </v>
   <v>       0.67445433       0.25754459       0.11673991 </v>
   <v>       0.19462681       0.81677920       0.95963525 </v>
   <v>       0.89983141       0.04273993       0.87663472 </v>
   <v>       0.04658407       0.85347002       0.80719403 </v>
   <v>       0.65097458       0.01952067       0.64999936 </v>
   <v>       0.07868446       0.66922768       0.98029577 </v>
   <v>       0.73412430       0.18258939       0.45285653 </v>
   <v>       0.40918063       0.76493439       0.31316671 </v>
   <v>       0.55133310       0.21740910       0.64960049 </v>
   <v>       0.86273563       0.70366357       0.34223970 </v>
   <v>       0.60545878       0.77836494       0.00156522 </v>
   <v>       0.42199965       0.97333996       0.32387356 </v>
   <v>       0.85062803       0.85961460       0.93927743 </v>
   <v>       0.05018376       0.69493138       0.44977909 </v>
   <v>       0.57937669       0.86118463       0.77390331 </v>
   <v>       0.22823021       0.67338948       0.12310839 </v>
   <v>       0.90698639       0.53674639       0.44573040 </v>
   <v>       0.95799437       0.45838759       0.24944760 </v>
   <v>       0.69305506       0.81753176       0.62741817 </v>
   <v>       0.96722880       0.55141084       0.08353677 </v>
   <v>       0.70749013       0.97608683       0.35186694 </v>
   <v>       0.10805776       0.81995157       0.10561798 </v>
   <v>       0.36749355       0.84295751       0.47693160 </v>
   <v>       0.57350598       0.55411138       0.90520253 </v>
   <v>       0.30046857       0.25917064       0.97915918 </v>
   <v>       0.50450123       0.30387355       0.90042758 </v>
   <v>       0.66274866       0.43907360       0.17836539 </v>
   <v>       0.53205653       0.27428837       0.26854529 </v>
   <v>       0.71741094       0.32582502       0.85119298 </v>
   <v>       0.76776481       0.80459252       0.15889143 </v>
   <v>       0.86391669       0.39471328       0.72099267 </v>
   <v>       0.76391145       0.51104404       0.88069513 </v>
   <v>       0.37979182       0.46056760       0.95621807 </v>
   <v>       0.41096275       0.58486935       0.78047583 </v>
   <v>       0.06253719       0.02717246       0.73880750 </v>
   <v>       0.48080357       0.12598550       0.44850416 </v>
   <v>       0.11968529       0.37213226       0.79031516 </v>
   <v>       0.22413592       0.60733242       0.36631122 </v>
   <v>       0.88446388       0.07718589       0.43655355 </v>
   <v>       0.18591747       0.82545669       0.39631898 </v>
   <v>       0.31771330       0.17893942       0.32649091 </v>
   <v>       0.70715463       0.62337889       0.09237367 </v>
   <v>       0.76841338       0.94391797       0.78283418 </v>
   <v>       0.33222349       0.31790173       0.20393849 </v>
   <v>       0.74341337       0.17707280       0.72548513 </v>
   <v>       0.07109689       0.98230304       0.97567888 </v>
   <v>       0.17681507       0.42261519       0.59195261 </v>
   <v>       0.13555534       0.30074534       0.95918941 </v>
   <v>       0.54514027       0.48152716       0.62046667 </v>
   <v>       0.82928137       0.68060559       0.71832715 </v>
   <v>       0.23167099       0.89777895       0.59832073 </v>
   <v>       0.57397498       0.11912754       0.82015196 </v>
   <v>       0.74871580       0.28218326       0.28700366 </v>
   <v>       0.93196548       0.61399535       0.87241533 </v>
   <v>       0.56980757       0.70577343       0.19544722 </v>
   <v>       0.43020922       0.70457554       0.94490916 </v>
   <v>       0.54831400       0.88388386       0.44517364 </v>
   <v>       0.42875977       0.48759607       0.26928549 </v>
   <v>       0.21885460       0.69473028       0.54959281 </v>
   <v>       0.27553854       0.01576269       0.44299420 </v>
   <v>       0.38005620       0.35419210       0.40614947 </v>
   <v>       0.47500356       0.01875656       0.08631406 </v>
   <v>       0.23668099       0.14732453       0.86827061 </v>
   <v>       0.08929818       0.47347637       0.96919422 </v>
   <v>       0.81012795       0.71369557       0.49284870 </v>
   <v>       0.14124946       0.45087994       0.16562871 </v>
  </varray>
  <varray name="velocities" >
   <v>       0.00000000       0.00000000       0.00000000 </v>
   <v>       0.00000000       0.00000000       0.00000000 </v>
   <v>       0.00000000       0.00000000       0.00000000 </v>
   <v>       0.00000000       0.00000000       0.00000000 </v>
   <v>       0.00000000       0.00000000       0.00000000 </v>
   <v>       0.00000000       0.00000000       0.00000000 </v>
   <v>       0.00000000       0.00000000       0.00000000 </v>
   <v>       0.00000000       0.00000000       0.00000000 </v>
   <v>       0.00000000       0.00000000       0.00000000 </v>
   <v>       0.00000000       0.00000000       0.00000000 </v>
   <v>       0.00000000       0.00000000       0.00000000 </v>
   <v>       0.00000000       0.00000000       0.00000000 </v>
   <v>       0.00000000       0.00000000       0.00000000 </v>
   <v>       0.00000000       0.00000000       0.00000000 </v>
   <v>       0.00000000       0.00000000       0.00000000 </v>
   <v>       0.00000000       0.00000000       0.00000000 </v>
   <v>       0.00000000       0.00000000       0.00000000 </v>
   <v>       0.00000000       0.00000000       0.00000000 </v>
   <v>       0.00000000       0.00000000       0.00000000 </v>
   <v>       0.00000000       0.00000000       0.00000000 </v>
   <v>       0.00000000       0.00000000       0.00000000 </v>
   <v>       0.00000000       0.00000000       0.00000000 </v>
   <v>       0.00000000       0.00000000       0.00000000 </v>
   <v>       0.00000000       0.00000000       0.00000000 </v>
   <v>       0.00000000       0.00000000       0.00000000 </v>
   <v>       0.00000000       0.00000000       0.00000000 </v>
   <v>       0.00000000       0.00000000       0.00000000 </v>
   <v>       0.00000000       0.00000000       0.00000000 </v>
   <v>       0.00000000       0.00000000       0.00000000 </v>
   <v>       0.00000000       0.00000000       0.00000000 </v>
   <v>       0.00000000       0.00000000       0.00000000 </v>
   <v>       0.00000000       0.00000000       0.00000000 </v>
   <v>       0.00000000       0.00000000       0.00000000 </v>
   <v>       0.00000000       0.00000000       0.00000000 </v>
   <v>       0.00000000       0.00000000       0.00000000 </v>
   <v>       0.00000000       0.00000000       0.00000000 </v>
   <v>       0.00000000       0.00000000       0.00000000 </v>
   <v>       0.00000000       0.00000000       0.00000000 </v>
   <v>       0.00000000       0.00000000       0.00000000 </v>
   <v>       0.00000000       0.00000000       0.00000000 </v>
   <v>       0.00000000       0.00000000       0.00000000 </v>
   <v>       0.00000000       0.00000000       0.00000000 </v>
   <v>       0.00000000       0.00000000       0.00000000 </v>
   <v>       0.00000000       0.00000000       0.00000000 </v>
   <v>       0.00000000       0.00000000       0.00000000 </v>
   <v>       0.00000000       0.00000000       0.00000000 </v>
   <v>       0.00000000       0.00000000       0.00000000 </v>
   <v>       0.00000000       0.00000000       0.00000000 </v>
   <v>       0.00000000       0.00000000       0.00000000 </v>
   <v>       0.00000000       0.00000000       0.00000000 </v>
   <v>       0.00000000       0.00000000       0.00000000 </v>
   <v>       0.00000000       0.00000000       0.00000000 </v>
   <v>       0.00000000       0.00000000       0.00000000 </v>
   <v>       0.00000000       0.00000000       0.00000000 </v>
   <v>       0.00000000       0.00000000       0.00000000 </v>
   <v>       0.00000000       0.00000000       0.00000000 </v>
   <v>       0.00000000       0.00000000       0.00000000 </v>
   <v>       0.00000000       0.00000000       0.00000000 </v>
   <v>       0.00000000       0.00000000       0.00000000 </v>
   <v>       0.00000000       0.00000000       0.00000000 </v>
   <v>       0.00000000       0.00000000       0.00000000 </v>
   <v>       0.00000000       0.00000000       0.00000000 </v>
   <v>       0.00000000       0.00000000       0.00000000 </v>
   <v>       0.00000000       0.00000000       0.00000000 </v>
   <v>       0.00000000       0.00000000       0.00000000 </v>
   <v>       0.00000000       0.00000000       0.00000000 </v>
   <v>       0.00000000       0.00000000       0.00000000 </v>
   <v>       0.00000000       0.00000000       0.00000000 </v>
   <v>       0.00000000       0.00000000       0.00000000 </v>
   <v>       0.00000000       0.00000000       0.00000000 </v>
   <v>       0.00000000       0.00000000       0.00000000 </v>
   <v>       0.00000000       0.00000000       0.00000000 </v>
   <v>       0.00000000       0.00000000       0.00000000 </v>
   <v>       0.00000000       0.00000000       0.00000000 </v>
   <v>       0.00000000       0.00000000       0.00000000 </v>
   <v>       0.00000000       0.00000000       0.00000000 </v>
   <v>       0.00000000       0.00000000       0.00000000 </v>
   <v>       0.00000000       0.00000000       0.00000000 </v>
   <v>       0.00000000       0.00000000       0.00000000 </v>
   <v>       0.00000000       0.00000000       0.00000000 </v>
   <v>       0.00000000       0.00000000       0.00000000 </v>
   <v>       0.00000000       0.00000000       0.00000000 </v>
   <v>       0.00000000       0.00000000       0.00000000 </v>
   <v>       0.00000000       0.00000000       0.00000000 </v>
   <v>       0.00000000       0.00000000       0.00000000 </v>
   <v>       0.00000000       0.00000000       0.00000000 </v>
   <v>       0.00000000       0.00000000       0.00000000 </v>
   <v>       0.00000000       0.00000000       0.00000000 </v>
   <v>       0.00000000       0.00000000       0.00000000 </v>
   <v>       0.00000000       0.00000000       0.00000000 </v>
   <v>       0.00000000       0.00000000       0.00000000 </v>
   <v>       0.00000000       0.00000000       0.00000000 </v>
   <v>       0.00000000       0.00000000       0.00000000 </v>
   <v>       0.00000000       0.00000000       0.00000000 </v>
   <v>       0.00000000       0.00000000       0.00000000 </v>
   <v>       0.00000000       0.00000000       0.00000000 </v>
   <v>       0.00000000       0.00000000       0.00000000 </v>
   <v>       0.00000000       0.00000000       0.00000000 </v>
   <v>       0.00000000       0.00000000       0.00000000 </v>
   <v>       0.00000000       0.00000000       0.00000000 </v>
   <v>       0.00000000       0.00000000       0.00000000 </v>
   <v>       0.00000000       0.00000000       0.00000000 </v>
   <v>       0.00000000       0.00000000       0.00000000 </v>
   <v>       0.00000000       0.00000000       0.00000000 </v>
   <v>       0.00000000       0.00000000       0.00000000 </v>
   <v>       0.00000000       0.00000000       0.00000000 </v>
   <v>       0.00000000       0.00000000       0.00000000 </v>
   <v>       0.00000000       0.00000000       0.00000000 </v>
   <v>       0.00000000       0.00000000       0.00000000 </v>
   <v>       0.00000000       0.00000000       0.00000000 </v>
   <v>       0.00000000       0.00000000       0.00000000 </v>
   <v>       0.00000000       0.00000000       0.00000000 </v>
   <v>       0.00000000       0.00000000       0.00000000 </v>
   <v>       0.00000000       0.00000000       0.00000000 </v>
   <v>       0.00000000       0.00000000       0.00000000 </v>
   <v>       0.00000000       0.00000000       0.00000000 </v>
   <v>       0.00000000       0.00000000       0.00000000 </v>
   <v>       0.00000000       0.00000000       0.00000000 </v>
   <v>       0.00000000       0.00000000       0.00000000 </v>
   <v>       0.00000000       0.00000000       0.00000000 </v>
   <v>       0.00000000       0.00000000       0.00000000 </v>
   <v>       0.00000000       0.00000000       0.00000000 </v>
   <v>       0.00000000       0.00000000       0.00000000 </v>
   <v>       0.00000000       0.00000000       0.00000000 </v>
   <v>       0.00000000       0.00000000       0.00000000 </v>
   <v>       0.00000000       0.00000000       0.00000000 </v>
   <v>       0.00000000       0.00000000       0.00000000 </v>
   <v>       0.00000000       0.00000000       0.00000000 </v>
   <v>       0.00000000       0.00000000       0.00000000 </v>
   <v>       0.00000000       0.00000000       0.00000000 </v>
   <v>       0.00000000       0.00000000       0.00000000 </v>
   <v>       0.00000000       0.00000000       0.00000000 </v>
   <v>       0.00000000       0.00000000       0.00000000 </v>
   <v>       0.00000000       0.00000000       0.00000000 </v>
   <v>       0.00000000       0.00000000       0.00000000 </v>
  </varray>
 </structure>
</modeling>
