<?xml version="1.0" encoding="ISO-8859-1"?>
<modeling>
 <generator>
  <i name="program" type="string">vasp </i>
  <i name="version" type="string">5.4.4.18Apr17-6-g9f103f2a35  </i>
  <i name="subversion" type="string">(build Mar 16 2023 09:39:13) complex            parallel </i>
  <i name="platform" type="string">LinuxIFC </i>
  <i name="date" type="string">2024 04 30 </i>
  <i name="time" type="string">15:20:29 </i>
 </generator>
 <incar>
  <i type="int" name="ISTART">     0</i>
  <i type="string" name="PREC">a</i>
  <i type="logical" name="ADDGRID"> T  </i>
  <i type="int" name="IBRION">    -1</i>
  <i name="EDIFF">      0.00000100</i>
  <i name="EDIFFG">     -0.01000000</i>
  <i type="int" name="NSW">     1</i>
  <i type="int" name="ISIF">     2</i>
  <i type="int" name="ISYM">     0</i>
  <i name="ENCUT">    600.00000000</i>
  <i name="POTIM">      1.00000000</i>
  <i type="string" name="LREAL">  A</i>
  <i type="int" name="ISMEAR">     0</i>
  <i name="SIGMA">      0.05000000</i>
  <i name="KSPACING">      0.30000000</i>
  <i type="logical" name="KGAMMA"> T  </i>
  <i type="logical" name="LWAVE"> F  </i>
  <i type="logical" name="LCHARG"> F  </i>
  <i type="logical" name="LSCALAPACK"> F  </i>
  <v type="int" name="KPOINT_BSE">    -1     0     0     0</v>
 </incar>
 <structure name="primitive_cell" >
  <crystal>
   <varray name="basis" >
    <v>      12.93041299       0.00000000       0.00000000 </v>
    <v>       0.00000000      12.93041299       0.00000000 </v>
    <v>       0.00000000       0.00000000      12.93041299 </v>
   </varray>
   <i name="volume">   2161.90790069 </i>
   <varray name="rec_basis" >
    <v>       0.07733705       0.00000000       0.00000000 </v>
    <v>       0.00000000       0.07733705       0.00000000 </v>
    <v>       0.00000000       0.00000000       0.07733705 </v>
   </varray>
  </crystal>
  <varray name="positions" >
   <v>      -0.40385621      -0.26615213      -0.39832164 </v>
   <v>      -0.26708648      -0.20060672      -0.32419811 </v>
   <v>      -0.44928655      -0.27743755      -0.21732910 </v>
   <v>      -0.30281110      -0.17609015       0.46244458 </v>
   <v>       0.40023664      -0.23892945      -0.40312095 </v>
   <v>      -0.31628504      -0.09421990      -0.28475732 </v>
   <v>      -0.41494766      -0.04127026      -0.31588775 </v>
   <v>      -0.37830928      -0.33501628       0.37136603 </v>
   <v>      -0.27699405      -0.46684903      -0.46972098 </v>
   <v>       0.43458716      -0.24749819       0.40789737 </v>
   <v>       0.37940713      -0.17819347      -0.49855530 </v>
   <v>       0.39568435      -0.34149720      -0.25908738 </v>
   <v>      -0.32722223      -0.41939332      -0.20366199 </v>
   <v>      -0.15831950      -0.35125191      -0.44517138 </v>
   <v>      -0.27460189      -0.23303037       0.36161484 </v>
   <v>      -0.48558055      -0.28397338       0.32687645 </v>
   <v>      -0.45953301      -0.18358696      -0.11473521 </v>
   <v>       0.41950658      -0.49676687       0.49803482 </v>
   <v>      -0.49194493       0.02886302      -0.44026396 </v>
   <v>      -0.31365267      -0.10182912      -0.14861624 </v>
   <v>      -0.16192553      -0.39675082      -0.24930970 </v>
   <v>       0.42578654      -0.19843712      -0.12522157 </v>
   <v>      -0.17087374      -0.31060741       0.37139143 </v>
   <v>       0.36051882      -0.04894624       0.49847689 </v>
   <v>       0.42013855       0.49101263      -0.22826530 </v>
   <v>      -0.26784831       0.41559172      -0.41352311 </v>
   <v>      -0.22096719       0.01531370      -0.30487268 </v>
   <v>       0.49457354       0.40653484      -0.49839518 </v>
   <v>      -0.27693986      -0.48548279       0.34974476 </v>
   <v>      -0.38506280       0.37791335      -0.47990294 </v>
   <v>      -0.23808346      -0.35357897      -0.08053648 </v>
   <v>      -0.13503265      -0.03907690       0.48239684 </v>
   <v>      -0.25581901      -0.13737187       0.28067268 </v>
   <v>      -0.41664004      -0.23992982      -0.01782193 </v>
   <v>      -0.26120711       0.39642000      -0.29015994 </v>
   <v>      -0.49764648      -0.18286346       0.24080891 </v>
   <v>      -0.42345858       0.49155417      -0.10302850 </v>
   <v>       0.26378891      -0.40846649       0.46351753 </v>
   <v>       0.24016371      -0.27657962      -0.23692529 </v>
   <v>       0.48369137      -0.40296442       0.25009133 </v>
   <v>       0.23863194      -0.18564268       0.45347439 </v>
   <v>      -0.13068289      -0.35495067      -0.12280925 </v>
   <v>       0.47723170       0.43056753      -0.12936356 </v>
   <v>      -0.46347815      -0.03723216      -0.04536458 </v>
   <v>      -0.01064273      -0.43732838      -0.42465482 </v>
   <v>       0.49749299       0.37554869       0.38279794 </v>
   <v>      -0.36428411      -0.01950819       0.24949671 </v>
   <v>      -0.33778882      -0.01283517      -0.04757232 </v>
   <v>      -0.06691284      -0.06098086      -0.20751465 </v>
   <v>      -0.46221675       0.11727787       0.39594582 </v>
   <v>       0.47543234       0.13575769      -0.26455685 </v>
   <v>      -0.07541743      -0.25750569      -0.09956854 </v>
   <v>       0.16986843      -0.38874527      -0.35993560 </v>
   <v>      -0.16684553       0.36050513      -0.46854659 </v>
   <v>      -0.09981644       0.04627208      -0.29128750 </v>
   <v>      -0.07256350       0.45138821      -0.27908711 </v>
   <v>       0.30566508      -0.19740035       0.26062111 </v>
   <v>      -0.35253263      -0.42599923       0.02681677 </v>
   <v>       0.43069684       0.30193578      -0.41434599 </v>
   <v>      -0.23788003       0.06370249       0.31385112 </v>
   <v>      -0.09424079       0.46474196       0.37426157 </v>
   <v>       0.04618165      -0.21046056      -0.27181136 </v>
   <v>       0.28242012      -0.42671525       0.28512890 </v>
   <v>       0.28190984       0.08946634      -0.36086456 </v>
   <v>       0.00507152      -0.16790238      -0.16880683 </v>
   <v>      -0.32922530       0.10275053      -0.10074252 </v>
   <v>       0.36998001      -0.41754945       0.20453681 </v>
   <v>       0.14004639      -0.33375348      -0.25972854 </v>
   <v>       0.47658143       0.31040227      -0.18940051 </v>
   <v>       0.32243192       0.04455296      -0.13918261 </v>
   <v>       0.22024365       0.01690796       0.46522407 </v>
   <v>       0.03193821      -0.09846200       0.43368761 </v>
   <v>      -0.23160586      -0.44931789       0.17357256 </v>
   <v>       0.26275601      -0.26890055      -0.03012829 </v>
   <v>      -0.25792625       0.17429282      -0.21963321 </v>
   <v>      -0.01674074      -0.36363138       0.30378063 </v>
   <v>       0.46401445      -0.14307683       0.07262259 </v>
   <v>      -0.02945805       0.07666647      -0.38340339 </v>
   <v>       0.27577180       0.09861528      -0.23988682 </v>
   <v>       0.26879540      -0.46044285      -0.05395244 </v>
   <v>      -0.27799839      -0.04604291       0.05044729 </v>
   <v>       0.25406107       0.39469140      -0.20484753 </v>
   <v>      -0.08445217       0.36221919       0.42714880 </v>
   <v>       0.21348411      -0.06524820       0.30456894 </v>
   <v>       0.40486927       0.40056463      -0.04096433 </v>
   <v>      -0.23389956      -0.22735394       0.10625857 </v>
   <v>       0.13123246      -0.15823736       0.38141729 </v>
   <v>       0.41184033       0.24798647      -0.29911279 </v>
   <v>       0.13627731      -0.49243942       0.46414461 </v>
   <v>      -0.08365199      -0.44784983      -0.01495398 </v>
   <v>       0.47912602       0.15923445      -0.09003865 </v>
   <v>       0.13338784      -0.26558673       0.32078751 </v>
   <v>       0.10237890      -0.49474313      -0.41498042 </v>
   <v>      -0.09634703       0.13619001      -0.18286536 </v>
   <v>      -0.49557518       0.02127553       0.12989058 </v>
   <v>      -0.46034982       0.23872826       0.34378782 </v>
   <v>       0.34663531      -0.34193481       0.09930489 </v>
   <v>       0.09199535      -0.39966399      -0.16851743 </v>
   <v>      -0.08002144      -0.33149073       0.14238693 </v>
   <v>      -0.33676102       0.23934077       0.31886091 </v>
   <v>      -0.20801145       0.18361505       0.29623517 </v>
   <v>       0.29131746       0.25452327      -0.27337867 </v>
   <v>       0.22215520       0.31913815       0.43114217 </v>
   <v>       0.30562482       0.44086231       0.01812030 </v>
   <v>       0.39340042       0.47736548       0.11478840 </v>
   <v>       0.29647888       0.35306955       0.27080620 </v>
   <v>       0.07354961      -0.12188095      -0.07227132 </v>
   <v>       0.10326225       0.40187730      -0.34880169 </v>
   <v>      -0.11752986       0.25992267       0.36574819 </v>
   <v>      -0.11543222      -0.44837982       0.10288065 </v>
   <v>       0.01388810       0.31070265       0.46030403 </v>
   <v>      -0.11424318       0.02694834       0.06255700 </v>
   <v>       0.45615147       0.25213911       0.24030375 </v>
   <v>      -0.04505061       0.46873336       0.17020588 </v>
   <v>       0.41777873       0.13855493       0.16423062 </v>
   <v>      -0.03916743      -0.11096204       0.09795923 </v>
   <v>       0.13988163       0.11760091      -0.17825712 </v>
   <v>       0.27799192       0.10040170       0.18788363 </v>
   <v>       0.06832838       0.47573237      -0.05262471 </v>
   <v>       0.01227726       0.31809242      -0.13248483 </v>
   <v>       0.18120709      -0.19724802       0.09455930 </v>
   <v>       0.12875345       0.15174554       0.39556467 </v>
   <v>       0.15225999       0.24522469      -0.42109918 </v>
   <v>       0.21272379       0.10100271       0.01120995 </v>
   <v>       0.39388468       0.19969106       0.04703530 </v>
   <v>      -0.16559538       0.20828759       0.18127745 </v>
   <v>       0.07917421      -0.12974816       0.06571777 </v>
   <v>       0.12051871       0.07957146       0.25209416 </v>
   <v>       0.02469201       0.19307670      -0.11800075 </v>
   <v>       0.12684048       0.27431380       0.38219548 </v>
   <v>       0.21330084       0.34278340       0.04311391 </v>
   <v>      -0.01962948       0.31266908       0.16380156 </v>
   <v>       0.02668273       0.15799635       0.00183465 </v>
   <v>       0.11301112       0.30750246       0.26950989 </v>
   <v>       0.11479590       0.00012782       0.08683270 </v>
  </varray>
 </structure>
 <varray name="primitive_index" >
  <v type="int" >        1 </v>
  <v type="int" >      120 </v>
  <v type="int" >       81 </v>
  <v type="int" >      114 </v>
  <v type="int" >      118 </v>
  <v type="int" >       39 </v>
  <v type="int" >       86 </v>
  <v type="int" >      122 </v>
  <v type="int" >       76 </v>
  <v type="int" >       56 </v>
  <v type="int" >       34 </v>
  <v type="int" >       14 </v>
  <v type="int" >       22 </v>
  <v type="int" >       25 </v>
  <v type="int" >       41 </v>
  <v type="int" >       44 </v>
  <v type="int" >       40 </v>
  <v type="int" >      124 </v>
  <v type="int" >        7 </v>
  <v type="int" >       58 </v>
  <v type="int" >      127 </v>
  <v type="int" >       73 </v>
  <v type="int" >      107 </v>
  <v type="int" >       77 </v>
  <v type="int" >      108 </v>
  <v type="int" >       35 </v>
  <v type="int" >      105 </v>
  <v type="int" >       28 </v>
  <v type="int" >        3 </v>
  <v type="int" >      109 </v>
  <v type="int" >      100 </v>
  <v type="int" >        8 </v>
  <v type="int" >       90 </v>
  <v type="int" >      101 </v>
  <v type="int" >      121 </v>
  <v type="int" >      110 </v>
  <v type="int" >      128 </v>
  <v type="int" >       19 </v>
  <v type="int" >       96 </v>
  <v type="int" >       61 </v>
  <v type="int" >      102 </v>
  <v type="int" >       29 </v>
  <v type="int" >       54 </v>
  <v type="int" >      123 </v>
  <v type="int" >       95 </v>
  <v type="int" >       68 </v>
  <v type="int" >       15 </v>
  <v type="int" >       50 </v>
  <v type="int" >      126 </v>
  <v type="int" >       64 </v>
  <v type="int" >       79 </v>
  <v type="int" >       69 </v>
  <v type="int" >      130 </v>
  <v type="int" >       80 </v>
  <v type="int" >       33 </v>
  <v type="int" >        6 </v>
  <v type="int" >       27 </v>
  <v type="int" >       12 </v>
  <v type="int" >      131 </v>
  <v type="int" >      113 </v>
  <v type="int" >       98 </v>
  <v type="int" >      132 </v>
  <v type="int" >      133 </v>
  <v type="int" >       62 </v>
  <v type="int" >       48 </v>
  <v type="int" >       84 </v>
  <v type="int" >       52 </v>
  <v type="int" >       49 </v>
  <v type="int" >      103 </v>
  <v type="int" >      125 </v>
  <v type="int" >       26 </v>
  <v type="int" >      134 </v>
  <v type="int" >      117 </v>
  <v type="int" >       23 </v>
  <v type="int" >       16 </v>
  <v type="int" >        9 </v>
  <v type="int" >       10 </v>
  <v type="int" >       74 </v>
  <v type="int" >       36 </v>
  <v type="int" >      106 </v>
  <v type="int" >      116 </v>
  <v type="int" >       18 </v>
  <v type="int" >       32 </v>
  <v type="int" >      119 </v>
  <v type="int" >       59 </v>
  <v type="int" >       21 </v>
  <v type="int" >       51 </v>
  <v type="int" >       53 </v>
  <v type="int" >       82 </v>
  <v type="int" >       94 </v>
  <v type="int" >       24 </v>
  <v type="int" >       67 </v>
  <v type="int" >       30 </v>
  <v type="int" >       57 </v>
  <v type="int" >       71 </v>
  <v type="int" >       42 </v>
  <v type="int" >       72 </v>
  <v type="int" >       91 </v>
  <v type="int" >       75 </v>
  <v type="int" >       66 </v>
  <v type="int" >       37 </v>
  <v type="int" >       93 </v>
  <v type="int" >      111 </v>
  <v type="int" >       47 </v>
  <v type="int" >       92 </v>
  <v type="int" >       17 </v>
  <v type="int" >       55 </v>
  <v type="int" >       63 </v>
  <v type="int" >       87 </v>
  <v type="int" >       38 </v>
  <v type="int" >      135 </v>
  <v type="int" >       11 </v>
  <v type="int" >      104 </v>
  <v type="int" >       83 </v>
  <v type="int" >       31 </v>
  <v type="int" >       78 </v>
  <v type="int" >      129 </v>
  <v type="int" >       65 </v>
  <v type="int" >        4 </v>
  <v type="int" >       70 </v>
  <v type="int" >       88 </v>
  <v type="int" >       60 </v>
  <v type="int" >       20 </v>
  <v type="int" >        5 </v>
  <v type="int" >       89 </v>
  <v type="int" >      112 </v>
  <v type="int" >       46 </v>
  <v type="int" >        2 </v>
  <v type="int" >       45 </v>
  <v type="int" >       43 </v>
  <v type="int" >      115 </v>
  <v type="int" >       13 </v>
  <v type="int" >       99 </v>
  <v type="int" >       85 </v>
  <v type="int" >       97 </v>
 </varray>
 <kpoints>
  <generation param="Gamma">
   <v type="int" name="divisions">       2        2        2 </v>
   <v name="usershift">      0.00000000       0.00000000       0.00000000 </v>
   <v name="genvec1">      0.50000000       0.00000000       0.00000000 </v>
   <v name="genvec2">      0.00000000       0.50000000       0.00000000 </v>
   <v name="genvec3">      0.00000000       0.00000000       0.50000000 </v>
   <v name="shift">      0.00000000       0.00000000       0.00000000 </v>
  </generation>
  <varray name="kpointlist" >
   <v>       0.00000000       0.00000000       0.00000000 </v>
   <v>       0.50000000       0.00000000       0.00000000 </v>
   <v>       0.00000000       0.50000000       0.00000000 </v>
   <v>       0.50000000       0.50000000       0.00000000 </v>
   <v>       0.00000000       0.00000000       0.50000000 </v>
   <v>       0.50000000       0.00000000       0.50000000 </v>
   <v>       0.00000000       0.50000000       0.50000000 </v>
   <v>       0.50000000       0.50000000       0.50000000 </v>
  </varray>
  <varray name="weights" >
   <v>       0.12500000 </v>
   <v>       0.12500000 </v>
   <v>       0.12500000 </v>
   <v>       0.12500000 </v>
   <v>       0.12500000 </v>
   <v>       0.12500000 </v>
   <v>       0.12500000 </v>
   <v>       0.12500000 </v>
  </varray>
 </kpoints>
 <parameters>
  <separator name="general" >
   <i type="string" name="SYSTEM">unknown system</i>
   <i type="logical" name="LCOMPAT"> F  </i>
  </separator>
  <separator name="electronic" >
   <i type="string" name="PREC">a</i>
   <i name="ENMAX">    600.00000000</i>
   <i name="ENAUG">    605.39200000</i>
   <i name="EDIFF">      0.00000100</i>
   <i type="int" name="IALGO">    38</i>
   <i type="int" name="IWAVPR">    10</i>
   <i type="int" name="NBANDS">   520</i>
   <i name="NELECT">    864.00000000</i>
   <i type="int" name="TURBO">     0</i>
   <i type="int" name="IRESTART">     0</i>
   <i type="int" name="NREBOOT">     0</i>
   <i type="int" name="NMIN">     0</i>
   <i name="EREF">      0.00000000</i>
   <separator name="electronic smearing" >
    <i type="int" name="ISMEAR">     0</i>
    <i name="SIGMA">      0.05000000</i>
    <i name="KSPACING">      0.30000000</i>
    <i type="logical" name="KGAMMA"> T  </i>
   </separator>
   <separator name="electronic projectors" >
    <i type="logical" name="LREAL"> T  </i>
    <v name="ROPT">     -0.00025000     -0.00025000     -0.00025000</v>
    <i type="int" name="LMAXPAW">  -100</i>
    <i type="int" name="LMAXMIX">     2</i>
    <i type="logical" name="NLSPLINE"> F  </i>
   </separator>
   <separator name="electronic startup" >
    <i type="int" name="ISTART">     0</i>
    <i type="int" name="ICHARG">     2</i>
    <i type="int" name="INIWAV">     1</i>
   </separator>
   <separator name="electronic spin" >
    <i type="int" name="ISPIN">     1</i>
    <i type="logical" name="LNONCOLLINEAR"> F  </i>
    <v name="MAGMOM">      1.00000000      1.00000000      1.00000000      1.00000000      1.00000000      1.00000000      1.00000000      1.00000000      1.00000000      1.00000000      1.00000000      1.00000000      1.00000000      1.00000000      1.00000000      1.00000000      1.00000000      1.00000000      1.00000000      1.00000000
      1.00000000      1.00000000      1.00000000      1.00000000      1.00000000      1.00000000      1.00000000      1.00000000      1.00000000      1.00000000      1.00000000      1.00000000      1.00000000      1.00000000      1.00000000      1.00000000      1.00000000      1.00000000      1.00000000      1.00000000
      1.00000000      1.00000000      1.00000000      1.00000000      1.00000000      1.00000000      1.00000000      1.00000000      1.00000000      1.00000000      1.00000000      1.00000000      1.00000000      1.00000000      1.00000000      1.00000000      1.00000000      1.00000000      1.00000000      1.00000000
      1.00000000      1.00000000      1.00000000      1.00000000      1.00000000      1.00000000      1.00000000      1.00000000      1.00000000      1.00000000      1.00000000      1.00000000      1.00000000      1.00000000      1.00000000      1.00000000      1.00000000      1.00000000      1.00000000      1.00000000
      1.00000000      1.00000000      1.00000000      1.00000000      1.00000000      1.00000000      1.00000000      1.00000000      1.00000000      1.00000000      1.00000000      1.00000000      1.00000000      1.00000000      1.00000000      1.00000000      1.00000000      1.00000000      1.00000000      1.00000000
      1.00000000      1.00000000      1.00000000      1.00000000      1.00000000      1.00000000      1.00000000      1.00000000      1.00000000      1.00000000      1.00000000      1.00000000      1.00000000      1.00000000      1.00000000      1.00000000      1.00000000      1.00000000      1.00000000      1.00000000
      1.00000000      1.00000000      1.00000000      1.00000000      1.00000000      1.00000000      1.00000000      1.00000000      1.00000000      1.00000000      1.00000000      1.00000000      1.00000000      1.00000000      1.00000000</v>
    <i name="NUPDOWN">     -1.00000000</i>
    <i type="logical" name="LSORBIT"> F  </i>
    <v name="SAXIS">      0.00000000      0.00000000      1.00000000</v>
    <i type="logical" name="LSPIRAL"> F  </i>
    <v name="QSPIRAL">      0.00000000      0.00000000      0.00000000</v>
    <i type="logical" name="LZEROZ"> F  </i>
   </separator>
   <separator name="electronic exchange-correlation" >
    <i type="logical" name="LASPH"> F  </i>
    <i type="logical" name="LMETAGGA"> F  </i>
   </separator>
   <separator name="electronic convergence" >
    <i type="int" name="NELM">    60</i>
    <i type="int" name="NELMDL">    -5</i>
    <i type="int" name="NELMIN">     2</i>
    <i name="ENINI">    600.00000000</i>
    <separator name="electronic convergence detail" >
     <i type="logical" name="LDIAG"> T  </i>
     <i type="logical" name="LSUBROT"> F  </i>
     <i name="WEIMIN">      0.00000000</i>
     <i name="EBREAK">      0.00000000</i>
     <i name="DEPER">      0.30000000</i>
     <i type="int" name="NRMM">     4</i>
     <i name="TIME">      0.40000000</i>
    </separator>
   </separator>
   <separator name="electronic mixer" >
    <i name="AMIX">      0.40000000</i>
    <i name="BMIX">      1.00000000</i>
    <i name="AMIN">      0.10000000</i>
    <i name="AMIX_MAG">      1.60000000</i>
    <i name="BMIX_MAG">      1.00000000</i>
    <separator name="electronic mixer details" >
     <i type="int" name="IMIX">     4</i>
     <i type="logical" name="MIXFIRST"> F  </i>
     <i type="int" name="MAXMIX">   -45</i>
     <i name="WC">    100.00000000</i>
     <i type="int" name="INIMIX">     1</i>
     <i type="int" name="MIXPRE">     1</i>
     <i type="int" name="MREMOVE">     5</i>
    </separator>
   </separator>
   <separator name="electronic dipolcorrection" >
    <i type="logical" name="LDIPOL"> F  </i>
    <i type="logical" name="LMONO"> F  </i>
    <i type="int" name="IDIPOL">     0</i>
    <i name="EPSILON">      1.00000000</i>
    <v name="DIPOL">   -100.00000000   -100.00000000   -100.00000000</v>
    <i name="EFIELD">      0.00000000</i>
   </separator>
  </separator>
  <separator name="grids" >
   <i type="int" name="NGX">   108</i>
   <i type="int" name="NGY">   108</i>
   <i type="int" name="NGZ">   108</i>
   <i type="int" name="NGXF">   216</i>
   <i type="int" name="NGYF">   216</i>
   <i type="int" name="NGZF">   216</i>
   <i type="logical" name="ADDGRID"> T  </i>
  </separator>
  <separator name="ionic" >
   <i type="int" name="NSW">     1</i>
   <i type="int" name="IBRION">    -1</i>
   <i type="int" name="MDALGO">     0</i>
   <i type="int" name="ISIF">     2</i>
   <i name="PSTRESS">      0.00000000</i>
   <i name="EDIFFG">     -0.01000000</i>
   <i type="int" name="NFREE">     0</i>
   <i name="POTIM">      1.00000000</i>
   <i name="SMASS">     -3.00000000</i>
   <i name="SCALEE">      1.00000000</i>
  </separator>
  <separator name="ionic md" >
   <i name="TEBEG">      0.00010000</i>
   <i name="TEEND">      0.00010000</i>
   <i type="int" name="NBLOCK">     1</i>
   <i type="int" name="KBLOCK">     1</i>
   <i type="int" name="NPACO">   256</i>
   <i name="APACO">     16.00000000</i>
  </separator>
  <separator name="symmetry" >
   <i type="int" name="ISYM">     0</i>
   <i name="SYMPREC">      0.00001000</i>
  </separator>
  <separator name="dos" >
   <i type="int" name="LORBIT">     0</i>
   <v name="RWIGS">     -1.00000000     -1.00000000     -1.00000000</v>
   <i type="int" name="NEDOS">   301</i>
   <i name="EMIN">     10.00000000</i>
   <i name="EMAX">    -10.00000000</i>
   <i name="EFERMI">      0.00000000</i>
  </separator>
  <separator name="writing" >
   <i type="int" name="NWRITE">     2</i>
   <i type="logical" name="LWAVE"> F  </i>
   <i type="logical" name="LDOWNSAMPLE"> F  </i>
   <i type="logical" name="LCHARG"> F  </i>
   <i type="logical" name="LPARD"> F  </i>
   <i type="logical" name="LVTOT"> F  </i>
   <i type="logical" name="LVHAR"> F  </i>
   <i type="logical" name="LELF"> F  </i>
   <i type="logical" name="LOPTICS"> F  </i>
   <v name="STM">      0.00000000      0.00000000      0.00000000      0.00000000      0.00000000      0.00000000      0.00000000</v>
  </separator>
  <separator name="performance" >
   <i type="int" name="NPAR">     4</i>
   <i type="int" name="NSIM">     4</i>
   <i type="int" name="NBLK">    -1</i>
   <i type="logical" name="LPLANE"> T  </i>
   <i type="logical" name="LSCALAPACK"> F  </i>
   <i type="logical" name="LSCAAWARE"> F  </i>
   <i type="logical" name="LSCALU"> F  </i>
   <i type="logical" name="LASYNC"> F  </i>
   <i type="logical" name="LORBITALREAL"> F  </i>
  </separator>
  <separator name="miscellaneous" >
   <i type="int" name="IDIOT">     3</i>
   <i type="int" name="ISPECIAL">     0</i>
   <i type="logical" name="LMUSIC"> F  </i>
   <v name="POMASS">     40.07800000     28.08500000     16.00000000</v>
   <v name="DARWINR">      0.00000000      0.00000000      0.00000000</v>
   <v name="DARWINV">      1.00000000      1.00000000      1.00000000</v>
   <i type="logical" name="LCORR"> T  </i>
  </separator>
  <i type="logical" name="GGA_COMPAT"> T  </i>
  <i type="logical" name="LBERRY"> F  </i>
  <i type="int" name="ICORELEVEL">     0</i>
  <i type="logical" name="LDAU"> F  </i>
  <i type="int" name="I_CONSTRAINED_M">     0</i>
  <separator name="electronic exchange-correlation" >
   <i type="string" name="GGA">--</i>
   <i type="int" name="VOSKOWN">     0</i>
   <i type="logical" name="LHFCALC"> F  </i>
   <i type="string" name="PRECFOCK"></i>
   <i type="logical" name="LSYMGRAD"> F  </i>
   <i type="logical" name="LHFONE"> F  </i>
   <i type="logical" name="LRHFCALC"> F  </i>
   <i type="logical" name="LTHOMAS"> F  </i>
   <i type="logical" name="LMODELHF"> F  </i>
   <i name="ENCUT4O">     -1.00000000</i>
   <i type="int" name="EXXOEP">     0</i>
   <i type="int" name="FOURORBIT">     0</i>
   <i name="AEXX">      0.00000000</i>
   <i name="HFALPHA">      0.00000000</i>
   <i name="MCALPHA">      0.00000000</i>
   <i name="ALDAX">      1.00000000</i>
   <i name="AGGAX">      1.00000000</i>
   <i name="ALDAC">      1.00000000</i>
   <i name="AGGAC">      1.00000000</i>
   <i type="int" name="NKREDX">     1</i>
   <i type="int" name="NKREDY">     1</i>
   <i type="int" name="NKREDZ">     1</i>
   <i type="logical" name="SHIFTRED"> F  </i>
   <i type="logical" name="ODDONLY"> F  </i>
   <i type="logical" name="EVENONLY"> F  </i>
   <i type="int" name="LMAXFOCK">     0</i>
   <i type="int" name="NMAXFOCKAE">     0</i>
   <i type="logical" name="LFOCKAEDFT"> F  </i>
   <i name="HFSCREEN">      0.00000000</i>
   <i name="HFSCREENC">      0.00000000</i>
   <i type="int" name="NBANDSGWLOW">     0</i>
  </separator>
  <separator name="vdW DFT" >
   <i type="logical" name="LUSE_VDW"> F  </i>
   <i name="Zab_VDW">     -0.84910000</i>
   <i name="PARAM1">      0.12340000</i>
   <i name="PARAM2">      1.00000000</i>
   <i name="PARAM3">      0.00000000</i>
  </separator>
  <separator name="model GW" >
   <i type="int" name="MODEL_GW">     0</i>
   <i name="MODEL_EPS0">      9.60847956</i>
   <i name="MODEL_ALPHA">      1.00000000</i>
  </separator>
  <separator name="linear response parameters" >
   <i type="logical" name="LEPSILON"> F  </i>
   <i type="logical" name="LRPA"> F  </i>
   <i type="logical" name="LNABLA"> F  </i>
   <i type="logical" name="LVEL"> F  </i>
   <i type="int" name="KINTER">     0</i>
   <i name="CSHIFT">      0.10000000</i>
   <i name="OMEGAMAX">     -1.00000000</i>
   <i name="DEG_THRESHOLD">      0.00200000</i>
   <i name="RTIME">     -0.10000000</i>
   <i name="WPLASMAI">      0.00000000</i>
   <v name="DFIELD">      0.00000000      0.00000000      0.00000000</v>
   <v name="WPLASMA">      0.00000000      0.00000000      0.00000000      0.00000000      0.00000000      0.00000000      0.00000000      0.00000000      0.00000000</v>
  </separator>
  <separator name="orbital magnetization" >
   <i type="logical" name="NUCIND"> F  </i>
   <v name="MAGPOS">      0.00000000      0.00000000      0.00000000</v>
   <i type="logical" name="LNICSALL"> T  </i>
   <i type="logical" name="ORBITALMAG"> F  </i>
   <i type="logical" name="LMAGBLOCH"> F  </i>
   <i type="logical" name="LCHIMAG"> F  </i>
   <i type="logical" name="LGAUGE"> T  </i>
   <i type="int" name="MAGATOM">     0</i>
   <v name="MAGDIPOL">      0.00000000      0.00000000      0.00000000</v>
   <v name="AVECCONST">      0.00000000      0.00000000      0.00000000</v>
  </separator>
  <separator name="response functions" >
   <i type="logical" name="LADDER"> F  </i>
   <i type="logical" name="LRPAFORCE"> F  </i>
   <i type="logical" name="LFXC"> F  </i>
   <i type="logical" name="LHARTREE"> T  </i>
   <i type="int" name="IBSE">     0</i>
   <v type="int" name="KPOINT">    -1     0     0     0</v>
   <i type="logical" name="LTCTE"> F  </i>
   <i type="logical" name="LTETE"> F  </i>
   <i type="logical" name="LTRIPLET"> F  </i>
   <i type="logical" name="LFXCEPS"> F  </i>
   <i type="logical" name="LFXHEG"> F  </i>
   <i type="int" name="NATURALO">     2</i>
   <i type="logical" name="L2ORDER"> F  </i>
   <i type="logical" name="LMP2LT"> F  </i>
   <i type="logical" name="LUSEW"> F  </i>
   <i name="ENCUTGW">     -2.00000000</i>
   <i name="ENCUTGWSOFT">     -2.00000000</i>
   <i name="ENCUTLF">     -1.00000000</i>
   <i type="int" name="LMAXMP2">    -1</i>
   <i name="SCISSOR">      0.00000000</i>
   <i type="int" name="NOMEGA">     0</i>
   <i type="int" name="NOMEGAR">     0</i>
   <i type="int" name="NBANDSGW">    -1</i>
   <i type="int" name="NBANDSO">    -1</i>
   <i type="int" name="NBANDSV">    -1</i>
   <i type="int" name="NELM">     1</i>
   <i type="int" name="NELMHF">     1</i>
   <i type="int" name="DIM">     3</i>
   <i type="int" name="ANTIRES">     0</i>
   <i name="OMEGAMAX">    -30.00000000</i>
   <i name="OMEGAMIN">    -30.00000000</i>
   <i name="OMEGATL">   -200.00000000</i>
   <i type="int" name="OMEGAGRID">   140</i>
   <i name="CSHIFT">     -0.10000000</i>
   <i type="logical" name="SELFENERGY"> F  </i>
   <i type="logical" name="LSPECTRAL"> F  </i>
   <i type="logical" name="LSPECTRALGW"> F  </i>
   <i type="logical" name="LSINGLES"> F  </i>
   <i type="logical" name="LFERMIGW"> F  </i>
   <i type="logical" name="ODDONLYGW"> F  </i>
   <i type="logical" name="EVENONLYGW"> F  </i>
   <i type="int" name="NKREDLFX">     1</i>
   <i type="int" name="NKREDLFY">     1</i>
   <i type="int" name="NKREDLFZ">     1</i>
   <i type="int" name="MAXMEM">  2800</i>
   <i type="int" name="TELESCOPE">     0</i>
   <i type="int" name="TAUPAR">     1</i>
   <i type="int" name="OMEGAPAR">    -1</i>
   <i name="LAMBDA">      1.00000000</i>
  </separator>
  <separator name="External order field" >
   <i name="OFIELD_KAPPA">      0.00000000</i>
   <v name="OFIELD_K">      0.00000000      0.00000000      0.00000000</v>
   <i name="OFIELD_Q6_NEAR">      0.00000000</i>
   <i name="OFIELD_Q6_FAR">      0.00000000</i>
   <i name="OFIELD_A">      0.00000000</i>
  </separator>
 </parameters>
 <atominfo>
  <atoms>     135 </atoms>
  <types>       3 </types>
  <array name="atoms" >
   <dimension dim="1">ion</dimension>
   <field type="string">element</field>
   <field type="int">atomtype</field>
   <set>
    <rc><c>Ca</c><c>   1</c></rc>
    <rc><c>Ca</c><c>   1</c></rc>
    <rc><c>Ca</c><c>   1</c></rc>
    <rc><c>Ca</c><c>   1</c></rc>
    <rc><c>Ca</c><c>   1</c></rc>
    <rc><c>Ca</c><c>   1</c></rc>
    <rc><c>Ca</c><c>   1</c></rc>
    <rc><c>Ca</c><c>   1</c></rc>
    <rc><c>Ca</c><c>   1</c></rc>
    <rc><c>Ca</c><c>   1</c></rc>
    <rc><c>Ca</c><c>   1</c></rc>
    <rc><c>Ca</c><c>   1</c></rc>
    <rc><c>Ca</c><c>   1</c></rc>
    <rc><c>Ca</c><c>   1</c></rc>
    <rc><c>Ca</c><c>   1</c></rc>
    <rc><c>Ca</c><c>   1</c></rc>
    <rc><c>Ca</c><c>   1</c></rc>
    <rc><c>Ca</c><c>   1</c></rc>
    <rc><c>Ca</c><c>   1</c></rc>
    <rc><c>Ca</c><c>   1</c></rc>
    <rc><c>Ca</c><c>   1</c></rc>
    <rc><c>Ca</c><c>   1</c></rc>
    <rc><c>Ca</c><c>   1</c></rc>
    <rc><c>Ca</c><c>   1</c></rc>
    <rc><c>Ca</c><c>   1</c></rc>
    <rc><c>Ca</c><c>   1</c></rc>
    <rc><c>Ca</c><c>   1</c></rc>
    <rc><c>Si</c><c>   2</c></rc>
    <rc><c>Si</c><c>   2</c></rc>
    <rc><c>Si</c><c>   2</c></rc>
    <rc><c>Si</c><c>   2</c></rc>
    <rc><c>Si</c><c>   2</c></rc>
    <rc><c>Si</c><c>   2</c></rc>
    <rc><c>Si</c><c>   2</c></rc>
    <rc><c>Si</c><c>   2</c></rc>
    <rc><c>Si</c><c>   2</c></rc>
    <rc><c>Si</c><c>   2</c></rc>
    <rc><c>Si</c><c>   2</c></rc>
    <rc><c>Si</c><c>   2</c></rc>
    <rc><c>Si</c><c>   2</c></rc>
    <rc><c>Si</c><c>   2</c></rc>
    <rc><c>Si</c><c>   2</c></rc>
    <rc><c>Si</c><c>   2</c></rc>
    <rc><c>Si</c><c>   2</c></rc>
    <rc><c>Si</c><c>   2</c></rc>
    <rc><c>Si</c><c>   2</c></rc>
    <rc><c>Si</c><c>   2</c></rc>
    <rc><c>Si</c><c>   2</c></rc>
    <rc><c>Si</c><c>   2</c></rc>
    <rc><c>Si</c><c>   2</c></rc>
    <rc><c>Si</c><c>   2</c></rc>
    <rc><c>Si</c><c>   2</c></rc>
    <rc><c>Si</c><c>   2</c></rc>
    <rc><c>Si</c><c>   2</c></rc>
    <rc><c>O </c><c>   3</c></rc>
    <rc><c>O </c><c>   3</c></rc>
    <rc><c>O </c><c>   3</c></rc>
    <rc><c>O </c><c>   3</c></rc>
    <rc><c>O </c><c>   3</c></rc>
    <rc><c>O </c><c>   3</c></rc>
    <rc><c>O </c><c>   3</c></rc>
    <rc><c>O </c><c>   3</c></rc>
    <rc><c>O </c><c>   3</c></rc>
    <rc><c>O </c><c>   3</c></rc>
    <rc><c>O </c><c>   3</c></rc>
    <rc><c>O </c><c>   3</c></rc>
    <rc><c>O </c><c>   3</c></rc>
    <rc><c>O </c><c>   3</c></rc>
    <rc><c>O </c><c>   3</c></rc>
    <rc><c>O </c><c>   3</c></rc>
    <rc><c>O </c><c>   3</c></rc>
    <rc><c>O </c><c>   3</c></rc>
    <rc><c>O </c><c>   3</c></rc>
    <rc><c>O </c><c>   3</c></rc>
    <rc><c>O </c><c>   3</c></rc>
    <rc><c>O </c><c>   3</c></rc>
    <rc><c>O </c><c>   3</c></rc>
    <rc><c>O </c><c>   3</c></rc>
    <rc><c>O </c><c>   3</c></rc>
    <rc><c>O </c><c>   3</c></rc>
    <rc><c>O </c><c>   3</c></rc>
    <rc><c>O </c><c>   3</c></rc>
    <rc><c>O </c><c>   3</c></rc>
    <rc><c>O </c><c>   3</c></rc>
    <rc><c>O </c><c>   3</c></rc>
    <rc><c>O </c><c>   3</c></rc>
    <rc><c>O </c><c>   3</c></rc>
    <rc><c>O </c><c>   3</c></rc>
    <rc><c>O </c><c>   3</c></rc>
    <rc><c>O </c><c>   3</c></rc>
    <rc><c>O </c><c>   3</c></rc>
    <rc><c>O </c><c>   3</c></rc>
    <rc><c>O </c><c>   3</c></rc>
    <rc><c>O </c><c>   3</c></rc>
    <rc><c>O </c><c>   3</c></rc>
    <rc><c>O </c><c>   3</c></rc>
    <rc><c>O </c><c>   3</c></rc>
    <rc><c>O </c><c>   3</c></rc>
    <rc><c>O </c><c>   3</c></rc>
    <rc><c>O </c><c>   3</c></rc>
    <rc><c>O </c><c>   3</c></rc>
    <rc><c>O </c><c>   3</c></rc>
    <rc><c>O </c><c>   3</c></rc>
    <rc><c>O </c><c>   3</c></rc>
    <rc><c>O </c><c>   3</c></rc>
    <rc><c>O </c><c>   3</c></rc>
    <rc><c>O </c><c>   3</c></rc>
    <rc><c>O </c><c>   3</c></rc>
    <rc><c>O </c><c>   3</c></rc>
    <rc><c>O </c><c>   3</c></rc>
    <rc><c>O </c><c>   3</c></rc>
    <rc><c>O </c><c>   3</c></rc>
    <rc><c>O </c><c>   3</c></rc>
    <rc><c>O </c><c>   3</c></rc>
    <rc><c>O </c><c>   3</c></rc>
    <rc><c>O </c><c>   3</c></rc>
    <rc><c>O </c><c>   3</c></rc>
    <rc><c>O </c><c>   3</c></rc>
    <rc><c>O </c><c>   3</c></rc>
    <rc><c>O </c><c>   3</c></rc>
    <rc><c>O </c><c>   3</c></rc>
    <rc><c>O </c><c>   3</c></rc>
    <rc><c>O </c><c>   3</c></rc>
    <rc><c>O </c><c>   3</c></rc>
    <rc><c>O </c><c>   3</c></rc>
    <rc><c>O </c><c>   3</c></rc>
    <rc><c>O </c><c>   3</c></rc>
    <rc><c>O </c><c>   3</c></rc>
    <rc><c>O </c><c>   3</c></rc>
    <rc><c>O </c><c>   3</c></rc>
    <rc><c>O </c><c>   3</c></rc>
    <rc><c>O </c><c>   3</c></rc>
    <rc><c>O </c><c>   3</c></rc>
    <rc><c>O </c><c>   3</c></rc>
    <rc><c>O </c><c>   3</c></rc>
   </set>
  </array>
  <array name="atomtypes" >
   <dimension dim="1">type</dimension>
   <field type="int">atomspertype</field>
   <field type="string">element</field>
   <field>mass</field>
   <field>valence</field>
   <field type="string">pseudopotential</field>
   <set>
    <rc><c>  27</c><c>Ca</c><c>     40.07800000</c><c>     10.00000000</c><c>  PAW_PBE Ca_sv 06Sep2000               </c></rc>
    <rc><c>  27</c><c>Si</c><c>     28.08500000</c><c>      4.00000000</c><c>  PAW_PBE Si 05Jan2001                  </c></rc>
    <rc><c>  81</c><c>O </c><c>     16.00000000</c><c>      6.00000000</c><c>  PAW_PBE O 08Apr2002                   </c></rc>
   </set>
  </array>
 </atominfo>
 <structure name="initialpos" >
  <crystal>
   <varray name="basis" >
    <v>      12.93041299       0.00000000       0.00000000 </v>
    <v>       0.00000000      12.93041299       0.00000000 </v>
    <v>       0.00000000       0.00000000      12.93041299 </v>
   </varray>
   <i name="volume">   2161.90790069 </i>
   <varray name="rec_basis" >
    <v>       0.07733705       0.00000000       0.00000000 </v>
    <v>       0.00000000       0.07733705       0.00000000 </v>
    <v>       0.00000000       0.00000000       0.07733705 </v>
   </varray>
  </crystal>
  <varray name="positions" >
   <v>       0.59614379       0.73384787       0.60167836 </v>
   <v>       0.12051871       0.07957146       0.25209416 </v>
   <v>       0.72306014       0.51451721       0.34974476 </v>
   <v>       0.06832838       0.47573237       0.94737529 </v>
   <v>       0.21272379       0.10100271       0.01120995 </v>
   <v>       0.92743650       0.45138821       0.72091289 </v>
   <v>       0.50805507       0.02886302       0.55973604 </v>
   <v>       0.86496735       0.96092310       0.48239684 </v>
   <v>       0.98325926       0.63636862       0.30378063 </v>
   <v>       0.46401445       0.85692317       0.07262259 </v>
   <v>       0.88575682       0.02694834       0.06255700 </v>
   <v>       0.64746737       0.57400077       0.02681677 </v>
   <v>       0.98037052       0.31266908       0.16380156 </v>
   <v>       0.39568435       0.65850280       0.74091262 </v>
   <v>       0.63571589       0.98049181       0.24949671 </v>
   <v>       0.74207375       0.17429282       0.78036679 </v>
   <v>       0.29647888       0.35306955       0.27080620 </v>
   <v>       0.25406107       0.39469140       0.79515247 </v>
   <v>       0.26378891       0.59153351       0.46351753 </v>
   <v>       0.15225999       0.24522469       0.57890082 </v>
   <v>       0.76610044       0.77264606       0.10625857 </v>
   <v>       0.67277777       0.58060668       0.79633801 </v>
   <v>       0.26275601       0.73109945       0.96987171 </v>
   <v>       0.47912602       0.15923445       0.90996135 </v>
   <v>       0.84168050       0.64874809       0.55482862 </v>
   <v>       0.22024365       0.01690796       0.46522407 </v>
   <v>       0.30566508       0.80259965       0.26062111 </v>
   <v>       0.49457354       0.40653484       0.50160482 </v>
   <v>       0.86931711       0.64504933       0.87719075 </v>
   <v>       0.10237890       0.50525687       0.58501958 </v>
   <v>       0.41777873       0.13855493       0.16423062 </v>
   <v>       0.91554783       0.36221919       0.42714880 </v>
   <v>       0.90018356       0.04627208       0.70871250 </v>
   <v>       0.37940713       0.82180653       0.50144470 </v>
   <v>       0.73215169       0.41559172       0.58647689 </v>
   <v>       0.27577180       0.09861528       0.76011318 </v>
   <v>       0.79198855       0.18361505       0.29623517 </v>
   <v>       0.88456778       0.55162018       0.10288065 </v>
   <v>       0.68371496       0.90578010       0.71524268 </v>
   <v>       0.54046699       0.81641304       0.88526479 </v>
   <v>       0.72539811       0.76696963       0.36161484 </v>
   <v>       0.53965018       0.23872826       0.34378782 </v>
   <v>       0.12684048       0.27431380       0.38219548 </v>
   <v>       0.51441945       0.71602662       0.32687645 </v>
   <v>       0.02469201       0.19307670       0.88199925 </v>
   <v>       0.07917421       0.87025184       0.06571777 </v>
   <v>       0.30562482       0.44086231       0.01812030 </v>
   <v>       0.00507152       0.83209762       0.83119317 </v>
   <v>       0.14004639       0.66624652       0.74027146 </v>
   <v>       0.66221118       0.98716483       0.95242768 </v>
   <v>       0.13123246       0.84176264       0.38141729 </v>
   <v>       0.36998001       0.58245055       0.20453681 </v>
   <v>       0.41184033       0.24798647       0.70088721 </v>
   <v>       0.47723170       0.43056753       0.87063644 </v>
   <v>       0.07354961       0.87811905       0.92772868 </v>
   <v>       0.43458716       0.75250181       0.40789737 </v>
   <v>       0.90365297       0.13619001       0.81713464 </v>
   <v>       0.68634733       0.89817088       0.85138376 </v>
   <v>       0.40486927       0.40056463       0.95903567 </v>
   <v>       0.12875345       0.15174554       0.39556467 </v>
   <v>       0.48369137       0.59703558       0.25009133 </v>
   <v>       0.28190984       0.08946634       0.63913544 </v>
   <v>       0.10326225       0.40187730       0.65119831 </v>
   <v>       0.53778325       0.11727787       0.39594582 </v>
   <v>       0.27799192       0.10040170       0.18788363 </v>
   <v>       0.66323898       0.23934077       0.31886091 </v>
   <v>       0.13338784       0.73441327       0.32078751 </v>
   <v>       0.49749299       0.37554869       0.38279794 </v>
   <v>       0.92458257       0.74249431       0.90043146 </v>
   <v>       0.01227726       0.31809242       0.86751517 </v>
   <v>       0.50442482       0.02127553       0.12989058 </v>
   <v>       0.34663531       0.65806519       0.09930489 </v>
   <v>       0.42578654       0.80156288       0.87477843 </v>
   <v>       0.97054195       0.07666647       0.61659661 </v>
   <v>       0.91997856       0.66850927       0.14238693 </v>
   <v>       0.72300595       0.53315097       0.53027902 </v>
   <v>       0.36051882       0.95105376       0.49847689 </v>
   <v>       0.96083257       0.88903796       0.09795923 </v>
   <v>       0.47543234       0.13575769       0.73544315 </v>
   <v>       0.83315447       0.36050513       0.53145341 </v>
   <v>       0.55071345       0.72256245       0.78267090 </v>
   <v>       0.13627731       0.50756058       0.46414461 </v>
   <v>       0.95494939       0.46873336       0.17020588 </v>
   <v>       0.67077470       0.10275053       0.89925748 </v>
   <v>       0.11301112       0.30750246       0.26950989 </v>
   <v>       0.58505234       0.95872974       0.68411225 </v>
   <v>       0.88247014       0.25992267       0.36574819 </v>
   <v>       0.18120709       0.80275198       0.09455930 </v>
   <v>       0.39388468       0.19969106       0.04703530 </v>
   <v>       0.74418099       0.86262813       0.28067268 </v>
   <v>       0.09199535       0.60033601       0.83148257 </v>
   <v>       0.39340042       0.47736548       0.11478840 </v>
   <v>       0.29131746       0.25452327       0.72662133 </v>
   <v>       0.91634801       0.55215017       0.98504602 </v>
   <v>       0.98935727       0.56267162       0.57534518 </v>
   <v>       0.24016371       0.72342038       0.76307471 </v>
   <v>       0.11479590       0.00012782       0.08683270 </v>
   <v>       0.90575921       0.46474196       0.37426157 </v>
   <v>       0.02668273       0.15799635       0.00183465 </v>
   <v>       0.76191654       0.64642103       0.91946352 </v>
   <v>       0.58335996       0.76007018       0.98217807 </v>
   <v>       0.23863194       0.81435732       0.45347439 </v>
   <v>       0.47658143       0.31040227       0.81059949 </v>
   <v>       0.45615147       0.25213911       0.24030375 </v>
   <v>       0.77903281       0.01531370       0.69512732 </v>
   <v>       0.26879540       0.53955715       0.94604756 </v>
   <v>       0.82912626       0.68939259       0.37139143 </v>
   <v>       0.42013855       0.49101263       0.77173470 </v>
   <v>       0.61493720       0.37791335       0.52009706 </v>
   <v>       0.50235352       0.81713654       0.24080891 </v>
   <v>       0.22215520       0.31913815       0.43114217 </v>
   <v>       0.83440462       0.20828759       0.18127745 </v>
   <v>       0.76211997       0.06370249       0.31385112 </v>
   <v>       0.69718890       0.82390985       0.46244458 </v>
   <v>       0.21330084       0.34278340       0.04311391 </v>
   <v>       0.72200161       0.95395709       0.05044729 </v>
   <v>       0.76839414       0.55068211       0.17357256 </v>
   <v>       0.40023664       0.76107055       0.59687905 </v>
   <v>       0.21348411       0.93475180       0.30456894 </v>
   <v>       0.73291352       0.79939328       0.67580189 </v>
   <v>       0.73879289       0.39642000       0.70984006 </v>
   <v>       0.62169072       0.66498372       0.37136603 </v>
   <v>       0.53652185       0.96276784       0.95463542 </v>
   <v>       0.41950658       0.50323313       0.49803482 </v>
   <v>       0.32243192       0.04455296       0.86081739 </v>
   <v>       0.93308716       0.93901914       0.79248535 </v>
   <v>       0.83807447       0.60324918       0.75069030 </v>
   <v>       0.57654142       0.49155417       0.89697150 </v>
   <v>       0.13988163       0.11760091       0.82174288 </v>
   <v>       0.16986843       0.61125473       0.64006440 </v>
   <v>       0.43069684       0.30193578       0.58565401 </v>
   <v>       0.04618165       0.78953944       0.72818864 </v>
   <v>       0.28242012       0.57328475       0.28512890 </v>
   <v>       0.03193821       0.90153800       0.43368761 </v>
   <v>       0.01388810       0.31070265       0.46030403 </v>
  </varray>
  <varray name="velocities" >
   <v>       0.00000000       0.00000000       0.00000000 </v>
   <v>       0.00000000       0.00000000       0.00000000 </v>
   <v>       0.00000000       0.00000000       0.00000000 </v>
   <v>       0.00000000       0.00000000       0.00000000 </v>
   <v>       0.00000000       0.00000000       0.00000000 </v>
   <v>       0.00000000       0.00000000       0.00000000 </v>
   <v>       0.00000000       0.00000000       0.00000000 </v>
   <v>       0.00000000       0.00000000       0.00000000 </v>
   <v>       0.00000000       0.00000000       0.00000000 </v>
   <v>       0.00000000       0.00000000       0.00000000 </v>
   <v>       0.00000000       0.00000000       0.00000000 </v>
   <v>       0.00000000       0.00000000       0.00000000 </v>
   <v>       0.00000000       0.00000000       0.00000000 </v>
   <v>       0.00000000       0.00000000       0.00000000 </v>
   <v>       0.00000000       0.00000000       0.00000000 </v>
   <v>       0.00000000       0.00000000       0.00000000 </v>
   <v>       0.00000000       0.00000000       0.00000000 </v>
   <v>       0.00000000       0.00000000       0.00000000 </v>
   <v>       0.00000000       0.00000000       0.00000000 </v>
   <v>       0.00000000       0.00000000       0.00000000 </v>
   <v>       0.00000000       0.00000000       0.00000000 </v>
   <v>       0.00000000       0.00000000       0.00000000 </v>
   <v>       0.00000000       0.00000000       0.00000000 </v>
   <v>       0.00000000       0.00000000       0.00000000 </v>
   <v>       0.00000000       0.00000000       0.00000000 </v>
   <v>       0.00000000       0.00000000       0.00000000 </v>
   <v>       0.00000000       0.00000000       0.00000000 </v>
   <v>       0.00000000       0.00000000       0.00000000 </v>
   <v>       0.00000000       0.00000000       0.00000000 </v>
   <v>       0.00000000       0.00000000       0.00000000 </v>
   <v>       0.00000000       0.00000000       0.00000000 </v>
   <v>       0.00000000       0.00000000       0.00000000 </v>
   <v>       0.00000000       0.00000000       0.00000000 </v>
   <v>       0.00000000       0.00000000       0.00000000 </v>
   <v>       0.00000000       0.00000000       0.00000000 </v>
   <v>       0.00000000       0.00000000       0.00000000 </v>
   <v>       0.00000000       0.00000000       0.00000000 </v>
   <v>       0.00000000       0.00000000       0.00000000 </v>
   <v>       0.00000000       0.00000000       0.00000000 </v>
   <v>       0.00000000       0.00000000       0.00000000 </v>
   <v>       0.00000000       0.00000000       0.00000000 </v>
   <v>       0.00000000       0.00000000       0.00000000 </v>
   <v>       0.00000000       0.00000000       0.00000000 </v>
   <v>       0.00000000       0.00000000       0.00000000 </v>
   <v>       0.00000000       0.00000000       0.00000000 </v>
   <v>       0.00000000       0.00000000       0.00000000 </v>
   <v>       0.00000000       0.00000000       0.00000000 </v>
   <v>       0.00000000       0.00000000       0.00000000 </v>
   <v>       0.00000000       0.00000000       0.00000000 </v>
   <v>       0.00000000       0.00000000       0.00000000 </v>
   <v>       0.00000000       0.00000000       0.00000000 </v>
   <v>       0.00000000       0.00000000       0.00000000 </v>
   <v>       0.00000000       0.00000000       0.00000000 </v>
   <v>       0.00000000       0.00000000       0.00000000 </v>
   <v>       0.00000000       0.00000000       0.00000000 </v>
   <v>       0.00000000       0.00000000       0.00000000 </v>
   <v>       0.00000000       0.00000000       0.00000000 </v>
   <v>       0.00000000       0.00000000       0.00000000 </v>
   <v>       0.00000000       0.00000000       0.00000000 </v>
   <v>       0.00000000       0.00000000       0.00000000 </v>
   <v>       0.00000000       0.00000000       0.00000000 </v>
   <v>       0.00000000       0.00000000       0.00000000 </v>
   <v>       0.00000000       0.00000000       0.00000000 </v>
   <v>       0.00000000       0.00000000       0.00000000 </v>
   <v>       0.00000000       0.00000000       0.00000000 </v>
   <v>       0.00000000       0.00000000       0.00000000 </v>
   <v>       0.00000000       0.00000000       0.00000000 </v>
   <v>       0.00000000       0.00000000       0.00000000 </v>
   <v>       0.00000000       0.00000000       0.00000000 </v>
   <v>       0.00000000       0.00000000       0.00000000 </v>
   <v>       0.00000000       0.00000000       0.00000000 </v>
   <v>       0.00000000       0.00000000       0.00000000 </v>
   <v>       0.00000000       0.00000000       0.00000000 </v>
   <v>       0.00000000       0.00000000       0.00000000 </v>
   <v>       0.00000000       0.00000000       0.00000000 </v>
   <v>       0.00000000       0.00000000       0.00000000 </v>
   <v>       0.00000000       0.00000000       0.00000000 </v>
   <v>       0.00000000       0.00000000       0.00000000 </v>
   <v>       0.00000000       0.00000000       0.00000000 </v>
   <v>       0.00000000       0.00000000       0.00000000 </v>
   <v>       0.00000000       0.00000000       0.00000000 </v>
   <v>       0.00000000       0.00000000       0.00000000 </v>
   <v>       0.00000000       0.00000000       0.00000000 </v>
   <v>       0.00000000       0.00000000       0.00000000 </v>
   <v>       0.00000000       0.00000000       0.00000000 </v>
   <v>       0.00000000       0.00000000       0.00000000 </v>
   <v>       0.00000000       0.00000000       0.00000000 </v>
   <v>       0.00000000       0.00000000       0.00000000 </v>
   <v>       0.00000000       0.00000000       0.00000000 </v>
   <v>       0.00000000       0.00000000       0.00000000 </v>
   <v>       0.00000000       0.00000000       0.00000000 </v>
   <v>       0.00000000       0.00000000       0.00000000 </v>
   <v>       0.00000000       0.00000000       0.00000000 </v>
   <v>       0.00000000       0.00000000       0.00000000 </v>
   <v>       0.00000000       0.00000000       0.00000000 </v>
   <v>       0.00000000       0.00000000       0.00000000 </v>
   <v>       0.00000000       0.00000000       0.00000000 </v>
   <v>       0.00000000       0.00000000       0.00000000 </v>
   <v>       0.00000000       0.00000000       0.00000000 </v>
   <v>       0.00000000       0.00000000       0.00000000 </v>
   <v>       0.00000000       0.00000000       0.00000000 </v>
   <v>       0.00000000       0.00000000       0.00000000 </v>
   <v>       0.00000000       0.00000000       0.00000000 </v>
   <v>       0.00000000       0.00000000       0.00000000 </v>
   <v>       0.00000000       0.00000000       0.00000000 </v>
   <v>       0.00000000       0.00000000       0.00000000 </v>
   <v>       0.00000000       0.00000000       0.00000000 </v>
   <v>       0.00000000       0.00000000       0.00000000 </v>
   <v>       0.00000000       0.00000000       0.00000000 </v>
   <v>       0.00000000       0.00000000       0.00000000 </v>
   <v>       0.00000000       0.00000000       0.00000000 </v>
   <v>       0.00000000       0.00000000       0.00000000 </v>
   <v>       0.00000000       0.00000000       0.00000000 </v>
   <v>       0.00000000       0.00000000       0.00000000 </v>
   <v>       0.00000000       0.00000000       0.00000000 </v>
   <v>       0.00000000       0.00000000       0.00000000 </v>
   <v>       0.00000000       0.00000000       0.00000000 </v>
   <v>       0.00000000       0.00000000       0.00000000 </v>
   <v>       0.00000000       0.00000000       0.00000000 </v>
   <v>       0.00000000       0.00000000       0.00000000 </v>
   <v>       0.00000000       0.00000000       0.00000000 </v>
   <v>       0.00000000       0.00000000       0.00000000 </v>
   <v>       0.00000000       0.00000000       0.00000000 </v>
   <v>       0.00000000       0.00000000       0.00000000 </v>
   <v>       0.00000000       0.00000000       0.00000000 </v>
   <v>       0.00000000       0.00000000       0.00000000 </v>
   <v>       0.00000000       0.00000000       0.00000000 </v>
   <v>       0.00000000       0.00000000       0.00000000 </v>
   <v>       0.00000000       0.00000000       0.00000000 </v>
   <v>       0.00000000       0.00000000       0.00000000 </v>
   <v>       0.00000000       0.00000000       0.00000000 </v>
   <v>       0.00000000       0.00000000       0.00000000 </v>
   <v>       0.00000000       0.00000000       0.00000000 </v>
   <v>       0.00000000       0.00000000       0.00000000 </v>
   <v>       0.00000000       0.00000000       0.00000000 </v>
  </varray>
 </structure>
 <calculation>
  <scstep>
   <time name="dav">   53.16   53.26</time>
   <time name="total">   53.69   53.80</time>
   <energy>
    <i name="alphaZ">   2210.34415451 </i>
    <i name="ewald"> -38661.39808362 </i>
    <i name="hartreedc"> -22718.33878420 </i>
    <i name="XCdc">   3142.45723582 </i>
    <i name="pawpsdc">  50594.51003143 </i>
    <i name="pawaedc"> -49994.65612350 </i>
    <i name="eentropy">     -0.04067911 </i>
    <i name="bandstr">   -174.17111089 </i>
    <i name="atom">  64968.54023382 </i>
    <i name="e_fr_energy">   9367.24687427 </i>
    <i name="e_wo_entrp">   9367.28755338 </i>
    <i name="e_0_energy">   9367.26721382 </i>
   </energy>
  </scstep>
  <scstep>
   <time name="dav">   61.79   61.95</time>
   <time name="total">   61.79   61.95</time>
   <energy>
    <i name="e_fr_energy">    -23.99069278 </i>
    <i name="e_wo_entrp">    -23.99069278 </i>
    <i name="e_0_energy">    -23.99069278 </i>
   </energy>
  </scstep>
  <scstep>
   <time name="dav">   62.70   62.78</time>
   <time name="total">   62.70   62.78</time>
   <energy>
    <i name="e_fr_energy">  -1043.97586915 </i>
    <i name="e_wo_entrp">  -1043.97586915 </i>
    <i name="e_0_energy">  -1043.97586915 </i>
   </energy>
  </scstep>
  <scstep>
   <time name="dav">   64.80   64.90</time>
   <time name="total">   64.80   64.91</time>
   <energy>
    <i name="e_fr_energy">  -1090.29554589 </i>
    <i name="e_wo_entrp">  -1090.29554589 </i>
    <i name="e_0_energy">  -1090.29554589 </i>
   </energy>
  </scstep>
  <scstep>
   <time name="dav">   88.12   88.25</time>
   <time name="total">   90.63   90.77</time>
   <energy>
    <i name="e_fr_energy">  -1096.97574098 </i>
    <i name="e_wo_entrp">  -1096.97574098 </i>
    <i name="e_0_energy">  -1096.97574098 </i>
   </energy>
  </scstep>
  <scstep>
   <time name="dav">   62.38   62.51</time>
   <time name="total">   65.40   65.54</time>
   <energy>
    <i name="e_fr_energy">   -939.37361049 </i>
    <i name="e_wo_entrp">   -939.37361049 </i>
    <i name="e_0_energy">   -939.37361049 </i>
   </energy>
  </scstep>
  <scstep>
   <time name="dav">   67.91   68.15</time>
   <time name="total">   70.86   71.11</time>
   <energy>
    <i name="e_fr_energy">   -941.13767455 </i>
    <i name="e_wo_entrp">   -941.13767455 </i>
    <i name="e_0_energy">   -941.13767455 </i>
   </energy>
  </scstep>
  <scstep>
   <time name="dav">   61.40   61.52</time>
   <time name="total">   64.34   64.48</time>
   <energy>
    <i name="e_fr_energy">   -939.56543796 </i>
    <i name="e_wo_entrp">   -939.56543796 </i>
    <i name="e_0_energy">   -939.56543796 </i>
   </energy>
  </scstep>
  <scstep>
   <time name="dav">   74.25   74.80</time>
   <time name="total">   77.21   77.78</time>
   <energy>
    <i name="e_fr_energy">   -939.14735433 </i>
    <i name="e_wo_entrp">   -939.14735433 </i>
    <i name="e_0_energy">   -939.14735433 </i>
   </energy>
  </scstep>
  <scstep>
   <time name="dav">   70.48   70.55</time>
   <time name="total">   73.42   73.51</time>
   <energy>
    <i name="e_fr_energy">   -939.27954900 </i>
    <i name="e_wo_entrp">   -939.27954900 </i>
    <i name="e_0_energy">   -939.27954900 </i>
   </energy>
  </scstep>
  <scstep>
   <time name="dav">   68.31   68.50</time>
   <time name="total">   71.27   71.48</time>
   <energy>
    <i name="e_fr_energy">   -939.29016961 </i>
    <i name="e_wo_entrp">   -939.29016961 </i>
    <i name="e_0_energy">   -939.29016961 </i>
   </energy>
  </scstep>
  <scstep>
   <time name="dav">   59.13   59.30</time>
   <time name="total">   62.10   62.29</time>
   <energy>
    <i name="e_fr_energy">   -939.31381943 </i>
    <i name="e_wo_entrp">   -939.31381943 </i>
    <i name="e_0_energy">   -939.31381943 </i>
   </energy>
  </scstep>
  <scstep>
   <time name="dav">   71.30   71.46</time>
   <time name="total">   74.31   74.48</time>
   <energy>
    <i name="e_fr_energy">   -939.32117186 </i>
    <i name="e_wo_entrp">   -939.32117186 </i>
    <i name="e_0_energy">   -939.32117186 </i>
   </energy>
  </scstep>
  <scstep>
   <time name="dav">   66.43   66.57</time>
   <time name="total">   69.40   69.55</time>
   <energy>
    <i name="e_fr_energy">   -939.32329047 </i>
    <i name="e_wo_entrp">   -939.32329047 </i>
    <i name="e_0_energy">   -939.32329047 </i>
   </energy>
  </scstep>
  <scstep>
   <time name="dav">   64.54   64.70</time>
   <time name="total">   67.48   67.64</time>
   <energy>
    <i name="e_fr_energy">   -939.32385299 </i>
    <i name="e_wo_entrp">   -939.32385299 </i>
    <i name="e_0_energy">   -939.32385299 </i>
   </energy>
  </scstep>
  <scstep>
   <time name="dav">   57.72   57.88</time>
   <time name="total">   60.72   60.89</time>
   <energy>
    <i name="e_fr_energy">   -939.32419250 </i>
    <i name="e_wo_entrp">   -939.32419250 </i>
    <i name="e_0_energy">   -939.32419250 </i>
   </energy>
  </scstep>
  <scstep>
   <time name="dav">   70.32   70.41</time>
   <time name="total">   73.31   73.41</time>
   <energy>
    <i name="e_fr_energy">   -939.32422428 </i>
    <i name="e_wo_entrp">   -939.32422428 </i>
    <i name="e_0_energy">   -939.32422428 </i>
   </energy>
  </scstep>
  <scstep>
   <time name="dav">   61.26   61.35</time>
   <time name="total">   64.26   64.37</time>
   <energy>
    <i name="e_fr_energy">   -939.32422654 </i>
    <i name="e_wo_entrp">   -939.32422654 </i>
    <i name="e_0_energy">   -939.32422654 </i>
   </energy>
  </scstep>
  <scstep>
   <time name="dav">   57.75   57.85</time>
   <time name="total">   60.72   60.84</time>
   <energy>
    <i name="e_fr_energy">   -939.32422535 </i>
    <i name="e_wo_entrp">   -939.32422535 </i>
    <i name="e_0_energy">   -939.32422535 </i>
   </energy>
  </scstep>
  <scstep>
   <time name="dav">   63.84   63.95</time>
   <time name="total">   66.88   67.00</time>
   <energy>
    <i name="e_fr_energy">   -939.32422804 </i>
    <i name="e_wo_entrp">   -939.32422804 </i>
    <i name="e_0_energy">   -939.32422804 </i>
   </energy>
  </scstep>
  <scstep>
   <time name="dav">   48.54   48.65</time>
   <time name="total">   49.06   49.18</time>
   <energy>
    <i name="alphaZ">   2210.34415451 </i>
    <i name="ewald"> -38661.39808362 </i>
    <i name="hartreedc"> -24564.41508143 </i>
    <i name="XCdc">   3251.59240640 </i>
    <i name="pawpsdc">  93613.12919488 </i>
    <i name="pawaedc"> -93282.41581717 </i>
    <i name="eentropy">     -0.00000000 </i>
    <i name="bandstr">  -8474.70123636 </i>
    <i name="atom">  64968.54023382 </i>
    <i name="e_fr_energy">   -939.32422896 </i>
    <i name="e_wo_entrp">   -939.32422896 </i>
    <i name="e_0_energy">   -939.32422896 </i>
   </energy>
  </scstep>
  <structure>
   <crystal>
    <varray name="basis" >
     <v>      12.93041299       0.00000000       0.00000000 </v>
     <v>       0.00000000      12.93041299       0.00000000 </v>
     <v>       0.00000000       0.00000000      12.93041299 </v>
    </varray>
    <i name="volume">   2161.90790069 </i>
    <varray name="rec_basis" >
     <v>       0.07733705       0.00000000       0.00000000 </v>
     <v>       0.00000000       0.07733705       0.00000000 </v>
     <v>       0.00000000       0.00000000       0.07733705 </v>
    </varray>
   </crystal>
   <varray name="positions" >
    <v>       0.59614379       0.73384787       0.60167836 </v>
    <v>       0.12051871       0.07957146       0.25209416 </v>
    <v>       0.72306014       0.51451721       0.34974476 </v>
    <v>       0.06832838       0.47573237       0.94737529 </v>
    <v>       0.21272379       0.10100271       0.01120995 </v>
    <v>       0.92743650       0.45138821       0.72091289 </v>
    <v>       0.50805507       0.02886302       0.55973604 </v>
    <v>       0.86496735       0.96092310       0.48239684 </v>
    <v>       0.98325926       0.63636862       0.30378063 </v>
    <v>       0.46401445       0.85692317       0.07262259 </v>
    <v>       0.88575682       0.02694834       0.06255700 </v>
    <v>       0.64746737       0.57400077       0.02681677 </v>
    <v>       0.98037052       0.31266908       0.16380156 </v>
    <v>       0.39568435       0.65850280       0.74091262 </v>
    <v>       0.63571589       0.98049181       0.24949671 </v>
    <v>       0.74207375       0.17429282       0.78036679 </v>
    <v>       0.29647888       0.35306955       0.27080620 </v>
    <v>       0.25406107       0.39469140       0.79515247 </v>
    <v>       0.26378891       0.59153351       0.46351753 </v>
    <v>       0.15225999       0.24522469       0.57890082 </v>
    <v>       0.76610044       0.77264606       0.10625857 </v>
    <v>       0.67277777       0.58060668       0.79633801 </v>
    <v>       0.26275601       0.73109945       0.96987171 </v>
    <v>       0.47912602       0.15923445       0.90996135 </v>
    <v>       0.84168050       0.64874809       0.55482862 </v>
    <v>       0.22024365       0.01690796       0.46522407 </v>
    <v>       0.30566508       0.80259965       0.26062111 </v>
    <v>       0.49457354       0.40653484       0.50160482 </v>
    <v>       0.86931711       0.64504933       0.87719075 </v>
    <v>       0.10237890       0.50525687       0.58501958 </v>
    <v>       0.41777873       0.13855493       0.16423062 </v>
    <v>       0.91554783       0.36221919       0.42714880 </v>
    <v>       0.90018356       0.04627208       0.70871250 </v>
    <v>       0.37940713       0.82180653       0.50144470 </v>
    <v>       0.73215169       0.41559172       0.58647689 </v>
    <v>       0.27577180       0.09861528       0.76011318 </v>
    <v>       0.79198855       0.18361505       0.29623517 </v>
    <v>       0.88456778       0.55162018       0.10288065 </v>
    <v>       0.68371496       0.90578010       0.71524268 </v>
    <v>       0.54046699       0.81641304       0.88526479 </v>
    <v>       0.72539811       0.76696963       0.36161484 </v>
    <v>       0.53965018       0.23872826       0.34378782 </v>
    <v>       0.12684048       0.27431380       0.38219548 </v>
    <v>       0.51441945       0.71602662       0.32687645 </v>
    <v>       0.02469201       0.19307670       0.88199925 </v>
    <v>       0.07917421       0.87025184       0.06571777 </v>
    <v>       0.30562482       0.44086231       0.01812030 </v>
    <v>       0.00507152       0.83209762       0.83119317 </v>
    <v>       0.14004639       0.66624652       0.74027146 </v>
    <v>       0.66221118       0.98716483       0.95242768 </v>
    <v>       0.13123246       0.84176264       0.38141729 </v>
    <v>       0.36998001       0.58245055       0.20453681 </v>
    <v>       0.41184033       0.24798647       0.70088721 </v>
    <v>       0.47723170       0.43056753       0.87063644 </v>
    <v>       0.07354961       0.87811905       0.92772868 </v>
    <v>       0.43458716       0.75250181       0.40789737 </v>
    <v>       0.90365297       0.13619001       0.81713464 </v>
    <v>       0.68634733       0.89817088       0.85138376 </v>
    <v>       0.40486927       0.40056463       0.95903567 </v>
    <v>       0.12875345       0.15174554       0.39556467 </v>
    <v>       0.48369137       0.59703558       0.25009133 </v>
    <v>       0.28190984       0.08946634       0.63913544 </v>
    <v>       0.10326225       0.40187730       0.65119831 </v>
    <v>       0.53778325       0.11727787       0.39594582 </v>
    <v>       0.27799192       0.10040170       0.18788363 </v>
    <v>       0.66323898       0.23934077       0.31886091 </v>
    <v>       0.13338784       0.73441327       0.32078751 </v>
    <v>       0.49749299       0.37554869       0.38279794 </v>
    <v>       0.92458257       0.74249431       0.90043146 </v>
    <v>       0.01227726       0.31809242       0.86751517 </v>
    <v>       0.50442482       0.02127553       0.12989058 </v>
    <v>       0.34663531       0.65806519       0.09930489 </v>
    <v>       0.42578654       0.80156288       0.87477843 </v>
    <v>       0.97054195       0.07666647       0.61659661 </v>
    <v>       0.91997856       0.66850927       0.14238693 </v>
    <v>       0.72300595       0.53315097       0.53027902 </v>
    <v>       0.36051882       0.95105376       0.49847689 </v>
    <v>       0.96083257       0.88903796       0.09795923 </v>
    <v>       0.47543234       0.13575769       0.73544315 </v>
    <v>       0.83315447       0.36050513       0.53145341 </v>
    <v>       0.55071345       0.72256245       0.78267090 </v>
    <v>       0.13627731       0.50756058       0.46414461 </v>
    <v>       0.95494939       0.46873336       0.17020588 </v>
    <v>       0.67077470       0.10275053       0.89925748 </v>
    <v>       0.11301112       0.30750246       0.26950989 </v>
    <v>       0.58505234       0.95872974       0.68411225 </v>
    <v>       0.88247014       0.25992267       0.36574819 </v>
    <v>       0.18120709       0.80275198       0.09455930 </v>
    <v>       0.39388468       0.19969106       0.04703530 </v>
    <v>       0.74418099       0.86262813       0.28067268 </v>
    <v>       0.09199535       0.60033601       0.83148257 </v>
    <v>       0.39340042       0.47736548       0.11478840 </v>
    <v>       0.29131746       0.25452327       0.72662133 </v>
    <v>       0.91634801       0.55215017       0.98504602 </v>
    <v>       0.98935727       0.56267162       0.57534518 </v>
    <v>       0.24016371       0.72342038       0.76307471 </v>
    <v>       0.11479590       0.00012782       0.08683270 </v>
    <v>       0.90575921       0.46474196       0.37426157 </v>
    <v>       0.02668273       0.15799635       0.00183465 </v>
    <v>       0.76191654       0.64642103       0.91946352 </v>
    <v>       0.58335996       0.76007018       0.98217807 </v>
    <v>       0.23863194       0.81435732       0.45347439 </v>
    <v>       0.47658143       0.31040227       0.81059949 </v>
    <v>       0.45615147       0.25213911       0.24030375 </v>
    <v>       0.77903281       0.01531370       0.69512732 </v>
    <v>       0.26879540       0.53955715       0.94604756 </v>
    <v>       0.82912626       0.68939259       0.37139143 </v>
    <v>       0.42013855       0.49101263       0.77173470 </v>
    <v>       0.61493720       0.37791335       0.52009706 </v>
    <v>       0.50235352       0.81713654       0.24080891 </v>
    <v>       0.22215520       0.31913815       0.43114217 </v>
    <v>       0.83440462       0.20828759       0.18127745 </v>
    <v>       0.76211997       0.06370249       0.31385112 </v>
    <v>       0.69718890       0.82390985       0.46244458 </v>
    <v>       0.21330084       0.34278340       0.04311391 </v>
    <v>       0.72200161       0.95395709       0.05044729 </v>
    <v>       0.76839414       0.55068211       0.17357256 </v>
    <v>       0.40023664       0.76107055       0.59687905 </v>
    <v>       0.21348411       0.93475180       0.30456894 </v>
    <v>       0.73291352       0.79939328       0.67580189 </v>
    <v>       0.73879289       0.39642000       0.70984006 </v>
    <v>       0.62169072       0.66498372       0.37136603 </v>
    <v>       0.53652185       0.96276784       0.95463542 </v>
    <v>       0.41950658       0.50323313       0.49803482 </v>
    <v>       0.32243192       0.04455296       0.86081739 </v>
    <v>       0.93308716       0.93901914       0.79248535 </v>
    <v>       0.83807447       0.60324918       0.75069030 </v>
    <v>       0.57654142       0.49155417       0.89697150 </v>
    <v>       0.13988163       0.11760091       0.82174288 </v>
    <v>       0.16986843       0.61125473       0.64006440 </v>
    <v>       0.43069684       0.30193578       0.58565401 </v>
    <v>       0.04618165       0.78953944       0.72818864 </v>
    <v>       0.28242012       0.57328475       0.28512890 </v>
    <v>       0.03193821       0.90153800       0.43368761 </v>
    <v>       0.01388810       0.31070265       0.46030403 </v>
   </varray>
  </structure>
  <varray name="forces" >
   <v>      -0.59310053       0.27030989      -0.38450249 </v>
   <v>       0.87273767      -1.79437465      -2.77696199 </v>
   <v>       0.79760522      -0.36541390      -0.56951538 </v>
   <v>       1.22186721      -0.15165549       0.98192193 </v>
   <v>       0.98310155       0.80111379      -0.63610402 </v>
   <v>       0.14856358      -0.30633800      -0.60421677 </v>
   <v>      -1.33998452       2.07737956      -0.43699380 </v>
   <v>       0.69771814       0.11785017      -0.73113998 </v>
   <v>       0.45379167      -0.91522214      -0.56291471 </v>
   <v>      -0.21307541       0.39212307       0.21659335 </v>
   <v>       0.85884979       1.26188459      -0.15596780 </v>
   <v>      -1.31328999       0.14430034       1.22452800 </v>
   <v>      -0.29443471      -1.42420192      -0.17854389 </v>
   <v>      -0.75019650       0.87549431       0.81713334 </v>
   <v>      -1.98532547       1.12665065      -0.47058423 </v>
   <v>      -0.92754560       1.49904958      -0.60697003 </v>
   <v>       0.54836399       0.50150439      -0.65914169 </v>
   <v>      -0.02476852       2.29077967       0.55919375 </v>
   <v>       2.09570156       1.40544998      -0.85369040 </v>
   <v>       0.13225930      -0.16665021       1.36071347 </v>
   <v>       1.94279664       0.95179183      -0.06181662 </v>
   <v>      -0.78385085       0.26365784      -2.07187517 </v>
   <v>       0.30298677      -1.11419464      -1.57698392 </v>
   <v>       0.26813106      -1.54584387       0.23907206 </v>
   <v>       1.44735999       0.53682589       0.57531278 </v>
   <v>      -0.51992928       0.27411273       0.75371983 </v>
   <v>      -1.58552509      -0.42717830      -0.95652346 </v>
   <v>      -2.26048282      -1.64239014       2.35254150 </v>
   <v>       1.46140894      -5.18015234      -3.43053719 </v>
   <v>      -1.41149270       3.49807508      -3.35570045 </v>
   <v>      -2.66083328      -0.70839804      -3.59472630 </v>
   <v>      -4.62488595      -1.01410785       1.68023245 </v>
   <v>       3.16360403      -3.30094101       6.13441577 </v>
   <v>      -6.33741960       4.56969671      -3.76935615 </v>
   <v>      -2.26440198      -0.02664067      -2.74069605 </v>
   <v>      -2.53386366       0.33492333       2.32799113 </v>
   <v>      -1.41313674       2.98015517       0.02851623 </v>
   <v>       0.29120198       1.74546223       6.93504066 </v>
   <v>       5.43248606      -0.20783083       4.21653988 </v>
   <v>       3.49516469       0.19410401      -3.44294036 </v>
   <v>       2.41777970      -1.46123726      -0.95831102 </v>
   <v>       0.27175534      -0.60372923       0.14159420 </v>
   <v>      -5.44180377      -0.29828500       0.66541204 </v>
   <v>       0.89682255      -2.15348102      -6.49908768 </v>
   <v>       0.49197723      -1.78772626      -1.35750779 </v>
   <v>       1.48515233       4.52538485      -1.49028329 </v>
   <v>      -1.13817351       0.28772669       3.10760215 </v>
   <v>      -2.86748071       3.53022907       2.77415743 </v>
   <v>      -2.98528697       4.31575048       2.53092222 </v>
   <v>      -2.98872174       0.36814141      -3.93615775 </v>
   <v>       1.65425976       0.73924240      -0.89224233 </v>
   <v>       0.04963752      -0.95473157      -7.33774483 </v>
   <v>       6.24973657      -0.05802000      -0.10965138 </v>
   <v>      -1.63768404      -1.01562923      -6.37437518 </v>
   <v>       0.49307714      -1.51596230       0.45943234 </v>
   <v>      -2.03897408       0.71780187       2.12513926 </v>
   <v>       1.41705523       0.42596281      -1.00950802 </v>
   <v>      -0.49886038      -0.19890637      -0.91411983 </v>
   <v>      -0.51375164      -2.45031174       0.25669356 </v>
   <v>      -0.14070332      -1.20125344       2.41713322 </v>
   <v>       2.28326273       3.15814681       2.63120544 </v>
   <v>      -1.26367954      -0.82924237      -1.60608723 </v>
   <v>       0.64332287      -0.96889578       1.77077613 </v>
   <v>      -1.33960282       1.69580454       0.19881061 </v>
   <v>       3.88480882       1.54836540       0.18669103 </v>
   <v>       2.15589054       1.20610749      -0.95129988 </v>
   <v>      -1.66482632      -0.35111549      -0.46752782 </v>
   <v>       0.02541350      -4.42771413      -3.21773575 </v>
   <v>       4.13546265       6.10611165      -0.62937373 </v>
   <v>       0.31409434       0.64184771      -0.75944439 </v>
   <v>      -2.14817275       3.50444057       2.76705683 </v>
   <v>       0.78993090       2.01986129       2.67844853 </v>
   <v>      -6.75670214       0.69464093       1.60045585 </v>
   <v>      -0.42219648      -0.03796218      -1.84073334 </v>
   <v>      -0.65855389       0.30184909      -0.34906669 </v>
   <v>       0.26813311       0.36644527       1.71583865 </v>
   <v>       4.53968991      -2.72815150       0.34861427 </v>
   <v>      -1.69369795      -1.83479794       0.92517491 </v>
   <v>      -1.76009452       1.92485509      -2.54010401 </v>
   <v>      -0.18962101      -0.02026950       0.93017848 </v>
   <v>       2.92274729      -0.10222366      -1.52490593 </v>
   <v>      -0.53164203      -1.20539211       0.98150879 </v>
   <v>      -0.11483970       1.05671052      -2.16310404 </v>
   <v>      -0.00105090      -0.49499148       1.72013467 </v>
   <v>      -0.13555001       0.37947241      -3.54323535 </v>
   <v>      -2.67260421       0.16887998      -1.77455459 </v>
   <v>      -3.98901533      -3.80314257      -3.03520827 </v>
   <v>      -1.03750407       0.05082139       0.42731772 </v>
   <v>       0.79256604      -1.69897471       2.47328013 </v>
   <v>       0.08011321      -3.23953117      -1.42783792 </v>
   <v>      -1.82245402      -1.91505843       0.48027913 </v>
   <v>      -2.51948135      -0.15476127       3.05147856 </v>
   <v>      -1.56225439      -1.12158847       0.96650274 </v>
   <v>      -0.13352750      -0.60723910      -4.98131569 </v>
   <v>      -1.56825347      -0.87849263       1.84975498 </v>
   <v>       3.00308485       1.83770405       2.53763475 </v>
   <v>      -0.72107673      -2.33517160       1.02484585 </v>
   <v>      -1.14417422       4.38897290      -2.05971810 </v>
   <v>      -0.83517619       0.67816268      -0.56068906 </v>
   <v>      -6.18805431      -0.09600399       3.86221870 </v>
   <v>       2.33955530      -1.88997403       4.20362286 </v>
   <v>       1.84134813      -0.97429600       1.86024661 </v>
   <v>       0.22804435       0.09659683      -0.71094624 </v>
   <v>       0.12685710      -2.92044054       0.17237598 </v>
   <v>      -1.57821254      -0.02278746      -1.18029088 </v>
   <v>      -1.72006462      -1.54019611       0.16152648 </v>
   <v>      -1.47092975       0.36106934       0.49657343 </v>
   <v>      -0.61879076      -0.07610140       0.64637642 </v>
   <v>       3.06348557       0.20981840       2.77701672 </v>
   <v>       1.01935796      -1.89352012       1.49932136 </v>
   <v>       4.37601679       1.32081143       2.47599857 </v>
   <v>       0.44813488      -0.81998024      -0.63512881 </v>
   <v>       2.27719454       0.40404897       1.66881518 </v>
   <v>      -0.82847914       1.61012677       3.91761064 </v>
   <v>       1.46346947       3.43438188      -1.05525441 </v>
   <v>       2.07185941      -0.68485393       2.42674659 </v>
   <v>      -1.02061450      -0.17576830      -2.90152220 </v>
   <v>       2.09117130      -2.22569643       3.48780741 </v>
   <v>      -2.86787643      -0.66380101       1.87870764 </v>
   <v>       0.10076321       0.15942245      -0.82827980 </v>
   <v>       0.32749970       0.29023111      -0.16950434 </v>
   <v>       1.08827322       2.20880365      -0.75462878 </v>
   <v>       0.33138029      -1.65237993      -1.34035302 </v>
   <v>       0.26436950       1.13319381       1.40445095 </v>
   <v>       0.08109639       1.08806704      -0.37403469 </v>
   <v>       0.24703850       0.00650213      -0.82816648 </v>
   <v>       2.16077837      -0.22670163       2.12164036 </v>
   <v>       2.64797391       0.25401602       1.79455120 </v>
   <v>      -0.83735858       2.22203575       0.01304298 </v>
   <v>       0.36187232      -4.65080363      -4.92075066 </v>
   <v>       0.66992232       0.73091216       0.08259321 </v>
   <v>       2.33827287      -4.02592986      -2.22951331 </v>
   <v>      -1.14122244      -0.67226176       1.81768599 </v>
   <v>       0.48939580      -0.20719421      -0.34924179 </v>
   <v>       8.70973280      -2.11795782       2.30047927 </v>
  </varray>
  <varray name="stress" >
   <v>       4.10946131       7.76601003      -5.67042867 </v>
   <v>       7.76601004     -30.96777979      11.20842514 </v>
   <v>      -5.67042864      11.20842518      13.95451618 </v>
  </varray>
  <energy>
   <i name="e_fr_energy">   -939.32422896 </i>
   <i name="e_wo_entrp">   -939.32422896 </i>
   <i name="e_0_energy">     -0.00000000 </i>
  </energy>
  <time name="totalsc"> 1466.97 1470.44</time>
  <eigenvalues>
   <array>
    <dimension dim="1">band</dimension>
    <dimension dim="2">kpoint</dimension>
    <dimension dim="3">spin</dimension>
    <field>eigene</field>
    <field>occ</field>
    <set>
     <set comment="spin 1">
      <set comment="kpoint 1">
       <r>  -39.8941    1.0000 </r>
       <r>  -38.8116    1.0000 </r>
       <r>  -38.7117    1.0000 </r>
       <r>  -38.7038    1.0000 </r>
       <r>  -38.6991    1.0000 </r>
       <r>  -38.6316    1.0000 </r>
       <r>  -38.5299    1.0000 </r>
       <r>  -38.3561    1.0000 </r>
       <r>  -38.2650    1.0000 </r>
       <r>  -38.2077    1.0000 </r>
       <r>  -38.1628    1.0000 </r>
       <r>  -37.8460    1.0000 </r>
       <r>  -37.7346    1.0000 </r>
       <r>  -37.7257    1.0000 </r>
       <r>  -37.6939    1.0000 </r>
       <r>  -37.5041    1.0000 </r>
       <r>  -37.4195    1.0000 </r>
       <r>  -37.3272    1.0000 </r>
       <r>  -37.0741    1.0000 </r>
[...]
       <r>     2.3345    11.2322   863.9613 </r>
       <r>     2.5088     0.2220   864.0000 </r>
       <r>     2.6830     0.0000   864.0000 </r>
       <r>     2.8572     0.0000   864.0000 </r>
       <r>     3.0315     0.0000   864.0000 </r>
       <r>     3.2057     0.0000   864.0000 </r>
       <r>     3.3799     0.0000   864.0000 </r>
       <r>     3.5542     0.0000   864.0000 </r>
       <r>     3.7284     0.0920   864.0160 </r>
       <r>     3.9027     1.5865   864.2925 </r>
       <r>     4.0769     6.4959   865.4243 </r>
       <r>     4.2511     5.5545   866.3921 </r>
       <r>     4.4254     7.6633   867.7273 </r>
       <r>     4.5996     9.5396   869.3895 </r>
       <r>     4.7738    15.4404   872.0798 </r>
       <r>     4.9481    11.0100   873.9981 </r>
       <r>     5.1223    20.5897   877.5856 </r>
       <r>     5.2966    30.6273   882.9220 </r>
       <r>     5.4708    31.8021   888.4631 </r>
       <r>     5.6450    50.0268   897.1796 </r>
       <r>     5.8193    48.7689   905.6769 </r>
       <r>     5.9935    54.3283   915.1429 </r>
       <r>     6.1677    56.0798   924.9141 </r>
       <r>     6.3420    56.9000   934.8282 </r>
       <r>     6.5162    66.8128   946.4694 </r>
       <r>     6.6904    75.4041   959.6076 </r>
       <r>     6.8647    80.7357   973.6747 </r>
       <r>     7.0389    82.7210   988.0878 </r>
       <r>     7.2132    90.1333  1003.7923 </r>
       <r>     7.3874    94.8709  1020.3223 </r>
       <r>     7.5616    89.7961  1035.9681 </r>
       <r>     7.7359    23.1380  1039.9996 </r>
       <r>     7.9101     0.0024  1040.0000 </r>
       <r>     8.0843     0.0000  1040.0000 </r>
       <r>     8.2586     0.0000  1040.0000 </r>
       <r>     8.4328     0.0000  1040.0000 </r>
       <r>     8.6071     0.0000  1040.0000 </r>
       <r>     8.7813     0.0000  1040.0000 </r>
       <r>     8.9555     0.0000  1040.0000 </r>
       <r>     9.1298     0.0000  1040.0000 </r>
       <r>     9.3040     0.0000  1040.0000 </r>
       <r>     9.4782     0.0000  1040.0000 </r>
       <r>     9.6525     0.0000  1040.0000 </r>
       <r>     9.8267     0.0000  1040.0000 </r>
       <r>    10.0009     0.0000  1040.0000 </r>
      </set>
     </set>
    </array>
   </total>
  </dos>
 </calculation>
 <structure name="finalpos" >
  <crystal>
   <varray name="basis" >
    <v>      12.93041299       0.00000000       0.00000000 </v>
    <v>       0.00000000      12.93041299       0.00000000 </v>
    <v>       0.00000000       0.00000000      12.93041299 </v>
   </varray>
   <i name="volume">   2161.90790069 </i>
   <varray name="rec_basis" >
    <v>       0.07733705       0.00000000       0.00000000 </v>
    <v>       0.00000000       0.07733705       0.00000000 </v>
    <v>       0.00000000       0.00000000       0.07733705 </v>
   </varray>
  </crystal>
  <varray name="positions" >
   <v>       0.59614379       0.73384787       0.60167836 </v>
   <v>       0.12051871       0.07957146       0.25209416 </v>
   <v>       0.72306014       0.51451721       0.34974476 </v>
   <v>       0.06832838       0.47573237       0.94737529 </v>
   <v>       0.21272379       0.10100271       0.01120995 </v>
   <v>       0.92743650       0.45138821       0.72091289 </v>
   <v>       0.50805507       0.02886302       0.55973604 </v>
   <v>       0.86496735       0.96092310       0.48239684 </v>
   <v>       0.98325926       0.63636862       0.30378063 </v>
   <v>       0.46401445       0.85692317       0.07262259 </v>
   <v>       0.88575682       0.02694834       0.06255700 </v>
   <v>       0.64746737       0.57400077       0.02681677 </v>
   <v>       0.98037052       0.31266908       0.16380156 </v>
   <v>       0.39568435       0.65850280       0.74091262 </v>
   <v>       0.63571589       0.98049181       0.24949671 </v>
   <v>       0.74207375       0.17429282       0.78036679 </v>
   <v>       0.29647888       0.35306955       0.27080620 </v>
   <v>       0.25406107       0.39469140       0.79515247 </v>
   <v>       0.26378891       0.59153351       0.46351753 </v>
   <v>       0.15225999       0.24522469       0.57890082 </v>
   <v>       0.76610044       0.77264606       0.10625857 </v>
   <v>       0.67277777       0.58060668       0.79633801 </v>
   <v>       0.26275601       0.73109945       0.96987171 </v>
   <v>       0.47912602       0.15923445       0.90996135 </v>
   <v>       0.84168050       0.64874809       0.55482862 </v>
   <v>       0.22024365       0.01690796       0.46522407 </v>
   <v>       0.30566508       0.80259965       0.26062111 </v>
   <v>       0.49457354       0.40653484       0.50160482 </v>
   <v>       0.86931711       0.64504933       0.87719075 </v>
   <v>       0.10237890       0.50525687       0.58501958 </v>
   <v>       0.41777873       0.13855493       0.16423062 </v>
   <v>       0.91554783       0.36221919       0.42714880 </v>
   <v>       0.90018356       0.04627208       0.70871250 </v>
   <v>       0.37940713       0.82180653       0.50144470 </v>
   <v>       0.73215169       0.41559172       0.58647689 </v>
   <v>       0.27577180       0.09861528       0.76011318 </v>
   <v>       0.79198855       0.18361505       0.29623517 </v>
   <v>       0.88456778       0.55162018       0.10288065 </v>
   <v>       0.68371496       0.90578010       0.71524268 </v>
   <v>       0.54046699       0.81641304       0.88526479 </v>
   <v>       0.72539811       0.76696963       0.36161484 </v>
   <v>       0.53965018       0.23872826       0.34378782 </v>
   <v>       0.12684048       0.27431380       0.38219548 </v>
   <v>       0.51441945       0.71602662       0.32687645 </v>
   <v>       0.02469201       0.19307670       0.88199925 </v>
   <v>       0.07917421       0.87025184       0.06571777 </v>
   <v>       0.30562482       0.44086231       0.01812030 </v>
   <v>       0.00507152       0.83209762       0.83119317 </v>
   <v>       0.14004639       0.66624652       0.74027146 </v>
   <v>       0.66221118       0.98716483       0.95242768 </v>
   <v>       0.13123246       0.84176264       0.38141729 </v>
   <v>       0.36998001       0.58245055       0.20453681 </v>
   <v>       0.41184033       0.24798647       0.70088721 </v>
   <v>       0.47723170       0.43056753       0.87063644 </v>
   <v>       0.07354961       0.87811905       0.92772868 </v>
   <v>       0.43458716       0.75250181       0.40789737 </v>
   <v>       0.90365297       0.13619001       0.81713464 </v>
   <v>       0.68634733       0.89817088       0.85138376 </v>
   <v>       0.40486927       0.40056463       0.95903567 </v>
   <v>       0.12875345       0.15174554       0.39556467 </v>
   <v>       0.48369137       0.59703558       0.25009133 </v>
   <v>       0.28190984       0.08946634       0.63913544 </v>
   <v>       0.10326225       0.40187730       0.65119831 </v>
   <v>       0.53778325       0.11727787       0.39594582 </v>
   <v>       0.27799192       0.10040170       0.18788363 </v>
   <v>       0.66323898       0.23934077       0.31886091 </v>
   <v>       0.13338784       0.73441327       0.32078751 </v>
   <v>       0.49749299       0.37554869       0.38279794 </v>
   <v>       0.92458257       0.74249431       0.90043146 </v>
   <v>       0.01227726       0.31809242       0.86751517 </v>
   <v>       0.50442482       0.02127553       0.12989058 </v>
   <v>       0.34663531       0.65806519       0.09930489 </v>
   <v>       0.42578654       0.80156288       0.87477843 </v>
   <v>       0.97054195       0.07666647       0.61659661 </v>
   <v>       0.91997856       0.66850927       0.14238693 </v>
   <v>       0.72300595       0.53315097       0.53027902 </v>
   <v>       0.36051882       0.95105376       0.49847689 </v>
   <v>       0.96083257       0.88903796       0.09795923 </v>
   <v>       0.47543234       0.13575769       0.73544315 </v>
   <v>       0.83315447       0.36050513       0.53145341 </v>
   <v>       0.55071345       0.72256245       0.78267090 </v>
   <v>       0.13627731       0.50756058       0.46414461 </v>
   <v>       0.95494939       0.46873336       0.17020588 </v>
   <v>       0.67077470       0.10275053       0.89925748 </v>
   <v>       0.11301112       0.30750246       0.26950989 </v>
   <v>       0.58505234       0.95872974       0.68411225 </v>
   <v>       0.88247014       0.25992267       0.36574819 </v>
   <v>       0.18120709       0.80275198       0.09455930 </v>
   <v>       0.39388468       0.19969106       0.04703530 </v>
   <v>       0.74418099       0.86262813       0.28067268 </v>
   <v>       0.09199535       0.60033601       0.83148257 </v>
   <v>       0.39340042       0.47736548       0.11478840 </v>
   <v>       0.29131746       0.25452327       0.72662133 </v>
   <v>       0.91634801       0.55215017       0.98504602 </v>
   <v>       0.98935727       0.56267162       0.57534518 </v>
   <v>       0.24016371       0.72342038       0.76307471 </v>
   <v>       0.11479590       0.00012782       0.08683270 </v>
   <v>       0.90575921       0.46474196       0.37426157 </v>
   <v>       0.02668273       0.15799635       0.00183465 </v>
   <v>       0.76191654       0.64642103       0.91946352 </v>
   <v>       0.58335996       0.76007018       0.98217807 </v>
   <v>       0.23863194       0.81435732       0.45347439 </v>
   <v>       0.47658143       0.31040227       0.81059949 </v>
   <v>       0.45615147       0.25213911       0.24030375 </v>
   <v>       0.77903281       0.01531370       0.69512732 </v>
   <v>       0.26879540       0.53955715       0.94604756 </v>
   <v>       0.82912626       0.68939259       0.37139143 </v>
   <v>       0.42013855       0.49101263       0.77173470 </v>
   <v>       0.61493720       0.37791335       0.52009706 </v>
   <v>       0.50235352       0.81713654       0.24080891 </v>
   <v>       0.22215520       0.31913815       0.43114217 </v>
   <v>       0.83440462       0.20828759       0.18127745 </v>
   <v>       0.76211997       0.06370249       0.31385112 </v>
   <v>       0.69718890       0.82390985       0.46244458 </v>
   <v>       0.21330084       0.34278340       0.04311391 </v>
   <v>       0.72200161       0.95395709       0.05044729 </v>
   <v>       0.76839414       0.55068211       0.17357256 </v>
   <v>       0.40023664       0.76107055       0.59687905 </v>
   <v>       0.21348411       0.93475180       0.30456894 </v>
   <v>       0.73291352       0.79939328       0.67580189 </v>
   <v>       0.73879289       0.39642000       0.70984006 </v>
   <v>       0.62169072       0.66498372       0.37136603 </v>
   <v>       0.53652185       0.96276784       0.95463542 </v>
   <v>       0.41950658       0.50323313       0.49803482 </v>
   <v>       0.32243192       0.04455296       0.86081739 </v>
   <v>       0.93308716       0.93901914       0.79248535 </v>
   <v>       0.83807447       0.60324918       0.75069030 </v>
   <v>       0.57654142       0.49155417       0.89697150 </v>
   <v>       0.13988163       0.11760091       0.82174288 </v>
   <v>       0.16986843       0.61125473       0.64006440 </v>
   <v>       0.43069684       0.30193578       0.58565401 </v>
   <v>       0.04618165       0.78953944       0.72818864 </v>
   <v>       0.28242012       0.57328475       0.28512890 </v>
   <v>       0.03193821       0.90153800       0.43368761 </v>
   <v>       0.01388810       0.31070265       0.46030403 </v>
  </varray>
  <varray name="velocities" >
   <v>       0.00000000       0.00000000       0.00000000 </v>
   <v>       0.00000000       0.00000000       0.00000000 </v>
   <v>       0.00000000       0.00000000       0.00000000 </v>
   <v>       0.00000000       0.00000000       0.00000000 </v>
   <v>       0.00000000       0.00000000       0.00000000 </v>
   <v>       0.00000000       0.00000000       0.00000000 </v>
   <v>       0.00000000       0.00000000       0.00000000 </v>
   <v>       0.00000000       0.00000000       0.00000000 </v>
   <v>       0.00000000       0.00000000       0.00000000 </v>
   <v>       0.00000000       0.00000000       0.00000000 </v>
   <v>       0.00000000       0.00000000       0.00000000 </v>
   <v>       0.00000000       0.00000000       0.00000000 </v>
   <v>       0.00000000       0.00000000       0.00000000 </v>
   <v>       0.00000000       0.00000000       0.00000000 </v>
   <v>       0.00000000       0.00000000       0.00000000 </v>
   <v>       0.00000000       0.00000000       0.00000000 </v>
   <v>       0.00000000       0.00000000       0.00000000 </v>
   <v>       0.00000000       0.00000000       0.00000000 </v>
   <v>       0.00000000       0.00000000       0.00000000 </v>
   <v>       0.00000000       0.00000000       0.00000000 </v>
   <v>       0.00000000       0.00000000       0.00000000 </v>
   <v>       0.00000000       0.00000000       0.00000000 </v>
   <v>       0.00000000       0.00000000       0.00000000 </v>
   <v>       0.00000000       0.00000000       0.00000000 </v>
   <v>       0.00000000       0.00000000       0.00000000 </v>
   <v>       0.00000000       0.00000000       0.00000000 </v>
   <v>       0.00000000       0.00000000       0.00000000 </v>
   <v>       0.00000000       0.00000000       0.00000000 </v>
   <v>       0.00000000       0.00000000       0.00000000 </v>
   <v>       0.00000000       0.00000000       0.00000000 </v>
   <v>       0.00000000       0.00000000       0.00000000 </v>
   <v>       0.00000000       0.00000000       0.00000000 </v>
   <v>       0.00000000       0.00000000       0.00000000 </v>
   <v>       0.00000000       0.00000000       0.00000000 </v>
   <v>       0.00000000       0.00000000       0.00000000 </v>
   <v>       0.00000000       0.00000000       0.00000000 </v>
   <v>       0.00000000       0.00000000       0.00000000 </v>
   <v>       0.00000000       0.00000000       0.00000000 </v>
   <v>       0.00000000       0.00000000       0.00000000 </v>
   <v>       0.00000000       0.00000000       0.00000000 </v>
   <v>       0.00000000       0.00000000       0.00000000 </v>
   <v>       0.00000000       0.00000000       0.00000000 </v>
   <v>       0.00000000       0.00000000       0.00000000 </v>
   <v>       0.00000000       0.00000000       0.00000000 </v>
   <v>       0.00000000       0.00000000       0.00000000 </v>
   <v>       0.00000000       0.00000000       0.00000000 </v>
   <v>       0.00000000       0.00000000       0.00000000 </v>
   <v>       0.00000000       0.00000000       0.00000000 </v>
   <v>       0.00000000       0.00000000       0.00000000 </v>
   <v>       0.00000000       0.00000000       0.00000000 </v>
   <v>       0.00000000       0.00000000       0.00000000 </v>
   <v>       0.00000000       0.00000000       0.00000000 </v>
   <v>       0.00000000       0.00000000       0.00000000 </v>
   <v>       0.00000000       0.00000000       0.00000000 </v>
   <v>       0.00000000       0.00000000       0.00000000 </v>
   <v>       0.00000000       0.00000000       0.00000000 </v>
   <v>       0.00000000       0.00000000       0.00000000 </v>
   <v>       0.00000000       0.00000000       0.00000000 </v>
   <v>       0.00000000       0.00000000       0.00000000 </v>
   <v>       0.00000000       0.00000000       0.00000000 </v>
   <v>       0.00000000       0.00000000       0.00000000 </v>
   <v>       0.00000000       0.00000000       0.00000000 </v>
   <v>       0.00000000       0.00000000       0.00000000 </v>
   <v>       0.00000000       0.00000000       0.00000000 </v>
   <v>       0.00000000       0.00000000       0.00000000 </v>
   <v>       0.00000000       0.00000000       0.00000000 </v>
   <v>       0.00000000       0.00000000       0.00000000 </v>
   <v>       0.00000000       0.00000000       0.00000000 </v>
   <v>       0.00000000       0.00000000       0.00000000 </v>
   <v>       0.00000000       0.00000000       0.00000000 </v>
   <v>       0.00000000       0.00000000       0.00000000 </v>
   <v>       0.00000000       0.00000000       0.00000000 </v>
   <v>       0.00000000       0.00000000       0.00000000 </v>
   <v>       0.00000000       0.00000000       0.00000000 </v>
   <v>       0.00000000       0.00000000       0.00000000 </v>
   <v>       0.00000000       0.00000000       0.00000000 </v>
   <v>       0.00000000       0.00000000       0.00000000 </v>
   <v>       0.00000000       0.00000000       0.00000000 </v>
   <v>       0.00000000       0.00000000       0.00000000 </v>
   <v>       0.00000000       0.00000000       0.00000000 </v>
   <v>       0.00000000       0.00000000       0.00000000 </v>
   <v>       0.00000000       0.00000000       0.00000000 </v>
   <v>       0.00000000       0.00000000       0.00000000 </v>
   <v>       0.00000000       0.00000000       0.00000000 </v>
   <v>       0.00000000       0.00000000       0.00000000 </v>
   <v>       0.00000000       0.00000000       0.00000000 </v>
   <v>       0.00000000       0.00000000       0.00000000 </v>
   <v>       0.00000000       0.00000000       0.00000000 </v>
   <v>       0.00000000       0.00000000       0.00000000 </v>
   <v>       0.00000000       0.00000000       0.00000000 </v>
   <v>       0.00000000       0.00000000       0.00000000 </v>
   <v>       0.00000000       0.00000000       0.00000000 </v>
   <v>       0.00000000       0.00000000       0.00000000 </v>
   <v>       0.00000000       0.00000000       0.00000000 </v>
   <v>       0.00000000       0.00000000       0.00000000 </v>
   <v>       0.00000000       0.00000000       0.00000000 </v>
   <v>       0.00000000       0.00000000       0.00000000 </v>
   <v>       0.00000000       0.00000000       0.00000000 </v>
   <v>       0.00000000       0.00000000       0.00000000 </v>
   <v>       0.00000000       0.00000000       0.00000000 </v>
   <v>       0.00000000       0.00000000       0.00000000 </v>
   <v>       0.00000000       0.00000000       0.00000000 </v>
   <v>       0.00000000       0.00000000       0.00000000 </v>
   <v>       0.00000000       0.00000000       0.00000000 </v>
   <v>       0.00000000       0.00000000       0.00000000 </v>
   <v>       0.00000000       0.00000000       0.00000000 </v>
   <v>       0.00000000       0.00000000       0.00000000 </v>
   <v>       0.00000000       0.00000000       0.00000000 </v>
   <v>       0.00000000       0.00000000       0.00000000 </v>
   <v>       0.00000000       0.00000000       0.00000000 </v>
   <v>       0.00000000       0.00000000       0.00000000 </v>
   <v>       0.00000000       0.00000000       0.00000000 </v>
   <v>       0.00000000       0.00000000       0.00000000 </v>
   <v>       0.00000000       0.00000000       0.00000000 </v>
   <v>       0.00000000       0.00000000       0.00000000 </v>
   <v>       0.00000000       0.00000000       0.00000000 </v>
   <v>       0.00000000       0.00000000       0.00000000 </v>
   <v>       0.00000000       0.00000000       0.00000000 </v>
   <v>       0.00000000       0.00000000       0.00000000 </v>
   <v>       0.00000000       0.00000000       0.00000000 </v>
   <v>       0.00000000       0.00000000       0.00000000 </v>
   <v>       0.00000000       0.00000000       0.00000000 </v>
   <v>       0.00000000       0.00000000       0.00000000 </v>
   <v>       0.00000000       0.00000000       0.00000000 </v>
   <v>       0.00000000       0.00000000       0.00000000 </v>
   <v>       0.00000000       0.00000000       0.00000000 </v>
   <v>       0.00000000       0.00000000       0.00000000 </v>
   <v>       0.00000000       0.00000000       0.00000000 </v>
   <v>       0.00000000       0.00000000       0.00000000 </v>
   <v>       0.00000000       0.00000000       0.00000000 </v>
   <v>       0.00000000       0.00000000       0.00000000 </v>
   <v>       0.00000000       0.00000000       0.00000000 </v>
   <v>       0.00000000       0.00000000       0.00000000 </v>
   <v>       0.00000000       0.00000000       0.00000000 </v>
   <v>       0.00000000       0.00000000       0.00000000 </v>
  </varray>
 </structure>
</modeling>
