 running on   52 total cores
 distrk:  each k-point on   52 cores,    1 groups
 distr:  one band on   13 cores,    4 groups
 using from now: INCAR     
 vasp.5.4.4.18Apr17-6-g9f103f2a35 (build Oct 31 2019 15:01:46) complex          
  
 POSCAR found type information on POSCAR  Sc F  C 
 POSCAR found :  3 types and      80 ions
 scaLAPACK is switched off
 LDA part: xc-table for Pade appr. of Perdew
 generate k-points for:    3    3    1
 POSCAR, INCAR and KPOINTS ok, starting setup
 FFT: planning ...
 WAVECAR not read
 entering main loop
       N       E                     dE             d eps       ncg     rms          rms(c)
DAV:   1     0.136905114042E+05    0.13691E+05   -0.27854E+05  4248   0.156E+03
DAV:   2     0.249465548298E+04   -0.11196E+05   -0.10898E+05  4632   0.534E+02
DAV:   3    -0.381330736661E+03   -0.28760E+04   -0.27586E+04  6792   0.295E+02
DAV:   4    -0.740142004950E+03   -0.35881E+03   -0.35461E+03  6056   0.139E+02
DAV:   5    -0.754673454323E+03   -0.14531E+02   -0.14472E+02  6080   0.353E+01    0.761E+01
DAV:   6    -0.599141482216E+03    0.15553E+03   -0.84160E+02  5688   0.643E+01    0.248E+01
DAV:   7    -0.599213585797E+03   -0.72104E-01   -0.53518E+01  5904   0.212E+01    0.161E+01
DAV:   8    -0.597698096144E+03    0.15155E+01   -0.10320E+01  5488   0.802E+00    0.451E+00
DAV:   9    -0.597180851274E+03    0.51724E+00   -0.26804E+00  5440   0.509E+00    0.215E+00
DAV:  10    -0.597145524869E+03    0.35326E-01   -0.26927E-01  5984   0.164E+00    0.115E+00
DAV:  11    -0.597026379825E+03    0.11915E+00   -0.15833E-01  5552   0.107E+00    0.795E-01
DAV:  12    -0.597000270786E+03    0.26109E-01   -0.44811E-02  5968   0.570E-01    0.321E-01
DAV:  13    -0.596992806429E+03    0.74644E-02   -0.36401E-02  5720   0.435E-01    0.327E-01
DAV:  14    -0.596990037269E+03    0.27692E-02   -0.12987E-02  5696   0.275E-01    0.150E-01
DAV:  15    -0.596995601011E+03   -0.55637E-02   -0.94896E-03  5760   0.208E-01    0.113E-01
DAV:  16    -0.596998969689E+03   -0.33687E-02   -0.20824E-03  5416   0.146E-01    0.831E-02
DAV:  17    -0.597003266352E+03   -0.42967E-02   -0.21017E-03  5680   0.105E-01    0.894E-02
DAV:  18    -0.597007382290E+03   -0.41159E-02   -0.96608E-04  5400   0.815E-02    0.453E-02
DAV:  19    -0.597008698268E+03   -0.13160E-02   -0.23726E-04  5680   0.400E-02    0.197E-02
DAV:  20    -0.597011698089E+03   -0.29998E-02   -0.18067E-04  5232   0.252E-02    0.223E-02
DAV:  21    -0.597013783405E+03   -0.20853E-02   -0.85283E-05  4680   0.161E-02    0.161E-02
DAV:  22    -0.597015144956E+03   -0.13616E-02   -0.11823E-04  4280   0.186E-02    0.782E-03
DAV:  23    -0.597015557489E+03   -0.41253E-03   -0.22763E-05  4752   0.105E-02    0.667E-03
DAV:  24    -0.597015866745E+03   -0.30926E-03   -0.13515E-05  4248   0.640E-03    0.311E-03
DAV:  25    -0.597016105906E+03   -0.23916E-03   -0.70704E-06  4056   0.407E-03    0.200E-03
DAV:  26    -0.597016178086E+03   -0.72180E-04   -0.16041E-06  3000   0.275E-03    0.115E-03
DAV:  27    -0.597016207985E+03   -0.29899E-04   -0.50066E-07  2632   0.221E-03    0.123E-03
DAV:  28    -0.597016234544E+03   -0.26559E-04   -0.63699E-07  2856   0.180E-03    0.809E-04
DAV:  29    -0.597016242611E+03   -0.80667E-05   -0.32593E-07  2592   0.179E-03    0.919E-04
DAV:  30    -0.597016249079E+03   -0.64678E-05   -0.28026E-07  2600   0.136E-03    0.817E-04
DAV:  31    -0.597016251731E+03   -0.26526E-05   -0.16868E-07  2536   0.132E-03    0.673E-04
DAV:  32    -0.597016253505E+03   -0.17735E-05   -0.13203E-07  2568   0.925E-04    0.573E-04
DAV:  33    -0.597016254024E+03   -0.51942E-06   -0.89277E-08  2496   0.914E-04
   1 F= -.59701625E+03 E0= -.59701625E+03  d E =-.258570E-19
