 running on   52 total cores
 distrk:  each k-point on   52 cores,    1 groups
 distr:  one band on   13 cores,    4 groups
 using from now: INCAR     
 vasp.5.4.4.18Apr17-6-g9f103f2a35 (build Oct 31 2019 15:01:46) complex          
  
 POSCAR found type information on POSCAR  Sc Cl C 
 POSCAR found :  3 types and      80 ions
 scaLAPACK is switched off
 LDA part: xc-table for Pade appr. of Perdew
 generate k-points for:    3    3    1
 POSCAR, INCAR and KPOINTS ok, starting setup
 FFT: planning ...
 WAVECAR not read
 entering main loop
       N       E                     dE             d eps       ncg     rms          rms(c)
DAV:   1     0.121916061149E+05    0.12192E+05   -0.26801E+05  4416   0.152E+03
DAV:   2     0.173198719545E+04   -0.10460E+05   -0.10191E+05  5184   0.522E+02
DAV:   3    -0.405101170155E+03   -0.21371E+04   -0.20516E+04  6800   0.284E+02
DAV:   4    -0.641519175539E+03   -0.23642E+03   -0.23160E+03  6104   0.991E+01
DAV:   5    -0.651968109449E+03   -0.10449E+02   -0.10395E+02  6080   0.279E+01    0.701E+01
DAV:   6    -0.521205046157E+03    0.13076E+03   -0.69962E+02  5848   0.499E+01    0.307E+01
DAV:   7    -0.526153355506E+03   -0.49483E+01   -0.88668E+01  5888   0.230E+01    0.155E+01
DAV:   8    -0.523874044789E+03    0.22793E+01   -0.99323E+00  5912   0.740E+00    0.942E+00
DAV:   9    -0.523358395326E+03    0.51565E+00   -0.37509E+00  5416   0.394E+00    0.299E+00
DAV:  10    -0.523230667857E+03    0.12773E+00   -0.57720E-01  5720   0.203E+00    0.173E+00
DAV:  11    -0.523210138618E+03    0.20529E-01   -0.19840E-01  5872   0.844E-01    0.756E-01
DAV:  12    -0.523196460375E+03    0.13678E-01   -0.31760E-02  6048   0.491E-01    0.290E-01
DAV:  13    -0.523193869493E+03    0.25909E-02   -0.82689E-03  5368   0.256E-01    0.182E-01
DAV:  14    -0.523192417533E+03    0.14520E-02   -0.60575E-03  5448   0.156E-01    0.167E-01
DAV:  15    -0.523193859983E+03   -0.14425E-02   -0.21037E-03  5480   0.991E-02    0.100E-01
DAV:  16    -0.523195622028E+03   -0.17620E-02   -0.97170E-04  5840   0.583E-02    0.565E-02
DAV:  17    -0.523198890061E+03   -0.32680E-02   -0.82016E-04  5240   0.565E-02    0.372E-02
DAV:  18    -0.523201213829E+03   -0.23238E-02   -0.24831E-04  4944   0.312E-02    0.254E-02
DAV:  19    -0.523202364103E+03   -0.11503E-02   -0.14066E-04  4952   0.190E-02    0.156E-02
DAV:  20    -0.523203652246E+03   -0.12881E-02   -0.66598E-05  4272   0.145E-02    0.101E-02
DAV:  21    -0.523204110521E+03   -0.45828E-03   -0.21004E-05  4352   0.832E-03    0.779E-03
DAV:  22    -0.523204473106E+03   -0.36258E-03   -0.39985E-06  3688   0.445E-03    0.505E-03
DAV:  23    -0.523205069887E+03   -0.59678E-03   -0.14647E-05  3552   0.516E-03    0.437E-03
DAV:  24    -0.523205220237E+03   -0.15035E-03   -0.38122E-06  3800   0.339E-03    0.392E-03
DAV:  25    -0.523205299237E+03   -0.79000E-04   -0.15389E-06  3056   0.246E-03    0.184E-03
DAV:  26    -0.523205395533E+03   -0.96296E-04   -0.30988E-06  3224   0.256E-03    0.272E-03
DAV:  27    -0.523205406587E+03   -0.11054E-04   -0.28023E-07  2656   0.190E-03    0.192E-03
DAV:  28    -0.523205417335E+03   -0.10749E-04   -0.23884E-07  2632   0.137E-03    0.880E-04
DAV:  29    -0.523205429948E+03   -0.12613E-04   -0.34821E-07  2656   0.141E-03    0.694E-04
DAV:  30    -0.523205441871E+03   -0.11923E-04   -0.37860E-07  2712   0.172E-03    0.672E-04
DAV:  31    -0.523205446307E+03   -0.44359E-05   -0.25711E-07  2584   0.123E-03    0.335E-04
DAV:  32    -0.523205447539E+03   -0.12321E-05   -0.14756E-07  2400   0.990E-04    0.266E-04
DAV:  33    -0.523205448385E+03   -0.84552E-06   -0.10212E-07  2400   0.789E-04
   1 F= -.52320545E+03 E0= -.52320545E+03  d E =-.577255E-16
