 vasp.5.4.4.18Apr17-6-g9f103f2a35 (build Oct 31 2019 15:01:46) complex          
  
 executed on             LinuxIFC date 2024.04.20  10:41:33
 running on   52 total cores
 distrk:  each k-point on   52 cores,    1 groups
 distr:  one band on NCORES_PER_BAND=  13 cores,    4 groups


--------------------------------------------------------------------------------------------------------


 INCAR:
 POTCAR:    PAW_PBE Sc_sv 07Sep2000               
 POTCAR:    PAW_PBE F 08Apr2002                   
 POTCAR:    PAW_PBE C 08Apr2002                   
 POTCAR:    PAW_PBE Sc_sv 07Sep2000               
   VRHFIN =Sc: 3p4s3d                                                           
   LEXCH  = PE                                                                  
   EATOM  =  1273.2868 eV,   93.5839 Ry                                         
                                                                                
   TITEL  = PAW_PBE Sc_sv 07Sep2000                                             
   LULTRA =        F    use ultrasoft PP ?                                      
   IUNSCR =        1    unscreen: 0-lin 1-nonlin 2-no                           
   RPACOR =    2.200    partial core radius                                     
   POMASS =   44.956; ZVAL   =   11.000    mass and valenz                      
   RCORE  =    2.500    outmost cutoff radius                                   
   RWIGS  =    2.700; RWIGS  =    1.429    wigner-seitz radius (au A)           
   ENMAX  =  222.660; ENMIN  =  166.995 eV                                      
   RCLOC  =    1.805    cutoff for local pot                                    
   LCOR   =        T    correct aug charges                                     
   LPAW   =        T    paw PP                                                  
   EAUG   =  443.063                                                            
   RMAX   =    2.551    core radius for proj-oper                               
   RAUG   =    1.300    factor for augmentation sphere                          
   RDEP   =    2.650    radius for radial grids                                 
   RDEPT  =    2.038    core radius for aug-charge                              
                                                                                
   Atomic configuration                                                         
    8 entries                                                                   
     n  l   j            E        occ.                                          
     1  0  0.50     -4394.2533   2.0000                                         
     2  0  0.50      -471.0040   2.0000                                         
     2  1  1.50      -384.9788   6.0000                                         
     3  0  0.50       -52.1410   2.0000                                         
     4  0  0.50        -3.5584   1.0000                                         
     3  1  1.50       -30.8841   6.0000                                         
     3  2  2.50        -1.3655   2.0000                                         
     4  3  2.50        -1.3606   0.0000                                         
   Description                                                                  
     l       E           TYP  RCUT    TYP  RCUT                                 
     0    -52.1409870     23  1.800                                             
     0     -3.5583698     23  2.500                                             
     1    -30.8840697     23  2.300                                             
     1      4.0817478     23  2.300                                             
     2     -1.3655397     23  2.500                                             
     2      0.3564476     23  2.500                                             
  local pseudopotential read in
  partial core-charges read in
  partial kinetic energy density read in
  atomic valenz-charges read in
  non local Contribution for L=           0  read in
    real space projection operators read in
  non local Contribution for L=           0  read in
    real space projection operators read in
  non local Contribution for L=           1  read in
    real space projection operators read in
  non local Contribution for L=           1  read in
    real space projection operators read in
  non local Contribution for L=           2  read in
    real space projection operators read in
  non local Contribution for L=           2  read in
    real space projection operators read in
    PAW grid and wavefunctions read in
 
   number of l-projection  operators is LMAX  =           6
   number of lm-projection operators is LMMAX =          18
 
 POTCAR:    PAW_PBE F 08Apr2002                   
   VRHFIN =F: s2p5                                                              
   LEXCH  = PE                                                                  
   EATOM  =   659.6475 eV,   48.4827 Ry                                         
                                                                                
   TITEL  = PAW_PBE F 08Apr2002                                                 
   LULTRA =        F    use ultrasoft PP ?                                      
   IUNSCR =        1    unscreen: 0-lin 1-nonlin 2-no                           
   RPACOR =    1.200    partial core radius                                     
   POMASS =   18.998; ZVAL   =    7.000    mass and valenz                      
   RCORE  =    1.520    outmost cutoff radius                                   
   RWIGS  =    1.500; RWIGS  =    0.794    wigner-seitz radius (au A)           
   ENMAX  =  400.000; ENMIN  =  300.000 eV                                      
   ICORE  =        2    local potential                                         
   LCOR   =        T    correct aug charges                                     
   LPAW   =        T    paw PP                                                  
   EAUG   =  613.614                                                            
   RMAX   =    1.555    core radius for proj-oper                               
   RAUG   =    1.300    factor for augmentation sphere                          
   RDEP   =    1.539    radius for radial grids                                 
   RDEPT  =    1.299    core radius for aug-charge                              
                                                                                
   Atomic configuration                                                         
    4 entries                                                                   
     n  l   j            E        occ.                                          
     1  0  0.50      -663.3661   2.0000                                         
     2  0  0.50       -29.8995   2.0000                                         
     2  1  0.50       -11.1114   5.0000                                         
     3  2  1.50       -10.8847   0.0000                                         
   Description                                                                  
     l       E           TYP  RCUT    TYP  RCUT                                 
     0    -29.8995018     23  1.200                                             
     0     -9.5240782     23  1.200                                             
     1    -11.1113914     23  1.520                                             
     1      1.3605826     23  1.520                                             
     2    -10.8846608      7  1.500                                             
  local pseudopotential read in
  partial core-charges read in
  partial kinetic energy density read in
  atomic valenz-charges read in
  non local Contribution for L=           0  read in
    real space projection operators read in
  non local Contribution for L=           0  read in
    real space projection operators read in
  non local Contribution for L=           1  read in
    real space projection operators read in
  non local Contribution for L=           1  read in
    real space projection operators read in
    PAW grid and wavefunctions read in
 
   number of l-projection  operators is LMAX  =           4
   number of lm-projection operators is LMMAX =           8
 
 POTCAR:    PAW_PBE C 08Apr2002                   
   VRHFIN =C: s2p2                                                              
   LEXCH  = PE                                                                  
   EATOM  =   147.1560 eV,   10.8157 Ry                                         
                                                                                
   TITEL  = PAW_PBE C 08Apr2002                                                 
   LULTRA =        F    use ultrasoft PP ?                                      
   IUNSCR =        1    unscreen: 0-lin 1-nonlin 2-no                           
   RPACOR =    1.200    partial core radius                                     
   POMASS =   12.011; ZVAL   =    4.000    mass and valenz                      
   RCORE  =    1.500    outmost cutoff radius                                   
   RWIGS  =    1.630; RWIGS  =    0.863    wigner-seitz radius (au A)           
   ENMAX  =  400.000; ENMIN  =  300.000 eV                                      
   ICORE  =        2    local potential                                         
   LCOR   =        T    correct aug charges                                     
   LPAW   =        T    paw PP                                                  
   EAUG   =  644.873                                                            
   DEXC   =    0.000                                                            
   RMAX   =    1.529    core radius for proj-oper                               
   RAUG   =    1.300    factor for augmentation sphere                          
   RDEP   =    1.501    radius for radial grids                                 
   RDEPT  =    1.300    core radius for aug-charge                              
                                                                                
   Atomic configuration                                                         
    4 entries                                                                   
     n  l   j            E        occ.                                          
     1  0  0.50      -273.3789   2.0000                                         
     2  0  0.50       -13.7508   2.0000                                         
     2  1  0.50        -5.2854   2.0000                                         
     3  2  1.50        -5.4423   0.0000                                         
   Description                                                                  
     l       E           TYP  RCUT    TYP  RCUT                                 
     0    -13.7508458     23  1.200                                             
     0     -8.2022199     23  1.200                                             
     1     -5.2854383     23  1.500                                             
     1     34.0145650     23  1.500                                             
     2     -5.4423304      7  1.500                                             
  local pseudopotential read in
  partial core-charges read in
  partial kinetic energy density read in
  atomic valenz-charges read in
  non local Contribution for L=           0  read in
    real space projection operators read in
  non local Contribution for L=           0  read in
    real space projection operators read in
  non local Contribution for L=           1  read in
    real space projection operators read in
  non local Contribution for L=           1  read in
    real space projection operators read in
    PAW grid and wavefunctions read in
 
   number of l-projection  operators is LMAX  =           4
   number of lm-projection operators is LMMAX =           8
 
 Optimization of the real space projectors (new method)

 maximal supplied QI-value         = 15.12
 optimisation between [QCUT,QGAM] = [ 12.55, 25.10] = [ 44.09,176.36] Ry 
 Optimized for a Real-space Cutoff    1.56 Angstroem

   l    n(q)    QCUT    max X(q) W(low)/X(q) W(high)/X(q)  e(spline) 
   0     12    12.548     2.962    0.12E-05    0.11E-06    0.46E-07
   0     12    12.548    26.414    0.30E-04    0.15E-05    0.76E-07
   1     11    12.548     3.969    0.45E-05    0.12E-05    0.60E-07
   1     11    12.548     5.137    0.15E-04    0.18E-04    0.36E-06
   2     11    12.548   143.970    0.20E-03    0.19E-03    0.76E-06
   2     11    12.548   121.201    0.20E-03    0.19E-03    0.76E-06
 Optimization of the real space projectors (new method)

 maximal supplied QI-value         = 24.76
 optimisation between [QCUT,QGAM] = [ 12.38, 25.00] = [ 42.90,175.06] Ry 
 Optimized for a Real-space Cutoff    1.16 Angstroem

   l    n(q)    QCUT    max X(q) W(low)/X(q) W(high)/X(q)  e(spline) 
   0      9    12.378    14.049    0.11E-03    0.38E-05    0.23E-06
   0      9    12.378     8.945    0.15E-03    0.56E-05    0.30E-06
   1      8    12.378     7.086    0.18E-03    0.14E-03    0.29E-06
   1      8    12.378     6.747    0.16E-03    0.13E-03    0.26E-06
 Optimization of the real space projectors (new method)

 maximal supplied QI-value         = 25.13
 optimisation between [QCUT,QGAM] = [ 12.32, 24.88] = [ 42.47,173.37] Ry 
 Optimized for a Real-space Cutoff    1.16 Angstroem

   l    n(q)    QCUT    max X(q) W(low)/X(q) W(high)/X(q)  e(spline) 
   0      9    12.315   115.676    0.19E-03    0.80E-05    0.34E-06
   0      9    12.315    87.132    0.19E-03    0.82E-05    0.34E-06
   1      8    12.315     4.429    0.18E-03    0.13E-03    0.22E-06
   1      8    12.315     2.733    0.14E-03    0.10E-03    0.18E-06
  PAW_PBE Sc_sv 07Sep2000               :
 energy of atom  1       EATOM=-1273.2868
 kinetic energy error for atom=    0.0014 (will be added to EATOM!!)
  PAW_PBE F 08Apr2002                   :
 energy of atom  2       EATOM= -659.6475
 kinetic energy error for atom=    0.0256 (will be added to EATOM!!)
  PAW_PBE C 08Apr2002                   :
 energy of atom  3       EATOM= -147.1560
 kinetic energy error for atom=    0.0057 (will be added to EATOM!!)
 
 
 POSCAR: Sc  F  C                                
  positions in cartesian coordinates
  No initial velocities read in
 exchange correlation table for  LEXCH =        8
   RHO(1)=    0.500       N(1)  =     2000
   RHO(2)=  100.500       N(2)  =     4000
 


--------------------------------------------------------------------------------------------------------


 ion  position               nearest neighbor table
   1  0.086  0.164  0.451-  65 2.18  50 2.22  70 2.25  61 2.26  66 2.35  49 2.43   5 3.09   6 3.14
                            29 3.21  17 3.22   2 3.25  18 3.25  13 3.32  16 3.34   4 3.37
   2  0.081  0.409  0.452-  62 2.04  51 2.13  66 2.27  50 2.31  71 2.37  67 2.45  18 3.10  30 3.17
                            13 3.18  19 3.23   1 3.25   3 3.28   6 3.31   7 3.38
   3  0.088  0.662  0.452-  52 2.08  51 2.12  63 2.18  72 2.22  67 2.32  68 2.34  19 3.05   8 3.06
                            20 3.15   7 3.21   4 3.23  15 3.28   2 3.28  31 3.34
   4  0.089  0.909  0.450-  49 2.04  52 2.21  68 2.25  64 2.28  69 2.37  65 2.39  20 3.06   5 3.10
                             8 3.10  15 3.23   3 3.23  32 3.28  17 3.29  16 3.33   1 3.37
   5  0.316  0.153  0.450-  49 2.07  69 2.15  53 2.34  70 2.38  74 2.47  54 2.60   1 3.09   4 3.10
                            17 3.13   6 3.16  21 3.25   9 3.38   8 3.38  22 3.42
   6  0.329  0.399  0.451-  54 2.11  70 2.19  50 2.25  75 2.50  71 2.50  55 2.51  22 3.11   1 3.14
                             5 3.16  10 3.29  18 3.30   2 3.31
   7  0.336  0.669  0.455-  72 2.18  55 2.18  71 2.25  56 2.27  51 2.31  76 2.33   8 3.11  19 3.14
                             3 3.21  24 3.23  23 3.25  12 3.35  11 3.37   2 3.38
   8  0.319  0.897  0.451-  72 2.13  52 2.17  56 2.27  69 2.38  73 2.46  53 2.52  20 3.02   3 3.06
                             4 3.10   7 3.11  24 3.16  21 3.35   5 3.38   9 3.42
   9  0.577  0.160  0.448-  57 2.09  53 2.17  73 2.22  74 2.23  78 2.39  58 2.43  14 3.21  25 3.26
                            12 3.26  21 3.33  10 3.33  26 3.34  13 3.36   5 3.38   8 3.42
  10  0.588  0.419  0.451-  58 2.01  54 2.10  74 2.17  79 2.36  59 2.47  75 2.48  26 3.06  14 3.11
                            27 3.18  15 3.28   6 3.29  11 3.31  22 3.32   9 3.33
  11  0.596  0.675  0.454-  55 2.08  80 2.17  59 2.17  75 2.27  60 2.28  76 2.40  27 3.03  16 3.10
                            28 3.18  12 3.25  15 3.28  10 3.31   7 3.37  23 3.39
  12  0.594  0.921  0.458-  60 2.21  76 2.22  57 2.23  77 2.24  73 2.25  56 2.37  28 2.87  25 3.10
                            24 3.15  13 3.23  11 3.25   9 3.26  16 3.28   7 3.35
  13  0.837  0.170  0.459-  77 2.13  66 2.15  78 2.24  61 2.30  57 2.32  62 2.37  25 3.03  30 3.08
                            29 3.11   2 3.18  12 3.23  14 3.24   1 3.32   9 3.36
  14  0.819  0.407  0.456-  78 2.17  79 2.18  58 2.24  62 2.28  63 2.36  67 2.41  26 3.01  10 3.11
                            30 3.18  31 3.20   9 3.21  13 3.24  15 3.28
  15  0.841  0.666  0.447-  59 2.00  63 2.12  68 2.21  79 2.28  64 2.30  80 2.38  32 3.18  16 3.20
                             4 3.23  14 3.28   3 3.28  11 3.28  10 3.28  27 3.34  31 3.37
  16  0.835  0.907  0.448-  60 2.12  64 2.13  80 2.21  61 2.30  65 2.36  77 2.57  11 3.10  32 3.16
                            15 3.20  12 3.28  28 3.32   4 3.33   1 3.34  29 3.36
  17  0.169  0.080  0.548-  37 2.07  36 2.14  33 2.21  69 2.24  70 2.29  65 2.30  21 3.10   5 3.13
                            20 3.20   1 3.22  29 3.26   4 3.29  22 3.30  32 3.39  18 3.42
  18  0.154  0.332  0.549-  38 2.03  34 2.12  66 2.19  33 2.24  70 2.34  71 2.34  30 3.09   2 3.10
                            29 3.16   1 3.25  19 3.28   6 3.30  22 3.34  23 3.40  17 3.42
  19  0.163  0.586  0.546-  39 2.03  35 2.15  67 2.20  72 2.23  71 2.26  34 2.34   3 3.05   7 3.14
                            31 3.21  30 3.21   2 3.23  20 3.24  18 3.28  23 3.33  24 3.38
  20  0.169  0.836  0.543-  36 2.13  35 2.24  40 2.27  69 2.27  72 2.31  68 2.33   8 3.02   4 3.06
                             3 3.15  21 3.16  17 3.20  24 3.23  19 3.24  32 3.32  31 3.42
  21  0.406  0.080  0.549-  40 2.08  69 2.12  37 2.14  41 2.34  73 2.39  74 2.51  17 3.10  20 3.16
                            24 3.17   5 3.25   9 3.33   8 3.35  22 3.36  26 3.41  25 3.42
  22  0.412  0.339  0.550-  38 2.14  42 2.14  37 2.20  70 2.29  75 2.35  74 2.54   6 3.11  23 3.24
                            26 3.25  27 3.26  17 3.30  10 3.32  18 3.34  21 3.36   5 3.42
  23  0.416  0.587  0.554-  43 2.11  75 2.28  71 2.33  39 2.36  76 2.38  38 2.48  27 3.23  22 3.24
                             7 3.25  28 3.32  19 3.33  24 3.37  11 3.39  18 3.40
  24  0.419  0.845  0.549-  44 2.16  39 2.25  73 2.27  40 2.28  76 2.30  72 2.37  12 3.15   8 3.16
                            28 3.17  21 3.17   7 3.23  20 3.23  25 3.30  23 3.37  19 3.38
  25  0.673  0.093  0.548-  78 2.17  41 2.20  77 2.22  44 2.34  73 2.34  45 2.47  13 3.03  12 3.10
                            28 3.16  30 3.25   9 3.26  24 3.30  29 3.35  26 3.36  21 3.42
  26  0.661  0.343  0.546-  42 2.24  74 2.26  79 2.27  46 2.28  41 2.35  78 2.36  14 3.01  10 3.06
                            31 3.17  27 3.20  22 3.25   9 3.34  25 3.36  21 3.41
  27  0.661  0.586  0.546-  75 2.09  43 2.12  42 2.20  80 2.29  47 2.29  79 2.37  11 3.03  10 3.18
                            32 3.19  26 3.20  23 3.23  22 3.26  15 3.34  31 3.40  28 3.42
  28  0.661  0.847  0.547-  76 2.11  44 2.17  77 2.24  48 2.34  43 2.35  80 2.51  12 2.87  25 3.16
                            24 3.17  11 3.18  29 3.28  23 3.32  16 3.32  27 3.42
  29  0.922  0.083  0.549-  48 2.17  45 2.17  77 2.24  66 2.25  65 2.32  33 2.43  13 3.11  18 3.16
                             1 3.21  17 3.26  28 3.28  32 3.32  25 3.35  16 3.36  30 3.37
  30  0.922  0.339  0.549-  46 2.11  67 2.19  34 2.22  45 2.24  66 2.32  78 2.37  13 3.08  18 3.09
                            31 3.14   2 3.17  14 3.18  19 3.21  25 3.25  29 3.37
  31  0.912  0.573  0.552-  46 2.14  67 2.19  79 2.21  35 2.29  47 2.31  68 2.46  30 3.14  26 3.17
                            14 3.20  19 3.21  32 3.31   3 3.34  15 3.37  27 3.40  20 3.42
  32  0.909  0.823  0.545-  80 2.16  47 2.17  48 2.20  68 2.26  36 2.32  65 2.44  16 3.16  15 3.18
                            27 3.19   4 3.28  31 3.31  29 3.32  20 3.32  17 3.39
  33  0.105  0.173  0.596-  17 2.21  18 2.24  29 2.43
  34  0.085  0.416  0.594-  18 2.12  30 2.22  19 2.34
  35  0.092  0.672  0.590-  19 2.15  20 2.24  31 2.29
  36  0.088  0.914  0.586-  20 2.13  17 2.14  32 2.32
  37  0.327  0.166  0.587-  17 2.07  21 2.14  22 2.20
  38  0.302  0.387  0.590-  18 2.03  22 2.14  23 2.48
  39  0.310  0.672  0.588-  19 2.03  24 2.25  23 2.36
  40  0.330  0.928  0.593-  21 2.08  20 2.27  24 2.28
  41  0.585  0.168  0.592-  25 2.20  21 2.34  26 2.35
  42  0.574  0.423  0.590-  22 2.14  27 2.20  26 2.24
  43  0.583  0.666  0.589-  23 2.11  27 2.12  28 2.35
  44  0.577  0.918  0.594-  24 2.16  28 2.17  25 2.34
  45  0.859  0.176  0.595-  29 2.17  30 2.24  25 2.47
  46  0.832  0.408  0.590-  30 2.11  31 2.14  26 2.28
  47  0.830  0.669  0.593-  32 2.17  27 2.29  31 2.31
  48  0.840  0.916  0.589-  29 2.17  32 2.20  28 2.34
  49  0.166  0.058  0.407-   4 2.04   5 2.07   1 2.43
  50  0.165  0.324  0.404-   1 2.22   6 2.25   2 2.31
  51  0.159  0.571  0.413-   3 2.12   2 2.13   7 2.31
  52  0.158  0.812  0.407-   3 2.08   8 2.17   4 2.21
  53  0.421  0.086  0.402-   9 2.17   5 2.34   8 2.52
  54  0.436  0.358  0.407-  10 2.10   6 2.11   5 2.60
  55  0.438  0.604  0.415-  11 2.08   7 2.18   6 2.51
  56  0.424  0.833  0.407-   7 2.27   8 2.27  12 2.37
  57  0.665  0.085  0.413-   9 2.09  12 2.23  13 2.32
  58  0.661  0.350  0.407-  10 2.01  14 2.24   9 2.43
  59  0.692  0.613  0.409-  15 2.00  11 2.17  10 2.47
  60  0.674  0.845  0.409-  16 2.12  12 2.21  11 2.28
  61  0.915  0.086  0.408-   1 2.26  16 2.30  13 2.30
  62  0.929  0.347  0.413-   2 2.04  14 2.28  13 2.37
  63  0.923  0.583  0.411-  15 2.12   3 2.18  14 2.36
  64  0.922  0.839  0.403-  16 2.13   4 2.28  15 2.30
  65  0.008  0.005  0.497-   1 2.18  17 2.30  29 2.32  16 2.36   4 2.39  32 2.44
  66  0.998  0.246  0.501-  13 2.15  18 2.19  29 2.25   2 2.27  30 2.32   1 2.35
  67  0.996  0.500  0.505-  31 2.19  30 2.19  19 2.20   3 2.32  14 2.41   2 2.45
  68  0.995  0.746  0.497-  15 2.21   4 2.25  32 2.26  20 2.33   3 2.34  31 2.46
  69  0.259  0.008  0.500-  21 2.12   5 2.15  17 2.24  20 2.27   4 2.37   8 2.38
  70  0.244  0.249  0.502-   6 2.19   1 2.25  17 2.29  22 2.29  18 2.34   5 2.38
  71  0.252  0.506  0.502-   7 2.25  19 2.26  23 2.33  18 2.34   2 2.37   6 2.50
  72  0.250  0.746  0.498-   8 2.13   7 2.18   3 2.22  19 2.23  20 2.31  24 2.37
  73  0.503  0.005  0.498-   9 2.22  12 2.25  24 2.27  25 2.34  21 2.39   8 2.46
  74  0.507  0.256  0.493-  10 2.17   9 2.23  26 2.26   5 2.47  21 2.51  22 2.54
  75  0.506  0.515  0.504-  27 2.09  11 2.27  23 2.28  22 2.35  10 2.48   6 2.50
  76  0.505  0.759  0.504-  28 2.11  12 2.22  24 2.30   7 2.33  23 2.38  11 2.40
  77  0.758  0.014  0.503-  13 2.13  25 2.22  12 2.24  28 2.24  29 2.24  16 2.57
  78  0.746  0.249  0.501-  25 2.17  14 2.17  13 2.24  26 2.36  30 2.37   9 2.39
  79  0.761  0.509  0.500-  14 2.18  31 2.21  26 2.27  15 2.28  10 2.36  27 2.37
  80  0.755  0.752  0.498-  32 2.16  11 2.17  16 2.21  27 2.29  15 2.38  28 2.51
 
  LATTYP: Found a hexagonal cell.
 ALAT       =    13.1286233990
 C/A-ratio  =     2.0434811347
  
  Lattice vectors:
  
 A1 = (  13.1286234000,   0.0000000000,   0.0000000000)
 A2 = (  -6.5643117000,  11.3697213800,   0.0000000000)
 A3 = (   0.0000000000,   0.0000000000,  26.8280942400)


Analysis of symmetry for initial positions (statically):
=====================================================================
 Subroutine PRICEL returns:
 Original cell was already a primitive cell.
 

 Routine SETGRP: Setting up the symmetry group for a 
 hexagonal supercell.


 Subroutine GETGRP returns: Found  1 space group operations
 (whereof  1 operations were pure point group operations)
 out of a pool of 24 trial point group operations.


The static configuration has the point symmetry C_1 .


Analysis of symmetry for dynamics (positions and initial velocities):
=====================================================================
 Subroutine PRICEL returns:
 Original cell was already a primitive cell.
 

 Routine SETGRP: Setting up the symmetry group for a 
 hexagonal supercell.


 Subroutine GETGRP returns: Found  1 space group operations
 (whereof  1 operations were pure point group operations)
 out of a pool of 24 trial point group operations.


The dynamic configuration has the point symmetry C_1 .


 Subroutine INISYM returns: Found  1 space group operations
 (whereof  1 operations are pure point group operations),
 and found     1 'primitive' translations

 
 

Automatic generation of k-mesh.
 generate k-points for:    3    3    1
Space group operators:
 irot       det(A)        alpha          n_x          n_y          n_z        tau_x        tau_y        tau_z
    1     1.000000     0.000000     1.000000     0.000000     0.000000     0.000000     0.000000     0.000000
 
 Subroutine IBZKPT returns following result:
 ===========================================
 
 Found      5 irreducible k-points:
 
 Following reciprocal coordinates:
            Coordinates               Weight
  0.000000  0.000000  0.000000      1.000000
  0.333333 -0.000000  0.000000      2.000000
  0.000000  0.333333  0.000000      2.000000
  0.333333  0.333333  0.000000      2.000000
 -0.333333  0.333333  0.000000      2.000000
 
 Following cartesian coordinates:
            Coordinates               Weight
  0.000000  0.000000  0.000000      1.000000
  0.025390  0.014659  0.000000      2.000000
  0.000000  0.029318  0.000000      2.000000
  0.025390  0.043976  0.000000      2.000000
 -0.025390  0.014659  0.000000      2.000000
 


--------------------------------------------------------------------------------------------------------




 Dimension of arrays:
   k-points           NKPTS =      5   k-points in BZ     NKDIM =      5   number of bands    NBANDS=    384
   number of dos      NEDOS =    301   number of ions     NIONS =     80
   non local maximal  LDIM  =      6   non local SUM 2l+1 LMDIM =     18
   total plane-waves  NPLWV = ******
   max r-space proj   IRMAX =  10060   max aug-charges    IRDMAX= 222480
   dimension x,y,z NGX =   108 NGY =  108 NGZ =  216
   dimension x,y,z NGXF=   216 NGYF=  216 NGZF=  432
   support grid    NGXF=   432 NGYF=  432 NGZF=  864
   ions per type =              32  32  16
   NGX,Y,Z   is equivalent  to a cutoff of  13.68, 13.68, 13.38 a.u.
   NGXF,Y,Z  is equivalent  to a cutoff of  27.35, 27.35, 26.77 a.u.

 SYSTEM =  unknown system                          
 POSCAR =  Sc  F  C                                

 Startparameter for this run:
   NWRITE =      2    write-flag & timer
   PREC   = anorma    normal or accurate (medium, high low for compatibility)
   ISTART =      0    job   : 0-new  1-cont  2-samecut
   ICHARG =      2    charge: 1-file 2-atom 10-const
   ISPIN  =      1    spin polarized calculation?
   LNONCOLLINEAR =      F non collinear calculations
   LSORBIT =      F    spin-orbit coupling
   INIWAV =      1    electr: 0-lowe 1-rand  2-diag
   LASPH  =      F    aspherical Exc in radial PAW
   METAGGA=      F    non-selfconsistent MetaGGA calc.

 Electronic Relaxation 1
   ENCUT  =  600.0 eV  44.10 Ry    6.64 a.u.  26.22 26.22 53.58*2*pi/ulx,y,z
   ENINI  =  600.0     initial cutoff
   ENAUG  =  644.9 eV  augmentation charge cutoff
   NELM   =     60;   NELMIN=  2; NELMDL= -5     # of ELM steps 
   EDIFF  = 0.1E-05   stopping-criterion for ELM
   LREAL  =      T    real-space projection
   NLSPLINE    = F    spline interpolate recip. space projectors
   LCOMPAT=      F    compatible to vasp.4.4
   GGA_COMPAT  = T    GGA compatible to vasp.4.4-vasp.4.6
   LMAXPAW     = -100 max onsite density
   LMAXMIX     =    2 max onsite mixed and CHGCAR
   VOSKOWN=      0    Vosko Wilk Nusair interpolation
   ROPT   =   -0.00025  -0.00025  -0.00025
 Ionic relaxation
   EDIFFG = -.1E-01   stopping-criterion for IOM
   NSW    =      1    number of steps for IOM
   NBLOCK =      1;   KBLOCK =      1    inner block; outer block 
   IBRION =     -1    ionic relax: 0-MD 1-quasi-New 2-CG
   NFREE  =      0    steps in history (QN), initial steepest desc. (CG)
   ISIF   =      2    stress and relaxation
   IWAVPR =     10    prediction:  0-non 1-charg 2-wave 3-comb
   ISYM   =      2    0-nonsym 1-usesym 2-fastsym
   LCORR  =      T    Harris-Foulkes like correction to forces

   POTIM  = 1.0000    time-step for ionic-motion
   TEIN   =    0.0    initial temperature
   TEBEG  =    0.0;   TEEND  =   0.0 temperature during run
   SMASS  =  -3.00    Nose mass-parameter (am)
   estimated Nose-frequenzy (Omega)   =  0.10E-29 period in steps =****** mass=  -0.394E-26a.u.
   SCALEE = 1.0000    scale energy and forces
   NPACO  =    256;   APACO  = 16.0  distance and # of slots for P.C.
   PSTRESS=    0.0 pullay stress

  Mass of Ions in am
   POMASS =  44.96 19.00 12.01
  Ionic Valenz
   ZVAL   =  11.00  7.00  4.00
  Atomic Wigner-Seitz radii
   RWIGS  =  -1.00 -1.00 -1.00
  virtual crystal weights 
   VCA    =   1.00  1.00  1.00
   NELECT =     640.0000    total number of electrons
   NUPDOWN=      -1.0000    fix difference up-down

 DOS related values:
   EMIN   =  10.00;   EMAX   =-10.00  energy-range for DOS
   EFERMI =   0.00
   ISMEAR =     0;   SIGMA  =   0.05  broadening in eV -4-tet -1-fermi 0-gaus

 Electronic relaxation 2 (details)
   IALGO  =     38    algorithm
   LDIAG  =      T    sub-space diagonalisation (order eigenvalues)
   LSUBROT=      F    optimize rotation matrix (better conditioning)
   TURBO    =      0    0=normal 1=particle mesh
   IRESTART =      0    0=no restart 2=restart with 2 vectors
   NREBOOT  =      0    no. of reboots
   NMIN     =      0    reboot dimension
   EREF     =   0.00    reference energy to select bands
   IMIX   =      4    mixing-type and parameters
     AMIX     =   0.40;   BMIX     =  1.00
     AMIX_MAG =   1.60;   BMIX_MAG =  1.00
     AMIN     =   0.10
     WC   =   100.;   INIMIX=   1;  MIXPRE=   1;  MAXMIX= -45

 Intra band minimization:
   WEIMIN = 0.0000     energy-eigenvalue tresh-hold
   EBREAK =  0.65E-09  absolut break condition
   DEPER  =   0.30     relativ break condition  

   TIME   =   0.40     timestep for ELM

  volume/ion in A,a.u.               =      50.06       337.80
  Fermi-wavevector in a.u.,A,eV,Ry     =   0.888414  1.678858 10.738790  0.789279
  Thomas-Fermi vector in A             =   2.009840
 
 Write flags
   LWAVE        =      F    write WAVECAR
   LDOWNSAMPLE  =      F    k-point downsampling of WAVECAR
   LCHARG       =      F    write CHGCAR
   LVTOT        =      F    write LOCPOT, total local potential
   LVHAR        =      F    write LOCPOT, Hartree potential only
   LELF         =      F    write electronic localiz. function (ELF)
   LORBIT       =      0    0 simple, 1 ext, 2 COOP (PROOUT), +10 PAW based schemes


 Dipole corrections
   LMONO  =      F    monopole corrections only (constant potential shift)
   LDIPOL =      F    correct potential (dipole corrections)
   IDIPOL =      0    1-x, 2-y, 3-z, 4-all directions 
   EPSILON=  1.0000000 bulk dielectric constant

 Exchange correlation treatment:
   GGA     =    --    GGA type
   LEXCH   =     8    internal setting for exchange type
   VOSKOWN=      0    Vosko Wilk Nusair interpolation
   LHFCALC =     F    Hartree Fock is set to
   LHFONE  =     F    Hartree Fock one center treatment
   AEXX    =    0.0000 exact exchange contribution

 Linear response parameters
   LEPSILON=     F    determine dielectric tensor
   LRPA    =     F    only Hartree local field effects (RPA)
   LNABLA  =     F    use nabla operator in PAW spheres
   LVEL    =     F    velocity operator in full k-point grid
   LINTERFAST=   F  fast interpolation
   KINTER  =     0    interpolate to denser k-point grid
   CSHIFT  =0.1000    complex shift for real part using Kramers Kronig
   OMEGAMAX=  -1.0    maximum frequency
   DEG_THRESHOLD= 0.2000000E-02 threshold for treating states as degnerate
   RTIME   =   -0.100 relaxation time in fs
  (WPLASMAI=    0.000 imaginary part of plasma frequency in eV, 0.658/RTIME)
   DFIELD  = 0.0000000 0.0000000 0.0000000 field for delta impulse in time
 
 Orbital magnetization related:
   ORBITALMAG=     F  switch on orbital magnetization
   LCHIMAG   =     F  perturbation theory with respect to B field
   DQ        =  0.001000  dq finite difference perturbation B field
   LLRAUG    =     F  two centre corrections for induced B field



--------------------------------------------------------------------------------------------------------


 Static calculation
 charge density and potential will be updated during run
 non-spin polarized calculation
 Variant of blocked Davidson
 Davidson routine will perform the subspace rotation
 perform sub-space diagonalisation
    after iterative eigenvector-optimisation
 modified Broyden-mixing scheme, WC =      100.0
 initial mixing is a Kerker type mixing with AMIX =  0.4000 and BMIX =      1.0000
 Hartree-type preconditioning will be used
 using additional bands           64
 real space projection scheme for non local part
 use partial core corrections
 calculate Harris-corrections to forces 
   (improved forces if not selfconsistent)
 use gradient corrections 
 use of overlap-Matrix (Vanderbilt PP)
 Gauss-broadening in eV      SIGMA  =   0.05


--------------------------------------------------------------------------------------------------------


  energy-cutoff  :      600.00
  volume of cell :     4004.60
      direct lattice vectors                 reciprocal lattice vectors
    13.128623400  0.000000000  0.000000000     0.076169448  0.043976451  0.000000000
    -6.564311700 11.369721380  0.000000000     0.000000000  0.087952903  0.000000000
     0.000000000  0.000000000 26.828094240     0.000000000  0.000000000  0.037274358

  length of vectors
    13.128623400 13.128623399 26.828094240     0.087952903  0.087952903  0.037274358


 
 k-points in units of 2pi/SCALE and weight: read from INCAR                         
   0.00000000  0.00000000  0.00000000       0.111
   0.02538982  0.01465882  0.00000000       0.222
   0.00000000  0.02931763  0.00000000       0.222
   0.02538982  0.04397645  0.00000000       0.222
  -0.02538982  0.01465882  0.00000000       0.222
 
 k-points in reciprocal lattice and weights: read from INCAR                         
   0.00000000  0.00000000  0.00000000       0.111
   0.33333333 -0.00000000  0.00000000       0.222
   0.00000000  0.33333333  0.00000000       0.222
   0.33333333  0.33333333  0.00000000       0.222
  -0.33333333  0.33333333  0.00000000       0.222
 
 position of ions in fractional coordinates (direct lattice) 
   0.08613185  0.16372055  0.45141194
   0.08134625  0.40856346  0.45217756
   0.08802303  0.66191638  0.45190863
   0.08937813  0.90888668  0.44952413
   0.31603983  0.15285024  0.44956229
   0.32862422  0.39931677  0.45105696
   0.33616890  0.66894003  0.45475159
   0.31918949  0.89672271  0.45091927
   0.57717433  0.16027029  0.44849013
   0.58817228  0.41902171  0.45108971
   0.59592394  0.67483668  0.45374974
   0.59356429  0.92138929  0.45806579
   0.83693085  0.16987631  0.45932769
   0.81854669  0.40676483  0.45571766
   0.84064191  0.66593994  0.44719499
   0.83506606  0.90697129  0.44818444
   0.16946811  0.07952447  0.54832316
   0.15381815  0.33213111  0.54889129
   0.16302611  0.58632252  0.54598639
   0.16856865  0.83579927  0.54336094
   0.40585807  0.07959753  0.54894463
   0.41164605  0.33851751  0.54965831
   0.41622333  0.58720054  0.55441533
   0.41874141  0.84507619  0.54902069
   0.67276277  0.09289845  0.54806240
   0.66149290  0.34274314  0.54585787
   0.66085533  0.58629447  0.54573865
   0.66052652  0.84652787  0.54667836
   0.92243111  0.08258053  0.54902364
   0.92154574  0.33868410  0.54903629
   0.91237213  0.57286964  0.55164574
   0.90932538  0.82324983  0.54497712
   0.10533489  0.17292242  0.59597025
   0.08450349  0.41554580  0.59430507
   0.09151431  0.67241533  0.59014115
   0.08833859  0.91367139  0.58621926
   0.32653331  0.16593148  0.58705962
   0.30224745  0.38704565  0.59020664
   0.30983779  0.67219782  0.58836859
   0.32979391  0.92802854  0.59265119
   0.58500447  0.16797245  0.59222297
   0.57429708  0.42267331  0.58976140
   0.58340912  0.66551389  0.58865183
   0.57676757  0.91789288  0.59378222
   0.85938497  0.17567562  0.59525736
   0.83191308  0.40751770  0.58961227
   0.82955249  0.66871132  0.59269882
   0.83964425  0.91642350  0.58875277
   0.16636650  0.05813060  0.40702129
   0.16526269  0.32402642  0.40414911
   0.15879945  0.57138136  0.41273432
   0.15823648  0.81188264  0.40730773
   0.42089584  0.08592864  0.40227697
   0.43597835  0.35774035  0.40713647
   0.43759657  0.60369480  0.41547039
   0.42443222  0.83312604  0.40658327
   0.66535020  0.08526735  0.41263844
   0.66130032  0.34963513  0.40651794
   0.69164995  0.61264641  0.40926631
   0.67412536  0.84530257  0.40935871
   0.91547200  0.08574414  0.40831317
   0.92914128  0.34683083  0.41266773
   0.92311695  0.58337697  0.41053704
   0.92165403  0.83937550  0.40318272
   0.00763305  0.00491297  0.49696823
   0.99797782  0.24560446  0.50124694
   0.99636400  0.50000515  0.50456015
   0.99534557  0.74577921  0.49686328
   0.25877809  0.00773783  0.50038786
   0.24402773  0.24889820  0.50208563
   0.25227723  0.50577787  0.50242276
   0.25039402  0.74563553  0.49757981
   0.50339408  0.00488218  0.49833284
   0.50715676  0.25570192  0.49289879
   0.50577103  0.51505721  0.50436577
   0.50501016  0.75886990  0.50396413
   0.75800540  0.01411228  0.50343813
   0.74588783  0.24877865  0.50127874
   0.76133899  0.50882885  0.49983841
   0.75521420  0.75249485  0.49797711
 
 position of ions in cartesian coordinates  (Angst):
   0.05607988  1.86145702 12.11052219
  -1.61397361  4.64525272 12.13106227
  -3.18940432  7.52580487 12.12384737
  -4.79280358 10.33378829 12.05987582
   3.14581124  1.73786469 12.06089948
   1.69314388  4.54012043 12.10099873
   0.02230407  7.60566178 12.20011843
  -1.69584876 10.19548738 12.09730455
   6.52544024  1.82222852 12.03213539
   4.97130323  4.76416007 12.10187733
   3.39382261  7.67270506 12.17324080
   1.74439550 10.47593950 12.28903221
   9.87262887  1.93144634 12.32288643
   8.07626004  4.62480281 12.22603636
   6.66503366  7.57155159 11.99738924
   5.00962552 10.31201089 12.02393433
   1.70285960  0.90417108 14.71046548
  -0.16079153  3.77623814 14.72570728
  -1.70849541  6.66632369 14.64777432
  -3.27337266  9.50280488 14.57733840
   4.80585474  0.90500171 14.72713836
   3.18221153  3.84884978 14.74628491
   1.60987195  6.67630658 14.87390668
  -0.04984516  9.60828078 14.72917874
   8.22263467  1.05622954 14.70346960
   6.43461841  3.89689398 14.64432647
   4.82750118  6.66600474 14.64112799
   3.11493118  9.62478604 14.66633862
  11.56816636  0.93891764 14.72925788
   9.87539893  3.85074390 14.72959732
   8.21769518  6.51336823 14.79960386
   6.53412201  9.36012116 14.62069741
   0.24778538  1.96607978 15.98874603
  -1.61835771  4.72463998 15.94407249
  -3.21248688  7.64517494 15.83236243
  -4.83785976 10.38818913 15.72714561
   3.19770690  1.88659474 15.74969080
   1.42740471  4.40060116 15.83411947
  -0.34477232  7.64270191 15.78480799
  -1.76212863 10.55142595 15.89970187
   6.57767985  1.90979994 15.88821354
   4.76517076  4.80567780 15.82217453
   3.29071796  7.56670749 15.79240682
   1.54682928 10.43618631 15.93004540
  10.12935205  1.99738286 15.96962054
   8.24680033  4.63336265 15.81817347
   6.50125269  7.60306144 15.90097980
   5.00768370 10.41947985 15.79511483
   1.80257578  0.66092874 10.91960548
   0.04266117  3.68409014 10.84255054
  -1.66590721  6.49644685 11.07287516
  -3.25202356  9.23087944 10.92729020
   4.96172063  0.97698470 10.79232453
   3.37547642  4.06740807 10.92269548
   1.78219974  6.86384171 11.14627890
   0.10331173  9.47241098 10.90785423
   8.17541082  0.96946597 11.07030304
   6.38684891  3.97525396 10.90610168
   5.05880967  6.96561902 10.97983509
   3.30150849  9.61085468 10.98231411
  11.45603579  0.97488700 10.95426417
   9.92164028  3.94336987 11.07108871
   8.28978648  6.63283357 11.01392634
   6.59012624  9.54346558 10.81662401
   0.06796111  0.05585913 13.33271054
  11.48985067  2.79245429 13.44750025
   9.79869805  5.68491924 13.53638729
   8.17198998  8.47930185 13.32989479
   3.34660659  0.08797698 13.42445261
   1.56990280  2.82990318 13.47000047
  -0.00803085  5.75055343 13.47904510
  -1.60725527  8.47766826 13.34911803
   6.57682319  0.05550906 13.36932045
   4.97976293  2.90725962 13.22353521
   3.25908137  5.85605692 13.53117241
   1.64862972  8.62813927 13.52039708
   9.85893001  0.16045265 13.50628559
   8.15941981  2.82854399 13.44835341
   6.65522174  5.78524220 13.40971202
   4.97531202  8.55565679 13.35977688
 


--------------------------------------------------------------------------------------------------------


 k-point  1 :   0.0000 0.0000 0.0000  plane waves:  133769
 k-point  2 :   0.3333-0.0000 0.0000  plane waves:  133588
 k-point  3 :   0.0000 0.3333 0.0000  plane waves:  133588
 k-point  4 :   0.3333 0.3333 0.0000  plane waves:  133608
 k-point  5 :  -0.3333 0.3333 0.0000  plane waves:  133588

 maximum and minimum number of plane-waves per node :     10323    10242

 maximum number of plane-waves:    133769
 maximum index in each direction: 
   IXMAX=   26   IYMAX=   26   IZMAX=   53
   IXMIN=  -26   IYMIN=  -26   IZMIN=  -53


 real space projection operators:
  total allocation   :      55702.69 KBytes
  max/ min on nodes  :       4695.53       4064.31


 parallel 3D FFT for wavefunctions:
    minimum data exchange during FFTs selected (reduces bandwidth)
 parallel 3D FFT for charge:
    minimum data exchange during FFTs selected (reduces bandwidth)


 total amount of memory used by VASP MPI-rank0   234705. kBytes
=======================================================================

   base      :      30000. kBytes
   nonlr-proj:      19437. kBytes
   fftplans  :      66973. kBytes
   grid      :      38377. kBytes
   one-center:        108. kBytes
   wavefun   :      79810. kBytes
 
     INWAV:  cpu time    0.0000: real time    0.0000
 Broyden mixing: mesh for mixing (old mesh)
   NGX = 53   NGY = 53   NGZ =107
  (NGX  =216   NGY  =216   NGZ  =432)
  gives a total of 300563 points

 initial charge density was supplied:
 charge density of overlapping atoms calculated
 number of electron     640.0000000 magnetization 
 keeping initial charge density in first step


--------------------------------------------------------------------------------------------------------


 Maximum index for non-local projection operator         1116
 Maximum index for augmentation-charges         5725 (set IRDMAX)


--------------------------------------------------------------------------------------------------------


 First call to EWALD:  gamma=   0.112
 Maximum number of real-space cells 4x 4x 2
 Maximum number of reciprocal cells 2x 2x 4

    FEWALD:  cpu time    0.0036: real time    0.0036


--------------------------------------- Iteration      1(   1)  ---------------------------------------


    POTLOK:  cpu time    0.4330: real time    0.4373
    SETDIJ:  cpu time    0.4186: real time    0.4187
     EDDAV:  cpu time   47.0467: real time   47.0504
       DOS:  cpu time    0.0014: real time    0.0014
    --------------------------------------------
      LOOP:  cpu time   47.8998: real time   47.9077

 eigenvalue-minimisations  :  4248
 total energy-change (2. order) : 0.1368341E+05  (-0.2786142E+05)
 number of electron     640.0000000 magnetization 
 augmentation part      640.0000000 magnetization 

 Free energy of the ion-electron system (eV)
  ---------------------------------------------------
  alpha Z        PSCENC =       871.83850952
  Ewald energy   TEWEN  =    285605.44748751
  -Hartree energ DENC   =   -339959.47009466
  -exchange      EXHF   =         0.00000000
  -V(xc)+E(xc)   XCENC  =      3042.76067277
  PAW double counting   =     50525.51240023   -50422.77561733
  entropy T*S    EENTRO =        -0.07091607
  eigenvalues    EBANDS =      -187.26998493
  atomic energy  EATOM  =     64207.43592568
  Solvation  Ediel_sol  =         0.00000000
  ---------------------------------------------------
  free energy    TOTEN  =     13683.40838273 eV

  energy without entropy =    13683.47929879  energy(sigma->0) =    13683.44384076


--------------------------------------------------------------------------------------------------------




--------------------------------------- Iteration      1(   2)  ---------------------------------------


     EDDAV:  cpu time   50.1307: real time   50.1448
       DOS:  cpu time    0.0012: real time    0.0012
    --------------------------------------------
      LOOP:  cpu time   50.1319: real time   50.1460

 eigenvalue-minimisations  :  4640
 total energy-change (2. order) :-0.1117581E+05  (-0.1087153E+05)
 number of electron     640.0000000 magnetization 
 augmentation part      640.0000000 magnetization 

 Free energy of the ion-electron system (eV)
  ---------------------------------------------------
  alpha Z        PSCENC =       871.83850952
  Ewald energy   TEWEN  =    285605.44748751
  -Hartree energ DENC   =   -339959.47009466
  -exchange      EXHF   =         0.00000000
  -V(xc)+E(xc)   XCENC  =      3042.76067277
  PAW double counting   =     50525.51240023   -50422.77561733
  entropy T*S    EENTRO =        -0.04389292
  eigenvalues    EBANDS =    -11363.11056815
  atomic energy  EATOM  =     64207.43592568
  Solvation  Ediel_sol  =         0.00000000
  ---------------------------------------------------
  free energy    TOTEN  =      2507.59482265 eV

  energy without entropy =     2507.63871557  energy(sigma->0) =     2507.61676911


--------------------------------------------------------------------------------------------------------




--------------------------------------- Iteration      1(   3)  ---------------------------------------


     EDDAV:  cpu time   68.3120: real time   68.3169
       DOS:  cpu time    0.0005: real time    0.0005
    --------------------------------------------
      LOOP:  cpu time   68.3124: real time   68.3173

 eigenvalue-minimisations  :  6800
 total energy-change (2. order) :-0.2880429E+04  (-0.2764255E+04)
 number of electron     640.0000000 magnetization 
 augmentation part      640.0000000 magnetization 

 Free energy of the ion-electron system (eV)
  ---------------------------------------------------
  alpha Z        PSCENC =       871.83850952
  Ewald energy   TEWEN  =    285605.44748751
  -Hartree energ DENC   =   -339959.47009466
  -exchange      EXHF   =         0.00000000
  -V(xc)+E(xc)   XCENC  =      3042.76067277
  PAW double counting   =     50525.51240023   -50422.77561733
  entropy T*S    EENTRO =        -0.00000000
  eigenvalues    EBANDS =    -14243.58348138
  atomic energy  EATOM  =     64207.43592568
  Solvation  Ediel_sol  =         0.00000000
  ---------------------------------------------------
  free energy    TOTEN  =      -372.83419765 eV

  energy without entropy =     -372.83419765  energy(sigma->0) =     -372.83419765


--------------------------------------------------------------------------------------------------------




--------------------------------------- Iteration      1(   4)  ---------------------------------------


     EDDAV:  cpu time   61.9793: real time   61.9890
       DOS:  cpu time    0.0004: real time    0.0004
    --------------------------------------------
      LOOP:  cpu time   61.9798: real time   61.9894

 eigenvalue-minimisations  :  6056
 total energy-change (2. order) :-0.3641979E+03  (-0.3598571E+03)
 number of electron     640.0000000 magnetization 
 augmentation part      640.0000000 magnetization 

 Free energy of the ion-electron system (eV)
  ---------------------------------------------------
  alpha Z        PSCENC =       871.83850952
  Ewald energy   TEWEN  =    285605.44748751
  -Hartree energ DENC   =   -339959.47009466
  -exchange      EXHF   =         0.00000000
  -V(xc)+E(xc)   XCENC  =      3042.76067277
  PAW double counting   =     50525.51240023   -50422.77561733
  entropy T*S    EENTRO =        -0.00000000
  eigenvalues    EBANDS =    -14607.78136743
  atomic energy  EATOM  =     64207.43592568
  Solvation  Ediel_sol  =         0.00000000
  ---------------------------------------------------
  free energy    TOTEN  =      -737.03208371 eV

  energy without entropy =     -737.03208371  energy(sigma->0) =     -737.03208371


--------------------------------------------------------------------------------------------------------




--------------------------------------- Iteration      1(   5)  ---------------------------------------


     EDDAV:  cpu time   62.2046: real time   62.2147
       DOS:  cpu time    0.0006: real time    0.0006
    CHARGE:  cpu time    3.5896: real time    3.5895
    MIXING:  cpu time    0.0222: real time    0.0225
    --------------------------------------------
      LOOP:  cpu time   65.8169: real time   65.8273

 eigenvalue-minimisations  :  6080
 total energy-change (2. order) :-0.1480969E+02  (-0.1474583E+02)
 number of electron     640.0000006 magnetization 
 augmentation part      134.5603989 magnetization 

 Broyden mixing:
  rms(total) = 0.76822E+01    rms(broyden)= 0.76819E+01
  rms(prec ) = 0.80888E+01
  weight for this iteration     100.00

 Free energy of the ion-electron system (eV)
  ---------------------------------------------------
  alpha Z        PSCENC =       871.83850952
  Ewald energy   TEWEN  =    285605.44748751
  -Hartree energ DENC   =   -339959.47009466
  -exchange      EXHF   =         0.00000000
  -V(xc)+E(xc)   XCENC  =      3042.76067277
  PAW double counting   =     50525.51240023   -50422.77561733
  entropy T*S    EENTRO =        -0.00000000
  eigenvalues    EBANDS =    -14622.59105921
  atomic energy  EATOM  =     64207.43592568
  Solvation  Ediel_sol  =         0.00000000
  ---------------------------------------------------
  free energy    TOTEN  =      -751.84177548 eV

  energy without entropy =     -751.84177548  energy(sigma->0) =     -751.84177548


--------------------------------------------------------------------------------------------------------




--------------------------------------- Iteration      1(   6)  ---------------------------------------


    POTLOK:  cpu time    0.3789: real time    0.3905
    SETDIJ:  cpu time    0.4144: real time    0.4162
     EDDAV:  cpu time   59.6509: real time   59.6530
       DOS:  cpu time    0.0006: real time    0.0006
    CHARGE:  cpu time    3.6581: real time    3.6581
    MIXING:  cpu time    0.0235: real time    0.0235
    --------------------------------------------
      LOOP:  cpu time   64.1262: real time   64.1418

 eigenvalue-minimisations  :  5768
 total energy-change (2. order) : 0.1555919E+03  (-0.8447901E+02)
 number of electron     640.0000006 magnetization 
 augmentation part      140.6047865 magnetization 

 Broyden mixing:
  rms(total) = 0.25208E+01    rms(broyden)= 0.25200E+01
  rms(prec ) = 0.25754E+01
  weight for this iteration     100.00

 eigenvalues of (default mixing * dielectric matrix)
  average eigenvalue GAMMA=   0.9754
  0.9754

 Free energy of the ion-electron system (eV)
  ---------------------------------------------------
  alpha Z        PSCENC =       871.83850952
  Ewald energy   TEWEN  =    285605.44748751
  -Hartree energ DENC   =   -340134.61601058
  -exchange      EXHF   =         0.00000000
  -V(xc)+E(xc)   XCENC  =      3055.27154356
  PAW double counting   =     56426.03453430   -56392.60380886
  entropy T*S    EENTRO =        -0.00000000
  eigenvalues    EBANDS =    -14235.05805483
  atomic energy  EATOM  =     64207.43592568
  Solvation  Ediel_sol  =         0.00000000
  ---------------------------------------------------
  free energy    TOTEN  =      -596.24987369 eV

  energy without entropy =     -596.24987369  energy(sigma->0) =     -596.24987369


--------------------------------------------------------------------------------------------------------




--------------------------------------- Iteration      1(   7)  ---------------------------------------


    POTLOK:  cpu time    0.3800: real time    0.3904
    SETDIJ:  cpu time    0.4133: real time    0.4165
     EDDAV:  cpu time   61.0475: real time   61.0522
       DOS:  cpu time    0.0005: real time    0.0005
    CHARGE:  cpu time    3.6399: real time    3.6399
    MIXING:  cpu time    0.0204: real time    0.0204
    --------------------------------------------
      LOOP:  cpu time   65.5016: real time   65.5199

 eigenvalue-minimisations  :  5936
 total energy-change (2. order) : 0.1347921E+00  (-0.5647192E+01)
 number of electron     640.0000006 magnetization 
 augmentation part      141.0243606 magnetization 

 Broyden mixing:
  rms(total) = 0.16550E+01    rms(broyden)= 0.16550E+01
  rms(prec ) = 0.16845E+01
  weight for this iteration     100.00

 eigenvalues of (default mixing * dielectric matrix)
  average eigenvalue GAMMA=   1.6014
  0.9530  2.2497

 Free energy of the ion-electron system (eV)
  ---------------------------------------------------
  alpha Z        PSCENC =       871.83850952
  Ewald energy   TEWEN  =    285605.44748751
  -Hartree energ DENC   =   -340280.76756255
  -exchange      EXHF   =         0.00000000
  -V(xc)+E(xc)   XCENC  =      3052.44883043
  PAW double counting   =     60128.87641419   -60102.05246666
  entropy T*S    EENTRO =        -0.00000000
  eigenvalues    EBANDS =    -14079.34221976
  atomic energy  EATOM  =     64207.43592568
  Solvation  Ediel_sol  =         0.00000000
  ---------------------------------------------------
  free energy    TOTEN  =      -596.11508163 eV

  energy without entropy =     -596.11508163  energy(sigma->0) =     -596.11508163


--------------------------------------------------------------------------------------------------------




--------------------------------------- Iteration      1(   8)  ---------------------------------------


    POTLOK:  cpu time    0.3587: real time    0.3681
    SETDIJ:  cpu time    0.4133: real time    0.4156
     EDDAV:  cpu time   57.9750: real time   57.9772
       DOS:  cpu time    0.0005: real time    0.0005
    CHARGE:  cpu time    3.6568: real time    3.6567
    MIXING:  cpu time    0.0234: real time    0.0234
    --------------------------------------------
      LOOP:  cpu time   62.4277: real time   62.4415

 eigenvalue-minimisations  :  5568
 total energy-change (2. order) : 0.1587333E+01  (-0.1001057E+01)
 number of electron     640.0000006 magnetization 
 augmentation part      141.1635828 magnetization 

 Broyden mixing:
  rms(total) = 0.45673E+00    rms(broyden)= 0.45664E+00
  rms(prec ) = 0.48935E+00
  weight for this iteration     100.00

 eigenvalues of (default mixing * dielectric matrix)
  average eigenvalue GAMMA=   1.4038
  2.4646  0.8734  0.8734

 Free energy of the ion-electron system (eV)
  ---------------------------------------------------
  alpha Z        PSCENC =       871.83850952
  Ewald energy   TEWEN  =    285605.44748751
  -Hartree energ DENC   =   -340526.29353222
  -exchange      EXHF   =         0.00000000
  -V(xc)+E(xc)   XCENC  =      3048.82213780
  PAW double counting   =     66276.48954453   -66266.10735706
  entropy T*S    EENTRO =        -0.00000000
  eigenvalues    EBANDS =    -13812.16046407
  atomic energy  EATOM  =     64207.43592568
  Solvation  Ediel_sol  =         0.00000000
  ---------------------------------------------------
  free energy    TOTEN  =      -594.52774831 eV

  energy without entropy =     -594.52774831  energy(sigma->0) =     -594.52774831


--------------------------------------------------------------------------------------------------------




--------------------------------------- Iteration      1(   9)  ---------------------------------------


    POTLOK:  cpu time    0.4217: real time    0.4333
    SETDIJ:  cpu time    0.4222: real time    0.4222
     EDDAV:  cpu time   57.5081: real time   57.5079
       DOS:  cpu time    0.0006: real time    0.0006
    CHARGE:  cpu time    3.6069: real time    3.6069
    MIXING:  cpu time    0.0212: real time    0.0212
    --------------------------------------------
      LOOP:  cpu time   61.9808: real time   61.9921

 eigenvalue-minimisations  :  5512
 total energy-change (2. order) : 0.4740563E+00  (-0.2288447E+00)
 number of electron     640.0000006 magnetization 
 augmentation part      141.4894300 magnetization 

 Broyden mixing:
  rms(total) = 0.21954E+00    rms(broyden)= 0.21953E+00
  rms(prec ) = 0.23868E+00
  weight for this iteration     100.00

 eigenvalues of (default mixing * dielectric matrix)
  average eigenvalue GAMMA=   1.2425
  2.1345  1.0625  0.8865  0.8865

 Free energy of the ion-electron system (eV)
  ---------------------------------------------------
  alpha Z        PSCENC =       871.83850952
  Ewald energy   TEWEN  =    285605.44748751
  -Hartree energ DENC   =   -340642.00882825
  -exchange      EXHF   =         0.00000000
  -V(xc)+E(xc)   XCENC  =      3050.60730654
  PAW double counting   =     66966.13954551   -66959.55876456
  entropy T*S    EENTRO =        -0.00000000
  eigenvalues    EBANDS =    -13693.95487399
  atomic energy  EATOM  =     64207.43592568
  Solvation  Ediel_sol  =         0.00000000
  ---------------------------------------------------
  free energy    TOTEN  =      -594.05369203 eV

  energy without entropy =     -594.05369203  energy(sigma->0) =     -594.05369203


--------------------------------------------------------------------------------------------------------




--------------------------------------- Iteration      1(  10)  ---------------------------------------


    POTLOK:  cpu time    0.3594: real time    0.3701
    SETDIJ:  cpu time    0.4141: real time    0.4141
     EDDAV:  cpu time   61.6976: real time   61.6986
       DOS:  cpu time    0.0006: real time    0.0006
    CHARGE:  cpu time    3.6555: real time    3.6554
    MIXING:  cpu time    0.0164: real time    0.0164
    --------------------------------------------
      LOOP:  cpu time   66.1436: real time   66.1553

 eigenvalue-minimisations  :  6008
 total energy-change (2. order) : 0.4463431E-01  (-0.3521003E-01)
 number of electron     640.0000006 magnetization 
 augmentation part      141.3681467 magnetization 

 Broyden mixing:
  rms(total) = 0.12679E+00    rms(broyden)= 0.12678E+00
  rms(prec ) = 0.14983E+00
  weight for this iteration     100.00

 eigenvalues of (default mixing * dielectric matrix)
  average eigenvalue GAMMA=   1.3965
  2.2621  2.2621  0.9070  0.9070  0.6447

 Free energy of the ion-electron system (eV)
  ---------------------------------------------------
  alpha Z        PSCENC =       871.83850952
  Ewald energy   TEWEN  =    285605.44748751
  -Hartree energ DENC   =   -340705.58869060
  -exchange      EXHF   =         0.00000000
  -V(xc)+E(xc)   XCENC  =      3051.99190050
  PAW double counting   =     66390.59055386   -66383.08506891
  entropy T*S    EENTRO =        -0.00000000
  eigenvalues    EBANDS =    -13632.63967529
  atomic energy  EATOM  =     64207.43592568
  Solvation  Ediel_sol  =         0.00000000
  ---------------------------------------------------
  free energy    TOTEN  =      -594.00905773 eV

  energy without entropy =     -594.00905773  energy(sigma->0) =     -594.00905773


--------------------------------------------------------------------------------------------------------




--------------------------------------- Iteration      1(  11)  ---------------------------------------


    POTLOK:  cpu time    0.3738: real time    0.3862
    SETDIJ:  cpu time    0.4137: real time    0.4136
     EDDAV:  cpu time   58.2572: real time   58.2592
       DOS:  cpu time    0.0006: real time    0.0006
    CHARGE:  cpu time    3.5955: real time    3.5955
    MIXING:  cpu time    0.0206: real time    0.0206
    --------------------------------------------
      LOOP:  cpu time   62.6614: real time   62.6758

 eigenvalue-minimisations  :  5608
 total energy-change (2. order) : 0.1147969E+00  (-0.1579630E-01)
 number of electron     640.0000006 magnetization 
 augmentation part      141.2629093 magnetization 

 Broyden mixing:
  rms(total) = 0.78875E-01    rms(broyden)= 0.78872E-01
  rms(prec ) = 0.94637E-01
  weight for this iteration     100.00

 eigenvalues of (default mixing * dielectric matrix)
  average eigenvalue GAMMA=   1.3620
  2.5567  2.1915  0.8898  0.8898  0.9559  0.6881

 Free energy of the ion-electron system (eV)
  ---------------------------------------------------
  alpha Z        PSCENC =       871.83850952
  Ewald energy   TEWEN  =    285605.44748751
  -Hartree energ DENC   =   -340859.40019628
  -exchange      EXHF   =         0.00000000
  -V(xc)+E(xc)   XCENC  =      3053.50069998
  PAW double counting   =     66313.64617792   -66306.17663266
  entropy T*S    EENTRO =        -0.00000000
  eigenvalues    EBANDS =    -13480.18623255
  atomic energy  EATOM  =     64207.43592568
  Solvation  Ediel_sol  =         0.00000000
  ---------------------------------------------------
  free energy    TOTEN  =      -593.89426087 eV

  energy without entropy =     -593.89426087  energy(sigma->0) =     -593.89426087


--------------------------------------------------------------------------------------------------------




--------------------------------------- Iteration      1(  12)  ---------------------------------------


    POTLOK:  cpu time    0.3860: real time    0.3977
    SETDIJ:  cpu time    0.4138: real time    0.4138
     EDDAV:  cpu time   60.7793: real time   60.7794
       DOS:  cpu time    0.0006: real time    0.0006
    CHARGE:  cpu time    3.5816: real time    3.5816
    MIXING:  cpu time    0.0222: real time    0.0222
    --------------------------------------------
      LOOP:  cpu time   65.1836: real time   65.1954

 eigenvalue-minimisations  :  5904
 total energy-change (2. order) : 0.3591049E-01  (-0.4869532E-02)
 number of electron     640.0000006 magnetization 
 augmentation part      141.3089031 magnetization 

 Broyden mixing:
  rms(total) = 0.35267E-01    rms(broyden)= 0.35266E-01
  rms(prec ) = 0.52450E-01
  weight for this iteration     100.00

 eigenvalues of (default mixing * dielectric matrix)
  average eigenvalue GAMMA=   1.3689
  2.4156  2.4156  1.1520  1.1520  0.9016  0.9016  0.6442

 Free energy of the ion-electron system (eV)
  ---------------------------------------------------
  alpha Z        PSCENC =       871.83850952
  Ewald energy   TEWEN  =    285605.44748751
  -Hartree energ DENC   =   -340924.62311474
  -exchange      EXHF   =         0.00000000
  -V(xc)+E(xc)   XCENC  =      3053.72868333
  PAW double counting   =     66483.95944779   -66476.92646907
  entropy T*S    EENTRO =        -0.00000000
  eigenvalues    EBANDS =    -13414.71882039
  atomic energy  EATOM  =     64207.43592568
  Solvation  Ediel_sol  =         0.00000000
  ---------------------------------------------------
  free energy    TOTEN  =      -593.85835037 eV

  energy without entropy =     -593.85835037  energy(sigma->0) =     -593.85835037


--------------------------------------------------------------------------------------------------------




--------------------------------------- Iteration      1(  13)  ---------------------------------------


    POTLOK:  cpu time    0.4165: real time    0.4295
    SETDIJ:  cpu time    0.4367: real time    0.4386
     EDDAV:  cpu time   58.5156: real time   58.5186
       DOS:  cpu time    0.0006: real time    0.0006
    CHARGE:  cpu time    3.5800: real time    3.5800
    MIXING:  cpu time    0.0261: real time    0.0261
    --------------------------------------------
      LOOP:  cpu time   62.9755: real time   62.9933

 eigenvalue-minimisations  :  5616
 total energy-change (2. order) : 0.8910683E-02  (-0.2814101E-02)
 number of electron     640.0000006 magnetization 
 augmentation part      141.2832953 magnetization 

 Broyden mixing:
  rms(total) = 0.24203E-01    rms(broyden)= 0.24200E-01
  rms(prec ) = 0.38128E-01
  weight for this iteration     100.00

 eigenvalues of (default mixing * dielectric matrix)
  average eigenvalue GAMMA=   1.3470
  2.8287  2.2951  1.3284  1.0768  0.9004  0.9004  0.8049  0.6409

 Free energy of the ion-electron system (eV)
  ---------------------------------------------------
  alpha Z        PSCENC =       871.83850952
  Ewald energy   TEWEN  =    285605.44748751
  -Hartree energ DENC   =   -340982.08232542
  -exchange      EXHF   =         0.00000000
  -V(xc)+E(xc)   XCENC  =      3053.83904808
  PAW double counting   =     66463.27023969   -66455.98061557
  entropy T*S    EENTRO =        -0.00000000
  eigenvalues    EBANDS =    -13357.61770918
  atomic energy  EATOM  =     64207.43592568
  Solvation  Ediel_sol  =         0.00000000
  ---------------------------------------------------
  free energy    TOTEN  =      -593.84943969 eV

  energy without entropy =     -593.84943969  energy(sigma->0) =     -593.84943969


--------------------------------------------------------------------------------------------------------




--------------------------------------- Iteration      1(  14)  ---------------------------------------


    POTLOK:  cpu time    0.4207: real time    0.4323
    SETDIJ:  cpu time    0.4446: real time    0.4446
     EDDAV:  cpu time   58.3977: real time   58.3989
       DOS:  cpu time    0.0006: real time    0.0006
    CHARGE:  cpu time    3.5711: real time    3.5710
    MIXING:  cpu time    0.0299: real time    0.0299
    --------------------------------------------
      LOOP:  cpu time   62.8645: real time   62.8773

 eigenvalue-minimisations  :  5568
 total energy-change (2. order) : 0.4432144E-02  (-0.1007389E-02)
 number of electron     640.0000006 magnetization 
 augmentation part      141.2997968 magnetization 

 Broyden mixing:
  rms(total) = 0.16430E-01    rms(broyden)= 0.16429E-01
  rms(prec ) = 0.26398E-01
  weight for this iteration     100.00

 eigenvalues of (default mixing * dielectric matrix)
  average eigenvalue GAMMA=   1.4289
  2.9590  2.6897  1.4925  1.4925  0.9279  0.9279  0.9544  0.7862  0.6297

 Free energy of the ion-electron system (eV)
  ---------------------------------------------------
  alpha Z        PSCENC =       871.83850952
  Ewald energy   TEWEN  =    285605.44748751
  -Hartree energ DENC   =   -341035.08549465
  -exchange      EXHF   =         0.00000000
  -V(xc)+E(xc)   XCENC  =      3053.99949407
  PAW double counting   =     66475.91024820   -66468.66428539
  entropy T*S    EENTRO =        -0.00000000
  eigenvalues    EBANDS =    -13304.72689249
  atomic energy  EATOM  =     64207.43592568
  Solvation  Ediel_sol  =         0.00000000
  ---------------------------------------------------
  free energy    TOTEN  =      -593.84500755 eV

  energy without entropy =     -593.84500755  energy(sigma->0) =     -593.84500755


--------------------------------------------------------------------------------------------------------




--------------------------------------- Iteration      1(  15)  ---------------------------------------


    POTLOK:  cpu time    0.4003: real time    0.4182
    SETDIJ:  cpu time    0.4131: real time    0.4131
     EDDAV:  cpu time   58.3914: real time   58.3971
       DOS:  cpu time    0.0006: real time    0.0006
    CHARGE:  cpu time    3.5744: real time    3.5743
    MIXING:  cpu time    0.0232: real time    0.0232
    --------------------------------------------
      LOOP:  cpu time   62.8030: real time   62.8264

 eigenvalue-minimisations  :  5624
 total energy-change (2. order) :-0.4543631E-02  (-0.9978071E-03)
 number of electron     640.0000006 magnetization 
 augmentation part      141.3026738 magnetization 

 Broyden mixing:
  rms(total) = 0.12235E-01    rms(broyden)= 0.12233E-01
  rms(prec ) = 0.17512E-01
  weight for this iteration     100.00

 eigenvalues of (default mixing * dielectric matrix)
  average eigenvalue GAMMA=   1.4651
  3.8617  2.7526  1.8366  1.1086  1.0309  1.0309  0.8539  0.8539  0.7097  0.6125

 Free energy of the ion-electron system (eV)
  ---------------------------------------------------
  alpha Z        PSCENC =       871.83850952
  Ewald energy   TEWEN  =    285605.44748751
  -Hartree energ DENC   =   -341090.51216620
  -exchange      EXHF   =         0.00000000
  -V(xc)+E(xc)   XCENC  =      3054.15008833
  PAW double counting   =     66435.91875611   -66428.61597587
  entropy T*S    EENTRO =        -0.00000000
  eigenvalues    EBANDS =    -13249.51217625
  atomic energy  EATOM  =     64207.43592568
  Solvation  Ediel_sol  =         0.00000000
  ---------------------------------------------------
  free energy    TOTEN  =      -593.84955118 eV

  energy without entropy =     -593.84955118  energy(sigma->0) =     -593.84955118


--------------------------------------------------------------------------------------------------------




--------------------------------------- Iteration      1(  16)  ---------------------------------------


    POTLOK:  cpu time    0.3786: real time    0.3887
    SETDIJ:  cpu time    0.4132: real time    0.4132
     EDDAV:  cpu time   58.5797: real time   58.5820
       DOS:  cpu time    0.0005: real time    0.0005
    CHARGE:  cpu time    3.5823: real time    3.5823
    MIXING:  cpu time    0.0241: real time    0.0241
    --------------------------------------------
      LOOP:  cpu time   62.9784: real time   62.9908

 eigenvalue-minimisations  :  5632
 total energy-change (2. order) :-0.3826713E-02  (-0.2434683E-03)
 number of electron     640.0000006 magnetization 
 augmentation part      141.2969968 magnetization 

 Broyden mixing:
  rms(total) = 0.85437E-02    rms(broyden)= 0.85434E-02
  rms(prec ) = 0.11939E-01
  weight for this iteration     100.00

 eigenvalues of (default mixing * dielectric matrix)
  average eigenvalue GAMMA=   1.4903
  4.2165  2.7239  2.0460  1.1419  1.1419  1.0205  1.0205  0.8959  0.8959  0.6783
  0.6119

 Free energy of the ion-electron system (eV)
  ---------------------------------------------------
  alpha Z        PSCENC =       871.83850952
  Ewald energy   TEWEN  =    285605.44748751
  -Hartree energ DENC   =   -341121.41234421
  -exchange      EXHF   =         0.00000000
  -V(xc)+E(xc)   XCENC  =      3054.21058126
  PAW double counting   =     66426.47674881   -66419.14810955
  entropy T*S    EENTRO =        -0.00000000
  eigenvalues    EBANDS =    -13218.70217692
  atomic energy  EATOM  =     64207.43592568
  Solvation  Ediel_sol  =         0.00000000
  ---------------------------------------------------
  free energy    TOTEN  =      -593.85337789 eV

  energy without entropy =     -593.85337789  energy(sigma->0) =     -593.85337789


--------------------------------------------------------------------------------------------------------




--------------------------------------- Iteration      1(  17)  ---------------------------------------


    POTLOK:  cpu time    0.4132: real time    0.4254
    SETDIJ:  cpu time    0.4155: real time    0.4174
     EDDAV:  cpu time   59.6469: real time   59.6479
       DOS:  cpu time    0.0006: real time    0.0006
    CHARGE:  cpu time    3.5790: real time    3.5790
    MIXING:  cpu time    0.0232: real time    0.0232
    --------------------------------------------
      LOOP:  cpu time   64.0782: real time   64.0934

 eigenvalue-minimisations  :  5768
 total energy-change (2. order) :-0.5212911E-02  (-0.2432802E-03)
 number of electron     640.0000006 magnetization 
 augmentation part      141.3006405 magnetization 

 Broyden mixing:
  rms(total) = 0.82769E-02    rms(broyden)= 0.82754E-02
  rms(prec ) = 0.10052E-01
  weight for this iteration     100.00

 eigenvalues of (default mixing * dielectric matrix)
  average eigenvalue GAMMA=   1.6090
  5.4526  2.9108  2.0423  2.0423  0.9786  0.9786  0.9652  0.9652  0.8530  0.8530
  0.6699  0.5963

 Free energy of the ion-electron system (eV)
  ---------------------------------------------------
  alpha Z        PSCENC =       871.83850952
  Ewald energy   TEWEN  =    285605.44748751
  -Hartree energ DENC   =   -341141.67531563
  -exchange      EXHF   =         0.00000000
  -V(xc)+E(xc)   XCENC  =      3054.25362419
  PAW double counting   =     66432.18550008   -66424.94681021
  entropy T*S    EENTRO =        -0.00000000
  eigenvalues    EBANDS =    -13198.39751195
  atomic energy  EATOM  =     64207.43592568
  Solvation  Ediel_sol  =         0.00000000
  ---------------------------------------------------
  free energy    TOTEN  =      -593.85859080 eV

  energy without entropy =     -593.85859080  energy(sigma->0) =     -593.85859080


--------------------------------------------------------------------------------------------------------




--------------------------------------- Iteration      1(  18)  ---------------------------------------


    POTLOK:  cpu time    0.4119: real time    0.4242
    SETDIJ:  cpu time    0.4518: real time    0.4518
     EDDAV:  cpu time   56.4619: real time   56.4637
       DOS:  cpu time    0.0005: real time    0.0005
    CHARGE:  cpu time    3.6033: real time    3.6034
    MIXING:  cpu time    0.0240: real time    0.0240
    --------------------------------------------
      LOOP:  cpu time   60.9535: real time   60.9676

 eigenvalue-minimisations  :  5384
 total energy-change (2. order) :-0.3950286E-02  (-0.8242708E-04)
 number of electron     640.0000006 magnetization 
 augmentation part      141.2909469 magnetization 

 Broyden mixing:
  rms(total) = 0.52328E-02    rms(broyden)= 0.52326E-02
  rms(prec ) = 0.62240E-02
  weight for this iteration     100.00

 eigenvalues of (default mixing * dielectric matrix)
  average eigenvalue GAMMA=   1.6083
  6.0738  2.7317  2.5687  1.6963  0.9540  0.9540  1.1057  0.9194  0.9194  0.8623
  0.8623  0.6538  0.6066

 Free energy of the ion-electron system (eV)
  ---------------------------------------------------
  alpha Z        PSCENC =       871.83850952
  Ewald energy   TEWEN  =    285605.44748751
  -Hartree energ DENC   =   -341159.95384449
  -exchange      EXHF   =         0.00000000
  -V(xc)+E(xc)   XCENC  =      3054.30228306
  PAW double counting   =     66418.92832238   -66411.70446301
  entropy T*S    EENTRO =        -0.00000000
  eigenvalues    EBANDS =    -13180.15676174
  atomic energy  EATOM  =     64207.43592568
  Solvation  Ediel_sol  =         0.00000000
  ---------------------------------------------------
  free energy    TOTEN  =      -593.86254109 eV

  energy without entropy =     -593.86254109  energy(sigma->0) =     -593.86254109


--------------------------------------------------------------------------------------------------------




--------------------------------------- Iteration      1(  19)  ---------------------------------------


    POTLOK:  cpu time    0.4301: real time    0.4393
    SETDIJ:  cpu time    0.4387: real time    0.4388
     EDDAV:  cpu time   58.9983: real time   58.9995
       DOS:  cpu time    0.0006: real time    0.0006
    CHARGE:  cpu time    3.5921: real time    3.5921
    MIXING:  cpu time    0.0261: real time    0.0261
    --------------------------------------------
      LOOP:  cpu time   63.4858: real time   63.4963

 eigenvalue-minimisations  :  5664
 total energy-change (2. order) :-0.1559665E-02  (-0.3541112E-04)
 number of electron     640.0000006 magnetization 
 augmentation part      141.2925430 magnetization 

 Broyden mixing:
  rms(total) = 0.21163E-02    rms(broyden)= 0.21145E-02
  rms(prec ) = 0.33014E-02
  weight for this iteration     100.00

 eigenvalues of (default mixing * dielectric matrix)
  average eigenvalue GAMMA=   1.6223
  6.5205  3.0291  2.4840  1.7374  1.2822  1.0024  1.0024  0.9425  0.9425  0.8557
  0.8557  0.7851  0.6685  0.6043

 Free energy of the ion-electron system (eV)
  ---------------------------------------------------
  alpha Z        PSCENC =       871.83850952
  Ewald energy   TEWEN  =    285605.44748751
  -Hartree energ DENC   =   -341164.27609252
  -exchange      EXHF   =         0.00000000
  -V(xc)+E(xc)   XCENC  =      3054.29970492
  PAW double counting   =     66425.78263925   -66418.57803350
  entropy T*S    EENTRO =        -0.00000000
  eigenvalues    EBANDS =    -13175.81424162
  atomic energy  EATOM  =     64207.43592568
  Solvation  Ediel_sol  =         0.00000000
  ---------------------------------------------------
  free energy    TOTEN  =      -593.86410075 eV

  energy without entropy =     -593.86410075  energy(sigma->0) =     -593.86410075


--------------------------------------------------------------------------------------------------------




--------------------------------------- Iteration      1(  20)  ---------------------------------------


    POTLOK:  cpu time    0.4023: real time    0.4124
    SETDIJ:  cpu time    0.4138: real time    0.4138
     EDDAV:  cpu time   57.8054: real time   57.8059
       DOS:  cpu time    0.0005: real time    0.0005
    CHARGE:  cpu time    3.5842: real time    3.5842
    MIXING:  cpu time    0.0229: real time    0.0229
    --------------------------------------------
      LOOP:  cpu time   62.2291: real time   62.2397

 eigenvalue-minimisations  :  5528
 total energy-change (2. order) :-0.2826027E-02  (-0.1649015E-04)
 number of electron     640.0000006 magnetization 
 augmentation part      141.2937562 magnetization 

 Broyden mixing:
  rms(total) = 0.22637E-02    rms(broyden)= 0.22631E-02
  rms(prec ) = 0.28727E-02
  weight for this iteration     100.00

 eigenvalues of (default mixing * dielectric matrix)
  average eigenvalue GAMMA=   1.6633
  6.9081  3.3314  2.3039  2.3039  1.4751  0.9637  0.9637  1.1966  0.9335  0.9335
  0.8502  0.8502  0.6893  0.6492  0.5977

 Free energy of the ion-electron system (eV)
  ---------------------------------------------------
  alpha Z        PSCENC =       871.83850952
  Ewald energy   TEWEN  =    285605.44748751
  -Hartree energ DENC   =   -341168.27039102
  -exchange      EXHF   =         0.00000000
  -V(xc)+E(xc)   XCENC  =      3054.29297352
  PAW double counting   =     66422.93131524   -66415.71826533
  entropy T*S    EENTRO =        -0.00000000
  eigenvalues    EBANDS =    -13171.82448190
  atomic energy  EATOM  =     64207.43592568
  Solvation  Ediel_sol  =         0.00000000
  ---------------------------------------------------
  free energy    TOTEN  =      -593.86692678 eV

  energy without entropy =     -593.86692678  energy(sigma->0) =     -593.86692678


--------------------------------------------------------------------------------------------------------




--------------------------------------- Iteration      1(  21)  ---------------------------------------


    POTLOK:  cpu time    0.3951: real time    0.4083
    SETDIJ:  cpu time    0.4130: real time    0.4130
     EDDAV:  cpu time   49.1827: real time   49.1863
       DOS:  cpu time    0.0006: real time    0.0006
    CHARGE:  cpu time    3.6385: real time    3.6385
    MIXING:  cpu time    0.0249: real time    0.0249
    --------------------------------------------
      LOOP:  cpu time   53.6547: real time   53.6715

 eigenvalue-minimisations  :  4520
 total energy-change (2. order) :-0.2443960E-02  (-0.1033155E-04)
 number of electron     640.0000006 magnetization 
 augmentation part      141.2930355 magnetization 

 Broyden mixing:
  rms(total) = 0.14406E-02    rms(broyden)= 0.14398E-02
  rms(prec ) = 0.17751E-02
[...]
    -6.564311700 11.369721380  0.000000000     0.000000000  0.087952903  0.000000000
     0.000000000  0.000000000 26.828094240     0.000000000  0.000000000  0.037274358

  length of vectors
    13.128623400 13.128623399 26.828094240     0.087952903  0.087952903  0.037274358


 FORCES acting on ions
    electron-ion (+dipol)            ewald-force                    non-local-force                 convergence-correction
 -----------------------------------------------------------------------------------------------
   -.395E+01 -.265E+01 0.131E+04   0.132E+01 0.174E+01 -.130E+04   0.126E+01 0.281E+00 -.673E+01   0.351E-04 -.153E-04 0.306E-04
   -.813E+02 0.507E+01 0.126E+04   0.805E+02 -.417E+01 -.125E+04   0.981E+00 -.107E+00 -.491E+01   0.233E-04 0.168E-04 -.485E-05
   0.148E+02 0.541E+02 0.123E+04   -.167E+02 -.557E+02 -.123E+04   0.423E+00 0.177E+00 -.495E+01   0.212E-05 0.434E-04 0.198E-04
   0.370E+02 0.366E+01 0.127E+04   -.401E+02 -.395E+01 -.127E+04   0.122E+01 -.245E+00 -.552E+01   0.629E-05 -.148E-04 0.482E-04
   -.718E+02 -.126E+03 0.133E+04   0.750E+02 0.126E+03 -.133E+04   -.786E+00 0.134E+01 -.624E+01   0.304E-05 0.141E-04 0.436E-04
   0.216E+02 -.848E+02 0.128E+04   -.217E+02 0.862E+02 -.128E+04   -.441E+00 0.752E+00 -.585E+01   -.555E-05 -.230E-04 0.235E-04
   -.545E+02 0.455E+02 0.122E+04   0.566E+02 -.462E+02 -.122E+04   -.731E+00 -.183E-01 -.599E+01   -.149E-04 -.849E-06 0.299E-04
   -.728E+02 -.110E+03 0.132E+04   0.762E+02 0.112E+03 -.131E+04   -.129E+01 0.794E+00 -.587E+01   0.393E-05 -.963E-05 0.473E-04
   0.264E+02 -.309E+02 0.134E+04   -.275E+02 0.292E+02 -.133E+04   0.614E+00 0.177E+01 -.549E+01   -.555E-04 -.582E-05 0.478E-04
   0.736E+02 -.357E+02 0.123E+04   -.739E+02 0.331E+02 -.123E+04   -.694E+00 0.275E+01 -.467E+01   0.196E-05 -.299E-04 0.556E-04
   0.563E+02 0.408E+02 0.120E+04   -.573E+02 -.417E+02 -.119E+04   -.218E-01 0.511E+00 -.532E+01   -.149E-05 0.600E-05 0.241E-04
   0.380E+02 0.621E+01 0.114E+04   -.399E+02 -.542E+01 -.114E+04   0.510E+00 -.440E+00 -.543E+01   -.415E-04 -.116E-04 0.972E-05
   0.118E+02 -.358E+01 0.116E+04   -.116E+02 0.277E+01 -.115E+04   -.363E+00 0.655E+00 -.657E+01   0.773E-05 0.159E-04 -.566E-04
   -.216E+02 0.305E+02 0.121E+04   0.230E+02 -.295E+02 -.121E+04   0.504E-01 0.101E+00 -.667E+01   -.149E-04 0.250E-04 -.821E-05
   -.176E+02 0.284E+01 0.133E+04   0.183E+02 -.330E+01 -.132E+04   -.982E-01 0.585E+00 -.516E+01   0.123E-04 0.277E-04 0.186E-04
   0.119E+02 -.749E+02 0.130E+04   -.109E+02 0.760E+02 -.130E+04   -.782E+00 0.489E+00 -.473E+01   0.205E-04 0.825E-05 0.471E-05
   0.632E+02 0.172E+02 -.123E+04   -.657E+02 -.164E+02 0.123E+04   0.642E+00 -.661E+00 0.486E+01   0.439E-05 0.331E-05 -.278E-04
   -.458E+01 -.140E+02 -.119E+04   0.604E+01 0.144E+02 0.119E+04   -.395E+00 -.366E+00 0.422E+01   0.476E-04 -.791E-05 -.745E-05
   -.204E+02 0.535E+02 -.119E+04   0.211E+02 -.539E+02 0.118E+04   -.342E+00 -.592E+00 0.485E+01   0.492E-04 0.268E-04 -.718E-05
   0.659E+01 0.297E+02 -.115E+04   -.837E+01 -.309E+02 0.115E+04   0.104E+01 0.941E-01 0.506E+01   0.359E-05 0.952E-05 -.310E-04
   -.970E+02 -.960E+02 -.124E+04   0.992E+02 0.965E+02 0.123E+04   -.275E+00 0.877E+00 0.537E+01   0.709E-05 0.612E-07 -.225E-04
   -.516E+02 -.150E+02 -.124E+04   0.509E+02 0.155E+02 0.123E+04   0.773E+00 -.707E+00 0.537E+01   0.936E-05 -.214E-04 -.103E-04
   0.349E+02 0.315E+02 -.145E+04   -.346E+02 -.308E+02 0.144E+04   -.808E+00 -.809E+00 0.785E+01   -.109E-04 -.496E-05 0.582E-05
   -.110E+02 0.252E+01 -.129E+04   0.127E+02 -.267E+01 0.128E+04   -.126E+01 -.356E+00 0.602E+01   -.138E-04 0.234E-04 -.260E-04
   0.903E+01 -.115E+02 -.132E+04   -.107E+02 0.125E+02 0.131E+04   0.784E+00 -.836E+00 0.675E+01   -.222E-04 -.487E-04 0.281E-04
   0.329E+02 0.484E+02 -.124E+04   -.321E+02 -.504E+02 0.124E+04   -.402E+00 0.462E+00 0.673E+01   -.328E-04 0.462E-05 -.108E-04
   -.439E+02 0.727E-01 -.121E+04   0.441E+02 0.762E+00 0.121E+04   0.953E+00 -.257E+00 0.553E+01   -.226E-04 -.419E-04 -.128E-04
   -.654E+02 0.208E+02 -.128E+04   0.661E+02 -.209E+02 0.128E+04   0.125E+01 -.716E+00 0.604E+01   -.204E-04 -.228E-05 0.819E-05
   -.316E+02 0.396E+02 -.129E+04   0.303E+02 -.398E+02 0.128E+04   0.139E+01 -.309E-01 0.552E+01   0.397E-04 -.107E-04 0.336E-04
   0.235E+02 0.357E+02 -.127E+04   -.240E+02 -.359E+02 0.126E+04   0.184E+00 -.505E+00 0.502E+01   -.633E-05 -.294E-04 0.342E-04
   0.441E+02 -.607E+02 -.140E+04   -.439E+02 0.612E+02 0.139E+04   -.220E+00 0.744E+00 0.652E+01   -.294E-05 0.202E-04 -.136E-05
   -.371E+01 -.241E+02 -.121E+04   0.332E+01 0.242E+02 0.120E+04   0.920E+00 0.623E+00 0.561E+01   0.426E-04 0.354E-04 -.224E-04
   0.236E+02 0.412E+02 -.163E+04   -.230E+02 -.401E+02 0.164E+04   -.120E+01 -.159E+01 -.176E+02   -.503E-05 -.119E-04 -.237E-04
   0.285E+01 -.385E+02 -.163E+04   -.324E+01 0.414E+02 0.165E+04   0.945E-01 -.288E+01 -.186E+02   -.112E-04 -.303E-05 -.186E-04
   0.416E+02 -.166E+02 -.159E+04   -.421E+02 0.181E+02 0.161E+04   0.122E+00 -.124E+01 -.166E+02   -.461E-05 0.340E-05 -.190E-04
   0.481E+02 0.304E+02 -.154E+04   -.510E+02 -.326E+02 0.156E+04   0.278E+01 0.215E+01 -.161E+02   -.334E-05 0.515E-06 -.233E-04
   -.497E+02 -.392E+02 -.155E+04   0.495E+02 0.417E+02 0.156E+04   0.861E+00 -.209E+01 -.167E+02   0.211E-06 -.110E-04 -.363E-04
   -.389E+02 -.773E+02 -.157E+04   0.384E+02 0.773E+02 0.158E+04   0.182E+01 0.134E+01 -.157E+02   0.124E-05 -.653E-05 -.308E-04
   -.687E+02 -.127E+02 -.156E+04   0.695E+02 0.144E+02 0.158E+04   0.524E+00 -.109E+01 -.143E+02   -.227E-05 0.115E-05 -.275E-04
   -.158E+02 0.199E+02 -.162E+04   0.148E+02 -.230E+02 0.164E+04   0.111E+01 0.259E+01 -.192E+02   0.265E-05 0.811E-05 -.355E-04
   0.169E+02 -.197E+02 -.157E+04   -.178E+02 0.204E+02 0.158E+04   0.606E+00 -.501E+00 -.149E+02   0.283E-05 -.138E-04 -.263E-04
   -.209E+02 0.919E+01 -.158E+04   0.218E+02 -.787E+01 0.160E+04   -.453E+00 -.154E+01 -.165E+02   -.506E-06 -.938E-05 -.300E-04
   -.794E+00 -.376E+02 -.157E+04   0.330E+01 0.415E+02 0.158E+04   -.267E+01 -.337E+01 -.140E+02   -.202E-04 -.516E-06 -.228E-04
   -.122E+02 -.141E+02 -.163E+04   0.120E+02 0.164E+02 0.165E+04   0.268E+00 -.209E+01 -.177E+02   -.320E-05 0.146E-04 -.294E-04
   0.414E+02 0.325E+02 -.163E+04   -.425E+02 -.324E+02 0.164E+04   0.597E+00 -.211E+00 -.164E+02   0.179E-06 0.939E-06 -.256E-04
   0.509E+02 0.242E+02 -.159E+04   -.529E+02 -.280E+02 0.161E+04   0.145E+01 0.411E+01 -.158E+02   0.767E-05 -.251E-05 -.192E-04
   -.726E-01 0.115E+02 -.161E+04   -.697E+00 -.128E+02 0.162E+04   0.952E+00 0.119E+01 -.164E+02   0.186E-04 0.742E-05 -.182E-04
   0.131E+02 0.241E+02 -.155E+04   -.141E+02 -.264E+02 0.157E+04   0.813E+00 0.228E+01 -.153E+02   0.601E-05 0.172E-04 -.186E-04
   0.357E+02 -.548E+02 0.163E+04   -.404E+02 0.552E+02 -.165E+04   0.433E+01 0.592E+00 0.183E+02   0.388E-06 0.825E-06 0.198E-04
   -.711E+01 -.302E+02 0.163E+04   0.520E+01 0.308E+02 -.165E+04   0.207E+01 -.357E+00 0.182E+02   -.105E-04 0.428E-06 0.615E-05
   -.643E+02 0.105E+02 0.156E+04   0.665E+02 -.106E+02 -.158E+04   -.190E+01 0.449E+00 0.158E+02   -.556E-05 0.120E-05 0.110E-04
   -.143E+02 -.185E+02 0.164E+04   0.128E+02 0.181E+02 -.166E+04   0.165E+01 0.131E+01 0.193E+02   0.257E-06 -.129E-04 0.284E-04
   0.428E+01 0.926E+01 0.162E+04   -.516E+01 -.114E+02 -.163E+04   0.441E+00 0.194E+01 0.160E+02   0.374E-05 -.448E-05 0.201E-04
   0.172E+02 0.257E+02 0.159E+04   -.150E+02 -.287E+02 -.161E+04   -.283E+01 0.256E+01 0.171E+02   -.439E-05 -.592E-05 0.101E-04
   0.300E+02 0.632E+02 0.149E+04   -.311E+02 -.665E+02 -.150E+04   0.537E+00 0.267E+01 0.131E+02   -.838E-05 0.891E-05 0.831E-05
   -.274E+02 -.127E+02 0.160E+04   0.311E+02 0.145E+02 -.162E+04   -.410E+01 -.199E+01 0.168E+02   0.312E-05 0.699E-05 0.239E-04
   -.331E+02 -.101E+02 0.156E+04   0.368E+02 0.887E+01 -.157E+04   -.319E+01 0.108E+01 0.157E+02   0.171E-04 -.287E-05 0.154E-04
   -.402E+02 0.451E+02 0.163E+04   0.423E+02 -.487E+02 -.165E+04   -.909E+00 0.317E+01 0.183E+02   0.168E-04 -.630E-05 0.107E-04
   0.607E+02 0.605E+02 0.159E+04   -.643E+02 -.632E+02 -.161E+04   0.249E+01 0.170E+01 0.166E+02   0.114E-04 0.907E-05 0.139E-04
   0.491E+02 -.501E+01 0.159E+04   -.529E+02 0.466E+01 -.161E+04   0.373E+01 0.848E-01 0.186E+02   -.860E-05 0.890E-05 0.596E-05
   0.260E+02 -.193E+02 0.158E+04   -.281E+02 0.198E+02 -.159E+04   0.225E+01 -.535E+00 0.152E+02   -.185E-04 0.598E-05 0.544E-05
   0.465E+02 0.386E+02 0.156E+04   -.504E+02 -.399E+02 -.158E+04   0.326E+01 0.652E+00 0.163E+02   -.197E-05 -.147E-04 0.757E-05
   -.148E+02 0.590E+02 0.157E+04   0.172E+02 -.628E+02 -.158E+04   -.234E+01 0.355E+01 0.150E+02   0.475E-05 0.328E-05 0.139E-04
   -.770E+01 -.147E+02 0.164E+04   0.949E+01 0.147E+02 -.166E+04   -.157E+01 -.184E+00 0.179E+02   -.163E-05 -.118E-05 0.199E-04
   0.108E+02 0.156E+02 0.204E+02   -.109E+02 -.153E+02 -.204E+02   0.181E+00 -.108E+01 0.304E+00   0.456E-05 -.117E-05 0.121E-04
   -.124E+02 0.660E+01 0.307E+01   0.124E+02 -.673E+01 -.299E+01   0.478E+00 0.780E+00 -.226E+00   -.580E-05 -.184E-05 0.301E-05
   0.421E+01 0.644E+01 -.122E+02   -.439E+01 -.635E+01 0.122E+02   0.456E+00 -.471E+00 -.675E+00   -.170E-05 0.366E-05 0.553E-05
   0.396E+01 0.143E+02 0.619E+00   -.418E+01 -.143E+02 -.615E+00   0.147E+01 0.935E+00 0.465E+00   0.468E-05 0.686E-05 0.191E-05
   -.141E+02 -.243E+01 0.171E+02   0.142E+02 0.265E+01 -.170E+02   -.576E+00 -.179E+01 -.118E+01   0.309E-05 -.653E-05 0.870E-05
   -.109E+02 -.965E+01 -.972E+01   0.106E+02 0.978E+01 0.104E+02   0.131E+01 -.146E+00 -.256E+01   -.798E-06 -.580E-05 0.327E-05
   -.406E+02 0.126E+02 -.179E+01   0.405E+02 -.122E+02 0.191E+01   0.211E+00 -.112E+01 -.529E+00   -.636E-05 0.247E-05 0.366E-05
   -.210E+02 -.384E+01 0.419E+01   0.211E+02 0.365E+01 -.394E+01   -.872E+00 0.136E+01 -.466E-01   -.494E-05 0.834E-05 -.690E-06
   0.215E+02 -.110E+02 0.196E+02   -.214E+02 0.111E+02 -.199E+02   -.768E+00 -.814E+00 0.121E+01   -.223E-05 -.798E-05 0.107E-04
   0.277E+02 0.249E+02 0.533E+02   -.274E+02 -.251E+02 -.539E+02   -.146E+01 0.145E+00 0.216E+01   0.339E-05 -.539E-05 0.103E-04
   0.353E+02 0.293E+02 -.957E+01   -.354E+02 -.290E+02 0.948E+01   -.461E+00 -.197E+01 -.689E+00   0.239E-05 -.152E-05 0.549E-05
   0.130E+02 0.397E+02 -.311E+02   -.132E+02 -.397E+02 0.309E+02   -.441E+00 -.164E+00 0.370E+00   -.458E-05 0.124E-04 0.246E-05
   -.269E+02 0.155E+02 -.293E+02   0.269E+02 -.152E+02 0.293E+02   -.199E-01 -.174E+01 0.265E+00   -.113E-04 0.382E-05 0.666E-05
   0.219E+02 0.486E+01 -.141E+02   -.220E+02 -.500E+01 0.142E+02   0.291E+00 0.688E+00 -.141E+00   0.695E-05 -.110E-05 0.165E-05
   0.213E+02 -.130E+02 -.976E+01   -.211E+02 0.132E+02 0.980E+01   -.138E+01 -.121E+01 0.192E+00   0.634E-05 -.783E-05 0.402E-05
   0.737E+01 -.495E+01 -.947E+01   -.732E+01 0.488E+01 0.968E+01   -.320E+00 0.480E+00 -.165E+00   0.527E-05 0.569E-05 -.756E-07
 -----------------------------------------------------------------------------------------------
   -.138E+02 -.140E+02 -.639E+01   0.217E-12 0.266E-13 0.364E-12   0.138E+02 0.140E+02 0.639E+01   0.400E-04 -.216E-05 0.159E-03
 
 
 POSITION                                       TOTAL-FORCE (eV/Angst)
 -----------------------------------------------------------------------------------
      0.05608      1.86146     12.11052        -1.367172     -0.630890      0.448217
     -1.61397      4.64525     12.13106         0.183203      0.790521      0.682892
     -3.18940      7.52580     12.12385        -1.474154     -1.361729      0.508074
     -4.79280     10.33379     12.05988        -1.928115     -0.534012      0.935184
      3.14581      1.73786     12.06090         2.436506      1.378203      0.684385
      1.69314      4.54012     12.10100        -0.538812      2.149893      0.989018
      0.02230      7.60566     12.20012         1.315151     -0.732696     -0.365536
     -1.69585     10.19549     12.09730         2.093922      2.175711     -0.477175
      6.52544      1.82223     12.03214        -0.544282      0.043492      0.562229
      4.97130      4.76416     12.10188        -0.988570      0.193108      0.561953
      3.39382      7.67271     12.17324        -1.077540     -0.415192      0.027274
      1.74440     10.47594     12.28903        -1.311150      0.352908     -1.685779
      9.87263      1.93145     12.32289        -0.213279     -0.152322     -2.072721
      8.07626      4.62480     12.22604         1.433607      1.071636     -0.697422
      6.66503      7.57155     11.99739         0.599412      0.120667      1.308999
      5.00963     10.31201     12.02393         0.238137      1.668060      0.565308
      1.70286      0.90417     14.71047        -1.874679      0.139735     -0.342495
     -0.16079      3.77624     14.72571         1.067255      0.036210     -0.177419
     -1.70850      6.66632     14.64777         0.322518     -0.961561      0.274759
     -3.27337      9.50280     14.57734        -0.741492     -1.123485      0.900321
      4.80585      0.90500     14.72714         2.004645      1.333720     -1.027981
      3.18221      3.84885     14.74628         0.092858     -0.250611     -1.218052
      1.60987      6.67631     14.87391        -0.480387     -0.130388     -1.823850
     -0.04985      9.60828     14.72918         0.395259     -0.508444     -0.442541
      8.22263      1.05623     14.70347        -0.839997      0.078920      0.741285
      6.43462      3.89689     14.64433         0.427629     -1.521962      0.037167
      4.82750      6.66600     14.64113         1.071428      0.578223      0.528824
      3.11493      9.62479     14.66634         2.018249     -0.728923      1.203617
     11.56817      0.93892     14.72926         0.085474     -0.230625      0.047188
      9.87540      3.85074     14.72960        -0.223801     -0.703005      0.191273
      8.21770      6.51337     14.79960        -0.019869      1.244401     -0.856291
      6.53412      9.36012     14.62070         0.523605      0.700890      0.043217
      0.24779      1.96608     15.98875        -0.620144     -0.474132     -0.775724
     -1.61836      4.72464     15.94407        -0.294076      0.090464     -0.396716
     -3.21249      7.64517     15.83236        -0.437918      0.223253     -0.112484
     -4.83786     10.38819     15.72715        -0.097727     -0.026091      0.260142
      3.19771      1.88659     15.74969         0.686855      0.394096      0.691848
      1.42740      4.40060     15.83412         1.241133      1.329401      0.763167
     -0.34477      7.64270     15.78481         1.389301      0.541362      0.900441
     -1.76213     10.55143     15.89970         0.193177     -0.473755     -0.301762
      6.57768      1.90980     15.88821        -0.293563      0.205175     -0.412246
      4.76517      4.80568     15.82217         0.474626     -0.224236      0.182269
      3.29072      7.56671     15.79241        -0.166592      0.538863      0.793493
      1.54683     10.43619     15.93005         0.126760      0.147766     -0.179100
     10.12935      1.99738     15.96962        -0.525013     -0.123370     -0.376729
      8.24680      4.63336     15.81817        -0.536528      0.335296      0.533717
      6.50125      7.60306     15.90098         0.181652     -0.061667     -0.356987
      5.00768     10.41948     15.79511        -0.181493      0.017557     -0.020133
      1.80258      0.66093     10.91961        -0.292659      0.981848     -0.706289
      0.04266      3.68409     10.84255         0.164504      0.290116      0.721992
     -1.66591      6.49645     11.07288         0.359868      0.337877     -0.433074
     -3.25202      9.23088     10.92729         0.163706      0.880779     -0.273922
      4.96172      0.97698     10.79232        -0.441967     -0.213998      0.697745
      3.37548      4.06741     10.92270        -0.625460     -0.413221     -0.093369
      1.78220      6.86384     11.14628        -0.575223     -0.605419     -0.604459
      0.10331      9.47241     10.90785        -0.455516     -0.141083      0.845049
      8.17541      0.96947     11.07030         0.543248     -0.100203     -0.253494
      6.38685      3.97525     10.90610         1.137240     -0.349039     -0.224558
      5.05881      6.96562     10.97984        -1.093316     -0.976175     -0.764527
      3.30151      9.61085     10.98231        -0.009396     -0.267261      0.265871
     11.45604      0.97489     10.95426         0.102730     -0.024687      0.429131
      9.92164      3.94337     11.07109        -0.672829     -0.598044     -0.191609
      8.28979      6.63283     11.01393        -0.025363     -0.269281     -0.239076
      6.59013      9.54347     10.81662         0.220990     -0.164526      0.455515
      0.06796      0.05586     13.33271         0.056636     -0.805691      0.253175
     11.48985      2.79245     13.44750         0.431106      0.649602     -0.148211
      9.79870      5.68492     13.53639         0.278434     -0.378804     -0.680505
      8.17199      8.47930     13.32989         1.247166      0.891889      0.469021
      3.34661      0.08798     13.42445        -0.462151     -1.571519     -1.110852
      1.56990      2.82990     13.47000         1.016471     -0.010243     -1.847989
     -0.00803      5.75055     13.47905         0.139423     -0.739791     -0.406429
     -1.60726      8.47767     13.34912        -0.715609      1.170831      0.201961
      6.57682      0.05551     13.36932        -0.667872     -0.719796      0.900976
      4.97976      2.90726     13.22354        -1.153169     -0.037321      1.578605
      3.25908      5.85606     13.53117        -0.630240     -1.676348     -0.772990
      1.64863      8.62814     13.52040        -0.628149     -0.211447      0.145373
      9.85893      0.16045     13.50629        -0.022904     -1.442885      0.296569
      8.15942      2.82854     13.44835         0.209447      0.547445     -0.038586
      6.65522      5.78524     13.40971        -1.158793     -0.952104      0.232487
      4.97531      8.55566     13.35978        -0.266363      0.408061      0.049353
 -----------------------------------------------------------------------------------
    total drift:                                0.006736      0.000698      0.000390


--------------------------------------------------------------------------------------------------------



  FREE ENERGIE OF THE ION-ELECTRON SYSTEM (eV)
  ---------------------------------------------------
  free  energy   TOTEN  =      -593.87217337 eV

  energy  without entropy=     -593.87217337  energy(sigma->0) =     -593.87217337
 


--------------------------------------------------------------------------------------------------------


    POTLOK:  cpu time    0.7757: real time    0.7757


--------------------------------------------------------------------------------------------------------


     LOOP+:  cpu time 1872.5559: real time 1873.0641
    4ORBIT:  cpu time    0.0000: real time    0.0000

 total amount of memory used by VASP MPI-rank0   234705. kBytes
=======================================================================

   base      :      30000. kBytes
   nonlr-proj:      19437. kBytes
   fftplans  :      66973. kBytes
   grid      :      38377. kBytes
   one-center:        108. kBytes
   wavefun   :      79810. kBytes
 
  
  
 General timing and accounting informations for this job:
 ========================================================
  
                  Total CPU time used (sec):     1904.282
                            User time (sec):     1898.003
                          System time (sec):        6.279
                         Elapsed time (sec):     1905.043
  
                   Maximum memory used (kb):      444216.
                   Average memory used (kb):           0.
  
                          Minor page faults:       349171
                          Major page faults:            0
                 Voluntary context switches:         2371
