 running on   48 total cores
 distrk:  each k-point on   48 cores,    1 groups
 distr:  one band on   12 cores,    4 groups
 using from now: INCAR     
 vasp.5.4.4.18Apr17-6-g9f103f2a35 (build Mar 16 2023 09:39:13) complex          
  
 POSCAR found type information on POSCAR  Ca Si O 
 POSCAR found :  3 types and     135 ions
 scaLAPACK is switched off
 LDA part: xc-table for Pade appr. of Perdew
 generate k-points for:    2    2    2
 POSCAR, INCAR and KPOINTS ok, starting setup
 FFT: planning ...
 WAVECAR not read
 entering main loop
       N       E                     dE             d eps       ncg     rms          rms(c)
DAV:   1     0.930519493330E+04    0.93052E+04   -0.46269E+05  8320   0.174E+03
DAV:   2    -0.526451705139E+01   -0.93105E+04   -0.90354E+04 10232   0.453E+02
DAV:   3    -0.103831169709E+04   -0.10330E+04   -0.10268E+04 10272   0.153E+02
DAV:   4    -0.108445100408E+04   -0.46139E+02   -0.45973E+02 10840   0.317E+01
DAV:   5    -0.109109435751E+04   -0.66434E+01   -0.66404E+01 15400   0.715E+00    0.864E+01
DAV:   6    -0.923080973548E+03    0.16801E+03   -0.80807E+02 10384   0.424E+01    0.383E+01
DAV:   7    -0.927567658059E+03   -0.44867E+01   -0.90108E+01 10952   0.151E+01    0.224E+01
DAV:   8    -0.920909234613E+03    0.66584E+01   -0.20046E+01 11184   0.825E+00    0.122E+01
DAV:   9    -0.924266692894E+03   -0.33575E+01   -0.16876E+01  9944   0.602E+00    0.236E+01
DAV:  10    -0.919984151963E+03    0.42825E+01   -0.28744E+00 10056   0.286E+00    0.383E+00
DAV:  11    -0.920064560843E+03   -0.80409E-01   -0.23407E+00  9808   0.213E+00    0.289E+00
DAV:  12    -0.920113598683E+03   -0.49038E-01   -0.40082E-01 11424   0.993E-01    0.274E+00
DAV:  13    -0.919990925480E+03    0.12267E+00   -0.19621E-01 11928   0.783E-01    0.186E+00
DAV:  14    -0.919930276088E+03    0.60649E-01   -0.10104E-01 10320   0.593E-01    0.132E+00
DAV:  15    -0.919912451544E+03    0.17825E-01   -0.32289E-02 10792   0.342E-01    0.129E+00
DAV:  16    -0.919900780823E+03    0.11671E-01   -0.83005E-03 10664   0.163E-01    0.128E+00
DAV:  17    -0.919880261167E+03    0.20520E-01   -0.44395E-03 11208   0.145E-01    0.119E+00
DAV:  18    -0.919841705647E+03    0.38556E-01   -0.13244E-02 10752   0.295E-01    0.980E-01
DAV:  19    -0.919823825209E+03    0.17880E-01   -0.12216E-02 10776   0.200E-01    0.795E-01
DAV:  20    -0.919811982184E+03    0.11843E-01   -0.15462E-02 11584   0.172E-01    0.394E-01
DAV:  21    -0.919812136375E+03   -0.15419E-03   -0.22658E-03  9536   0.645E-02    0.389E-01
DAV:  22    -0.919811663770E+03    0.47261E-03   -0.23020E-04 14168   0.193E-02    0.434E-01
DAV:  23    -0.919812586434E+03   -0.92266E-03   -0.71792E-04 11776   0.630E-02    0.910E-01
DAV:  24    -0.919810946882E+03    0.16396E-02   -0.80214E-04  9552   0.421E-02    0.748E-01
DAV:  25    -0.919809402238E+03    0.15446E-02   -0.75630E-03  9744   0.128E-01    0.658E-01
DAV:  26    -0.919809839303E+03   -0.43707E-03   -0.64883E-03  9880   0.120E-01    0.670E-01
DAV:  27    -0.919809481207E+03    0.35810E-03   -0.13781E-03 11552   0.732E-02    0.703E-01
DAV:  28    -0.919809122537E+03    0.35867E-03   -0.23169E-03 11704   0.110E-01    0.872E-01
DAV:  29    -0.919807443352E+03    0.16792E-02   -0.88476E-04  9512   0.489E-02    0.503E-01
DAV:  30    -0.919807501929E+03   -0.58578E-04   -0.15103E-04 11936   0.196E-02    0.500E-01
DAV:  31    -0.919806538058E+03    0.96387E-03   -0.63307E-04  9152   0.361E-02    0.384E-01
DAV:  32    -0.919805572688E+03    0.96537E-03   -0.50383E-03  9856   0.104E-01    0.415E-01
DAV:  33    -0.919805196951E+03    0.37574E-03   -0.43931E-04  9488   0.390E-02    0.170E-01
DAV:  34    -0.919805163100E+03    0.33851E-04   -0.63002E-05 10064   0.142E-02    0.155E-01
DAV:  35    -0.919805073247E+03    0.89852E-04   -0.42574E-04  9632   0.292E-02    0.128E-01
DAV:  36    -0.919805025438E+03    0.47809E-04   -0.44973E-05 10704   0.131E-02    0.237E-02
DAV:  37    -0.919805029918E+03   -0.44798E-05   -0.26132E-05  8896   0.842E-03    0.196E-02
DAV:  38    -0.919805030997E+03   -0.10796E-05   -0.22385E-06  7104   0.269E-03    0.218E-02
DAV:  39    -0.919805029560E+03    0.14378E-05   -0.71557E-07  5424   0.155E-03    0.836E-03
DAV:  40    -0.919805030012E+03   -0.45204E-06   -0.19926E-06  6664   0.224E-03
   1 F= -.91980503E+03 E0= -.91979620E+03  d E =-.176525E-01
