<?xml version="1.0" encoding="ISO-8859-1"?>
<modeling>
 <generator>
  <i name="program" type="string">vasp </i>
  <i name="version" type="string">5.4.4.18Apr17-6-g9f103f2a35  </i>
  <i name="subversion" type="string">(build Mar 16 2023 09:39:13) complex            parallel </i>
  <i name="platform" type="string">LinuxIFC </i>
  <i name="date" type="string">2024 04 29 </i>
  <i name="time" type="string">18:37:46 </i>
 </generator>
 <incar>
  <i type="int" name="ISTART">     0</i>
  <i type="string" name="PREC">a</i>
  <i type="logical" name="ADDGRID"> T  </i>
  <i type="int" name="IBRION">    -1</i>
  <i name="EDIFF">      0.00000100</i>
  <i name="EDIFFG">     -0.01000000</i>
  <i type="int" name="NSW">     1</i>
  <i type="int" name="ISIF">     2</i>
  <i type="int" name="ISYM">     0</i>
  <i name="ENCUT">    600.00000000</i>
  <i name="POTIM">      1.00000000</i>
  <i type="string" name="LREAL">  A</i>
  <i type="int" name="ISMEAR">     0</i>
  <i name="SIGMA">      0.05000000</i>
  <i name="KSPACING">      0.30000000</i>
  <i type="logical" name="KGAMMA"> T  </i>
  <i type="logical" name="LWAVE"> F  </i>
  <i type="logical" name="LCHARG"> F  </i>
  <i type="logical" name="LSCALAPACK"> F  </i>
  <v type="int" name="KPOINT_BSE">    -1     0     0     0</v>
 </incar>
 <structure name="primitive_cell" >
  <crystal>
   <varray name="basis" >
    <v>      13.31093562       0.00000000       0.00000000 </v>
    <v>       0.00000000      13.31093562       0.00000000 </v>
    <v>       0.00000000       0.00000000      13.31093562 </v>
   </varray>
   <i name="volume">   2358.44497833 </i>
   <varray name="rec_basis" >
    <v>       0.07512620       0.00000000       0.00000000 </v>
    <v>       0.00000000       0.07512620       0.00000000 </v>
    <v>       0.00000000       0.00000000       0.07512620 </v>
   </varray>
  </crystal>
  <varray name="positions" >
   <v>      -0.28524547      -0.38236356       0.00678773 </v>
   <v>      -0.39024181      -0.36904700       0.11600871 </v>
   <v>      -0.18512621      -0.41849648      -0.14130241 </v>
   <v>      -0.31107782       0.42423970      -0.03453419 </v>
   <v>      -0.19569469      -0.21200238      -0.05268920 </v>
   <v>      -0.19515141      -0.45772579       0.19365427 </v>
   <v>      -0.43637905      -0.35929273      -0.15441490 </v>
   <v>      -0.23947374      -0.15388083       0.09685741 </v>
   <v>      -0.44026221      -0.26832645       0.16643846 </v>
   <v>      -0.32766955       0.48456282      -0.22122756 </v>
   <v>      -0.32731775       0.38692477      -0.13725301 </v>
   <v>      -0.32923489      -0.41866035       0.27634397 </v>
   <v>      -0.35233211      -0.19453573       0.19931538 </v>
   <v>       0.45694827      -0.27766997      -0.00639699 </v>
   <v>      -0.41158932      -0.44445509      -0.24921718 </v>
   <v>      -0.05375662      -0.43882153      -0.16653207 </v>
   <v>       0.44659929      -0.33857409      -0.11465062 </v>
   <v>      -0.11498397       0.35971847       0.02077699 </v>
   <v>      -0.12450491      -0.11824426      -0.07907188 </v>
   <v>      -0.23711349      -0.22484068      -0.27244340 </v>
   <v>      -0.12266570       0.46693506       0.24713989 </v>
   <v>       0.02186876      -0.48576931      -0.08951523 </v>
   <v>      -0.14412206      -0.17192488       0.23382538 </v>
   <v>       0.38833940      -0.45500379      -0.06206902 </v>
   <v>      -0.03521357      -0.33938428      -0.22414323 </v>
   <v>      -0.42233674      -0.34279555      -0.31873471 </v>
   <v>      -0.22552416       0.32144928      -0.18363361 </v>
   <v>       0.44014222      -0.22696914       0.18455876 </v>
   <v>      -0.03197062      -0.13261628       0.08179345 </v>
   <v>      -0.44496009       0.47934690       0.30770123 </v>
   <v>      -0.05946518       0.45244714      -0.23536150 </v>
   <v>      -0.07616293       0.36893781       0.18486860 </v>
   <v>       0.47578412       0.48969905      -0.25452016 </v>
   <v>      -0.01536960      -0.45532486       0.26078290 </v>
   <v>      -0.41006970       0.30670049      -0.17126151 </v>
   <v>      -0.14594622      -0.08354521      -0.19912659 </v>
   <v>      -0.49278365      -0.33244444       0.34607352 </v>
   <v>       0.00934620      -0.13673930      -0.11272353 </v>
   <v>       0.42620906       0.37655406      -0.14064894 </v>
   <v>      -0.45628614       0.31832033       0.21815078 </v>
   <v>      -0.09764970       0.33753232      -0.22673059 </v>
   <v>       0.37245155      -0.29853511      -0.20638096 </v>
   <v>      -0.18508230       0.40707865       0.35252289 </v>
   <v>       0.30644138      -0.35762363       0.09984437 </v>
   <v>       0.09191300      -0.25663759       0.14595935 </v>
   <v>      -0.06770187      -0.20294432       0.32226287 </v>
   <v>      -0.04570143       0.29189094      -0.12531028 </v>
   <v>       0.04833839      -0.11478638      -0.00635602 </v>
   <v>      -0.25453312      -0.39069839       0.44025808 </v>
   <v>      -0.11171049       0.01746840      -0.04950321 </v>
   <v>       0.09023729       0.40680651       0.09678845 </v>
   <v>      -0.26718394      -0.10141335       0.34504751 </v>
   <v>       0.02978351      -0.29066878       0.30604160 </v>
   <v>       0.45670106      -0.45547509       0.36812411 </v>
   <v>      -0.13758718      -0.28823679      -0.41005681 </v>
   <v>       0.46607528      -0.03653055       0.16199474 </v>
   <v>      -0.16458353       0.17461065       0.04156870 </v>
   <v>       0.46309018      -0.03029760      -0.15171219 </v>
   <v>       0.43593286      -0.17145950      -0.30338695 </v>
   <v>      -0.33049378       0.08659838       0.00290455 </v>
   <v>      -0.14116891      -0.21854877       0.42449432 </v>
   <v>       0.18778795      -0.38328822       0.00124471 </v>
   <v>       0.03765949      -0.39517504       0.35448965 </v>
   <v>      -0.16015037      -0.31851251       0.47447419 </v>
   <v>       0.38434191      -0.44588851      -0.34837328 </v>
   <v>       0.37163228      -0.23277656       0.32503580 </v>
   <v>      -0.05533503      -0.37873947       0.44182061 </v>
   <v>      -0.31585398       0.25171688       0.33696872 </v>
   <v>       0.19215489      -0.46311964      -0.09197116 </v>
   <v>      -0.11450330       0.04014218      -0.18489180 </v>
   <v>      -0.37820905      -0.16221303       0.44086096 </v>
   <v>       0.05967309      -0.34049906      -0.34778128 </v>
   <v>      -0.28035437       0.25238609      -0.33015082 </v>
   <v>      -0.21073282       0.10921654      -0.03632818 </v>
   <v>       0.36017825       0.48528544       0.33367596 </v>
   <v>       0.41277887       0.32480687       0.27923396 </v>
   <v>       0.16889830      -0.16990831       0.02716263 </v>
   <v>       0.24669726      -0.24744951      -0.11724872 </v>
   <v>      -0.41984723      -0.33611929      -0.48187705 </v>
   <v>       0.19001787      -0.49976980       0.15586074 </v>
   <v>      -0.21524750       0.30221224       0.40394342 </v>
   <v>      -0.09879846       0.27501620      -0.32632944 </v>
   <v>       0.18626860      -0.41244887      -0.20626390 </v>
   <v>       0.25332374      -0.31992487       0.24023621 </v>
   <v>       0.19559512       0.42368169      -0.06199917 </v>
   <v>      -0.13866157       0.00432595       0.32889470 </v>
   <v>      -0.22527667       0.12090986      -0.16421696 </v>
   <v>      -0.00670900       0.06532220       0.09670566 </v>
   <v>      -0.45323470       0.12146250      -0.11009037 </v>
   <v>       0.28548186      -0.09094831      -0.13667118 </v>
   <v>       0.35766783       0.22620559       0.10978856 </v>
   <v>       0.12378388       0.31076424      -0.16668557 </v>
   <v>       0.00992635      -0.12622272       0.38507519 </v>
   <v>       0.43963376      -0.08824064       0.37293728 </v>
   <v>       0.09069900       0.01346605      -0.02131906 </v>
   <v>       0.24234386      -0.46883120       0.26900896 </v>
   <v>       0.35309880       0.00684952      -0.13581055 </v>
   <v>       0.45907880      -0.44771752       0.49300009 </v>
   <v>      -0.25856494       0.35027754      -0.48465309 </v>
   <v>      -0.45757822      -0.07670373       0.46007942 </v>
   <v>       0.32230977      -0.29457406      -0.40812342 </v>
   <v>      -0.01135427       0.07366822      -0.22303825 </v>
   <v>       0.14449242      -0.46280197       0.38823965 </v>
   <v>       0.30186086       0.26790582       0.21625342 </v>
   <v>      -0.38715472       0.03531971       0.40044023 </v>
   <v>       0.33476739       0.24002917      -0.23152693 </v>
   <v>      -0.48478547      -0.03935427      -0.43195059 </v>
   <v>       0.15919658      -0.20989047      -0.35062157 </v>
   <v>      -0.09977470       0.21369767       0.40457010 </v>
   <v>       0.33650848       0.05791582       0.14821995 </v>
   <v>       0.22049222       0.35035325       0.22198708 </v>
   <v>       0.16015911      -0.06855095      -0.26471902 </v>
   <v>       0.10868181       0.23527046       0.27911903 </v>
   <v>       0.02724582      -0.04353500      -0.39938261 </v>
   <v>       0.48059956       0.12125810       0.28870802 </v>
   <v>      -0.44427919       0.15114280       0.38186655 </v>
   <v>      -0.08696699       0.10285384       0.34881657 </v>
   <v>       0.33804596       0.11739392      -0.04655930 </v>
   <v>       0.00986700       0.12573488       0.26427358 </v>
   <v>      -0.48522851       0.22298571       0.46754048 </v>
   <v>       0.29091922       0.13200282       0.07118938 </v>
   <v>       0.31257264       0.04422236      -0.27638126 </v>
   <v>       0.17237492       0.15846379       0.07696074 </v>
   <v>       0.03434710      -0.04451380       0.47941706 </v>
   <v>       0.37278113       0.29729036       0.47666549 </v>
   <v>       0.25982878      -0.18473376       0.45358576 </v>
   <v>       0.02285772       0.15187177      -0.36697092 </v>
   <v>       0.27984073       0.00790235       0.36304056 </v>
   <v>       0.22494262      -0.24272039      -0.45969274 </v>
   <v>       0.17600798       0.17155813      -0.25403984 </v>
   <v>       0.25217110       0.18316796       0.31363434 </v>
   <v>       0.32050204       0.20721462      -0.41356418 </v>
   <v>      -0.01431990       0.07398407       0.47517731 </v>
   <v>       0.27185309       0.16139127      -0.31868130 </v>
   <v>       0.15051905      -0.01164314       0.43619315 </v>
  </varray>
 </structure>
 <varray name="primitive_index" >
  <v type="int" >        1 </v>
  <v type="int" >       92 </v>
  <v type="int" >      126 </v>
  <v type="int" >       55 </v>
  <v type="int" >       84 </v>
  <v type="int" >      100 </v>
  <v type="int" >      129 </v>
  <v type="int" >       13 </v>
  <v type="int" >       38 </v>
  <v type="int" >      122 </v>
  <v type="int" >       44 </v>
  <v type="int" >       12 </v>
  <v type="int" >       56 </v>
  <v type="int" >      108 </v>
  <v type="int" >       30 </v>
  <v type="int" >       43 </v>
  <v type="int" >       31 </v>
  <v type="int" >        8 </v>
  <v type="int" >       53 </v>
  <v type="int" >       14 </v>
  <v type="int" >       47 </v>
  <v type="int" >       66 </v>
  <v type="int" >       93 </v>
  <v type="int" >      106 </v>
  <v type="int" >       70 </v>
  <v type="int" >       91 </v>
  <v type="int" >      115 </v>
  <v type="int" >      134 </v>
  <v type="int" >       86 </v>
  <v type="int" >      104 </v>
  <v type="int" >       57 </v>
  <v type="int" >       97 </v>
  <v type="int" >       80 </v>
  <v type="int" >       81 </v>
  <v type="int" >       90 </v>
  <v type="int" >       83 </v>
  <v type="int" >       76 </v>
  <v type="int" >       65 </v>
  <v type="int" >        2 </v>
  <v type="int" >       25 </v>
  <v type="int" >       51 </v>
  <v type="int" >      121 </v>
  <v type="int" >       95 </v>
  <v type="int" >       16 </v>
  <v type="int" >       22 </v>
  <v type="int" >       29 </v>
  <v type="int" >       60 </v>
  <v type="int" >       32 </v>
  <v type="int" >       73 </v>
  <v type="int" >       82 </v>
  <v type="int" >        6 </v>
  <v type="int" >       19 </v>
  <v type="int" >      119 </v>
  <v type="int" >       45 </v>
  <v type="int" >       78 </v>
  <v type="int" >       23 </v>
  <v type="int" >       79 </v>
  <v type="int" >      113 </v>
  <v type="int" >       11 </v>
  <v type="int" >      130 </v>
  <v type="int" >       96 </v>
  <v type="int" >      131 </v>
  <v type="int" >       34 </v>
  <v type="int" >       36 </v>
  <v type="int" >       15 </v>
  <v type="int" >        7 </v>
  <v type="int" >      118 </v>
  <v type="int" >      109 </v>
  <v type="int" >       40 </v>
  <v type="int" >       48 </v>
  <v type="int" >      123 </v>
  <v type="int" >       27 </v>
  <v type="int" >        3 </v>
  <v type="int" >       33 </v>
  <v type="int" >       62 </v>
  <v type="int" >      112 </v>
  <v type="int" >       94 </v>
  <v type="int" >       18 </v>
  <v type="int" >       17 </v>
  <v type="int" >       58 </v>
  <v type="int" >       42 </v>
  <v type="int" >      116 </v>
  <v type="int" >      124 </v>
  <v type="int" >       72 </v>
  <v type="int" >      101 </v>
  <v type="int" >      135 </v>
  <v type="int" >      114 </v>
  <v type="int" >       10 </v>
  <v type="int" >       24 </v>
  <v type="int" >      125 </v>
  <v type="int" >      111 </v>
  <v type="int" >        5 </v>
  <v type="int" >       87 </v>
  <v type="int" >       74 </v>
  <v type="int" >       99 </v>
  <v type="int" >       46 </v>
  <v type="int" >       28 </v>
  <v type="int" >      103 </v>
  <v type="int" >       67 </v>
  <v type="int" >       41 </v>
  <v type="int" >       71 </v>
  <v type="int" >       64 </v>
  <v type="int" >      128 </v>
  <v type="int" >       50 </v>
  <v type="int" >      127 </v>
  <v type="int" >       85 </v>
  <v type="int" >      107 </v>
  <v type="int" >       98 </v>
  <v type="int" >       88 </v>
  <v type="int" >      102 </v>
  <v type="int" >       75 </v>
  <v type="int" >        9 </v>
  <v type="int" >       26 </v>
  <v type="int" >       89 </v>
  <v type="int" >       61 </v>
  <v type="int" >       49 </v>
  <v type="int" >       35 </v>
  <v type="int" >      133 </v>
  <v type="int" >       63 </v>
  <v type="int" >      105 </v>
  <v type="int" >       37 </v>
  <v type="int" >      120 </v>
  <v type="int" >      117 </v>
  <v type="int" >       52 </v>
  <v type="int" >        4 </v>
  <v type="int" >       77 </v>
  <v type="int" >       21 </v>
  <v type="int" >       20 </v>
  <v type="int" >       54 </v>
  <v type="int" >       59 </v>
  <v type="int" >      132 </v>
  <v type="int" >      110 </v>
  <v type="int" >       68 </v>
  <v type="int" >       39 </v>
  <v type="int" >       69 </v>
 </varray>
 <kpoints>
  <generation param="Gamma">
   <v type="int" name="divisions">       2        2        2 </v>
   <v name="usershift">      0.00000000       0.00000000       0.00000000 </v>
   <v name="genvec1">      0.50000000       0.00000000       0.00000000 </v>
   <v name="genvec2">      0.00000000       0.50000000       0.00000000 </v>
   <v name="genvec3">      0.00000000       0.00000000       0.50000000 </v>
   <v name="shift">      0.00000000       0.00000000       0.00000000 </v>
  </generation>
  <varray name="kpointlist" >
   <v>       0.00000000       0.00000000       0.00000000 </v>
   <v>       0.50000000       0.00000000       0.00000000 </v>
   <v>       0.00000000       0.50000000       0.00000000 </v>
   <v>       0.50000000       0.50000000       0.00000000 </v>
   <v>       0.00000000       0.00000000       0.50000000 </v>
   <v>       0.50000000       0.00000000       0.50000000 </v>
   <v>       0.00000000       0.50000000       0.50000000 </v>
   <v>       0.50000000       0.50000000       0.50000000 </v>
  </varray>
  <varray name="weights" >
   <v>       0.12500000 </v>
   <v>       0.12500000 </v>
   <v>       0.12500000 </v>
   <v>       0.12500000 </v>
   <v>       0.12500000 </v>
   <v>       0.12500000 </v>
   <v>       0.12500000 </v>
   <v>       0.12500000 </v>
  </varray>
 </kpoints>
 <parameters>
  <separator name="general" >
   <i type="string" name="SYSTEM">unknown system</i>
   <i type="logical" name="LCOMPAT"> F  </i>
  </separator>
  <separator name="electronic" >
   <i type="string" name="PREC">a</i>
   <i name="ENMAX">    600.00000000</i>
   <i name="ENAUG">    605.39200000</i>
   <i name="EDIFF">      0.00000100</i>
   <i type="int" name="IALGO">    38</i>
   <i type="int" name="IWAVPR">    10</i>
   <i type="int" name="NBANDS">   520</i>
   <i name="NELECT">    864.00000000</i>
   <i type="int" name="TURBO">     0</i>
   <i type="int" name="IRESTART">     0</i>
   <i type="int" name="NREBOOT">     0</i>
   <i type="int" name="NMIN">     0</i>
   <i name="EREF">      0.00000000</i>
   <separator name="electronic smearing" >
    <i type="int" name="ISMEAR">     0</i>
    <i name="SIGMA">      0.05000000</i>
    <i name="KSPACING">      0.30000000</i>
    <i type="logical" name="KGAMMA"> T  </i>
   </separator>
   <separator name="electronic projectors" >
    <i type="logical" name="LREAL"> T  </i>
    <v name="ROPT">     -0.00025000     -0.00025000     -0.00025000</v>
    <i type="int" name="LMAXPAW">  -100</i>
    <i type="int" name="LMAXMIX">     2</i>
    <i type="logical" name="NLSPLINE"> F  </i>
   </separator>
   <separator name="electronic startup" >
    <i type="int" name="ISTART">     0</i>
    <i type="int" name="ICHARG">     2</i>
    <i type="int" name="INIWAV">     1</i>
   </separator>
   <separator name="electronic spin" >
    <i type="int" name="ISPIN">     1</i>
    <i type="logical" name="LNONCOLLINEAR"> F  </i>
    <v name="MAGMOM">      1.00000000      1.00000000      1.00000000      1.00000000      1.00000000      1.00000000      1.00000000      1.00000000      1.00000000      1.00000000      1.00000000      1.00000000      1.00000000      1.00000000      1.00000000      1.00000000      1.00000000      1.00000000      1.00000000      1.00000000
      1.00000000      1.00000000      1.00000000      1.00000000      1.00000000      1.00000000      1.00000000      1.00000000      1.00000000      1.00000000      1.00000000      1.00000000      1.00000000      1.00000000      1.00000000      1.00000000      1.00000000      1.00000000      1.00000000      1.00000000
      1.00000000      1.00000000      1.00000000      1.00000000      1.00000000      1.00000000      1.00000000      1.00000000      1.00000000      1.00000000      1.00000000      1.00000000      1.00000000      1.00000000      1.00000000      1.00000000      1.00000000      1.00000000      1.00000000      1.00000000
      1.00000000      1.00000000      1.00000000      1.00000000      1.00000000      1.00000000      1.00000000      1.00000000      1.00000000      1.00000000      1.00000000      1.00000000      1.00000000      1.00000000      1.00000000      1.00000000      1.00000000      1.00000000      1.00000000      1.00000000
      1.00000000      1.00000000      1.00000000      1.00000000      1.00000000      1.00000000      1.00000000      1.00000000      1.00000000      1.00000000      1.00000000      1.00000000      1.00000000      1.00000000      1.00000000      1.00000000      1.00000000      1.00000000      1.00000000      1.00000000
      1.00000000      1.00000000      1.00000000      1.00000000      1.00000000      1.00000000      1.00000000      1.00000000      1.00000000      1.00000000      1.00000000      1.00000000      1.00000000      1.00000000      1.00000000      1.00000000      1.00000000      1.00000000      1.00000000      1.00000000
      1.00000000      1.00000000      1.00000000      1.00000000      1.00000000      1.00000000      1.00000000      1.00000000      1.00000000      1.00000000      1.00000000      1.00000000      1.00000000      1.00000000      1.00000000</v>
    <i name="NUPDOWN">     -1.00000000</i>
    <i type="logical" name="LSORBIT"> F  </i>
    <v name="SAXIS">      0.00000000      0.00000000      1.00000000</v>
    <i type="logical" name="LSPIRAL"> F  </i>
    <v name="QSPIRAL">      0.00000000      0.00000000      0.00000000</v>
    <i type="logical" name="LZEROZ"> F  </i>
   </separator>
   <separator name="electronic exchange-correlation" >
    <i type="logical" name="LASPH"> F  </i>
    <i type="logical" name="LMETAGGA"> F  </i>
   </separator>
   <separator name="electronic convergence" >
    <i type="int" name="NELM">    60</i>
    <i type="int" name="NELMDL">    -5</i>
    <i type="int" name="NELMIN">     2</i>
    <i name="ENINI">    600.00000000</i>
    <separator name="electronic convergence detail" >
     <i type="logical" name="LDIAG"> T  </i>
     <i type="logical" name="LSUBROT"> F  </i>
     <i name="WEIMIN">      0.00000000</i>
     <i name="EBREAK">      0.00000000</i>
     <i name="DEPER">      0.30000000</i>
     <i type="int" name="NRMM">     4</i>
     <i name="TIME">      0.40000000</i>
    </separator>
   </separator>
   <separator name="electronic mixer" >
    <i name="AMIX">      0.40000000</i>
    <i name="BMIX">      1.00000000</i>
    <i name="AMIN">      0.10000000</i>
    <i name="AMIX_MAG">      1.60000000</i>
    <i name="BMIX_MAG">      1.00000000</i>
    <separator name="electronic mixer details" >
     <i type="int" name="IMIX">     4</i>
     <i type="logical" name="MIXFIRST"> F  </i>
     <i type="int" name="MAXMIX">   -45</i>
     <i name="WC">    100.00000000</i>
     <i type="int" name="INIMIX">     1</i>
     <i type="int" name="MIXPRE">     1</i>
     <i type="int" name="MREMOVE">     5</i>
    </separator>
   </separator>
   <separator name="electronic dipolcorrection" >
    <i type="logical" name="LDIPOL"> F  </i>
    <i type="logical" name="LMONO"> F  </i>
    <i type="int" name="IDIPOL">     0</i>
    <i name="EPSILON">      1.00000000</i>
    <v name="DIPOL">   -100.00000000   -100.00000000   -100.00000000</v>
    <i name="EFIELD">      0.00000000</i>
   </separator>
  </separator>
  <separator name="grids" >
   <i type="int" name="NGX">   108</i>
   <i type="int" name="NGY">   108</i>
   <i type="int" name="NGZ">   108</i>
   <i type="int" name="NGXF">   216</i>
   <i type="int" name="NGYF">   216</i>
   <i type="int" name="NGZF">   216</i>
   <i type="logical" name="ADDGRID"> T  </i>
  </separator>
  <separator name="ionic" >
   <i type="int" name="NSW">     1</i>
   <i type="int" name="IBRION">    -1</i>
   <i type="int" name="MDALGO">     0</i>
   <i type="int" name="ISIF">     2</i>
   <i name="PSTRESS">      0.00000000</i>
   <i name="EDIFFG">     -0.01000000</i>
   <i type="int" name="NFREE">     0</i>
   <i name="POTIM">      1.00000000</i>
   <i name="SMASS">     -3.00000000</i>
   <i name="SCALEE">      1.00000000</i>
  </separator>
  <separator name="ionic md" >
   <i name="TEBEG">      0.00010000</i>
   <i name="TEEND">      0.00010000</i>
   <i type="int" name="NBLOCK">     1</i>
   <i type="int" name="KBLOCK">     1</i>
   <i type="int" name="NPACO">   256</i>
   <i name="APACO">     16.00000000</i>
  </separator>
  <separator name="symmetry" >
   <i type="int" name="ISYM">     0</i>
   <i name="SYMPREC">      0.00001000</i>
  </separator>
  <separator name="dos" >
   <i type="int" name="LORBIT">     0</i>
   <v name="RWIGS">     -1.00000000     -1.00000000     -1.00000000</v>
   <i type="int" name="NEDOS">   301</i>
   <i name="EMIN">     10.00000000</i>
   <i name="EMAX">    -10.00000000</i>
   <i name="EFERMI">      0.00000000</i>
  </separator>
  <separator name="writing" >
   <i type="int" name="NWRITE">     2</i>
   <i type="logical" name="LWAVE"> F  </i>
   <i type="logical" name="LDOWNSAMPLE"> F  </i>
   <i type="logical" name="LCHARG"> F  </i>
   <i type="logical" name="LPARD"> F  </i>
   <i type="logical" name="LVTOT"> F  </i>
   <i type="logical" name="LVHAR"> F  </i>
   <i type="logical" name="LELF"> F  </i>
   <i type="logical" name="LOPTICS"> F  </i>
   <v name="STM">      0.00000000      0.00000000      0.00000000      0.00000000      0.00000000      0.00000000      0.00000000</v>
  </separator>
  <separator name="performance" >
   <i type="int" name="NPAR">     4</i>
   <i type="int" name="NSIM">     4</i>
   <i type="int" name="NBLK">    -1</i>
   <i type="logical" name="LPLANE"> T  </i>
   <i type="logical" name="LSCALAPACK"> F  </i>
   <i type="logical" name="LSCAAWARE"> F  </i>
   <i type="logical" name="LSCALU"> F  </i>
   <i type="logical" name="LASYNC"> F  </i>
   <i type="logical" name="LORBITALREAL"> F  </i>
  </separator>
  <separator name="miscellaneous" >
   <i type="int" name="IDIOT">     3</i>
   <i type="int" name="ISPECIAL">     0</i>
   <i type="logical" name="LMUSIC"> F  </i>
   <v name="POMASS">     40.07800000     28.08500000     16.00000000</v>
   <v name="DARWINR">      0.00000000      0.00000000      0.00000000</v>
   <v name="DARWINV">      1.00000000      1.00000000      1.00000000</v>
   <i type="logical" name="LCORR"> T  </i>
  </separator>
  <i type="logical" name="GGA_COMPAT"> T  </i>
  <i type="logical" name="LBERRY"> F  </i>
  <i type="int" name="ICORELEVEL">     0</i>
  <i type="logical" name="LDAU"> F  </i>
  <i type="int" name="I_CONSTRAINED_M">     0</i>
  <separator name="electronic exchange-correlation" >
   <i type="string" name="GGA">--</i>
   <i type="int" name="VOSKOWN">     0</i>
   <i type="logical" name="LHFCALC"> F  </i>
   <i type="string" name="PRECFOCK"></i>
   <i type="logical" name="LSYMGRAD"> F  </i>
   <i type="logical" name="LHFONE"> F  </i>
   <i type="logical" name="LRHFCALC"> F  </i>
   <i type="logical" name="LTHOMAS"> F  </i>
   <i type="logical" name="LMODELHF"> F  </i>
   <i name="ENCUT4O">     -1.00000000</i>
   <i type="int" name="EXXOEP">     0</i>
   <i type="int" name="FOURORBIT">     0</i>
   <i name="AEXX">      0.00000000</i>
   <i name="HFALPHA">      0.00000000</i>
   <i name="MCALPHA">      0.00000000</i>
   <i name="ALDAX">      1.00000000</i>
   <i name="AGGAX">      1.00000000</i>
   <i name="ALDAC">      1.00000000</i>
   <i name="AGGAC">      1.00000000</i>
   <i type="int" name="NKREDX">     1</i>
   <i type="int" name="NKREDY">     1</i>
   <i type="int" name="NKREDZ">     1</i>
   <i type="logical" name="SHIFTRED"> F  </i>
   <i type="logical" name="ODDONLY"> F  </i>
   <i type="logical" name="EVENONLY"> F  </i>
   <i type="int" name="LMAXFOCK">     0</i>
   <i type="int" name="NMAXFOCKAE">     0</i>
   <i type="logical" name="LFOCKAEDFT"> F  </i>
   <i name="HFSCREEN">      0.00000000</i>
   <i name="HFSCREENC">      0.00000000</i>
   <i type="int" name="NBANDSGWLOW">     0</i>
  </separator>
  <separator name="vdW DFT" >
   <i type="logical" name="LUSE_VDW"> F  </i>
   <i name="Zab_VDW">     -0.84910000</i>
   <i name="PARAM1">      0.12340000</i>
   <i name="PARAM2">      1.00000000</i>
   <i name="PARAM3">      0.00000000</i>
  </separator>
  <separator name="model GW" >
   <i type="int" name="MODEL_GW">     0</i>
   <i name="MODEL_EPS0">     10.48197768</i>
   <i name="MODEL_ALPHA">      1.00000000</i>
  </separator>
  <separator name="linear response parameters" >
   <i type="logical" name="LEPSILON"> F  </i>
   <i type="logical" name="LRPA"> F  </i>
   <i type="logical" name="LNABLA"> F  </i>
   <i type="logical" name="LVEL"> F  </i>
   <i type="int" name="KINTER">     0</i>
   <i name="CSHIFT">      0.10000000</i>
   <i name="OMEGAMAX">     -1.00000000</i>
   <i name="DEG_THRESHOLD">      0.00200000</i>
   <i name="RTIME">     -0.10000000</i>
   <i name="WPLASMAI">      0.00000000</i>
   <v name="DFIELD">      0.00000000      0.00000000      0.00000000</v>
   <v name="WPLASMA">      0.00000000      0.00000000      0.00000000      0.00000000      0.00000000      0.00000000      0.00000000      0.00000000      0.00000000</v>
  </separator>
  <separator name="orbital magnetization" >
   <i type="logical" name="NUCIND"> F  </i>
   <v name="MAGPOS">      0.00000000      0.00000000      0.00000000</v>
   <i type="logical" name="LNICSALL"> T  </i>
   <i type="logical" name="ORBITALMAG"> F  </i>
   <i type="logical" name="LMAGBLOCH"> F  </i>
   <i type="logical" name="LCHIMAG"> F  </i>
   <i type="logical" name="LGAUGE"> T  </i>
   <i type="int" name="MAGATOM">     0</i>
   <v name="MAGDIPOL">      0.00000000      0.00000000      0.00000000</v>
   <v name="AVECCONST">      0.00000000      0.00000000      0.00000000</v>
  </separator>
  <separator name="response functions" >
   <i type="logical" name="LADDER"> F  </i>
   <i type="logical" name="LRPAFORCE"> F  </i>
   <i type="logical" name="LFXC"> F  </i>
   <i type="logical" name="LHARTREE"> T  </i>
   <i type="int" name="IBSE">     0</i>
   <v type="int" name="KPOINT">    -1     0     0     0</v>
   <i type="logical" name="LTCTE"> F  </i>
   <i type="logical" name="LTETE"> F  </i>
   <i type="logical" name="LTRIPLET"> F  </i>
   <i type="logical" name="LFXCEPS"> F  </i>
   <i type="logical" name="LFXHEG"> F  </i>
   <i type="int" name="NATURALO">     2</i>
   <i type="logical" name="L2ORDER"> F  </i>
   <i type="logical" name="LMP2LT"> F  </i>
   <i type="logical" name="LUSEW"> F  </i>
   <i name="ENCUTGW">     -2.00000000</i>
   <i name="ENCUTGWSOFT">     -2.00000000</i>
   <i name="ENCUTLF">     -1.00000000</i>
   <i type="int" name="LMAXMP2">    -1</i>
   <i name="SCISSOR">      0.00000000</i>
   <i type="int" name="NOMEGA">     0</i>
   <i type="int" name="NOMEGAR">     0</i>
   <i type="int" name="NBANDSGW">    -1</i>
   <i type="int" name="NBANDSO">    -1</i>
   <i type="int" name="NBANDSV">    -1</i>
   <i type="int" name="NELM">     1</i>
   <i type="int" name="NELMHF">     1</i>
   <i type="int" name="DIM">     3</i>
   <i type="int" name="ANTIRES">     0</i>
   <i name="OMEGAMAX">    -30.00000000</i>
   <i name="OMEGAMIN">    -30.00000000</i>
   <i name="OMEGATL">   -200.00000000</i>
   <i type="int" name="OMEGAGRID">   140</i>
   <i name="CSHIFT">     -0.10000000</i>
   <i type="logical" name="SELFENERGY"> F  </i>
   <i type="logical" name="LSPECTRAL"> F  </i>
   <i type="logical" name="LSPECTRALGW"> F  </i>
   <i type="logical" name="LSINGLES"> F  </i>
   <i type="logical" name="LFERMIGW"> F  </i>
   <i type="logical" name="ODDONLYGW"> F  </i>
   <i type="logical" name="EVENONLYGW"> F  </i>
   <i type="int" name="NKREDLFX">     1</i>
   <i type="int" name="NKREDLFY">     1</i>
   <i type="int" name="NKREDLFZ">     1</i>
   <i type="int" name="MAXMEM">  2800</i>
   <i type="int" name="TELESCOPE">     0</i>
   <i type="int" name="TAUPAR">     1</i>
   <i type="int" name="OMEGAPAR">    -1</i>
   <i name="LAMBDA">      1.00000000</i>
  </separator>
  <separator name="External order field" >
   <i name="OFIELD_KAPPA">      0.00000000</i>
   <v name="OFIELD_K">      0.00000000      0.00000000      0.00000000</v>
   <i name="OFIELD_Q6_NEAR">      0.00000000</i>
   <i name="OFIELD_Q6_FAR">      0.00000000</i>
   <i name="OFIELD_A">      0.00000000</i>
  </separator>
 </parameters>
 <atominfo>
  <atoms>     135 </atoms>
  <types>       3 </types>
  <array name="atoms" >
   <dimension dim="1">ion</dimension>
   <field type="string">element</field>
   <field type="int">atomtype</field>
   <set>
    <rc><c>Ca</c><c>   1</c></rc>
    <rc><c>Ca</c><c>   1</c></rc>
    <rc><c>Ca</c><c>   1</c></rc>
    <rc><c>Ca</c><c>   1</c></rc>
    <rc><c>Ca</c><c>   1</c></rc>
    <rc><c>Ca</c><c>   1</c></rc>
    <rc><c>Ca</c><c>   1</c></rc>
    <rc><c>Ca</c><c>   1</c></rc>
    <rc><c>Ca</c><c>   1</c></rc>
    <rc><c>Ca</c><c>   1</c></rc>
    <rc><c>Ca</c><c>   1</c></rc>
    <rc><c>Ca</c><c>   1</c></rc>
    <rc><c>Ca</c><c>   1</c></rc>
    <rc><c>Ca</c><c>   1</c></rc>
    <rc><c>Ca</c><c>   1</c></rc>
    <rc><c>Ca</c><c>   1</c></rc>
    <rc><c>Ca</c><c>   1</c></rc>
    <rc><c>Ca</c><c>   1</c></rc>
    <rc><c>Ca</c><c>   1</c></rc>
    <rc><c>Ca</c><c>   1</c></rc>
    <rc><c>Ca</c><c>   1</c></rc>
    <rc><c>Ca</c><c>   1</c></rc>
    <rc><c>Ca</c><c>   1</c></rc>
    <rc><c>Ca</c><c>   1</c></rc>
    <rc><c>Ca</c><c>   1</c></rc>
    <rc><c>Ca</c><c>   1</c></rc>
    <rc><c>Ca</c><c>   1</c></rc>
    <rc><c>Si</c><c>   2</c></rc>
    <rc><c>Si</c><c>   2</c></rc>
    <rc><c>Si</c><c>   2</c></rc>
    <rc><c>Si</c><c>   2</c></rc>
    <rc><c>Si</c><c>   2</c></rc>
    <rc><c>Si</c><c>   2</c></rc>
    <rc><c>Si</c><c>   2</c></rc>
    <rc><c>Si</c><c>   2</c></rc>
    <rc><c>Si</c><c>   2</c></rc>
    <rc><c>Si</c><c>   2</c></rc>
    <rc><c>Si</c><c>   2</c></rc>
    <rc><c>Si</c><c>   2</c></rc>
    <rc><c>Si</c><c>   2</c></rc>
    <rc><c>Si</c><c>   2</c></rc>
    <rc><c>Si</c><c>   2</c></rc>
    <rc><c>Si</c><c>   2</c></rc>
    <rc><c>Si</c><c>   2</c></rc>
    <rc><c>Si</c><c>   2</c></rc>
    <rc><c>Si</c><c>   2</c></rc>
    <rc><c>Si</c><c>   2</c></rc>
    <rc><c>Si</c><c>   2</c></rc>
    <rc><c>Si</c><c>   2</c></rc>
    <rc><c>Si</c><c>   2</c></rc>
    <rc><c>Si</c><c>   2</c></rc>
    <rc><c>Si</c><c>   2</c></rc>
    <rc><c>Si</c><c>   2</c></rc>
    <rc><c>Si</c><c>   2</c></rc>
    <rc><c>O </c><c>   3</c></rc>
    <rc><c>O </c><c>   3</c></rc>
    <rc><c>O </c><c>   3</c></rc>
    <rc><c>O </c><c>   3</c></rc>
    <rc><c>O </c><c>   3</c></rc>
    <rc><c>O </c><c>   3</c></rc>
    <rc><c>O </c><c>   3</c></rc>
    <rc><c>O </c><c>   3</c></rc>
    <rc><c>O </c><c>   3</c></rc>
    <rc><c>O </c><c>   3</c></rc>
    <rc><c>O </c><c>   3</c></rc>
    <rc><c>O </c><c>   3</c></rc>
    <rc><c>O </c><c>   3</c></rc>
    <rc><c>O </c><c>   3</c></rc>
    <rc><c>O </c><c>   3</c></rc>
    <rc><c>O </c><c>   3</c></rc>
    <rc><c>O </c><c>   3</c></rc>
    <rc><c>O </c><c>   3</c></rc>
    <rc><c>O </c><c>   3</c></rc>
    <rc><c>O </c><c>   3</c></rc>
    <rc><c>O </c><c>   3</c></rc>
    <rc><c>O </c><c>   3</c></rc>
    <rc><c>O </c><c>   3</c></rc>
    <rc><c>O </c><c>   3</c></rc>
    <rc><c>O </c><c>   3</c></rc>
    <rc><c>O </c><c>   3</c></rc>
    <rc><c>O </c><c>   3</c></rc>
    <rc><c>O </c><c>   3</c></rc>
    <rc><c>O </c><c>   3</c></rc>
    <rc><c>O </c><c>   3</c></rc>
    <rc><c>O </c><c>   3</c></rc>
    <rc><c>O </c><c>   3</c></rc>
    <rc><c>O </c><c>   3</c></rc>
    <rc><c>O </c><c>   3</c></rc>
    <rc><c>O </c><c>   3</c></rc>
    <rc><c>O </c><c>   3</c></rc>
    <rc><c>O </c><c>   3</c></rc>
    <rc><c>O </c><c>   3</c></rc>
    <rc><c>O </c><c>   3</c></rc>
    <rc><c>O </c><c>   3</c></rc>
    <rc><c>O </c><c>   3</c></rc>
    <rc><c>O </c><c>   3</c></rc>
    <rc><c>O </c><c>   3</c></rc>
    <rc><c>O </c><c>   3</c></rc>
    <rc><c>O </c><c>   3</c></rc>
    <rc><c>O </c><c>   3</c></rc>
    <rc><c>O </c><c>   3</c></rc>
    <rc><c>O </c><c>   3</c></rc>
    <rc><c>O </c><c>   3</c></rc>
    <rc><c>O </c><c>   3</c></rc>
    <rc><c>O </c><c>   3</c></rc>
    <rc><c>O </c><c>   3</c></rc>
    <rc><c>O </c><c>   3</c></rc>
    <rc><c>O </c><c>   3</c></rc>
    <rc><c>O </c><c>   3</c></rc>
    <rc><c>O </c><c>   3</c></rc>
    <rc><c>O </c><c>   3</c></rc>
    <rc><c>O </c><c>   3</c></rc>
    <rc><c>O </c><c>   3</c></rc>
    <rc><c>O </c><c>   3</c></rc>
    <rc><c>O </c><c>   3</c></rc>
    <rc><c>O </c><c>   3</c></rc>
    <rc><c>O </c><c>   3</c></rc>
    <rc><c>O </c><c>   3</c></rc>
    <rc><c>O </c><c>   3</c></rc>
    <rc><c>O </c><c>   3</c></rc>
    <rc><c>O </c><c>   3</c></rc>
    <rc><c>O </c><c>   3</c></rc>
    <rc><c>O </c><c>   3</c></rc>
    <rc><c>O </c><c>   3</c></rc>
    <rc><c>O </c><c>   3</c></rc>
    <rc><c>O </c><c>   3</c></rc>
    <rc><c>O </c><c>   3</c></rc>
    <rc><c>O </c><c>   3</c></rc>
    <rc><c>O </c><c>   3</c></rc>
    <rc><c>O </c><c>   3</c></rc>
    <rc><c>O </c><c>   3</c></rc>
    <rc><c>O </c><c>   3</c></rc>
    <rc><c>O </c><c>   3</c></rc>
    <rc><c>O </c><c>   3</c></rc>
    <rc><c>O </c><c>   3</c></rc>
   </set>
  </array>
  <array name="atomtypes" >
   <dimension dim="1">type</dimension>
   <field type="int">atomspertype</field>
   <field type="string">element</field>
   <field>mass</field>
   <field>valence</field>
   <field type="string">pseudopotential</field>
   <set>
    <rc><c>  27</c><c>Ca</c><c>     40.07800000</c><c>     10.00000000</c><c>  PAW_PBE Ca_sv 06Sep2000               </c></rc>
    <rc><c>  27</c><c>Si</c><c>     28.08500000</c><c>      4.00000000</c><c>  PAW_PBE Si 05Jan2001                  </c></rc>
    <rc><c>  81</c><c>O </c><c>     16.00000000</c><c>      6.00000000</c><c>  PAW_PBE O 08Apr2002                   </c></rc>
   </set>
  </array>
 </atominfo>
 <structure name="initialpos" >
  <crystal>
   <varray name="basis" >
    <v>      13.31093562       0.00000000       0.00000000 </v>
    <v>       0.00000000      13.31093562       0.00000000 </v>
    <v>       0.00000000       0.00000000      13.31093562 </v>
   </varray>
   <i name="volume">   2358.44497833 </i>
   <varray name="rec_basis" >
    <v>       0.07512620       0.00000000       0.00000000 </v>
    <v>       0.00000000       0.07512620       0.00000000 </v>
    <v>       0.00000000       0.00000000       0.07512620 </v>
   </varray>
  </crystal>
  <varray name="positions" >
   <v>       0.71475453       0.61763644       0.00678773 </v>
   <v>       0.42620906       0.37655406       0.85935106 </v>
   <v>       0.71964563       0.25238609       0.66984918 </v>
   <v>       0.37278113       0.29729036       0.47666549 </v>
   <v>       0.12378388       0.31076424       0.83331443 </v>
   <v>       0.09023729       0.40680651       0.09678845 </v>
   <v>       0.37163228       0.76722344       0.32503580 </v>
   <v>       0.88501603       0.35971847       0.02077699 </v>
   <v>       0.16015911       0.93144905       0.73528098 </v>
   <v>       0.99329100       0.06532220       0.09670566 </v>
   <v>       0.43593286       0.82854050       0.69661305 </v>
   <v>       0.67076511       0.58133965       0.27634397 </v>
   <v>       0.76052626       0.84611917       0.09685741 </v>
   <v>       0.76288651       0.77515932       0.72755660 </v>
   <v>       0.38434191       0.55411149       0.65162672 </v>
   <v>       0.30644138       0.64237637       0.09984437 </v>
   <v>       0.58015277       0.66388071       0.51812295 </v>
   <v>       0.24669726       0.75255049       0.88275128 </v>
   <v>       0.73281606       0.89858665       0.34504751 </v>
   <v>       0.27984073       0.00790235       0.36304056 </v>
   <v>       0.02285772       0.15187177       0.63302908 </v>
   <v>       0.09191300       0.74336241       0.14595935 </v>
   <v>       0.46607528       0.96346945       0.16199474 </v>
   <v>       0.54676530       0.12146250       0.88990963 </v>
   <v>       0.54371386       0.31832033       0.21815078 </v>
   <v>       0.10868181       0.23527046       0.27911903 </v>
   <v>       0.05967309       0.65950094       0.65221872 </v>
   <v>       0.35309880       0.00684952       0.86418945 </v>
   <v>       0.93229813       0.79705568       0.32226287 </v>
   <v>       0.58841068       0.55554491       0.75078282 </v>
   <v>       0.44659929       0.66142591       0.88534938 </v>
   <v>       0.04833839       0.88521362       0.99364398 </v>
   <v>       0.78926718       0.10921654       0.96367182 </v>
   <v>       0.03765949       0.60482496       0.35448965 </v>
   <v>       0.91303301       0.10285384       0.34881657 </v>
   <v>       0.83984963       0.68148749       0.47447419 </v>
   <v>       0.29091922       0.13200282       0.07118938 </v>
   <v>       0.55973779       0.73167355       0.16643846 </v>
   <v>       0.27185309       0.16139127       0.68131870 </v>
   <v>       0.19215489       0.53688036       0.90802884 </v>
   <v>       0.54242178       0.92329627       0.46007942 </v>
   <v>       0.78475250       0.30221224       0.40394342 </v>
   <v>       0.94624338       0.56117847       0.83346793 </v>
   <v>       0.67268225       0.38692477       0.86274699 </v>
   <v>       0.45670106       0.54452491       0.36812411 </v>
   <v>       0.24234386       0.53116880       0.26900896 </v>
   <v>       0.87733430       0.46693506       0.24713989 </v>
   <v>       0.88549670       0.04014218       0.81510820 </v>
   <v>       0.55572081       0.15114280       0.38186655 </v>
   <v>       0.30186086       0.26790582       0.21625342 </v>
   <v>       0.90235030       0.33753232       0.77326941 </v>
   <v>       0.03434710       0.95548620       0.47941706 </v>
   <v>       0.87549509       0.88175574       0.92092812 </v>
   <v>       0.22494262       0.75727961       0.54030726 </v>
   <v>       0.68892218       0.42423970       0.96546581 </v>
   <v>       0.64766789       0.80546427       0.19931538 </v>
   <v>       0.94053482       0.45244714       0.76463850 </v>
   <v>       0.19001787       0.50023020       0.15586074 </v>
   <v>       0.17600798       0.17155813       0.74596016 </v>
   <v>       0.95429857       0.29189094       0.87468972 </v>
   <v>       0.48059956       0.12125810       0.28870802 </v>
   <v>       0.36017825       0.48528544       0.33367596 </v>
   <v>       0.00986700       0.12573488       0.26427358 </v>
   <v>       0.98864573       0.07366822       0.77696175 </v>
   <v>       0.00934620       0.86326070       0.88727647 </v>
   <v>       0.02186876       0.51423069       0.91048477 </v>
   <v>       0.74143506       0.35027754       0.51534691 </v>
   <v>       0.98568010       0.07398407       0.47517731 </v>
   <v>       0.15051905       0.98835686       0.43619315 </v>
   <v>       0.96478643       0.66061572       0.77585677 </v>
   <v>       0.32230977       0.70542594       0.59187658 </v>
   <v>       0.25332374       0.68007513       0.24023621 </v>
   <v>       0.74546688       0.60930161       0.44025808 </v>
   <v>       0.43963376       0.91175936       0.37293728 </v>
   <v>       0.22049222       0.35035325       0.22198708 </v>
   <v>       0.50721635       0.66755556       0.34607352 </v>
   <v>       0.25982878       0.81526624       0.45358576 </v>
   <v>       0.86241282       0.71176321       0.58994319 </v>
   <v>       0.83541647       0.17461065       0.04156870 </v>
   <v>       0.47578412       0.48969905       0.74547984 </v>
   <v>       0.98463040       0.54467514       0.26078290 </v>
   <v>       0.88828951       0.01746840       0.95049679 </v>
   <v>       0.85405378       0.91645479       0.80087341 </v>
   <v>       0.80430531       0.78799762       0.94731080 </v>
   <v>       0.33476739       0.24002917       0.76847307 </v>
   <v>       0.96802938       0.86738372       0.08179345 </v>
   <v>       0.00992635       0.87377728       0.38507519 </v>
   <v>       0.90022530       0.21369767       0.40457010 </v>
   <v>       0.02724582       0.95646500       0.60061739 </v>
   <v>       0.58993030       0.30670049       0.82873849 </v>
   <v>       0.57766326       0.65720445       0.68126529 </v>
   <v>       0.60975819       0.63095300       0.11600871 </v>
   <v>       0.85587794       0.82807512       0.23382538 </v>
   <v>       0.16889830       0.83009169       0.02716263 </v>
   <v>       0.81491770       0.40707865       0.35252289 </v>
   <v>       0.85883109       0.78145123       0.42449432 </v>
   <v>       0.92383707       0.36893781       0.18486860 </v>
   <v>       0.15919658       0.79010953       0.64937843 </v>
   <v>       0.09069900       0.01346605       0.97868094 </v>
   <v>       0.80484859       0.54227421       0.19365427 </v>
   <v>       0.19559512       0.42368169       0.93800083 </v>
   <v>       0.33650848       0.05791582       0.14821995 </v>
   <v>       0.45907880       0.55228248       0.49300009 </v>
   <v>       0.55503991       0.47934690       0.30770123 </v>
   <v>       0.51477149       0.22298571       0.46754048 </v>
   <v>       0.38833940       0.54499621       0.93793098 </v>
   <v>       0.51521453       0.96064573       0.56804941 </v>
   <v>       0.45694827       0.72233003       0.99360301 </v>
   <v>       0.68414602       0.25171688       0.33696872 </v>
   <v>       0.32050204       0.20721462       0.58643582 </v>
   <v>       0.35766783       0.22620559       0.10978856 </v>
   <v>       0.41277887       0.32480687       0.27923396 </v>
   <v>       0.46309018       0.96970240       0.84828781 </v>
   <v>       0.77472333       0.12090986       0.83578304 </v>
   <v>       0.77447584       0.32144928       0.81636639 </v>
   <v>       0.90120154       0.27501620       0.67367056 </v>
   <v>       0.17237492       0.15846379       0.07696074 </v>
   <v>       0.94466497       0.62126053       0.44182061 </v>
   <v>       0.02978351       0.70933122       0.30604160 </v>
   <v>       0.31257264       0.04422236       0.72361874 </v>
   <v>       0.37245155       0.70146489       0.79361904 </v>
   <v>       0.67233045       0.48456282       0.77877244 </v>
   <v>       0.62179095       0.83778697       0.44086096 </v>
   <v>       0.18626860       0.58755113       0.79373610 </v>
   <v>       0.28548186       0.90905169       0.86332882 </v>
   <v>       0.81487379       0.58150352       0.85869759 </v>
   <v>       0.61284528       0.03531971       0.40044023 </v>
   <v>       0.14449242       0.53719803       0.38823965 </v>
   <v>       0.56362095       0.64070727       0.84558510 </v>
   <v>       0.66950622       0.08659838       0.00290455 </v>
   <v>       0.18778795       0.61671178       0.00124471 </v>
   <v>       0.25217110       0.18316796       0.31363434 </v>
   <v>       0.33804596       0.11739392       0.95344070 </v>
   <v>       0.44014222       0.77303086       0.18455876 </v>
   <v>       0.86133843       0.00432595       0.32889470 </v>
  </varray>
  <varray name="velocities" >
   <v>       0.00000000       0.00000000       0.00000000 </v>
   <v>       0.00000000       0.00000000       0.00000000 </v>
   <v>       0.00000000       0.00000000       0.00000000 </v>
   <v>       0.00000000       0.00000000       0.00000000 </v>
   <v>       0.00000000       0.00000000       0.00000000 </v>
   <v>       0.00000000       0.00000000       0.00000000 </v>
   <v>       0.00000000       0.00000000       0.00000000 </v>
   <v>       0.00000000       0.00000000       0.00000000 </v>
   <v>       0.00000000       0.00000000       0.00000000 </v>
   <v>       0.00000000       0.00000000       0.00000000 </v>
   <v>       0.00000000       0.00000000       0.00000000 </v>
   <v>       0.00000000       0.00000000       0.00000000 </v>
   <v>       0.00000000       0.00000000       0.00000000 </v>
   <v>       0.00000000       0.00000000       0.00000000 </v>
   <v>       0.00000000       0.00000000       0.00000000 </v>
   <v>       0.00000000       0.00000000       0.00000000 </v>
   <v>       0.00000000       0.00000000       0.00000000 </v>
   <v>       0.00000000       0.00000000       0.00000000 </v>
   <v>       0.00000000       0.00000000       0.00000000 </v>
   <v>       0.00000000       0.00000000       0.00000000 </v>
   <v>       0.00000000       0.00000000       0.00000000 </v>
   <v>       0.00000000       0.00000000       0.00000000 </v>
   <v>       0.00000000       0.00000000       0.00000000 </v>
   <v>       0.00000000       0.00000000       0.00000000 </v>
   <v>       0.00000000       0.00000000       0.00000000 </v>
   <v>       0.00000000       0.00000000       0.00000000 </v>
   <v>       0.00000000       0.00000000       0.00000000 </v>
   <v>       0.00000000       0.00000000       0.00000000 </v>
   <v>       0.00000000       0.00000000       0.00000000 </v>
   <v>       0.00000000       0.00000000       0.00000000 </v>
   <v>       0.00000000       0.00000000       0.00000000 </v>
   <v>       0.00000000       0.00000000       0.00000000 </v>
   <v>       0.00000000       0.00000000       0.00000000 </v>
   <v>       0.00000000       0.00000000       0.00000000 </v>
   <v>       0.00000000       0.00000000       0.00000000 </v>
   <v>       0.00000000       0.00000000       0.00000000 </v>
   <v>       0.00000000       0.00000000       0.00000000 </v>
   <v>       0.00000000       0.00000000       0.00000000 </v>
   <v>       0.00000000       0.00000000       0.00000000 </v>
   <v>       0.00000000       0.00000000       0.00000000 </v>
   <v>       0.00000000       0.00000000       0.00000000 </v>
   <v>       0.00000000       0.00000000       0.00000000 </v>
   <v>       0.00000000       0.00000000       0.00000000 </v>
   <v>       0.00000000       0.00000000       0.00000000 </v>
   <v>       0.00000000       0.00000000       0.00000000 </v>
   <v>       0.00000000       0.00000000       0.00000000 </v>
   <v>       0.00000000       0.00000000       0.00000000 </v>
   <v>       0.00000000       0.00000000       0.00000000 </v>
   <v>       0.00000000       0.00000000       0.00000000 </v>
   <v>       0.00000000       0.00000000       0.00000000 </v>
   <v>       0.00000000       0.00000000       0.00000000 </v>
   <v>       0.00000000       0.00000000       0.00000000 </v>
   <v>       0.00000000       0.00000000       0.00000000 </v>
   <v>       0.00000000       0.00000000       0.00000000 </v>
   <v>       0.00000000       0.00000000       0.00000000 </v>
   <v>       0.00000000       0.00000000       0.00000000 </v>
   <v>       0.00000000       0.00000000       0.00000000 </v>
   <v>       0.00000000       0.00000000       0.00000000 </v>
   <v>       0.00000000       0.00000000       0.00000000 </v>
   <v>       0.00000000       0.00000000       0.00000000 </v>
   <v>       0.00000000       0.00000000       0.00000000 </v>
   <v>       0.00000000       0.00000000       0.00000000 </v>
   <v>       0.00000000       0.00000000       0.00000000 </v>
   <v>       0.00000000       0.00000000       0.00000000 </v>
   <v>       0.00000000       0.00000000       0.00000000 </v>
   <v>       0.00000000       0.00000000       0.00000000 </v>
   <v>       0.00000000       0.00000000       0.00000000 </v>
   <v>       0.00000000       0.00000000       0.00000000 </v>
   <v>       0.00000000       0.00000000       0.00000000 </v>
   <v>       0.00000000       0.00000000       0.00000000 </v>
   <v>       0.00000000       0.00000000       0.00000000 </v>
   <v>       0.00000000       0.00000000       0.00000000 </v>
   <v>       0.00000000       0.00000000       0.00000000 </v>
   <v>       0.00000000       0.00000000       0.00000000 </v>
   <v>       0.00000000       0.00000000       0.00000000 </v>
   <v>       0.00000000       0.00000000       0.00000000 </v>
   <v>       0.00000000       0.00000000       0.00000000 </v>
   <v>       0.00000000       0.00000000       0.00000000 </v>
   <v>       0.00000000       0.00000000       0.00000000 </v>
   <v>       0.00000000       0.00000000       0.00000000 </v>
   <v>       0.00000000       0.00000000       0.00000000 </v>
   <v>       0.00000000       0.00000000       0.00000000 </v>
   <v>       0.00000000       0.00000000       0.00000000 </v>
   <v>       0.00000000       0.00000000       0.00000000 </v>
   <v>       0.00000000       0.00000000       0.00000000 </v>
   <v>       0.00000000       0.00000000       0.00000000 </v>
   <v>       0.00000000       0.00000000       0.00000000 </v>
   <v>       0.00000000       0.00000000       0.00000000 </v>
   <v>       0.00000000       0.00000000       0.00000000 </v>
   <v>       0.00000000       0.00000000       0.00000000 </v>
   <v>       0.00000000       0.00000000       0.00000000 </v>
   <v>       0.00000000       0.00000000       0.00000000 </v>
   <v>       0.00000000       0.00000000       0.00000000 </v>
   <v>       0.00000000       0.00000000       0.00000000 </v>
   <v>       0.00000000       0.00000000       0.00000000 </v>
   <v>       0.00000000       0.00000000       0.00000000 </v>
   <v>       0.00000000       0.00000000       0.00000000 </v>
   <v>       0.00000000       0.00000000       0.00000000 </v>
   <v>       0.00000000       0.00000000       0.00000000 </v>
   <v>       0.00000000       0.00000000       0.00000000 </v>
   <v>       0.00000000       0.00000000       0.00000000 </v>
   <v>       0.00000000       0.00000000       0.00000000 </v>
   <v>       0.00000000       0.00000000       0.00000000 </v>
   <v>       0.00000000       0.00000000       0.00000000 </v>
   <v>       0.00000000       0.00000000       0.00000000 </v>
   <v>       0.00000000       0.00000000       0.00000000 </v>
   <v>       0.00000000       0.00000000       0.00000000 </v>
   <v>       0.00000000       0.00000000       0.00000000 </v>
   <v>       0.00000000       0.00000000       0.00000000 </v>
   <v>       0.00000000       0.00000000       0.00000000 </v>
   <v>       0.00000000       0.00000000       0.00000000 </v>
   <v>       0.00000000       0.00000000       0.00000000 </v>
   <v>       0.00000000       0.00000000       0.00000000 </v>
   <v>       0.00000000       0.00000000       0.00000000 </v>
   <v>       0.00000000       0.00000000       0.00000000 </v>
   <v>       0.00000000       0.00000000       0.00000000 </v>
   <v>       0.00000000       0.00000000       0.00000000 </v>
   <v>       0.00000000       0.00000000       0.00000000 </v>
   <v>       0.00000000       0.00000000       0.00000000 </v>
   <v>       0.00000000       0.00000000       0.00000000 </v>
   <v>       0.00000000       0.00000000       0.00000000 </v>
   <v>       0.00000000       0.00000000       0.00000000 </v>
   <v>       0.00000000       0.00000000       0.00000000 </v>
   <v>       0.00000000       0.00000000       0.00000000 </v>
   <v>       0.00000000       0.00000000       0.00000000 </v>
   <v>       0.00000000       0.00000000       0.00000000 </v>
   <v>       0.00000000       0.00000000       0.00000000 </v>
   <v>       0.00000000       0.00000000       0.00000000 </v>
   <v>       0.00000000       0.00000000       0.00000000 </v>
   <v>       0.00000000       0.00000000       0.00000000 </v>
   <v>       0.00000000       0.00000000       0.00000000 </v>
   <v>       0.00000000       0.00000000       0.00000000 </v>
   <v>       0.00000000       0.00000000       0.00000000 </v>
   <v>       0.00000000       0.00000000       0.00000000 </v>
   <v>       0.00000000       0.00000000       0.00000000 </v>
  </varray>
 </structure>
 <calculation>
  <scstep>
   <time name="dav">   51.00   51.23</time>
   <time name="total">   51.49   51.74</time>
   <energy>
    <i name="alphaZ">   2026.14881195 </i>
    <i name="ewald"> -35091.30992161 </i>
    <i name="hartreedc"> -25548.30826417 </i>
    <i name="XCdc">   3132.02839029 </i>
    <i name="pawpsdc">  50594.51003143 </i>
    <i name="pawaedc"> -49994.65612350 </i>
    <i name="eentropy">     -0.04337950 </i>
    <i name="bandstr">   -781.71484543 </i>
    <i name="atom">  64968.54023382 </i>
    <i name="e_fr_energy">   9305.19493330 </i>
    <i name="e_wo_entrp">   9305.23831280 </i>
    <i name="e_0_energy">   9305.21662305 </i>
   </energy>
  </scstep>
  <scstep>
   <time name="dav">   59.98   60.23</time>
   <time name="total">   59.98   60.23</time>
   <energy>
    <i name="e_fr_energy">     -5.26451705 </i>
    <i name="e_wo_entrp">     -5.26451705 </i>
    <i name="e_0_energy">     -5.26451705 </i>
   </energy>
  </scstep>
  <scstep>
   <time name="dav">   60.30   60.57</time>
   <time name="total">   60.30   60.57</time>
   <energy>
    <i name="e_fr_energy">  -1038.31169709 </i>
    <i name="e_wo_entrp">  -1038.31169709 </i>
    <i name="e_0_energy">  -1038.31169709 </i>
   </energy>
  </scstep>
  <scstep>
   <time name="dav">   62.82   63.08</time>
   <time name="total">   62.83   63.08</time>
   <energy>
    <i name="e_fr_energy">  -1084.45100408 </i>
    <i name="e_wo_entrp">  -1084.45100408 </i>
    <i name="e_0_energy">  -1084.45100408 </i>
   </energy>
  </scstep>
  <scstep>
   <time name="dav">   83.17   84.62</time>
   <time name="total">   85.68   87.13</time>
   <energy>
    <i name="e_fr_energy">  -1091.09435751 </i>
    <i name="e_wo_entrp">  -1091.09435751 </i>
    <i name="e_0_energy">  -1091.09435751 </i>
   </energy>
  </scstep>
  <scstep>
   <time name="dav">   60.88   61.32</time>
   <time name="total">   63.86   64.31</time>
   <energy>
    <i name="e_fr_energy">   -923.08097355 </i>
    <i name="e_wo_entrp">   -923.06742650 </i>
    <i name="e_0_energy">   -923.07420002 </i>
   </energy>
  </scstep>
  <scstep>
   <time name="dav">   63.57   63.92</time>
   <time name="total">   66.55   66.94</time>
   <energy>
    <i name="e_fr_energy">   -927.56765806 </i>
    <i name="e_wo_entrp">   -927.56765806 </i>
    <i name="e_0_energy">   -927.56765806 </i>
   </energy>
  </scstep>
  <scstep>
   <time name="dav">   64.45   64.75</time>
   <time name="total">   67.41   67.74</time>
   <energy>
    <i name="e_fr_energy">   -920.90923461 </i>
    <i name="e_wo_entrp">   -920.90923461 </i>
    <i name="e_0_energy">   -920.90923461 </i>
   </energy>
  </scstep>
  <scstep>
   <time name="dav">   58.57   59.02</time>
   <time name="total">   61.57   62.03</time>
   <energy>
    <i name="e_fr_energy">   -924.26669289 </i>
    <i name="e_wo_entrp">   -924.26620041 </i>
    <i name="e_0_energy">   -924.26644665 </i>
   </energy>
  </scstep>
  <scstep>
   <time name="dav">   58.64   59.71</time>
   <time name="total">   61.54   62.72</time>
   <energy>
    <i name="e_fr_energy">   -919.98415196 </i>
    <i name="e_wo_entrp">   -919.98414150 </i>
    <i name="e_0_energy">   -919.98414673 </i>
   </energy>
  </scstep>
  <scstep>
   <time name="dav">   57.61   58.22</time>
   <time name="total">   60.56   61.21</time>
   <energy>
    <i name="e_fr_energy">   -920.06456084 </i>
    <i name="e_wo_entrp">   -920.06443764 </i>
    <i name="e_0_energy">   -920.06449924 </i>
   </energy>
  </scstep>
  <scstep>
   <time name="dav">   65.36   65.70</time>
   <time name="total">   68.30   68.65</time>
   <energy>
    <i name="e_fr_energy">   -920.11359868 </i>
    <i name="e_wo_entrp">   -920.11305584 </i>
    <i name="e_0_energy">   -920.11332726 </i>
   </energy>
  </scstep>
  <scstep>
   <time name="dav">   67.54   67.89</time>
   <time name="total">   70.52   70.89</time>
   <energy>
    <i name="e_fr_energy">   -919.99092548 </i>
    <i name="e_wo_entrp">   -919.98941307 </i>
    <i name="e_0_energy">   -919.99016928 </i>
   </energy>
  </scstep>
  <scstep>
   <time name="dav">   60.10   60.46</time>
   <time name="total">   63.01   63.39</time>
   <energy>
    <i name="e_fr_energy">   -919.93027609 </i>
    <i name="e_wo_entrp">   -919.92577810 </i>
    <i name="e_0_energy">   -919.92802709 </i>
   </energy>
  </scstep>
  <scstep>
   <time name="dav">   62.59   62.88</time>
   <time name="total">   65.59   65.90</time>
   <energy>
    <i name="e_fr_energy">   -919.91245154 </i>
    <i name="e_wo_entrp">   -919.91079603 </i>
    <i name="e_0_energy">   -919.91162379 </i>
   </energy>
  </scstep>
  <scstep>
   <time name="dav">   61.87   62.24</time>
   <time name="total">   64.83   65.22</time>
   <energy>
    <i name="e_fr_energy">   -919.90078082 </i>
    <i name="e_wo_entrp">   -919.89450788 </i>
    <i name="e_0_energy">   -919.89764435 </i>
   </energy>
  </scstep>
  <scstep>
   <time name="dav">   64.24   64.58</time>
   <time name="total">   67.20   67.56</time>
   <energy>
    <i name="e_fr_energy">   -919.88026117 </i>
    <i name="e_wo_entrp">   -919.87707714 </i>
    <i name="e_0_energy">   -919.87866915 </i>
   </energy>
  </scstep>
  <scstep>
   <time name="dav">   62.15   62.52</time>
   <time name="total">   65.11   65.50</time>
   <energy>
    <i name="e_fr_energy">   -919.84170565 </i>
    <i name="e_wo_entrp">   -919.83323334 </i>
    <i name="e_0_energy">   -919.83746949 </i>
   </energy>
  </scstep>
  <scstep>
   <time name="dav">   62.40   62.77</time>
   <time name="total">   65.36   65.76</time>
   <energy>
    <i name="e_fr_energy">   -919.82382521 </i>
    <i name="e_wo_entrp">   -919.81831991 </i>
    <i name="e_0_energy">   -919.82107256 </i>
   </energy>
  </scstep>
  <scstep>
   <time name="dav">   66.25   66.59</time>
   <time name="total">   69.80   70.36</time>
   <energy>
    <i name="e_fr_energy">   -919.81198218 </i>
    <i name="e_wo_entrp">   -919.79780712 </i>
    <i name="e_0_energy">   -919.80489465 </i>
   </energy>
  </scstep>
  <scstep>
   <time name="dav">   54.94   55.51</time>
   <time name="total">   57.77  147.55</time>
   <energy>
    <i name="e_fr_energy">   -919.81213638 </i>
    <i name="e_wo_entrp">   -919.79830769 </i>
    <i name="e_0_energy">   -919.80522203 </i>
   </energy>
  </scstep>
  <scstep>
   <time name="dav">   74.03   75.83</time>
   <time name="total">   76.75   78.66</time>
   <energy>
    <i name="e_fr_energy">   -919.81166377 </i>
    <i name="e_wo_entrp">   -919.79543474 </i>
    <i name="e_0_energy">   -919.80354926 </i>
   </energy>
  </scstep>
  <scstep>
   <time name="dav">   65.32   65.60</time>
   <time name="total">   68.24   68.54</time>
   <energy>
    <i name="e_fr_energy">   -919.81258643 </i>
    <i name="e_wo_entrp">   -919.78758365 </i>
    <i name="e_0_energy">   -919.80008504 </i>
   </energy>
  </scstep>
  <scstep>
   <time name="dav">   55.35   56.87</time>
   <time name="total">   58.29   59.89</time>
   <energy>
    <i name="e_fr_energy">   -919.81094688 </i>
    <i name="e_wo_entrp">   -919.78765184 </i>
    <i name="e_0_energy">   -919.79929936 </i>
   </energy>
  </scstep>
  <scstep>
   <time name="dav">   58.06   58.39</time>
   <time name="total">   61.03   61.39</time>
   <energy>
    <i name="e_fr_energy">   -919.80940224 </i>
    <i name="e_wo_entrp">   -919.78685633 </i>
    <i name="e_0_energy">   -919.79812928 </i>
   </energy>
  </scstep>
  <scstep>
   <time name="dav">   58.19   58.48</time>
   <time name="total">   61.12   61.44</time>
   <energy>
    <i name="e_fr_energy">   -919.80983930 </i>
    <i name="e_wo_entrp">   -919.78917206 </i>
    <i name="e_0_energy">   -919.79950568 </i>
   </energy>
  </scstep>
  <scstep>
   <time name="dav">   65.70   66.09</time>
   <time name="total">   68.66   69.06</time>
   <energy>
    <i name="e_fr_energy">   -919.80948121 </i>
    <i name="e_wo_entrp">   -919.79309835 </i>
    <i name="e_0_energy">   -919.80128978 </i>
   </energy>
  </scstep>
  <scstep>
   <time name="dav">   66.65   66.99</time>
   <time name="total">   69.61   69.98</time>
   <energy>
    <i name="e_fr_energy">   -919.80912254 </i>
    <i name="e_wo_entrp">   -919.78234774 </i>
    <i name="e_0_energy">   -919.79573514 </i>
   </energy>
  </scstep>
  <scstep>
   <time name="dav">   56.63   56.91</time>
   <time name="total">   59.64   59.95</time>
   <energy>
    <i name="e_fr_energy">   -919.80744335 </i>
    <i name="e_wo_entrp">   -919.78828096 </i>
    <i name="e_0_energy">   -919.79786216 </i>
   </energy>
  </scstep>
  <scstep>
   <time name="dav">   67.61   68.05</time>
   <time name="total">   70.58   71.05</time>
   <energy>
    <i name="e_fr_energy">   -919.80750193 </i>
    <i name="e_wo_entrp">   -919.78949247 </i>
    <i name="e_0_energy">   -919.79849720 </i>
   </energy>
  </scstep>
  <scstep>
   <time name="dav">   54.39   55.28</time>
   <time name="total">   57.72   58.64</time>
   <energy>
    <i name="e_fr_energy">   -919.80653806 </i>
    <i name="e_wo_entrp">   -919.78811530 </i>
    <i name="e_0_energy">   -919.79732668 </i>
   </energy>
  </scstep>
  <scstep>
   <time name="dav">   58.63   58.91</time>
   <time name="total">   61.68   61.97</time>
   <energy>
    <i name="e_fr_energy">   -919.80557269 </i>
    <i name="e_wo_entrp">   -919.78291952 </i>
    <i name="e_0_energy">   -919.79424610 </i>
   </energy>
  </scstep>
  <scstep>
   <time name="dav">   55.41   56.94</time>
   <time name="total">   58.31   59.94</time>
   <energy>
    <i name="e_fr_energy">   -919.80519695 </i>
    <i name="e_wo_entrp">   -919.78579705 </i>
    <i name="e_0_energy">   -919.79549700 </i>
   </energy>
  </scstep>
  <scstep>
   <time name="dav">   58.65   58.93</time>
   <time name="total">   61.62   61.94</time>
   <energy>
    <i name="e_fr_energy">   -919.80516310 </i>
    <i name="e_wo_entrp">   -919.78579525 </i>
    <i name="e_0_energy">   -919.79547917 </i>
   </energy>
  </scstep>
  <scstep>
   <time name="dav">   56.72   56.99</time>
   <time name="total">   59.67   59.98</time>
   <energy>
    <i name="e_fr_energy">   -919.80507325 </i>
    <i name="e_wo_entrp">   -919.78590320 </i>
    <i name="e_0_energy">   -919.79548822 </i>
   </energy>
  </scstep>
  <scstep>
   <time name="dav">   61.83   62.38</time>
   <time name="total">   64.77   65.35</time>
   <energy>
    <i name="e_fr_energy">   -919.80502544 </i>
    <i name="e_wo_entrp">   -919.78717640 </i>
    <i name="e_0_energy">   -919.79610092 </i>
   </energy>
  </scstep>
  <scstep>
   <time name="dav">   52.91   54.17</time>
   <time name="total">   55.89   57.17</time>
   <energy>
    <i name="e_fr_energy">   -919.80502992 </i>
    <i name="e_wo_entrp">   -919.78764444 </i>
    <i name="e_0_energy">   -919.79633718 </i>
   </energy>
  </scstep>
  <scstep>
   <time name="dav">   45.92   46.15</time>
   <time name="total">   48.98   49.23</time>
   <energy>
    <i name="e_fr_energy">   -919.80503100 </i>
    <i name="e_wo_entrp">   -919.78773901 </i>
    <i name="e_0_energy">   -919.79638500 </i>
   </energy>
  </scstep>
  <scstep>
   <time name="dav">   38.38   38.60</time>
   <time name="total">   41.38   41.63</time>
   <energy>
    <i name="e_fr_energy">   -919.80502956 </i>
    <i name="e_wo_entrp">   -919.78757751 </i>
    <i name="e_0_energy">   -919.79630353 </i>
   </energy>
  </scstep>
  <scstep>
   <time name="dav">   43.99   44.22</time>
   <time name="total">   44.49   44.73</time>
   <energy>
    <i name="alphaZ">   2026.14881195 </i>
    <i name="ewald"> -35091.30992161 </i>
    <i name="hartreedc"> -27564.65988923 </i>
    <i name="XCdc">   3243.79857805 </i>
    <i name="pawpsdc">  90533.68495294 </i>
    <i name="pawaedc"> -90200.52208548 </i>
    <i name="eentropy">     -0.01765248 </i>
    <i name="bandstr">  -8835.46805798 </i>
    <i name="atom">  64968.54023382 </i>
    <i name="e_fr_energy">   -919.80503001 </i>
    <i name="e_wo_entrp">   -919.78737753 </i>
    <i name="e_0_energy">   -919.79620377 </i>
   </energy>
  </scstep>
  <structure>
   <crystal>
    <varray name="basis" >
     <v>      13.31093562       0.00000000       0.00000000 </v>
     <v>       0.00000000      13.31093562       0.00000000 </v>
     <v>       0.00000000       0.00000000      13.31093562 </v>
    </varray>
    <i name="volume">   2358.44497833 </i>
    <varray name="rec_basis" >
     <v>       0.07512620       0.00000000       0.00000000 </v>
     <v>       0.00000000       0.07512620       0.00000000 </v>
     <v>       0.00000000       0.00000000       0.07512620 </v>
    </varray>
   </crystal>
   <varray name="positions" >
    <v>       0.71475453       0.61763644       0.00678773 </v>
    <v>       0.42620906       0.37655406       0.85935106 </v>
    <v>       0.71964563       0.25238609       0.66984918 </v>
    <v>       0.37278113       0.29729036       0.47666549 </v>
    <v>       0.12378388       0.31076424       0.83331443 </v>
    <v>       0.09023729       0.40680651       0.09678845 </v>
    <v>       0.37163228       0.76722344       0.32503580 </v>
    <v>       0.88501603       0.35971847       0.02077699 </v>
    <v>       0.16015911       0.93144905       0.73528098 </v>
    <v>       0.99329100       0.06532220       0.09670566 </v>
    <v>       0.43593286       0.82854050       0.69661305 </v>
    <v>       0.67076511       0.58133965       0.27634397 </v>
    <v>       0.76052626       0.84611917       0.09685741 </v>
    <v>       0.76288651       0.77515932       0.72755660 </v>
    <v>       0.38434191       0.55411149       0.65162672 </v>
    <v>       0.30644138       0.64237637       0.09984437 </v>
    <v>       0.58015277       0.66388071       0.51812295 </v>
    <v>       0.24669726       0.75255049       0.88275128 </v>
    <v>       0.73281606       0.89858665       0.34504751 </v>
    <v>       0.27984073       0.00790235       0.36304056 </v>
    <v>       0.02285772       0.15187177       0.63302908 </v>
    <v>       0.09191300       0.74336241       0.14595935 </v>
    <v>       0.46607528       0.96346945       0.16199474 </v>
    <v>       0.54676530       0.12146250       0.88990963 </v>
    <v>       0.54371386       0.31832033       0.21815078 </v>
    <v>       0.10868181       0.23527046       0.27911903 </v>
    <v>       0.05967309       0.65950094       0.65221872 </v>
    <v>       0.35309880       0.00684952       0.86418945 </v>
    <v>       0.93229813       0.79705568       0.32226287 </v>
    <v>       0.58841068       0.55554491       0.75078282 </v>
    <v>       0.44659929       0.66142591       0.88534938 </v>
    <v>       0.04833839       0.88521362       0.99364398 </v>
    <v>       0.78926718       0.10921654       0.96367182 </v>
    <v>       0.03765949       0.60482496       0.35448965 </v>
    <v>       0.91303301       0.10285384       0.34881657 </v>
    <v>       0.83984963       0.68148749       0.47447419 </v>
    <v>       0.29091922       0.13200282       0.07118938 </v>
    <v>       0.55973779       0.73167355       0.16643846 </v>
    <v>       0.27185309       0.16139127       0.68131870 </v>
    <v>       0.19215489       0.53688036       0.90802884 </v>
    <v>       0.54242178       0.92329627       0.46007942 </v>
    <v>       0.78475250       0.30221224       0.40394342 </v>
    <v>       0.94624338       0.56117847       0.83346793 </v>
    <v>       0.67268225       0.38692477       0.86274699 </v>
    <v>       0.45670106       0.54452491       0.36812411 </v>
    <v>       0.24234386       0.53116880       0.26900896 </v>
    <v>       0.87733430       0.46693506       0.24713989 </v>
    <v>       0.88549670       0.04014218       0.81510820 </v>
    <v>       0.55572081       0.15114280       0.38186655 </v>
    <v>       0.30186086       0.26790582       0.21625342 </v>
    <v>       0.90235030       0.33753232       0.77326941 </v>
    <v>       0.03434710       0.95548620       0.47941706 </v>
    <v>       0.87549509       0.88175574       0.92092812 </v>
    <v>       0.22494262       0.75727961       0.54030726 </v>
    <v>       0.68892218       0.42423970       0.96546581 </v>
    <v>       0.64766789       0.80546427       0.19931538 </v>
    <v>       0.94053482       0.45244714       0.76463850 </v>
    <v>       0.19001787       0.50023020       0.15586074 </v>
    <v>       0.17600798       0.17155813       0.74596016 </v>
    <v>       0.95429857       0.29189094       0.87468972 </v>
    <v>       0.48059956       0.12125810       0.28870802 </v>
    <v>       0.36017825       0.48528544       0.33367596 </v>
    <v>       0.00986700       0.12573488       0.26427358 </v>
    <v>       0.98864573       0.07366822       0.77696175 </v>
    <v>       0.00934620       0.86326070       0.88727647 </v>
    <v>       0.02186876       0.51423069       0.91048477 </v>
    <v>       0.74143506       0.35027754       0.51534691 </v>
    <v>       0.98568010       0.07398407       0.47517731 </v>
    <v>       0.15051905       0.98835686       0.43619315 </v>
    <v>       0.96478643       0.66061572       0.77585677 </v>
    <v>       0.32230977       0.70542594       0.59187658 </v>
    <v>       0.25332374       0.68007513       0.24023621 </v>
    <v>       0.74546688       0.60930161       0.44025808 </v>
    <v>       0.43963376       0.91175936       0.37293728 </v>
    <v>       0.22049222       0.35035325       0.22198708 </v>
    <v>       0.50721635       0.66755556       0.34607352 </v>
    <v>       0.25982878       0.81526624       0.45358576 </v>
    <v>       0.86241282       0.71176321       0.58994319 </v>
    <v>       0.83541647       0.17461065       0.04156870 </v>
    <v>       0.47578412       0.48969905       0.74547984 </v>
    <v>       0.98463040       0.54467514       0.26078290 </v>
    <v>       0.88828951       0.01746840       0.95049679 </v>
    <v>       0.85405378       0.91645479       0.80087341 </v>
    <v>       0.80430531       0.78799762       0.94731080 </v>
    <v>       0.33476739       0.24002917       0.76847307 </v>
    <v>       0.96802938       0.86738372       0.08179345 </v>
    <v>       0.00992635       0.87377728       0.38507519 </v>
    <v>       0.90022530       0.21369767       0.40457010 </v>
    <v>       0.02724582       0.95646500       0.60061739 </v>
    <v>       0.58993030       0.30670049       0.82873849 </v>
    <v>       0.57766326       0.65720445       0.68126529 </v>
    <v>       0.60975819       0.63095300       0.11600871 </v>
    <v>       0.85587794       0.82807512       0.23382538 </v>
    <v>       0.16889830       0.83009169       0.02716263 </v>
    <v>       0.81491770       0.40707865       0.35252289 </v>
    <v>       0.85883109       0.78145123       0.42449432 </v>
    <v>       0.92383707       0.36893781       0.18486860 </v>
    <v>       0.15919658       0.79010953       0.64937843 </v>
    <v>       0.09069900       0.01346605       0.97868094 </v>
    <v>       0.80484859       0.54227421       0.19365427 </v>
    <v>       0.19559512       0.42368169       0.93800083 </v>
    <v>       0.33650848       0.05791582       0.14821995 </v>
    <v>       0.45907880       0.55228248       0.49300009 </v>
    <v>       0.55503991       0.47934690       0.30770123 </v>
    <v>       0.51477149       0.22298571       0.46754048 </v>
    <v>       0.38833940       0.54499621       0.93793098 </v>
    <v>       0.51521453       0.96064573       0.56804941 </v>
    <v>       0.45694827       0.72233003       0.99360301 </v>
    <v>       0.68414602       0.25171688       0.33696872 </v>
    <v>       0.32050204       0.20721462       0.58643582 </v>
    <v>       0.35766783       0.22620559       0.10978856 </v>
    <v>       0.41277887       0.32480687       0.27923396 </v>
    <v>       0.46309018       0.96970240       0.84828781 </v>
    <v>       0.77472333       0.12090986       0.83578304 </v>
    <v>       0.77447584       0.32144928       0.81636639 </v>
    <v>       0.90120154       0.27501620       0.67367056 </v>
    <v>       0.17237492       0.15846379       0.07696074 </v>
    <v>       0.94466497       0.62126053       0.44182061 </v>
    <v>       0.02978351       0.70933122       0.30604160 </v>
    <v>       0.31257264       0.04422236       0.72361874 </v>
    <v>       0.37245155       0.70146489       0.79361904 </v>
    <v>       0.67233045       0.48456282       0.77877244 </v>
    <v>       0.62179095       0.83778697       0.44086096 </v>
    <v>       0.18626860       0.58755113       0.79373610 </v>
    <v>       0.28548186       0.90905169       0.86332882 </v>
    <v>       0.81487379       0.58150352       0.85869759 </v>
    <v>       0.61284528       0.03531971       0.40044023 </v>
    <v>       0.14449242       0.53719803       0.38823965 </v>
    <v>       0.56362095       0.64070727       0.84558510 </v>
    <v>       0.66950622       0.08659838       0.00290455 </v>
    <v>       0.18778795       0.61671178       0.00124471 </v>
    <v>       0.25217110       0.18316796       0.31363434 </v>
    <v>       0.33804596       0.11739392       0.95344070 </v>
    <v>       0.44014222       0.77303086       0.18455876 </v>
    <v>       0.86133843       0.00432595       0.32889470 </v>
   </varray>
  </structure>
  <varray name="forces" >
   <v>       1.77393121      -2.35440946      -3.43373800 </v>
   <v>      -1.03988919      -0.22811289      -0.40802976 </v>
   <v>       0.46066487       1.33133281      -1.59870665 </v>
   <v>       1.12213723       0.17427153      -2.49152694 </v>
   <v>       0.64716373      -0.69086361       0.39935379 </v>
   <v>       0.90396611      -0.22190999      -0.41187223 </v>
   <v>      -0.38877846       0.11206361       2.25398861 </v>
   <v>      -2.23068114      -0.91838996      -1.17722094 </v>
   <v>      -1.24249543       1.76455815      -0.41284066 </v>
   <v>       1.05429467       1.25965188       0.65573579 </v>
   <v>      -0.42711883       0.81073106      -0.29157131 </v>
   <v>       0.54088965      -0.21083307       1.89620923 </v>
   <v>       1.51332111       0.84576140       1.24331961 </v>
   <v>       1.92444128      -2.11311293      -0.81655212 </v>
   <v>      -2.70859507       2.26943098      -1.99060154 </v>
   <v>       3.17474348      -0.31232862      -2.70504131 </v>
   <v>       1.41767284       0.30064092      -2.17901231 </v>
   <v>      -1.43241754      -0.43967888       0.95699362 </v>
   <v>       0.36202111       0.89737131       0.10719687 </v>
   <v>       1.23362192       1.30570075      -0.41640882 </v>
   <v>      -0.45850400      -0.96132804      -0.95968238 </v>
   <v>       0.69642387      -0.78019223      -0.27272696 </v>
   <v>      -0.62513108       1.03455073       1.58041798 </v>
   <v>       0.06339963       0.24892974      -0.04673495 </v>
   <v>       1.96377968      -0.01953661       0.51765657 </v>
   <v>      -0.19754566       1.11995759       1.02049669 </v>
   <v>      -1.24738002      -0.50249598       0.29239468 </v>
   <v>      -3.21868782       2.99461862      -1.44820001 </v>
   <v>       1.28455844       1.87012552       3.08644484 </v>
   <v>      -5.97155494       3.41824005       1.05571671 </v>
   <v>      -0.18799478      -3.22750508       3.54256750 </v>
   <v>       9.89571474       5.10720951       2.50537777 </v>
   <v>      -5.73817866      -1.41953382      -1.24149912 </v>
   <v>      -1.99120346      -5.17469963       2.89168707 </v>
   <v>       6.37854897       3.36919326       2.72479784 </v>
   <v>      -1.09909782      -6.32777160       3.69428309 </v>
   <v>      -2.30255498      -0.06549550      -2.17272917 </v>
   <v>      -4.47158739      -0.79517729      -0.30386596 </v>
   <v>       5.85808984       0.49577297       5.38277530 </v>
   <v>      -1.62893463       2.61766113      -1.14420873 </v>
   <v>      -2.20641919       3.54709101      -3.52234205 </v>
   <v>      -2.38867316      -0.93251741       2.24468542 </v>
   <v>      -5.64372451      -1.30707070       0.26572819 </v>
   <v>       2.21803970      -1.76067038      -6.51048984 </v>
   <v>       6.79560616       0.69419627       0.34272840 </v>
   <v>      -1.41725297       0.43184476       1.12486505 </v>
   <v>       1.60036213      -2.43275389       2.43151132 </v>
   <v>      -1.35383741       0.52207471       0.10044482 </v>
   <v>       1.03453023      -1.67716831      -1.11851102 </v>
   <v>       5.97766035      -1.91980856       4.66248519 </v>
   <v>      -2.32639156       0.86616417       2.73655967 </v>
   <v>       2.80192961       3.32025403      -1.08227589 </v>
   <v>       3.70740054      -1.03270479      -2.22397141 </v>
   <v>       0.34142830      -1.28139336       7.28407005 </v>
   <v>       0.87606845       2.21213115       6.67540768 </v>
   <v>      -0.47676284       1.00936319       0.18732883 </v>
   <v>      -0.16804607       0.19605463      -1.80413067 </v>
   <v>       2.61743337       4.38117600       3.43459093 </v>
   <v>      -6.13110176       0.24745676      -0.98053276 </v>
   <v>       1.41656905      -0.04524688       0.50133392 </v>
   <v>       1.54363083       0.70258573      -0.28130098 </v>
   <v>      -6.25321908       1.78535970      -2.48861363 </v>
   <v>      -3.59524913      -2.38940118      -0.18587092 </v>
   <v>      -0.03316401       0.35942673      -0.63319392 </v>
   <v>      -4.28463531      -1.92217686      -2.69263790 </v>
   <v>       1.95755557      -0.31170272       3.54147264 </v>
   <v>       1.00114197      -3.09660799      -0.45597981 </v>
   <v>      -1.74253695      -0.34230474      -2.70689073 </v>
   <v>      -1.44234711      -0.62545821       1.35939683 </v>
   <v>       1.32460562       2.08714909      -1.18533996 </v>
   <v>       0.65723405      -0.75801460       0.29652558 </v>
   <v>      -1.29468560      -3.22631142       1.89879585 </v>
   <v>      -0.38472607       1.90885665       0.20007569 </v>
[...]
       <r>     1.6173    40.0081   852.4431 </r>
       <r>     1.7909    14.0117   854.8754 </r>
       <r>     1.9645    23.5894   858.9703 </r>
       <r>     2.1381    28.5785   863.9313 </r>
       <r>     2.3117    11.9020   865.9973 </r>
       <r>     2.4853     9.4535   867.6384 </r>
       <r>     2.6589     2.0832   868.0000 </r>
       <r>     2.8325     0.0000   868.0000 </r>
       <r>     3.0061     0.0019   868.0003 </r>
       <r>     3.1796     8.4207   869.4621 </r>
       <r>     3.3532    14.4395   871.9686 </r>
       <r>     3.5268    10.9417   873.8680 </r>
       <r>     3.7004     4.1030   874.5803 </r>
       <r>     3.8740    11.4170   876.5621 </r>
       <r>     4.0476    20.5536   880.1300 </r>
       <r>     4.2212    18.0501   883.2634 </r>
       <r>     4.3948    22.4548   887.1613 </r>
       <r>     4.5684    25.4183   891.5736 </r>
       <r>     4.7420    38.6038   898.2749 </r>
       <r>     4.9155    46.1883   906.2927 </r>
       <r>     5.0891    43.0091   913.7587 </r>
       <r>     5.2627    54.2048   923.1681 </r>
       <r>     5.4363    51.5518   932.1170 </r>
       <r>     5.6099    60.5181   942.6224 </r>
       <r>     5.7835    70.8315   954.9180 </r>
       <r>     5.9571    70.9224   967.2295 </r>
       <r>     6.1307    58.6553   977.4114 </r>
       <r>     6.3043    71.2494   989.7796 </r>
       <r>     6.4779    87.0659  1004.8934 </r>
       <r>     6.6514    87.9258  1020.1565 </r>
       <r>     6.8250    87.5818  1035.3599 </r>
       <r>     6.9986    26.7259  1039.9992 </r>
       <r>     7.1722     0.0045  1040.0000 </r>
       <r>     7.3458     0.0000  1040.0000 </r>
       <r>     7.5194     0.0000  1040.0000 </r>
       <r>     7.6930     0.0000  1040.0000 </r>
       <r>     7.8666     0.0000  1040.0000 </r>
       <r>     8.0402     0.0000  1040.0000 </r>
       <r>     8.2138     0.0000  1040.0000 </r>
       <r>     8.3873     0.0000  1040.0000 </r>
       <r>     8.5609     0.0000  1040.0000 </r>
       <r>     8.7345     0.0000  1040.0000 </r>
       <r>     8.9081     0.0000  1040.0000 </r>
       <r>     9.0817     0.0000  1040.0000 </r>
       <r>     9.2553     0.0000  1040.0000 </r>
      </set>
     </set>
    </array>
   </total>
  </dos>
 </calculation>
 <structure name="finalpos" >
  <crystal>
   <varray name="basis" >
    <v>      13.31093562       0.00000000       0.00000000 </v>
    <v>       0.00000000      13.31093562       0.00000000 </v>
    <v>       0.00000000       0.00000000      13.31093562 </v>
   </varray>
   <i name="volume">   2358.44497833 </i>
   <varray name="rec_basis" >
    <v>       0.07512620       0.00000000       0.00000000 </v>
    <v>       0.00000000       0.07512620       0.00000000 </v>
    <v>       0.00000000       0.00000000       0.07512620 </v>
   </varray>
  </crystal>
  <varray name="positions" >
   <v>       0.71475453       0.61763644       0.00678773 </v>
   <v>       0.42620906       0.37655406       0.85935106 </v>
   <v>       0.71964563       0.25238609       0.66984918 </v>
   <v>       0.37278113       0.29729036       0.47666549 </v>
   <v>       0.12378388       0.31076424       0.83331443 </v>
   <v>       0.09023729       0.40680651       0.09678845 </v>
   <v>       0.37163228       0.76722344       0.32503580 </v>
   <v>       0.88501603       0.35971847       0.02077699 </v>
   <v>       0.16015911       0.93144905       0.73528098 </v>
   <v>       0.99329100       0.06532220       0.09670566 </v>
   <v>       0.43593286       0.82854050       0.69661305 </v>
   <v>       0.67076511       0.58133965       0.27634397 </v>
   <v>       0.76052626       0.84611917       0.09685741 </v>
   <v>       0.76288651       0.77515932       0.72755660 </v>
   <v>       0.38434191       0.55411149       0.65162672 </v>
   <v>       0.30644138       0.64237637       0.09984437 </v>
   <v>       0.58015277       0.66388071       0.51812295 </v>
   <v>       0.24669726       0.75255049       0.88275128 </v>
   <v>       0.73281606       0.89858665       0.34504751 </v>
   <v>       0.27984073       0.00790235       0.36304056 </v>
   <v>       0.02285772       0.15187177       0.63302908 </v>
   <v>       0.09191300       0.74336241       0.14595935 </v>
   <v>       0.46607528       0.96346945       0.16199474 </v>
   <v>       0.54676530       0.12146250       0.88990963 </v>
   <v>       0.54371386       0.31832033       0.21815078 </v>
   <v>       0.10868181       0.23527046       0.27911903 </v>
   <v>       0.05967309       0.65950094       0.65221872 </v>
   <v>       0.35309880       0.00684952       0.86418945 </v>
   <v>       0.93229813       0.79705568       0.32226287 </v>
   <v>       0.58841068       0.55554491       0.75078282 </v>
   <v>       0.44659929       0.66142591       0.88534938 </v>
   <v>       0.04833839       0.88521362       0.99364398 </v>
   <v>       0.78926718       0.10921654       0.96367182 </v>
   <v>       0.03765949       0.60482496       0.35448965 </v>
   <v>       0.91303301       0.10285384       0.34881657 </v>
   <v>       0.83984963       0.68148749       0.47447419 </v>
   <v>       0.29091922       0.13200282       0.07118938 </v>
   <v>       0.55973779       0.73167355       0.16643846 </v>
   <v>       0.27185309       0.16139127       0.68131870 </v>
   <v>       0.19215489       0.53688036       0.90802884 </v>
   <v>       0.54242178       0.92329627       0.46007942 </v>
   <v>       0.78475250       0.30221224       0.40394342 </v>
   <v>       0.94624338       0.56117847       0.83346793 </v>
   <v>       0.67268225       0.38692477       0.86274699 </v>
   <v>       0.45670106       0.54452491       0.36812411 </v>
   <v>       0.24234386       0.53116880       0.26900896 </v>
   <v>       0.87733430       0.46693506       0.24713989 </v>
   <v>       0.88549670       0.04014218       0.81510820 </v>
   <v>       0.55572081       0.15114280       0.38186655 </v>
   <v>       0.30186086       0.26790582       0.21625342 </v>
   <v>       0.90235030       0.33753232       0.77326941 </v>
   <v>       0.03434710       0.95548620       0.47941706 </v>
   <v>       0.87549509       0.88175574       0.92092812 </v>
   <v>       0.22494262       0.75727961       0.54030726 </v>
   <v>       0.68892218       0.42423970       0.96546581 </v>
   <v>       0.64766789       0.80546427       0.19931538 </v>
   <v>       0.94053482       0.45244714       0.76463850 </v>
   <v>       0.19001787       0.50023020       0.15586074 </v>
   <v>       0.17600798       0.17155813       0.74596016 </v>
   <v>       0.95429857       0.29189094       0.87468972 </v>
   <v>       0.48059956       0.12125810       0.28870802 </v>
   <v>       0.36017825       0.48528544       0.33367596 </v>
   <v>       0.00986700       0.12573488       0.26427358 </v>
   <v>       0.98864573       0.07366822       0.77696175 </v>
   <v>       0.00934620       0.86326070       0.88727647 </v>
   <v>       0.02186876       0.51423069       0.91048477 </v>
   <v>       0.74143506       0.35027754       0.51534691 </v>
   <v>       0.98568010       0.07398407       0.47517731 </v>
   <v>       0.15051905       0.98835686       0.43619315 </v>
   <v>       0.96478643       0.66061572       0.77585677 </v>
   <v>       0.32230977       0.70542594       0.59187658 </v>
   <v>       0.25332374       0.68007513       0.24023621 </v>
   <v>       0.74546688       0.60930161       0.44025808 </v>
   <v>       0.43963376       0.91175936       0.37293728 </v>
   <v>       0.22049222       0.35035325       0.22198708 </v>
   <v>       0.50721635       0.66755556       0.34607352 </v>
   <v>       0.25982878       0.81526624       0.45358576 </v>
   <v>       0.86241282       0.71176321       0.58994319 </v>
   <v>       0.83541647       0.17461065       0.04156870 </v>
   <v>       0.47578412       0.48969905       0.74547984 </v>
   <v>       0.98463040       0.54467514       0.26078290 </v>
   <v>       0.88828951       0.01746840       0.95049679 </v>
   <v>       0.85405378       0.91645479       0.80087341 </v>
   <v>       0.80430531       0.78799762       0.94731080 </v>
   <v>       0.33476739       0.24002917       0.76847307 </v>
   <v>       0.96802938       0.86738372       0.08179345 </v>
   <v>       0.00992635       0.87377728       0.38507519 </v>
   <v>       0.90022530       0.21369767       0.40457010 </v>
   <v>       0.02724582       0.95646500       0.60061739 </v>
   <v>       0.58993030       0.30670049       0.82873849 </v>
   <v>       0.57766326       0.65720445       0.68126529 </v>
   <v>       0.60975819       0.63095300       0.11600871 </v>
   <v>       0.85587794       0.82807512       0.23382538 </v>
   <v>       0.16889830       0.83009169       0.02716263 </v>
   <v>       0.81491770       0.40707865       0.35252289 </v>
   <v>       0.85883109       0.78145123       0.42449432 </v>
   <v>       0.92383707       0.36893781       0.18486860 </v>
   <v>       0.15919658       0.79010953       0.64937843 </v>
   <v>       0.09069900       0.01346605       0.97868094 </v>
   <v>       0.80484859       0.54227421       0.19365427 </v>
   <v>       0.19559512       0.42368169       0.93800083 </v>
   <v>       0.33650848       0.05791582       0.14821995 </v>
   <v>       0.45907880       0.55228248       0.49300009 </v>
   <v>       0.55503991       0.47934690       0.30770123 </v>
   <v>       0.51477149       0.22298571       0.46754048 </v>
   <v>       0.38833940       0.54499621       0.93793098 </v>
   <v>       0.51521453       0.96064573       0.56804941 </v>
   <v>       0.45694827       0.72233003       0.99360301 </v>
   <v>       0.68414602       0.25171688       0.33696872 </v>
   <v>       0.32050204       0.20721462       0.58643582 </v>
   <v>       0.35766783       0.22620559       0.10978856 </v>
   <v>       0.41277887       0.32480687       0.27923396 </v>
   <v>       0.46309018       0.96970240       0.84828781 </v>
   <v>       0.77472333       0.12090986       0.83578304 </v>
   <v>       0.77447584       0.32144928       0.81636639 </v>
   <v>       0.90120154       0.27501620       0.67367056 </v>
   <v>       0.17237492       0.15846379       0.07696074 </v>
   <v>       0.94466497       0.62126053       0.44182061 </v>
   <v>       0.02978351       0.70933122       0.30604160 </v>
   <v>       0.31257264       0.04422236       0.72361874 </v>
   <v>       0.37245155       0.70146489       0.79361904 </v>
   <v>       0.67233045       0.48456282       0.77877244 </v>
   <v>       0.62179095       0.83778697       0.44086096 </v>
   <v>       0.18626860       0.58755113       0.79373610 </v>
   <v>       0.28548186       0.90905169       0.86332882 </v>
   <v>       0.81487379       0.58150352       0.85869759 </v>
   <v>       0.61284528       0.03531971       0.40044023 </v>
   <v>       0.14449242       0.53719803       0.38823965 </v>
   <v>       0.56362095       0.64070727       0.84558510 </v>
   <v>       0.66950622       0.08659838       0.00290455 </v>
   <v>       0.18778795       0.61671178       0.00124471 </v>
   <v>       0.25217110       0.18316796       0.31363434 </v>
   <v>       0.33804596       0.11739392       0.95344070 </v>
   <v>       0.44014222       0.77303086       0.18455876 </v>
   <v>       0.86133843       0.00432595       0.32889470 </v>
  </varray>
  <varray name="velocities" >
   <v>       0.00000000       0.00000000       0.00000000 </v>
   <v>       0.00000000       0.00000000       0.00000000 </v>
   <v>       0.00000000       0.00000000       0.00000000 </v>
   <v>       0.00000000       0.00000000       0.00000000 </v>
   <v>       0.00000000       0.00000000       0.00000000 </v>
   <v>       0.00000000       0.00000000       0.00000000 </v>
   <v>       0.00000000       0.00000000       0.00000000 </v>
   <v>       0.00000000       0.00000000       0.00000000 </v>
   <v>       0.00000000       0.00000000       0.00000000 </v>
   <v>       0.00000000       0.00000000       0.00000000 </v>
   <v>       0.00000000       0.00000000       0.00000000 </v>
   <v>       0.00000000       0.00000000       0.00000000 </v>
   <v>       0.00000000       0.00000000       0.00000000 </v>
   <v>       0.00000000       0.00000000       0.00000000 </v>
   <v>       0.00000000       0.00000000       0.00000000 </v>
   <v>       0.00000000       0.00000000       0.00000000 </v>
   <v>       0.00000000       0.00000000       0.00000000 </v>
   <v>       0.00000000       0.00000000       0.00000000 </v>
   <v>       0.00000000       0.00000000       0.00000000 </v>
   <v>       0.00000000       0.00000000       0.00000000 </v>
   <v>       0.00000000       0.00000000       0.00000000 </v>
   <v>       0.00000000       0.00000000       0.00000000 </v>
   <v>       0.00000000       0.00000000       0.00000000 </v>
   <v>       0.00000000       0.00000000       0.00000000 </v>
   <v>       0.00000000       0.00000000       0.00000000 </v>
   <v>       0.00000000       0.00000000       0.00000000 </v>
   <v>       0.00000000       0.00000000       0.00000000 </v>
   <v>       0.00000000       0.00000000       0.00000000 </v>
   <v>       0.00000000       0.00000000       0.00000000 </v>
   <v>       0.00000000       0.00000000       0.00000000 </v>
   <v>       0.00000000       0.00000000       0.00000000 </v>
   <v>       0.00000000       0.00000000       0.00000000 </v>
   <v>       0.00000000       0.00000000       0.00000000 </v>
   <v>       0.00000000       0.00000000       0.00000000 </v>
   <v>       0.00000000       0.00000000       0.00000000 </v>
   <v>       0.00000000       0.00000000       0.00000000 </v>
   <v>       0.00000000       0.00000000       0.00000000 </v>
   <v>       0.00000000       0.00000000       0.00000000 </v>
   <v>       0.00000000       0.00000000       0.00000000 </v>
   <v>       0.00000000       0.00000000       0.00000000 </v>
   <v>       0.00000000       0.00000000       0.00000000 </v>
   <v>       0.00000000       0.00000000       0.00000000 </v>
   <v>       0.00000000       0.00000000       0.00000000 </v>
   <v>       0.00000000       0.00000000       0.00000000 </v>
   <v>       0.00000000       0.00000000       0.00000000 </v>
   <v>       0.00000000       0.00000000       0.00000000 </v>
   <v>       0.00000000       0.00000000       0.00000000 </v>
   <v>       0.00000000       0.00000000       0.00000000 </v>
   <v>       0.00000000       0.00000000       0.00000000 </v>
   <v>       0.00000000       0.00000000       0.00000000 </v>
   <v>       0.00000000       0.00000000       0.00000000 </v>
   <v>       0.00000000       0.00000000       0.00000000 </v>
   <v>       0.00000000       0.00000000       0.00000000 </v>
   <v>       0.00000000       0.00000000       0.00000000 </v>
   <v>       0.00000000       0.00000000       0.00000000 </v>
   <v>       0.00000000       0.00000000       0.00000000 </v>
   <v>       0.00000000       0.00000000       0.00000000 </v>
   <v>       0.00000000       0.00000000       0.00000000 </v>
   <v>       0.00000000       0.00000000       0.00000000 </v>
   <v>       0.00000000       0.00000000       0.00000000 </v>
   <v>       0.00000000       0.00000000       0.00000000 </v>
   <v>       0.00000000       0.00000000       0.00000000 </v>
   <v>       0.00000000       0.00000000       0.00000000 </v>
   <v>       0.00000000       0.00000000       0.00000000 </v>
   <v>       0.00000000       0.00000000       0.00000000 </v>
   <v>       0.00000000       0.00000000       0.00000000 </v>
   <v>       0.00000000       0.00000000       0.00000000 </v>
   <v>       0.00000000       0.00000000       0.00000000 </v>
   <v>       0.00000000       0.00000000       0.00000000 </v>
   <v>       0.00000000       0.00000000       0.00000000 </v>
   <v>       0.00000000       0.00000000       0.00000000 </v>
   <v>       0.00000000       0.00000000       0.00000000 </v>
   <v>       0.00000000       0.00000000       0.00000000 </v>
   <v>       0.00000000       0.00000000       0.00000000 </v>
   <v>       0.00000000       0.00000000       0.00000000 </v>
   <v>       0.00000000       0.00000000       0.00000000 </v>
   <v>       0.00000000       0.00000000       0.00000000 </v>
   <v>       0.00000000       0.00000000       0.00000000 </v>
   <v>       0.00000000       0.00000000       0.00000000 </v>
   <v>       0.00000000       0.00000000       0.00000000 </v>
   <v>       0.00000000       0.00000000       0.00000000 </v>
   <v>       0.00000000       0.00000000       0.00000000 </v>
   <v>       0.00000000       0.00000000       0.00000000 </v>
   <v>       0.00000000       0.00000000       0.00000000 </v>
   <v>       0.00000000       0.00000000       0.00000000 </v>
   <v>       0.00000000       0.00000000       0.00000000 </v>
   <v>       0.00000000       0.00000000       0.00000000 </v>
   <v>       0.00000000       0.00000000       0.00000000 </v>
   <v>       0.00000000       0.00000000       0.00000000 </v>
   <v>       0.00000000       0.00000000       0.00000000 </v>
   <v>       0.00000000       0.00000000       0.00000000 </v>
   <v>       0.00000000       0.00000000       0.00000000 </v>
   <v>       0.00000000       0.00000000       0.00000000 </v>
   <v>       0.00000000       0.00000000       0.00000000 </v>
   <v>       0.00000000       0.00000000       0.00000000 </v>
   <v>       0.00000000       0.00000000       0.00000000 </v>
   <v>       0.00000000       0.00000000       0.00000000 </v>
   <v>       0.00000000       0.00000000       0.00000000 </v>
   <v>       0.00000000       0.00000000       0.00000000 </v>
   <v>       0.00000000       0.00000000       0.00000000 </v>
   <v>       0.00000000       0.00000000       0.00000000 </v>
   <v>       0.00000000       0.00000000       0.00000000 </v>
   <v>       0.00000000       0.00000000       0.00000000 </v>
   <v>       0.00000000       0.00000000       0.00000000 </v>
   <v>       0.00000000       0.00000000       0.00000000 </v>
   <v>       0.00000000       0.00000000       0.00000000 </v>
   <v>       0.00000000       0.00000000       0.00000000 </v>
   <v>       0.00000000       0.00000000       0.00000000 </v>
   <v>       0.00000000       0.00000000       0.00000000 </v>
   <v>       0.00000000       0.00000000       0.00000000 </v>
   <v>       0.00000000       0.00000000       0.00000000 </v>
   <v>       0.00000000       0.00000000       0.00000000 </v>
   <v>       0.00000000       0.00000000       0.00000000 </v>
   <v>       0.00000000       0.00000000       0.00000000 </v>
   <v>       0.00000000       0.00000000       0.00000000 </v>
   <v>       0.00000000       0.00000000       0.00000000 </v>
   <v>       0.00000000       0.00000000       0.00000000 </v>
   <v>       0.00000000       0.00000000       0.00000000 </v>
   <v>       0.00000000       0.00000000       0.00000000 </v>
   <v>       0.00000000       0.00000000       0.00000000 </v>
   <v>       0.00000000       0.00000000       0.00000000 </v>
   <v>       0.00000000       0.00000000       0.00000000 </v>
   <v>       0.00000000       0.00000000       0.00000000 </v>
   <v>       0.00000000       0.00000000       0.00000000 </v>
   <v>       0.00000000       0.00000000       0.00000000 </v>
   <v>       0.00000000       0.00000000       0.00000000 </v>
   <v>       0.00000000       0.00000000       0.00000000 </v>
   <v>       0.00000000       0.00000000       0.00000000 </v>
   <v>       0.00000000       0.00000000       0.00000000 </v>
   <v>       0.00000000       0.00000000       0.00000000 </v>
   <v>       0.00000000       0.00000000       0.00000000 </v>
   <v>       0.00000000       0.00000000       0.00000000 </v>
   <v>       0.00000000       0.00000000       0.00000000 </v>
   <v>       0.00000000       0.00000000       0.00000000 </v>
   <v>       0.00000000       0.00000000       0.00000000 </v>
  </varray>
 </structure>
</modeling>
