 running on   52 total cores
 distrk:  each k-point on   52 cores,    1 groups
 distr:  one band on   13 cores,    4 groups
 using from now: INCAR     
 vasp.5.4.4.18Apr17-6-g9f103f2a35 (build Oct 31 2019 15:01:46) complex          
  
 POSCAR found type information on POSCAR  Sc F  C 
 POSCAR found :  3 types and      80 ions
 scaLAPACK is switched off
 LDA part: xc-table for Pade appr. of Perdew
 generate k-points for:    3    3    1
 POSCAR, INCAR and KPOINTS ok, starting setup
 FFT: planning ...
 WAVECAR not read
 entering main loop
       N       E                     dE             d eps       ncg     rms          rms(c)
DAV:   1     0.136364662803E+05    0.13636E+05   -0.27903E+05  4256   0.156E+03
DAV:   2     0.249855858733E+04   -0.11138E+05   -0.10835E+05  4608   0.532E+02
DAV:   3    -0.376510613576E+03   -0.28751E+04   -0.27582E+04  6792   0.294E+02
DAV:   4    -0.736330641717E+03   -0.35982E+03   -0.35561E+03  6056   0.139E+02
DAV:   5    -0.750845886043E+03   -0.14515E+02   -0.14451E+02  6080   0.355E+01    0.777E+01
DAV:   6    -0.594673058703E+03    0.15617E+03   -0.84610E+02  5712   0.649E+01    0.255E+01
DAV:   7    -0.594635020111E+03    0.38039E-01   -0.55988E+01  5920   0.221E+01    0.168E+01
DAV:   8    -0.593073897717E+03    0.15611E+01   -0.10368E+01  5520   0.906E+00    0.471E+00
DAV:   9    -0.592590641186E+03    0.48326E+00   -0.23945E+00  5568   0.521E+00    0.230E+00
DAV:  10    -0.592546125898E+03    0.44515E-01   -0.34280E-01  6016   0.171E+00    0.127E+00
DAV:  11    -0.592436958622E+03    0.10917E+00   -0.14132E-01  5536   0.108E+00    0.722E-01
DAV:  12    -0.592399426609E+03    0.37532E-01   -0.47705E-02  5952   0.560E-01    0.348E-01
DAV:  13    -0.592387459326E+03    0.11967E-01   -0.29196E-02  5712   0.395E-01    0.253E-01
DAV:  14    -0.592384252918E+03    0.32064E-02   -0.99547E-03  5680   0.249E-01    0.173E-01
DAV:  15    -0.592390059464E+03   -0.58065E-02   -0.10971E-02  5672   0.207E-01    0.129E-01
DAV:  16    -0.592393175930E+03   -0.31165E-02   -0.21740E-03  5496   0.147E-01    0.951E-02
DAV:  17    -0.592399729588E+03   -0.65537E-02   -0.42373E-03  5568   0.128E-01    0.119E-01
DAV:  18    -0.592401840603E+03   -0.21110E-02   -0.91256E-04  5632   0.875E-02    0.604E-02
DAV:  19    -0.592403906808E+03   -0.20662E-02   -0.10333E-03  5960   0.628E-02    0.291E-02
DAV:  20    -0.592406347323E+03   -0.24405E-02   -0.11201E-04  5160   0.254E-02    0.276E-02
DAV:  21    -0.592408972538E+03   -0.26252E-02   -0.14212E-04  4520   0.199E-02    0.133E-02
DAV:  22    -0.592410127239E+03   -0.11547E-02   -0.12085E-04  4784   0.171E-02    0.118E-02
DAV:  23    -0.592410706052E+03   -0.57881E-03   -0.29555E-05  4848   0.135E-02    0.476E-03
DAV:  24    -0.592411063843E+03   -0.35779E-03   -0.14739E-05  4608   0.670E-03    0.325E-03
DAV:  25    -0.592411283729E+03   -0.21989E-03   -0.67526E-06  4144   0.379E-03    0.146E-03
DAV:  26    -0.592411369896E+03   -0.86168E-04   -0.16244E-06  3136   0.238E-03    0.125E-03
DAV:  27    -0.592411402871E+03   -0.32974E-04   -0.54642E-07  2744   0.224E-03    0.937E-04
DAV:  28    -0.592411431455E+03   -0.28585E-04   -0.87410E-07  2936   0.193E-03    0.699E-04
DAV:  29    -0.592411440613E+03   -0.91577E-05   -0.45453E-07  2696   0.202E-03    0.740E-04
DAV:  30    -0.592411444617E+03   -0.40038E-05   -0.31850E-07  2608   0.137E-03    0.713E-04
DAV:  31    -0.592411446587E+03   -0.19701E-05   -0.19681E-07  2584   0.132E-03    0.573E-04
DAV:  32    -0.592411447853E+03   -0.12661E-05   -0.14932E-07  2552   0.981E-04    0.470E-04
DAV:  33    -0.592411448463E+03   -0.60955E-06   -0.10409E-07  2520   0.951E-04
   1 F= -.59241145E+03 E0= -.59241145E+03  d E =-.244571E-26
