<?xml version="1.0" encoding="ISO-8859-1"?>
<modeling>
 <generator>
  <i name="program" type="string">vasp </i>
  <i name="version" type="string">5.4.4.18Apr17-6-g9f103f2a35  </i>
  <i name="subversion" type="string">(build Oct 31 2019 15:01:46) complex            parallel </i>
  <i name="platform" type="string">LinuxIFC </i>
  <i name="date" type="string">2024 04 20 </i>
  <i name="time" type="string">20:09:17 </i>
 </generator>
 <incar>
  <i type="int" name="ISTART">     0</i>
  <i type="string" name="PREC">anormal</i>
  <i type="logical" name="ADDGRID"> T  </i>
  <i type="int" name="IBRION">    -1</i>
  <i name="EDIFF">      0.00000100</i>
  <i name="EDIFFG">     -0.01000000</i>
  <i type="int" name="NSW">     1</i>
  <i type="int" name="ISIF">     2</i>
  <i type="int" name="ISYM">     2</i>
  <i name="ENCUT">    600.00000000</i>
  <i name="POTIM">      1.00000000</i>
  <i type="string" name="LREAL"> Auto.</i>
  <i type="int" name="ISMEAR">     0</i>
  <i name="SIGMA">      0.05000000</i>
  <i name="KSPACING">      0.25000000</i>
  <i type="logical" name="LWAVE"> F  </i>
  <i type="logical" name="LCHARG"> F  </i>
  <i type="logical" name="LSCALAPACK"> F  </i>
  <v type="int" name="KPOINT_BSE">    -1     0     0     0</v>
 </incar>
 <structure name="primitive_cell" >
  <crystal>
   <varray name="basis" >
    <v>      13.12862340       0.00000000       0.00000000 </v>
    <v>      -6.56431170      11.36972138       0.00000000 </v>
    <v>       0.00000000       0.00000000      26.82809424 </v>
   </varray>
   <i name="volume">   4004.59716953 </i>
   <varray name="rec_basis" >
    <v>       0.07616945       0.04397645       0.00000000 </v>
    <v>       0.00000000       0.08795290       0.00000000 </v>
    <v>       0.00000000       0.00000000       0.03727436 </v>
   </varray>
  </crystal>
  <varray name="positions" >
   <v>       0.08044349       0.16814540       0.44599594 </v>
   <v>       0.16592109       0.31896272       0.40233411 </v>
   <v>      -0.08152646       0.09238292       0.40972329 </v>
   <v>       0.17263129       0.09306641       0.40757338 </v>
   <v>       0.00238814       0.24236663       0.49639409 </v>
   <v>       0.25843719       0.24593495       0.49808558 </v>
   <v>      -0.00352904      -0.01246408       0.49760704 </v>
   <v>       0.17501442       0.34101416      -0.46276764 </v>
   <v>      -0.15992186       0.16934048       0.45336698 </v>
   <v>       0.08376979       0.41186268       0.45179643 </v>
   <v>       0.15858420       0.08236493      -0.45605278 </v>
   <v>      -0.17237332      -0.07332503       0.45477711 </v>
   <v>       0.34236117       0.40082169       0.44952312 </v>
   <v>       0.07457689      -0.08854664       0.44978624 </v>
   <v>       0.32604509       0.14869386       0.44881582 </v>
   <v>       0.09641024       0.17832555      -0.42076133 </v>
   <v>      -0.10186410       0.08384295      -0.44271632 </v>
   <v>       0.25024746       0.49618918       0.48680379 </v>
   <v>      -0.08797082       0.33599361       0.40532078 </v>
   <v>       0.42082998       0.31250087       0.40923576 </v>
   <v>      -0.06853390      -0.17130962       0.40318945 </v>
   <v>      -0.24918764       0.00941124      -0.49756126 </v>
   <v>       0.26316669       0.00513416      -0.49959029 </v>
   <v>      -0.07197277       0.34316726      -0.45210626 </v>
   <v>       0.41256909       0.32272411      -0.45114324 </v>
   <v>      -0.08330890      -0.16776711      -0.45323628 </v>
   <v>       0.32051079       0.42281311      -0.41931482 </v>
   <v>      -0.33303617      -0.14586741       0.41074183 </v>
   <v>       0.07971549      -0.08767597      -0.41419247 </v>
   <v>       0.10032654       0.41853532      -0.40723456 </v>
   <v>      -0.13224405       0.18715211      -0.39953927 </v>
   <v>      -0.33467662       0.08444203       0.40863552 </v>
   <v>       0.00318837       0.49532391      -0.49705691 </v>
   <v>       0.16388000      -0.16937949       0.41049039 </v>
   <v>       0.32969219       0.15372647      -0.40709096 </v>
   <v>       0.01138436      -0.24245241       0.49832568 </v>
   <v>      -0.24954337       0.24827375      -0.49398015 </v>
   <v>      -0.16103374      -0.07087497      -0.39966008 </v>
   <v>       0.15814662      -0.40740648       0.40755328 </v>
   <v>      -0.49689297       0.49720267       0.49887424 </v>
   <v>      -0.24798800      -0.25835122       0.49566489 </v>
   <v>      -0.49247787       0.24693460      -0.49110267 </v>
   <v>       0.43361435       0.06901302       0.41138392 </v>
   <v>       0.43830648      -0.37942814       0.40472231 </v>
   <v>       0.41509598      -0.41655517      -0.46308544 </v>
   <v>      -0.32886660      -0.16354613      -0.45531334 </v>
   <v>      -0.16610889      -0.32532802       0.44780613 </v>
   <v>       0.32011237      -0.33739451       0.44407553 </v>
   <v>      -0.16965188       0.41157064       0.46461554 </v>
   <v>       0.17028160      -0.15608916      -0.45105066 </v>
   <v>      -0.42100943      -0.07456652       0.45543520 </v>
   <v>       0.16825162      -0.41280796      -0.45292719 </v>
   <v>       0.32490306      -0.09083530       0.45320980 </v>
   <v>      -0.33385474       0.08727839      -0.44701107 </v>
   <v>       0.42644627       0.09777435      -0.44960981 </v>
   <v>      -0.40460900       0.41331501       0.45649758 </v>
   <v>       0.07138912      -0.34774329       0.45310702 </v>
   <v>      -0.40799570      -0.32841158       0.44900400 </v>
   <v>      -0.32886705       0.30795608       0.41968187 </v>
   <v>      -0.42079608       0.16534468       0.45667021 </v>
   <v>      -0.17218721      -0.31831495      -0.41621091 </v>
   <v>      -0.39659779      -0.08006226      -0.40706950 </v>
   <v>      -0.48430667      -0.24137331       0.49867817 </v>
   <v>      -0.43390525       0.42779693      -0.40679540 </v>
   <v>       0.33711613      -0.34441884      -0.40536629 </v>
   <v>       0.25007289      -0.25844830       0.49843635 </v>
   <v>      -0.10718368      -0.43083071       0.41572156 </v>
   <v>      -0.32679066      -0.43295323       0.40912196 </v>
   <v>       0.32591839      -0.10139558      -0.41231829 </v>
   <v>       0.49090222      -0.01721505      -0.49672580 </v>
   <v>      -0.17538243       0.43057588      -0.40579175 </v>
   <v>      -0.33478398      -0.41000626      -0.45127019 </v>
   <v>      -0.08042079      -0.40940647      -0.44967102 </v>
   <v>      -0.33644314       0.33712280      -0.44830773 </v>
   <v>      -0.43499514      -0.34635537      -0.41096240 </v>
   <v>       0.42103621      -0.15406366       0.41637840 </v>
   <v>      -0.26222135      -0.49829735      -0.49749832 </v>
   <v>       0.08165647      -0.33265043      -0.40557232 </v>
   <v>      -0.43194116       0.15130209      -0.39983416 </v>
   <v>       0.41606345      -0.17576268      -0.45292881 </v>
  </varray>
 </structure>
 <varray name="primitive_index" >
  <v type="int" >        1 </v>
  <v type="int" >       50 </v>
  <v type="int" >       61 </v>
  <v type="int" >       49 </v>
  <v type="int" >       66 </v>
  <v type="int" >       70 </v>
  <v type="int" >       65 </v>
  <v type="int" >       18 </v>
  <v type="int" >       13 </v>
  <v type="int" >        2 </v>
  <v type="int" >       17 </v>
  <v type="int" >       16 </v>
  <v type="int" >        6 </v>
  <v type="int" >        4 </v>
  <v type="int" >        5 </v>
  <v type="int" >       33 </v>
  <v type="int" >       29 </v>
  <v type="int" >       71 </v>
  <v type="int" >       62 </v>
  <v type="int" >       54 </v>
  <v type="int" >       64 </v>
  <v type="int" >       77 </v>
  <v type="int" >       69 </v>
  <v type="int" >       30 </v>
  <v type="int" >       22 </v>
  <v type="int" >       32 </v>
  <v type="int" >       38 </v>
  <v type="int" >       60 </v>
  <v type="int" >       36 </v>
  <v type="int" >       34 </v>
  <v type="int" >       45 </v>
  <v type="int" >       57 </v>
  <v type="int" >       67 </v>
  <v type="int" >       52 </v>
  <v type="int" >       37 </v>
  <v type="int" >       68 </v>
  <v type="int" >       78 </v>
  <v type="int" >       48 </v>
  <v type="int" >       51 </v>
  <v type="int" >       75 </v>
  <v type="int" >       80 </v>
  <v type="int" >       74 </v>
  <v type="int" >       53 </v>
  <v type="int" >       55 </v>
  <v type="int" >       23 </v>
  <v type="int" >       28 </v>
  <v type="int" >       15 </v>
  <v type="int" >        7 </v>
  <v type="int" >       14 </v>
  <v type="int" >       20 </v>
  <v type="int" >       12 </v>
  <v type="int" >       19 </v>
  <v type="int" >        8 </v>
  <v type="int" >       25 </v>
  <v type="int" >       21 </v>
  <v type="int" >       10 </v>
  <v type="int" >        3 </v>
  <v type="int" >       11 </v>
  <v type="int" >       58 </v>
  <v type="int" >        9 </v>
  <v type="int" >       47 </v>
  <v type="int" >       44 </v>
  <v type="int" >       76 </v>
  <v type="int" >       42 </v>
  <v type="int" >       39 </v>
  <v type="int" >       72 </v>
  <v type="int" >       63 </v>
  <v type="int" >       59 </v>
  <v type="int" >       40 </v>
  <v type="int" >       73 </v>
  <v type="int" >       46 </v>
  <v type="int" >       27 </v>
  <v type="int" >       31 </v>
  <v type="int" >       26 </v>
  <v type="int" >       43 </v>
  <v type="int" >       56 </v>
  <v type="int" >       79 </v>
  <v type="int" >       35 </v>
  <v type="int" >       41 </v>
  <v type="int" >       24 </v>
 </varray>
 <kpoints>
  <generation param="Gamma">
   <v type="int" name="divisions">       3        3        1 </v>
   <v name="usershift">      0.00000000       0.00000000       0.00000000 </v>
   <v name="genvec1">      0.33333333       0.00000000       0.00000000 </v>
   <v name="genvec2">      0.00000000       0.33333333       0.00000000 </v>
   <v name="genvec3">      0.00000000       0.00000000       1.00000000 </v>
   <v name="shift">      0.00000000       0.00000000       0.00000000 </v>
  </generation>
  <varray name="kpointlist" >
   <v>       0.00000000       0.00000000       0.00000000 </v>
   <v>       0.33333333      -0.00000000       0.00000000 </v>
   <v>       0.00000000       0.33333333       0.00000000 </v>
   <v>       0.33333333       0.33333333       0.00000000 </v>
   <v>      -0.33333333       0.33333333       0.00000000 </v>
  </varray>
  <varray name="weights" >
   <v>       0.11111111 </v>
   <v>       0.22222222 </v>
   <v>       0.22222222 </v>
   <v>       0.22222222 </v>
   <v>       0.22222222 </v>
  </varray>
 </kpoints>
 <parameters>
  <separator name="general" >
   <i type="string" name="SYSTEM">unknown system</i>
   <i type="logical" name="LCOMPAT"> F  </i>
  </separator>
  <separator name="electronic" >
   <i type="string" name="PREC">anorma</i>
   <i name="ENMAX">    600.00000000</i>
   <i name="ENAUG">    644.87300000</i>
   <i name="EDIFF">      0.00000100</i>
   <i type="int" name="IALGO">    38</i>
   <i type="int" name="IWAVPR">    10</i>
   <i type="int" name="NBANDS">   384</i>
   <i name="NELECT">    640.00000000</i>
   <i type="int" name="TURBO">     0</i>
   <i type="int" name="IRESTART">     0</i>
   <i type="int" name="NREBOOT">     0</i>
   <i type="int" name="NMIN">     0</i>
   <i name="EREF">      0.00000000</i>
   <separator name="electronic smearing" >
    <i type="int" name="ISMEAR">     0</i>
    <i name="SIGMA">      0.05000000</i>
    <i name="KSPACING">      0.25000000</i>
    <i type="logical" name="KGAMMA"> T  </i>
   </separator>
   <separator name="electronic projectors" >
    <i type="logical" name="LREAL"> T  </i>
    <v name="ROPT">     -0.00025000     -0.00025000     -0.00025000</v>
    <i type="int" name="LMAXPAW">  -100</i>
    <i type="int" name="LMAXMIX">     2</i>
    <i type="logical" name="NLSPLINE"> F  </i>
   </separator>
   <separator name="electronic startup" >
    <i type="int" name="ISTART">     0</i>
    <i type="int" name="ICHARG">     2</i>
    <i type="int" name="INIWAV">     1</i>
   </separator>
   <separator name="electronic spin" >
    <i type="int" name="ISPIN">     1</i>
    <i type="logical" name="LNONCOLLINEAR"> F  </i>
    <v name="MAGMOM">      1.00000000      1.00000000      1.00000000      1.00000000      1.00000000      1.00000000      1.00000000      1.00000000      1.00000000      1.00000000      1.00000000      1.00000000      1.00000000      1.00000000      1.00000000      1.00000000      1.00000000      1.00000000      1.00000000      1.00000000
      1.00000000      1.00000000      1.00000000      1.00000000      1.00000000      1.00000000      1.00000000      1.00000000      1.00000000      1.00000000      1.00000000      1.00000000      1.00000000      1.00000000      1.00000000      1.00000000      1.00000000      1.00000000      1.00000000      1.00000000
      1.00000000      1.00000000      1.00000000      1.00000000      1.00000000      1.00000000      1.00000000      1.00000000      1.00000000      1.00000000      1.00000000      1.00000000      1.00000000      1.00000000      1.00000000      1.00000000      1.00000000      1.00000000      1.00000000      1.00000000
      1.00000000      1.00000000      1.00000000      1.00000000      1.00000000      1.00000000      1.00000000      1.00000000      1.00000000      1.00000000      1.00000000      1.00000000      1.00000000      1.00000000      1.00000000      1.00000000      1.00000000      1.00000000      1.00000000      1.00000000
</v>
    <i name="NUPDOWN">     -1.00000000</i>
    <i type="logical" name="LSORBIT"> F  </i>
    <v name="SAXIS">      0.00000000      0.00000000      1.00000000</v>
    <i type="logical" name="LSPIRAL"> F  </i>
    <v name="QSPIRAL">      0.00000000      0.00000000      0.00000000</v>
    <i type="logical" name="LZEROZ"> F  </i>
   </separator>
   <separator name="electronic exchange-correlation" >
    <i type="logical" name="LASPH"> F  </i>
    <i type="logical" name="LMETAGGA"> F  </i>
   </separator>
   <separator name="electronic convergence" >
    <i type="int" name="NELM">    60</i>
    <i type="int" name="NELMDL">    -5</i>
    <i type="int" name="NELMIN">     2</i>
    <i name="ENINI">    600.00000000</i>
    <separator name="electronic convergence detail" >
     <i type="logical" name="LDIAG"> T  </i>
     <i type="logical" name="LSUBROT"> F  </i>
     <i name="WEIMIN">      0.00000000</i>
     <i name="EBREAK">      0.00000000</i>
     <i name="DEPER">      0.30000000</i>
     <i type="int" name="NRMM">     4</i>
     <i name="TIME">      0.40000000</i>
    </separator>
   </separator>
   <separator name="electronic mixer" >
    <i name="AMIX">      0.40000000</i>
    <i name="BMIX">      1.00000000</i>
    <i name="AMIN">      0.10000000</i>
    <i name="AMIX_MAG">      1.60000000</i>
    <i name="BMIX_MAG">      1.00000000</i>
    <separator name="electronic mixer details" >
     <i type="int" name="IMIX">     4</i>
     <i type="logical" name="MIXFIRST"> F  </i>
     <i type="int" name="MAXMIX">   -45</i>
     <i name="WC">    100.00000000</i>
     <i type="int" name="INIMIX">     1</i>
     <i type="int" name="MIXPRE">     1</i>
     <i type="int" name="MREMOVE">     5</i>
    </separator>
   </separator>
   <separator name="electronic dipolcorrection" >
    <i type="logical" name="LDIPOL"> F  </i>
    <i type="logical" name="LMONO"> F  </i>
    <i type="int" name="IDIPOL">     0</i>
    <i name="EPSILON">      1.00000000</i>
    <v name="DIPOL">   -100.00000000   -100.00000000   -100.00000000</v>
    <i name="EFIELD">      0.00000000</i>
   </separator>
  </separator>
  <separator name="grids" >
   <i type="int" name="NGX">   108</i>
   <i type="int" name="NGY">   108</i>
   <i type="int" name="NGZ">   216</i>
   <i type="int" name="NGXF">   216</i>
   <i type="int" name="NGYF">   216</i>
   <i type="int" name="NGZF">   432</i>
   <i type="logical" name="ADDGRID"> T  </i>
  </separator>
  <separator name="ionic" >
   <i type="int" name="NSW">     1</i>
   <i type="int" name="IBRION">    -1</i>
   <i type="int" name="MDALGO">     0</i>
   <i type="int" name="ISIF">     2</i>
   <i name="PSTRESS">      0.00000000</i>
   <i name="EDIFFG">     -0.01000000</i>
   <i type="int" name="NFREE">     0</i>
   <i name="POTIM">      1.00000000</i>
   <i name="SMASS">     -3.00000000</i>
   <i name="SCALEE">      1.00000000</i>
  </separator>
  <separator name="ionic md" >
   <i name="TEBEG">      0.00010000</i>
   <i name="TEEND">      0.00010000</i>
   <i type="int" name="NBLOCK">     1</i>
   <i type="int" name="KBLOCK">     1</i>
   <i type="int" name="NPACO">   256</i>
   <i name="APACO">     16.00000000</i>
  </separator>
  <separator name="symmetry" >
   <i type="int" name="ISYM">     2</i>
   <i name="SYMPREC">      0.00001000</i>
  </separator>
  <separator name="dos" >
   <i type="int" name="LORBIT">     0</i>
   <v name="RWIGS">     -1.00000000     -1.00000000     -1.00000000</v>
   <i type="int" name="NEDOS">   301</i>
   <i name="EMIN">     10.00000000</i>
   <i name="EMAX">    -10.00000000</i>
   <i name="EFERMI">      0.00000000</i>
  </separator>
  <separator name="writing" >
   <i type="int" name="NWRITE">     2</i>
   <i type="logical" name="LWAVE"> F  </i>
   <i type="logical" name="LDOWNSAMPLE"> F  </i>
   <i type="logical" name="LCHARG"> F  </i>
   <i type="logical" name="LPARD"> F  </i>
   <i type="logical" name="LVTOT"> F  </i>
   <i type="logical" name="LVHAR"> F  </i>
   <i type="logical" name="LELF"> F  </i>
   <i type="logical" name="LOPTICS"> F  </i>
   <v name="STM">      0.00000000      0.00000000      0.00000000      0.00000000      0.00000000      0.00000000      0.00000000</v>
  </separator>
  <separator name="performance" >
   <i type="int" name="NPAR">     4</i>
   <i type="int" name="NSIM">     4</i>
   <i type="int" name="NBLK">    -1</i>
   <i type="logical" name="LPLANE"> T  </i>
   <i type="logical" name="LSCALAPACK"> F  </i>
   <i type="logical" name="LSCAAWARE"> F  </i>
   <i type="logical" name="LSCALU"> F  </i>
   <i type="logical" name="LASYNC"> F  </i>
   <i type="logical" name="LORBITALREAL"> F  </i>
  </separator>
  <separator name="miscellaneous" >
   <i type="int" name="IDIOT">     3</i>
   <i type="int" name="ISPECIAL">     0</i>
   <i type="logical" name="LMUSIC"> F  </i>
   <v name="POMASS">     44.95600000     18.99800000     12.01100000</v>
   <v name="DARWINR">      0.00000000      0.00000000      0.00000000</v>
   <v name="DARWINV">      1.00000000      1.00000000      1.00000000</v>
   <i type="logical" name="LCORR"> T  </i>
  </separator>
  <i type="logical" name="GGA_COMPAT"> T  </i>
  <i type="logical" name="LBERRY"> F  </i>
  <i type="int" name="ICORELEVEL">     0</i>
  <i type="logical" name="LDAU"> F  </i>
  <i type="int" name="I_CONSTRAINED_M">     0</i>
  <separator name="electronic exchange-correlation" >
   <i type="string" name="GGA">--</i>
   <i type="int" name="VOSKOWN">     0</i>
   <i type="logical" name="LHFCALC"> F  </i>
   <i type="string" name="PRECFOCK"></i>
   <i type="logical" name="LSYMGRAD"> F  </i>
   <i type="logical" name="LHFONE"> F  </i>
   <i type="logical" name="LRHFCALC"> F  </i>
   <i type="logical" name="LTHOMAS"> F  </i>
   <i type="logical" name="LMODELHF"> F  </i>
   <i name="ENCUT4O">     -1.00000000</i>
   <i type="int" name="EXXOEP">     0</i>
   <i type="int" name="FOURORBIT">     0</i>
   <i name="AEXX">      0.00000000</i>
   <i name="HFALPHA">      0.00000000</i>
   <i name="MCALPHA">      0.00000000</i>
   <i name="ALDAX">      1.00000000</i>
   <i name="AGGAX">      1.00000000</i>
   <i name="ALDAC">      1.00000000</i>
   <i name="AGGAC">      1.00000000</i>
   <i type="int" name="NKREDX">     1</i>
   <i type="int" name="NKREDY">     1</i>
   <i type="int" name="NKREDZ">     1</i>
   <i type="logical" name="SHIFTRED"> F  </i>
   <i type="logical" name="ODDONLY"> F  </i>
   <i type="logical" name="EVENONLY"> F  </i>
   <i type="int" name="LMAXFOCK">     0</i>
   <i type="int" name="NMAXFOCKAE">     0</i>
   <i type="logical" name="LFOCKAEDFT"> F  </i>
   <i name="HFSCREEN">      0.00000000</i>
   <i name="HFSCREENC">      0.00000000</i>
   <i type="int" name="NBANDSGWLOW">     0</i>
  </separator>
  <separator name="vdW DFT" >
   <i type="logical" name="LUSE_VDW"> F  </i>
   <i name="Zab_VDW">     -0.84910000</i>
   <i name="PARAM1">      0.12340000</i>
   <i name="PARAM2">      1.00000000</i>
   <i name="PARAM3">      0.00000000</i>
  </separator>
  <separator name="model GW" >
   <i type="int" name="MODEL_GW">     0</i>
   <i name="MODEL_EPS0">     30.03447877</i>
   <i name="MODEL_ALPHA">      1.00000000</i>
  </separator>
  <separator name="linear response parameters" >
   <i type="logical" name="LEPSILON"> F  </i>
   <i type="logical" name="LRPA"> F  </i>
   <i type="logical" name="LNABLA"> F  </i>
   <i type="logical" name="LVEL"> F  </i>
   <i type="int" name="KINTER">     0</i>
   <i name="CSHIFT">      0.10000000</i>
   <i name="OMEGAMAX">     -1.00000000</i>
   <i name="DEG_THRESHOLD">      0.00200000</i>
   <i name="RTIME">     -0.10000000</i>
   <i name="WPLASMAI">      0.00000000</i>
   <v name="DFIELD">      0.00000000      0.00000000      0.00000000</v>
   <v name="WPLASMA">      0.00000000      0.00000000      0.00000000      0.00000000      0.00000000      0.00000000      0.00000000      0.00000000      0.00000000</v>
  </separator>
  <separator name="orbital magnetization" >
   <i type="logical" name="NUCIND"> F  </i>
   <v name="MAGPOS">      0.00000000      0.00000000      0.00000000</v>
   <i type="logical" name="LNICSALL"> T  </i>
   <i type="logical" name="ORBITALMAG"> F  </i>
   <i type="logical" name="LMAGBLOCH"> F  </i>
   <i type="logical" name="LCHIMAG"> F  </i>
   <i type="logical" name="LGAUGE"> T  </i>
   <i type="int" name="MAGATOM">     0</i>
   <v name="MAGDIPOL">      0.00000000      0.00000000      0.00000000</v>
   <v name="AVECCONST">      0.00000000      0.00000000      0.00000000</v>
  </separator>
  <separator name="response functions" >
   <i type="logical" name="LADDER"> F  </i>
   <i type="logical" name="LRPAFORCE"> F  </i>
   <i type="logical" name="LFXC"> F  </i>
   <i type="logical" name="LHARTREE"> T  </i>
   <i type="int" name="IBSE">     0</i>
   <v type="int" name="KPOINT">    -1     0     0     0</v>
   <i type="logical" name="LTCTE"> F  </i>
   <i type="logical" name="LTETE"> F  </i>
   <i type="logical" name="LTRIPLET"> F  </i>
   <i type="logical" name="LFXCEPS"> F  </i>
   <i type="logical" name="LFXHEG"> F  </i>
   <i type="int" name="NATURALO">     2</i>
   <i type="logical" name="L2ORDER"> F  </i>
   <i type="logical" name="LMP2LT"> F  </i>
   <i type="logical" name="LUSEW"> F  </i>
   <i name="ENCUTGW">     -2.00000000</i>
   <i name="ENCUTGWSOFT">     -2.00000000</i>
   <i name="ENCUTLF">     -1.00000000</i>
   <i type="int" name="LMAXMP2">    -1</i>
   <i name="SCISSOR">      0.00000000</i>
   <i type="int" name="NOMEGA">     0</i>
   <i type="int" name="NOMEGAR">     0</i>
   <i type="int" name="NBANDSGW">    -1</i>
   <i type="int" name="NBANDSO">    -1</i>
   <i type="int" name="NBANDSV">    -1</i>
   <i type="int" name="NELM">     1</i>
   <i type="int" name="NELMHF">     1</i>
   <i type="int" name="DIM">     3</i>
   <i type="int" name="ANTIRES">     0</i>
   <i name="OMEGAMAX">    -30.00000000</i>
   <i name="OMEGAMIN">    -30.00000000</i>
   <i name="OMEGATL">   -200.00000000</i>
   <i type="int" name="OMEGAGRID">   140</i>
   <i name="CSHIFT">     -0.10000000</i>
   <i type="logical" name="SELFENERGY"> F  </i>
   <i type="logical" name="LSPECTRAL"> F  </i>
   <i type="logical" name="LSPECTRALGW"> F  </i>
   <i type="logical" name="LSINGLES"> F  </i>
   <i type="logical" name="LFERMIGW"> F  </i>
   <i type="logical" name="ODDONLYGW"> F  </i>
   <i type="logical" name="EVENONLYGW"> F  </i>
   <i type="int" name="NKREDLFX">     1</i>
   <i type="int" name="NKREDLFY">     1</i>
   <i type="int" name="NKREDLFZ">     1</i>
   <i type="int" name="MAXMEM">  2800</i>
   <i type="int" name="TELESCOPE">     0</i>
   <i type="int" name="TAUPAR">     1</i>
   <i type="int" name="OMEGAPAR">    -1</i>
   <i name="LAMBDA">      1.00000000</i>
  </separator>
  <separator name="External order field" >
   <i name="OFIELD_KAPPA">      0.00000000</i>
   <v name="OFIELD_K">      0.00000000      0.00000000      0.00000000</v>
   <i name="OFIELD_Q6_NEAR">      0.00000000</i>
   <i name="OFIELD_Q6_FAR">      0.00000000</i>
   <i name="OFIELD_A">      0.00000000</i>
  </separator>
 </parameters>
 <atominfo>
  <atoms>      80 </atoms>
  <types>       3 </types>
  <array name="atoms" >
   <dimension dim="1">ion</dimension>
   <field type="string">element</field>
   <field type="int">atomtype</field>
   <set>
    <rc><c>Sc</c><c>   1</c></rc>
    <rc><c>Sc</c><c>   1</c></rc>
    <rc><c>Sc</c><c>   1</c></rc>
    <rc><c>Sc</c><c>   1</c></rc>
    <rc><c>Sc</c><c>   1</c></rc>
    <rc><c>Sc</c><c>   1</c></rc>
    <rc><c>Sc</c><c>   1</c></rc>
    <rc><c>Sc</c><c>   1</c></rc>
    <rc><c>Sc</c><c>   1</c></rc>
    <rc><c>Sc</c><c>   1</c></rc>
    <rc><c>Sc</c><c>   1</c></rc>
    <rc><c>Sc</c><c>   1</c></rc>
    <rc><c>Sc</c><c>   1</c></rc>
    <rc><c>Sc</c><c>   1</c></rc>
    <rc><c>Sc</c><c>   1</c></rc>
    <rc><c>Sc</c><c>   1</c></rc>
    <rc><c>Sc</c><c>   1</c></rc>
    <rc><c>Sc</c><c>   1</c></rc>
    <rc><c>Sc</c><c>   1</c></rc>
    <rc><c>Sc</c><c>   1</c></rc>
    <rc><c>Sc</c><c>   1</c></rc>
    <rc><c>Sc</c><c>   1</c></rc>
    <rc><c>Sc</c><c>   1</c></rc>
    <rc><c>Sc</c><c>   1</c></rc>
    <rc><c>Sc</c><c>   1</c></rc>
    <rc><c>Sc</c><c>   1</c></rc>
    <rc><c>Sc</c><c>   1</c></rc>
    <rc><c>Sc</c><c>   1</c></rc>
    <rc><c>Sc</c><c>   1</c></rc>
    <rc><c>Sc</c><c>   1</c></rc>
    <rc><c>Sc</c><c>   1</c></rc>
    <rc><c>Sc</c><c>   1</c></rc>
    <rc><c>F </c><c>   2</c></rc>
    <rc><c>F </c><c>   2</c></rc>
    <rc><c>F </c><c>   2</c></rc>
    <rc><c>F </c><c>   2</c></rc>
    <rc><c>F </c><c>   2</c></rc>
    <rc><c>F </c><c>   2</c></rc>
    <rc><c>F </c><c>   2</c></rc>
    <rc><c>F </c><c>   2</c></rc>
    <rc><c>F </c><c>   2</c></rc>
    <rc><c>F </c><c>   2</c></rc>
    <rc><c>F </c><c>   2</c></rc>
    <rc><c>F </c><c>   2</c></rc>
    <rc><c>F </c><c>   2</c></rc>
    <rc><c>F </c><c>   2</c></rc>
    <rc><c>F </c><c>   2</c></rc>
    <rc><c>F </c><c>   2</c></rc>
    <rc><c>F </c><c>   2</c></rc>
    <rc><c>F </c><c>   2</c></rc>
    <rc><c>F </c><c>   2</c></rc>
    <rc><c>F </c><c>   2</c></rc>
    <rc><c>F </c><c>   2</c></rc>
    <rc><c>F </c><c>   2</c></rc>
    <rc><c>F </c><c>   2</c></rc>
    <rc><c>F </c><c>   2</c></rc>
    <rc><c>F </c><c>   2</c></rc>
    <rc><c>F </c><c>   2</c></rc>
    <rc><c>F </c><c>   2</c></rc>
    <rc><c>F </c><c>   2</c></rc>
    <rc><c>F </c><c>   2</c></rc>
    <rc><c>F </c><c>   2</c></rc>
    <rc><c>F </c><c>   2</c></rc>
    <rc><c>F </c><c>   2</c></rc>
    <rc><c>C </c><c>   3</c></rc>
    <rc><c>C </c><c>   3</c></rc>
    <rc><c>C </c><c>   3</c></rc>
    <rc><c>C </c><c>   3</c></rc>
    <rc><c>C </c><c>   3</c></rc>
    <rc><c>C </c><c>   3</c></rc>
    <rc><c>C </c><c>   3</c></rc>
    <rc><c>C </c><c>   3</c></rc>
    <rc><c>C </c><c>   3</c></rc>
    <rc><c>C </c><c>   3</c></rc>
    <rc><c>C </c><c>   3</c></rc>
    <rc><c>C </c><c>   3</c></rc>
    <rc><c>C </c><c>   3</c></rc>
    <rc><c>C </c><c>   3</c></rc>
    <rc><c>C </c><c>   3</c></rc>
    <rc><c>C </c><c>   3</c></rc>
   </set>
  </array>
  <array name="atomtypes" >
   <dimension dim="1">type</dimension>
   <field type="int">atomspertype</field>
   <field type="string">element</field>
   <field>mass</field>
   <field>valence</field>
   <field type="string">pseudopotential</field>
   <set>
    <rc><c>  32</c><c>Sc</c><c>     44.95600000</c><c>     11.00000000</c><c>  PAW_PBE Sc_sv 07Sep2000               </c></rc>
    <rc><c>  32</c><c>F </c><c>     18.99800000</c><c>      7.00000000</c><c>  PAW_PBE F 08Apr2002                   </c></rc>
    <rc><c>  16</c><c>C </c><c>     12.01100000</c><c>      4.00000000</c><c>  PAW_PBE C 08Apr2002                   </c></rc>
   </set>
  </array>
 </atominfo>
 <structure name="initialpos" >
  <crystal>
   <varray name="basis" >
    <v>      13.12862340       0.00000000       0.00000000 </v>
    <v>      -6.56431170      11.36972138       0.00000000 </v>
    <v>       0.00000000       0.00000000      26.82809424 </v>
   </varray>
   <i name="volume">   4004.59716953 </i>
   <varray name="rec_basis" >
    <v>       0.07616945       0.04397645       0.00000000 </v>
    <v>       0.00000000       0.08795290       0.00000000 </v>
    <v>       0.00000000       0.00000000       0.03727436 </v>
   </varray>
  </crystal>
  <varray name="positions" >
   <v>       0.08044349       0.16814540       0.44599594 </v>
   <v>       0.08376979       0.41186268       0.45179643 </v>
   <v>       0.07138912       0.65225671       0.45310702 </v>
   <v>       0.07457689       0.91145336       0.44978624 </v>
   <v>       0.32604509       0.14869386       0.44881582 </v>
   <v>       0.34236117       0.40082169       0.44952312 </v>
   <v>       0.32011237       0.66260549       0.44407553 </v>
   <v>       0.32490306       0.90916470       0.45320980 </v>
   <v>       0.57920392       0.16534468       0.45667021 </v>
   <v>       0.59539100       0.41331501       0.45649758 </v>
   <v>       0.59200430       0.67158842       0.44900400 </v>
   <v>       0.57899057       0.92543348       0.45543520 </v>
   <v>       0.84007814       0.16934048       0.45336698 </v>
   <v>       0.83034812       0.41157064       0.46461554 </v>
   <v>       0.83389111       0.67467198       0.44780613 </v>
   <v>       0.82762668       0.92667497       0.45477711 </v>
   <v>       0.15858420       0.08236493       0.54394722 </v>
   <v>       0.17501442       0.34101416       0.53723236 </v>
   <v>       0.16825162       0.58719204       0.54707281 </v>
   <v>       0.17028160       0.84391084       0.54894934 </v>
   <v>       0.42644627       0.09777435       0.55039019 </v>
   <v>       0.41256909       0.32272411       0.54885676 </v>
   <v>       0.41509598       0.58344483       0.53691456 </v>
   <v>       0.41606345       0.82423732       0.54707119 </v>
   <v>       0.66614526       0.08727839       0.55298893 </v>
   <v>       0.66355686       0.33712280       0.55169227 </v>
   <v>       0.66521602       0.58999374       0.54872981 </v>
   <v>       0.67113340       0.83645387       0.54468666 </v>
   <v>       0.89813590       0.08384295       0.55728368 </v>
   <v>       0.92802723       0.34316726       0.54789374 </v>
   <v>       0.91957921       0.59059353       0.55032898 </v>
   <v>       0.91669110       0.83223289       0.54676372 </v>
   <v>       0.09641024       0.17832555       0.57923867 </v>
   <v>       0.10032654       0.41853532       0.59276544 </v>
   <v>       0.08165647       0.66734957       0.59442768 </v>
   <v>       0.07971549       0.91232403       0.58580753 </v>
   <v>       0.32969219       0.15372647       0.59290904 </v>
   <v>       0.32051079       0.42281311       0.58068518 </v>
   <v>       0.33711613       0.65558116       0.59463371 </v>
   <v>       0.32591839       0.89860442       0.58768171 </v>
   <v>       0.56805884       0.15130209       0.60016584 </v>
   <v>       0.56609475       0.42779693       0.59320460 </v>
   <v>       0.56500486       0.65364463       0.58903760 </v>
   <v>       0.60340221       0.91993774       0.59293050 </v>
   <v>       0.86775595       0.18715211       0.60046073 </v>
   <v>       0.82461757       0.43057588       0.59420825 </v>
   <v>       0.82781279       0.68168505       0.58378909 </v>
   <v>       0.83896626       0.92912503       0.60033992 </v>
   <v>       0.17263129       0.09306641       0.40757338 </v>
   <v>       0.16592109       0.31896272       0.40233411 </v>
   <v>       0.15814662       0.59259352       0.40755328 </v>
   <v>       0.16388000       0.83062051       0.41049039 </v>
   <v>       0.43361435       0.06901302       0.41138392 </v>
   <v>       0.42082998       0.31250087       0.40923576 </v>
   <v>       0.43830648       0.62057186       0.40472231 </v>
   <v>       0.42103621       0.84593634       0.41637840 </v>
   <v>       0.66532338       0.08444203       0.40863552 </v>
   <v>       0.67113295       0.30795608       0.41968187 </v>
   <v>       0.67320934       0.56704677       0.40912196 </v>
   <v>       0.66696383       0.85413259       0.41074183 </v>
   <v>       0.91847354       0.09238292       0.40972329 </v>
   <v>       0.91202918       0.33599361       0.40532078 </v>
   <v>       0.89281632       0.56916929       0.41572156 </v>
   <v>       0.93146610       0.82869038       0.40318945 </v>
   <v>       0.99647096       0.98753592       0.49760704 </v>
   <v>       0.00238814       0.24236663       0.49639409 </v>
   <v>       0.00318837       0.49532391       0.50294309 </v>
   <v>       0.01138436       0.75754759       0.49832568 </v>
   <v>       0.26316669       0.00513416       0.50040971 </v>
   <v>       0.25843719       0.24593495       0.49808558 </v>
   <v>       0.25024746       0.49618918       0.48680379 </v>
   <v>       0.25007289       0.74155170       0.49843635 </v>
   <v>       0.49090222       0.98278495       0.50327420 </v>
   <v>       0.50752213       0.24693460       0.50889733 </v>
   <v>       0.50310703       0.49720267       0.49887424 </v>
   <v>       0.51569333       0.75862669       0.49867817 </v>
   <v>       0.75081236       0.00941124       0.50243874 </v>
   <v>       0.75045663       0.24827375       0.50601985 </v>
   <v>       0.73777865       0.50170265       0.50250168 </v>
   <v>       0.75201200       0.74164878       0.49566489 </v>
  </varray>
  <varray name="velocities" >
   <v>       0.00000000       0.00000000       0.00000000 </v>
   <v>       0.00000000       0.00000000       0.00000000 </v>
   <v>       0.00000000       0.00000000       0.00000000 </v>
   <v>       0.00000000       0.00000000       0.00000000 </v>
   <v>       0.00000000       0.00000000       0.00000000 </v>
   <v>       0.00000000       0.00000000       0.00000000 </v>
   <v>       0.00000000       0.00000000       0.00000000 </v>
   <v>       0.00000000       0.00000000       0.00000000 </v>
   <v>       0.00000000       0.00000000       0.00000000 </v>
   <v>       0.00000000       0.00000000       0.00000000 </v>
   <v>       0.00000000       0.00000000       0.00000000 </v>
   <v>       0.00000000       0.00000000       0.00000000 </v>
   <v>       0.00000000       0.00000000       0.00000000 </v>
   <v>       0.00000000       0.00000000       0.00000000 </v>
   <v>       0.00000000       0.00000000       0.00000000 </v>
   <v>       0.00000000       0.00000000       0.00000000 </v>
   <v>       0.00000000       0.00000000       0.00000000 </v>
   <v>       0.00000000       0.00000000       0.00000000 </v>
   <v>       0.00000000       0.00000000       0.00000000 </v>
   <v>       0.00000000       0.00000000       0.00000000 </v>
   <v>       0.00000000       0.00000000       0.00000000 </v>
   <v>       0.00000000       0.00000000       0.00000000 </v>
   <v>       0.00000000       0.00000000       0.00000000 </v>
   <v>       0.00000000       0.00000000       0.00000000 </v>
   <v>       0.00000000       0.00000000       0.00000000 </v>
   <v>       0.00000000       0.00000000       0.00000000 </v>
   <v>       0.00000000       0.00000000       0.00000000 </v>
   <v>       0.00000000       0.00000000       0.00000000 </v>
   <v>       0.00000000       0.00000000       0.00000000 </v>
   <v>       0.00000000       0.00000000       0.00000000 </v>
   <v>       0.00000000       0.00000000       0.00000000 </v>
   <v>       0.00000000       0.00000000       0.00000000 </v>
   <v>       0.00000000       0.00000000       0.00000000 </v>
   <v>       0.00000000       0.00000000       0.00000000 </v>
   <v>       0.00000000       0.00000000       0.00000000 </v>
   <v>       0.00000000       0.00000000       0.00000000 </v>
   <v>       0.00000000       0.00000000       0.00000000 </v>
   <v>       0.00000000       0.00000000       0.00000000 </v>
   <v>       0.00000000       0.00000000       0.00000000 </v>
   <v>       0.00000000       0.00000000       0.00000000 </v>
   <v>       0.00000000       0.00000000       0.00000000 </v>
   <v>       0.00000000       0.00000000       0.00000000 </v>
   <v>       0.00000000       0.00000000       0.00000000 </v>
   <v>       0.00000000       0.00000000       0.00000000 </v>
   <v>       0.00000000       0.00000000       0.00000000 </v>
   <v>       0.00000000       0.00000000       0.00000000 </v>
   <v>       0.00000000       0.00000000       0.00000000 </v>
   <v>       0.00000000       0.00000000       0.00000000 </v>
   <v>       0.00000000       0.00000000       0.00000000 </v>
   <v>       0.00000000       0.00000000       0.00000000 </v>
   <v>       0.00000000       0.00000000       0.00000000 </v>
   <v>       0.00000000       0.00000000       0.00000000 </v>
   <v>       0.00000000       0.00000000       0.00000000 </v>
   <v>       0.00000000       0.00000000       0.00000000 </v>
   <v>       0.00000000       0.00000000       0.00000000 </v>
   <v>       0.00000000       0.00000000       0.00000000 </v>
   <v>       0.00000000       0.00000000       0.00000000 </v>
   <v>       0.00000000       0.00000000       0.00000000 </v>
   <v>       0.00000000       0.00000000       0.00000000 </v>
   <v>       0.00000000       0.00000000       0.00000000 </v>
   <v>       0.00000000       0.00000000       0.00000000 </v>
   <v>       0.00000000       0.00000000       0.00000000 </v>
   <v>       0.00000000       0.00000000       0.00000000 </v>
   <v>       0.00000000       0.00000000       0.00000000 </v>
   <v>       0.00000000       0.00000000       0.00000000 </v>
   <v>       0.00000000       0.00000000       0.00000000 </v>
   <v>       0.00000000       0.00000000       0.00000000 </v>
   <v>       0.00000000       0.00000000       0.00000000 </v>
   <v>       0.00000000       0.00000000       0.00000000 </v>
   <v>       0.00000000       0.00000000       0.00000000 </v>
   <v>       0.00000000       0.00000000       0.00000000 </v>
   <v>       0.00000000       0.00000000       0.00000000 </v>
   <v>       0.00000000       0.00000000       0.00000000 </v>
   <v>       0.00000000       0.00000000       0.00000000 </v>
   <v>       0.00000000       0.00000000       0.00000000 </v>
   <v>       0.00000000       0.00000000       0.00000000 </v>
   <v>       0.00000000       0.00000000       0.00000000 </v>
   <v>       0.00000000       0.00000000       0.00000000 </v>
   <v>       0.00000000       0.00000000       0.00000000 </v>
   <v>       0.00000000       0.00000000       0.00000000 </v>
  </varray>
 </structure>
 <calculation>
  <scstep>
   <time name="dav">   46.56   46.56</time>
   <time name="total">   47.47   47.48</time>
   <energy>
    <i name="alphaZ">    871.83850952 </i>
    <i name="ewald"> 286063.08813516 </i>
    <i name="hartreedc">-340406.61298343 </i>
    <i name="XCdc">   3043.33913683 </i>
    <i name="pawpsdc">  50525.51240023 </i>
    <i name="pawaedc"> -50422.77561733 </i>
    <i name="eentropy">     -0.08128647 </i>
    <i name="bandstr">   -245.27793991 </i>
    <i name="atom">  64207.43592568 </i>
    <i name="e_fr_energy">  13636.46628028 </i>
    <i name="e_wo_entrp">  13636.54756675 </i>
    <i name="e_0_energy">  13636.50692352 </i>
   </energy>
  </scstep>
  <scstep>
   <time name="dav">   49.10   49.12</time>
   <time name="total">   49.10   49.12</time>
   <energy>
    <i name="e_fr_energy">   2498.55858733 </i>
    <i name="e_wo_entrp">   2498.61568126 </i>
    <i name="e_0_energy">   2498.58713430 </i>
   </energy>
  </scstep>
  <scstep>
   <time name="dav">   67.45   67.46</time>
   <time name="total">   67.45   67.46</time>
   <energy>
    <i name="e_fr_energy">   -376.51061358 </i>
    <i name="e_wo_entrp">   -376.51061358 </i>
    <i name="e_0_energy">   -376.51061358 </i>
   </energy>
  </scstep>
  <scstep>
   <time name="dav">   61.20   61.21</time>
   <time name="total">   61.20   61.21</time>
   <energy>
    <i name="e_fr_energy">   -736.33064172 </i>
    <i name="e_wo_entrp">   -736.33064172 </i>
    <i name="e_0_energy">   -736.33064172 </i>
   </energy>
  </scstep>
  <scstep>
   <time name="dav">   61.51   61.53</time>
   <time name="total">   65.13   65.15</time>
   <energy>
    <i name="e_fr_energy">   -750.84588604 </i>
    <i name="e_wo_entrp">   -750.84588604 </i>
    <i name="e_0_energy">   -750.84588604 </i>
   </energy>
  </scstep>
  <scstep>
   <time name="dav">   58.36   58.37</time>
   <time name="total">   62.74   62.77</time>
   <energy>
    <i name="e_fr_energy">   -594.67305870 </i>
    <i name="e_wo_entrp">   -594.67305870 </i>
    <i name="e_0_energy">   -594.67305870 </i>
   </energy>
  </scstep>
  <scstep>
   <time name="dav">   60.14   60.15</time>
   <time name="total">   64.60   64.61</time>
   <energy>
    <i name="e_fr_energy">   -594.63502011 </i>
    <i name="e_wo_entrp">   -594.63502011 </i>
    <i name="e_0_energy">   -594.63502011 </i>
   </energy>
  </scstep>
  <scstep>
   <time name="dav">   56.74   56.74</time>
   <time name="total">   61.16   61.18</time>
   <energy>
    <i name="e_fr_energy">   -593.07389772 </i>
    <i name="e_wo_entrp">   -593.07389772 </i>
    <i name="e_0_energy">   -593.07389772 </i>
   </energy>
  </scstep>
  <scstep>
   <time name="dav">   57.13   57.14</time>
   <time name="total">   61.56   61.58</time>
   <energy>
    <i name="e_fr_energy">   -592.59064119 </i>
    <i name="e_wo_entrp">   -592.59064119 </i>
    <i name="e_0_energy">   -592.59064119 </i>
   </energy>
  </scstep>
  <scstep>
   <time name="dav">   60.88   60.89</time>
   <time name="total">   65.33   65.35</time>
   <energy>
    <i name="e_fr_energy">   -592.54612590 </i>
    <i name="e_wo_entrp">   -592.54612590 </i>
    <i name="e_0_energy">   -592.54612590 </i>
   </energy>
  </scstep>
  <scstep>
   <time name="dav">   57.02   57.02</time>
   <time name="total">   61.50   61.52</time>
   <energy>
    <i name="e_fr_energy">   -592.43695862 </i>
    <i name="e_wo_entrp">   -592.43695862 </i>
    <i name="e_0_energy">   -592.43695862 </i>
   </energy>
  </scstep>
  <scstep>
   <time name="dav">   60.45   60.45</time>
   <time name="total">   64.88   64.89</time>
   <energy>
    <i name="e_fr_energy">   -592.39942661 </i>
    <i name="e_wo_entrp">   -592.39942661 </i>
    <i name="e_0_energy">   -592.39942661 </i>
   </energy>
  </scstep>
  <scstep>
   <time name="dav">   58.44   58.45</time>
   <time name="total">   62.89   62.91</time>
   <energy>
    <i name="e_fr_energy">   -592.38745933 </i>
    <i name="e_wo_entrp">   -592.38745933 </i>
    <i name="e_0_energy">   -592.38745933 </i>
   </energy>
  </scstep>
  <scstep>
   <time name="dav">   58.19   58.19</time>
   <time name="total">   62.64   62.65</time>
   <energy>
    <i name="e_fr_energy">   -592.38425292 </i>
    <i name="e_wo_entrp">   -592.38425292 </i>
    <i name="e_0_energy">   -592.38425292 </i>
   </energy>
  </scstep>
  <scstep>
   <time name="dav">   58.22   58.22</time>
   <time name="total">   62.68   62.69</time>
   <energy>
    <i name="e_fr_energy">   -592.39005946 </i>
    <i name="e_wo_entrp">   -592.39005946 </i>
    <i name="e_0_energy">   -592.39005946 </i>
   </energy>
  </scstep>
  <scstep>
   <time name="dav">   56.63   56.63</time>
   <time name="total">   61.03   61.04</time>
   <energy>
    <i name="e_fr_energy">   -592.39317593 </i>
    <i name="e_wo_entrp">   -592.39317593 </i>
    <i name="e_0_energy">   -592.39317593 </i>
   </energy>
  </scstep>
  <scstep>
   <time name="dav">   57.24   57.24</time>
   <time name="total">   61.69   61.70</time>
   <energy>
    <i name="e_fr_energy">   -592.39972959 </i>
    <i name="e_wo_entrp">   -592.39972959 </i>
    <i name="e_0_energy">   -592.39972959 </i>
   </energy>
  </scstep>
  <scstep>
   <time name="dav">   57.82   57.82</time>
   <time name="total">   62.26   62.27</time>
   <energy>
    <i name="e_fr_energy">   -592.40184060 </i>
    <i name="e_wo_entrp">   -592.40184060 </i>
    <i name="e_0_energy">   -592.40184060 </i>
   </energy>
  </scstep>
  <scstep>
   <time name="dav">   60.53   60.54</time>
   <time name="total">   65.03   65.06</time>
   <energy>
    <i name="e_fr_energy">   -592.40390681 </i>
    <i name="e_wo_entrp">   -592.40390681 </i>
    <i name="e_0_energy">   -592.40390681 </i>
   </energy>
  </scstep>
  <scstep>
   <time name="dav">   53.88   53.89</time>
   <time name="total">   58.29   58.31</time>
   <energy>
    <i name="e_fr_energy">   -592.40634732 </i>
    <i name="e_wo_entrp">   -592.40634732 </i>
    <i name="e_0_energy">   -592.40634732 </i>
   </energy>
  </scstep>
  <scstep>
   <time name="dav">   48.51   48.52</time>
   <time name="total">   52.96   52.98</time>
   <energy>
    <i name="e_fr_energy">   -592.40897254 </i>
    <i name="e_wo_entrp">   -592.40897254 </i>
    <i name="e_0_energy">   -592.40897254 </i>
   </energy>
  </scstep>
  <scstep>
   <time name="dav">   50.73   50.74</time>
   <time name="total">   55.15   55.18</time>
   <energy>
    <i name="e_fr_energy">   -592.41012724 </i>
    <i name="e_wo_entrp">   -592.41012724 </i>
    <i name="e_0_energy">   -592.41012724 </i>
   </energy>
  </scstep>
  <scstep>
   <time name="dav">   51.27   51.29</time>
   <time name="total">   55.68   55.70</time>
   <energy>
    <i name="e_fr_energy">   -592.41070605 </i>
    <i name="e_wo_entrp">   -592.41070605 </i>
    <i name="e_0_energy">   -592.41070605 </i>
   </energy>
  </scstep>
  <scstep>
   <time name="dav">   49.27   49.28</time>
   <time name="total">   53.72   53.74</time>
   <energy>
    <i name="e_fr_energy">   -592.41106384 </i>
    <i name="e_wo_entrp">   -592.41106384 </i>
    <i name="e_0_energy">   -592.41106384 </i>
   </energy>
  </scstep>
  <scstep>
   <time name="dav">   45.39   45.40</time>
   <time name="total">   49.78   49.80</time>
   <energy>
    <i name="e_fr_energy">   -592.41128373 </i>
    <i name="e_wo_entrp">   -592.41128373 </i>
    <i name="e_0_energy">   -592.41128373 </i>
   </energy>
  </scstep>
  <scstep>
   <time name="dav">   36.98   36.99</time>
   <time name="total">   41.42   41.44</time>
   <energy>
    <i name="e_fr_energy">   -592.41136990 </i>
    <i name="e_wo_entrp">   -592.41136990 </i>
    <i name="e_0_energy">   -592.41136990 </i>
   </energy>
  </scstep>
  <scstep>
   <time name="dav">   33.73   33.74</time>
   <time name="total">   38.17   38.19</time>
   <energy>
    <i name="e_fr_energy">   -592.41140287 </i>
    <i name="e_wo_entrp">   -592.41140287 </i>
    <i name="e_0_energy">   -592.41140287 </i>
   </energy>
  </scstep>
  <scstep>
   <time name="dav">   35.33   35.34</time>
   <time name="total">   39.76   39.78</time>
   <energy>
    <i name="e_fr_energy">   -592.41143146 </i>
    <i name="e_wo_entrp">   -592.41143146 </i>
    <i name="e_0_energy">   -592.41143146 </i>
   </energy>
  </scstep>
  <scstep>
   <time name="dav">   33.32   33.33</time>
   <time name="total">   37.74   37.76</time>
   <energy>
    <i name="e_fr_energy">   -592.41144061 </i>
    <i name="e_wo_entrp">   -592.41144061 </i>
    <i name="e_0_energy">   -592.41144061 </i>
   </energy>
  </scstep>
  <scstep>
   <time name="dav">   32.59   32.60</time>
   <time name="total">   36.96   36.99</time>
   <energy>
    <i name="e_fr_energy">   -592.41144462 </i>
    <i name="e_wo_entrp">   -592.41144462 </i>
    <i name="e_0_energy">   -592.41144462 </i>
   </energy>
  </scstep>
  <scstep>
   <time name="dav">   32.55   32.55</time>
   <time name="total">   36.96   36.98</time>
   <energy>
    <i name="e_fr_energy">   -592.41144659 </i>
    <i name="e_wo_entrp">   -592.41144659 </i>
    <i name="e_0_energy">   -592.41144659 </i>
   </energy>
  </scstep>
  <scstep>
   <time name="dav">   32.50   32.51</time>
   <time name="total">   37.01   37.04</time>
   <energy>
    <i name="e_fr_energy">   -592.41144785 </i>
    <i name="e_wo_entrp">   -592.41144785 </i>
    <i name="e_0_energy">   -592.41144785 </i>
   </energy>
  </scstep>
  <scstep>
   <time name="dav">   32.01   32.02</time>
   <time name="total">   32.78   32.80</time>
   <energy>
    <i name="alphaZ">    871.83850952 </i>
    <i name="ewald"> 286063.08813516 </i>
    <i name="hartreedc">-341627.19382443 </i>
    <i name="XCdc">   3055.25693847 </i>
    <i name="pawpsdc">  66853.40870068 </i>
    <i name="pawaedc"> -66846.62514338 </i>
    <i name="eentropy">     -0.00000000 </i>
    <i name="bandstr"> -13169.62069017 </i>
    <i name="atom">  64207.43592568 </i>
    <i name="e_fr_energy">   -592.41144846 </i>
    <i name="e_wo_entrp">   -592.41144846 </i>
    <i name="e_0_energy">   -592.41144846 </i>
   </energy>
  </scstep>
  <structure>
   <crystal>
    <varray name="basis" >
     <v>      13.12862340       0.00000000       0.00000000 </v>
     <v>      -6.56431170      11.36972138       0.00000000 </v>
     <v>       0.00000000       0.00000000      26.82809424 </v>
    </varray>
    <i name="volume">   4004.59716953 </i>
    <varray name="rec_basis" >
     <v>       0.07616945       0.04397645       0.00000000 </v>
     <v>       0.00000000       0.08795290       0.00000000 </v>
     <v>       0.00000000       0.00000000       0.03727436 </v>
    </varray>
   </crystal>
   <varray name="positions" >
    <v>       0.08044349       0.16814540       0.44599594 </v>
    <v>       0.08376979       0.41186268       0.45179643 </v>
    <v>       0.07138912       0.65225671       0.45310702 </v>
    <v>       0.07457689       0.91145336       0.44978624 </v>
    <v>       0.32604509       0.14869386       0.44881582 </v>
    <v>       0.34236117       0.40082169       0.44952312 </v>
    <v>       0.32011237       0.66260549       0.44407553 </v>
    <v>       0.32490306       0.90916470       0.45320980 </v>
    <v>       0.57920392       0.16534468       0.45667021 </v>
    <v>       0.59539100       0.41331501       0.45649758 </v>
    <v>       0.59200430       0.67158842       0.44900400 </v>
    <v>       0.57899057       0.92543348       0.45543520 </v>
    <v>       0.84007814       0.16934048       0.45336698 </v>
    <v>       0.83034812       0.41157064       0.46461554 </v>
    <v>       0.83389111       0.67467198       0.44780613 </v>
    <v>       0.82762668       0.92667497       0.45477711 </v>
    <v>       0.15858420       0.08236493       0.54394722 </v>
    <v>       0.17501442       0.34101416       0.53723236 </v>
    <v>       0.16825162       0.58719204       0.54707281 </v>
    <v>       0.17028160       0.84391084       0.54894934 </v>
    <v>       0.42644627       0.09777435       0.55039019 </v>
    <v>       0.41256909       0.32272411       0.54885676 </v>
    <v>       0.41509598       0.58344483       0.53691456 </v>
    <v>       0.41606345       0.82423732       0.54707119 </v>
    <v>       0.66614526       0.08727839       0.55298893 </v>
    <v>       0.66355686       0.33712280       0.55169227 </v>
    <v>       0.66521602       0.58999374       0.54872981 </v>
    <v>       0.67113340       0.83645387       0.54468666 </v>
    <v>       0.89813590       0.08384295       0.55728368 </v>
    <v>       0.92802723       0.34316726       0.54789374 </v>
    <v>       0.91957921       0.59059353       0.55032898 </v>
    <v>       0.91669110       0.83223289       0.54676372 </v>
    <v>       0.09641024       0.17832555       0.57923867 </v>
    <v>       0.10032654       0.41853532       0.59276544 </v>
    <v>       0.08165647       0.66734957       0.59442768 </v>
    <v>       0.07971549       0.91232403       0.58580753 </v>
    <v>       0.32969219       0.15372647       0.59290904 </v>
    <v>       0.32051079       0.42281311       0.58068518 </v>
    <v>       0.33711613       0.65558116       0.59463371 </v>
    <v>       0.32591839       0.89860442       0.58768171 </v>
    <v>       0.56805884       0.15130209       0.60016584 </v>
    <v>       0.56609475       0.42779693       0.59320460 </v>
    <v>       0.56500486       0.65364463       0.58903760 </v>
    <v>       0.60340221       0.91993774       0.59293050 </v>
    <v>       0.86775595       0.18715211       0.60046073 </v>
    <v>       0.82461757       0.43057588       0.59420825 </v>
    <v>       0.82781279       0.68168505       0.58378909 </v>
    <v>       0.83896626       0.92912503       0.60033992 </v>
    <v>       0.17263129       0.09306641       0.40757338 </v>
    <v>       0.16592109       0.31896272       0.40233411 </v>
    <v>       0.15814662       0.59259352       0.40755328 </v>
    <v>       0.16388000       0.83062051       0.41049039 </v>
    <v>       0.43361435       0.06901302       0.41138392 </v>
    <v>       0.42082998       0.31250087       0.40923576 </v>
    <v>       0.43830648       0.62057186       0.40472231 </v>
    <v>       0.42103621       0.84593634       0.41637840 </v>
    <v>       0.66532338       0.08444203       0.40863552 </v>
    <v>       0.67113295       0.30795608       0.41968187 </v>
    <v>       0.67320934       0.56704677       0.40912196 </v>
    <v>       0.66696383       0.85413259       0.41074183 </v>
    <v>       0.91847354       0.09238292       0.40972329 </v>
    <v>       0.91202918       0.33599361       0.40532078 </v>
    <v>       0.89281632       0.56916929       0.41572156 </v>
    <v>       0.93146610       0.82869038       0.40318945 </v>
    <v>       0.99647096       0.98753592       0.49760704 </v>
    <v>       0.00238814       0.24236663       0.49639409 </v>
    <v>       0.00318837       0.49532391       0.50294309 </v>
    <v>       0.01138436       0.75754759       0.49832568 </v>
    <v>       0.26316669       0.00513416       0.50040971 </v>
    <v>       0.25843719       0.24593495       0.49808558 </v>
    <v>       0.25024746       0.49618918       0.48680379 </v>
    <v>       0.25007289       0.74155170       0.49843635 </v>
    <v>       0.49090222       0.98278495       0.50327420 </v>
    <v>       0.50752213       0.24693460       0.50889733 </v>
    <v>       0.50310703       0.49720267       0.49887424 </v>
    <v>       0.51569333       0.75862669       0.49867817 </v>
    <v>       0.75081236       0.00941124       0.50243874 </v>
    <v>       0.75045663       0.24827375       0.50601985 </v>
    <v>       0.73777865       0.50170265       0.50250168 </v>
    <v>       0.75201200       0.74164878       0.49566489 </v>
   </varray>
  </structure>
  <varray name="forces" >
   <v>       0.65113815      -0.45802506       1.06678276 </v>
   <v>      -0.61548809      -0.23325563      -1.39469949 </v>
   <v>      -0.23503761       1.84660460       0.30057419 </v>
   <v>       0.82385097       0.38583764       0.39463188 </v>
   <v>       0.05695892       0.95021077       0.97513501 </v>
   <v>      -0.23149026       0.70461759      -0.35478538 </v>
   <v>       1.27773361       0.40535519       0.70010825 </v>
   <v>       0.39020728       0.27477387       0.75096125 </v>
   <v>       1.08210811      -1.86350665       1.12820195 </v>
   <v>      -1.77694780       0.10819765      -0.60657742 </v>
   <v>      -1.03627896      -0.26178662       0.12598077 </v>
   <v>       0.81121215      -0.37251545      -0.63772731 </v>
   <v>      -1.57580396       0.37869258       0.05002213 </v>
   <v>      -0.24116973       0.14785698      -2.31698409 </v>
   <v>       0.45120829      -0.80789982       0.81496004 </v>
   <v>       0.76636894      -0.40992142       0.01996700 </v>
   <v>       0.75082615      -0.07973384      -0.35795332 </v>
   <v>      -0.12999670      -0.88225587       1.22478522 </v>
   <v>       0.77913211       0.07718184       0.58667654 </v>
   <v>       0.81875629      -0.87222284      -0.79778706 </v>
   <v>      -0.22226232      -3.33519528       0.46526915 </v>
   <v>      -0.54145194       1.25226297      -0.08695258 </v>
   <v>       0.56373052       0.23114983       1.08944479 </v>
   <v>      -0.04999282       0.14632170       0.30159761 </v>
   <v>      -0.94692572      -1.01358294      -0.48167312 </v>
   <v>       0.51905637       0.43942070       0.91070012 </v>
   <v>      -0.94825861      -1.01344224      -0.64473766 </v>
   <v>      -1.13177764      -0.76840702       0.87517926 </v>
   <v>       2.51904106      -0.04064986      -1.70297193 </v>
   <v>       0.29253240      -1.37027541       1.32708822 </v>
   <v>      -0.31921864       0.14979730      -0.25948556 </v>
   <v>      -0.15885240       1.37445769      -1.51668001 </v>
   <v>      -0.61312417      -0.27328189       1.08857046 </v>
   <v>      -0.48760868       0.03160301      -1.11293852 </v>
   <v>      -0.00128885      -0.11526650      -0.66990328 </v>
   <v>      -0.07494345       0.47559007       0.83734206 </v>
   <v>      -0.50439313       0.53871668      -0.10887602 </v>
   <v>       0.85686155       0.02173258       0.62492343 </v>
   <v>      -0.40344395       0.12950603      -1.37529721 </v>
   <v>       0.05700299       0.29847806       0.65034429 </v>
   <v>       0.59589592       0.48939195      -0.45368618 </v>
   <v>       0.66418284      -0.33758661       0.00936085 </v>
   <v>       0.46996625       0.51939607      -0.32997083 </v>
   <v>      -0.27534383       0.00279210      -0.11819499 </v>
   <v>      -0.95252440       0.18810556      -0.12203814 </v>
   <v>       0.57157608       0.05705536      -0.06423135 </v>
   <v>       0.86428325      -1.09214908       1.67466864 </v>
   <v>       0.06918312      -0.24940106      -1.03922908 </v>
   <v>       0.11373887      -0.64235187      -0.30621976 </v>
   <v>      -0.03994782       0.31869628       0.30421765 </v>
   <v>       0.25050111      -0.63215241      -0.57607600 </v>
   <v>       0.13251157      -0.15377933      -0.20950007 </v>
   <v>      -1.04970268       0.39387359      -0.27171255 </v>
   <v>       0.09239472       0.41652642      -0.05393212 </v>
   <v>       0.00842584      -0.47830425      -0.20655415 </v>
   <v>       0.02891898      -0.76852567      -1.41238688 </v>
   <v>       0.08691765       0.14915989       0.76604701 </v>
   <v>      -0.41686286       2.05555276      -1.37589023 </v>
   <v>      -0.45858130       0.40737367      -0.25666044 </v>
   <v>       0.77434601      -0.37717816      -0.20256911 </v>
   <v>      -0.11802267      -0.67263929      -0.38768950 </v>
   <v>       0.16187227      -0.05824670       1.16396305 </v>
   <v>       1.11944562      -0.15670987      -0.36545504 </v>
   <v>      -0.60274098      -0.16204396      -0.05595626 </v>
   <v>      -0.64650879       0.99052244      -0.18556477 </v>
   <v>      -0.81188565       1.19600583       0.28498938 </v>
   <v>      -0.74290739       0.62049865      -0.02820172 </v>
   <v>      -0.86795749      -1.37025616       0.64965869 </v>
   <v>      -1.24164015      -0.59269529      -0.25402624 </v>
   <v>      -0.48820851      -0.07148465      -0.79646698 </v>
   <v>       0.22303044       0.32544743       0.90681588 </v>
   <v>      -0.53292954      -0.30288684       0.24350524 </v>
   <v>       0.18287267       2.36589051       0.93914011 </v>
   <v>      -0.47028835       0.76864323      -1.80851847 </v>
   <v>      -0.41185406      -0.38078255      -1.12088504 </v>
   <v>      -0.39425622      -0.83855242       0.24676229 </v>
   <v>       0.85995009      -0.08366061       0.59485108 </v>
   <v>       0.37933481       0.23662647       0.83583681 </v>
   <v>       2.57253754      -0.16812123       1.05784343 </v>
   <v>      -0.92169339       1.89080880       0.44073938 </v>
  </varray>
  <varray name="stress" >
   <v>       6.57874052       0.87160435       1.39055466 </v>
   <v>       0.87160439       6.72434850      -2.11693586 </v>
   <v>       1.39055466      -2.11693588      -0.18710123 </v>
  </varray>
  <energy>
   <i name="e_fr_energy">   -592.41144846 </i>
   <i name="e_wo_entrp">   -592.41144846 </i>
   <i name="e_0_energy">     -0.00000000 </i>
  </energy>
  <time name="totalsc"> 1862.27 1862.88</time>
  <eigenvalues>
   <array>
    <dimension dim="1">band</dimension>
    <dimension dim="2">kpoint</dimension>
    <dimension dim="3">spin</dimension>
    <field>eigene</field>
    <field>occ</field>
    <set>
     <set comment="spin 1">
      <set comment="kpoint 1">
       <r>  -52.1425    1.0000 </r>
       <r>  -52.0678    1.0000 </r>
       <r>  -51.7859    1.0000 </r>
       <r>  -51.6452    1.0000 </r>
       <r>  -51.6293    1.0000 </r>
       <r>  -51.6269    1.0000 </r>
       <r>  -51.6137    1.0000 </r>
       <r>  -51.6026    1.0000 </r>
       <r>  -51.5955    1.0000 </r>
       <r>  -51.5863    1.0000 </r>
       <r>  -51.5803    1.0000 </r>
       <r>  -51.5492    1.0000 </r>
       <r>  -51.5470    1.0000 </r>
       <r>  -51.5070    1.0000 </r>
       <r>  -51.4696    1.0000 </r>
       <r>  -51.4587    1.0000 </r>
       <r>  -51.4471    1.0000 </r>
       <r>  -51.4340    1.0000 </r>
       <r>  -51.4293    1.0000 </r>
       <r>  -51.4030    1.0000 </r>
       <r>  -51.3866    1.0000 </r>
       <r>  -51.3300    1.0000 </r>
       <r>  -51.3253    1.0000 </r>
       <r>  -51.2823    1.0000 </r>
       <r>  -51.2510    1.0000 </r>
       <r>  -51.2107    1.0000 </r>
       <r>  -51.1508    1.0000 </r>
       <r>  -51.1421    1.0000 </r>
       <r>  -51.1114    1.0000 </r>
       <r>  -51.0391    1.0000 </r>
       <r>  -51.0292    1.0000 </r>
       <r>  -50.8336    1.0000 </r>
       <r>  -31.1267    1.0000 </r>
       <r>  -31.0463    1.0000 </r>
       <r>  -30.8878    1.0000 </r>
       <r>  -30.8780    1.0000 </r>
       <r>  -30.8585    1.0000 </r>
       <r>  -30.8479    1.0000 </r>
       <r>  -30.8267    1.0000 </r>
       <r>  -30.7510    1.0000 </r>
       <r>  -30.7457    1.0000 </r>
       <r>  -30.7267    1.0000 </r>
       <r>  -30.7083    1.0000 </r>
       <r>  -30.6179    1.0000 </r>
       <r>  -30.5909    1.0000 </r>
       <r>  -30.5698    1.0000 </r>
       <r>  -30.5544    1.0000 </r>
       <r>  -30.5214    1.0000 </r>
       <r>  -30.5098    1.0000 </r>
       <r>  -30.4705    1.0000 </r>
       <r>  -30.4555    1.0000 </r>
       <r>  -30.4429    1.0000 </r>
       <r>  -30.4347    1.0000 </r>
       <r>  -30.4281    1.0000 </r>
       <r>  -30.4221    1.0000 </r>
       <r>  -30.4182    1.0000 </r>
       <r>  -30.4045    1.0000 </r>
       <r>  -30.3961    1.0000 </r>
       <r>  -30.3898    1.0000 </r>
       <r>  -30.3848    1.0000 </r>
       <r>  -30.3696    1.0000 </r>
       <r>  -30.3668    1.0000 </r>
       <r>  -30.3567    1.0000 </r>
       <r>  -30.3539    1.0000 </r>
       <r>  -30.3390    1.0000 </r>
       <r>  -30.3368    1.0000 </r>
       <r>  -30.3211    1.0000 </r>
       <r>  -30.3189    1.0000 </r>
       <r>  -30.3097    1.0000 </r>
       <r>  -30.2981    1.0000 </r>
       <r>  -30.2893    1.0000 </r>
       <r>  -30.2855    1.0000 </r>
       <r>  -30.2574    1.0000 </r>
       <r>  -30.2436    1.0000 </r>
       <r>  -30.2359    1.0000 </r>
       <r>  -30.2281    1.0000 </r>
       <r>  -30.2178    1.0000 </r>
       <r>  -30.2033    1.0000 </r>
       <r>  -30.2004    1.0000 </r>
       <r>  -30.1911    1.0000 </r>
       <r>  -30.1787    1.0000 </r>
       <r>  -30.1709    1.0000 </r>
       <r>  -30.1609    1.0000 </r>
       <r>  -30.1466    1.0000 </r>
       <r>  -30.1360    1.0000 </r>
       <r>  -30.1339    1.0000 </r>
       <r>  -30.1266    1.0000 </r>
       <r>  -30.1240    1.0000 </r>
       <r>  -30.1138    1.0000 </r>
       <r>  -30.1017    1.0000 </r>
       <r>  -30.0925    1.0000 </r>
       <r>  -30.0857    1.0000 </r>
       <r>  -30.0850    1.0000 </r>
       <r>  -30.0786    1.0000 </r>
       <r>  -30.0701    1.0000 </r>
       <r>  -30.0638    1.0000 </r>
       <r>  -30.0451    1.0000 </r>
       <r>  -30.0346    1.0000 </r>
       <r>  -30.0264    1.0000 </r>
       <r>  -30.0149    1.0000 </r>
       <r>  -30.0099    1.0000 </r>
       <r>  -29.9943    1.0000 </r>
       <r>  -29.9837    1.0000 </r>
       <r>  -29.9694    1.0000 </r>
       <r>  -29.9638    1.0000 </r>
       <r>  -29.9508    1.0000 </r>
       <r>  -29.9440    1.0000 </r>
       <r>  -29.9407    1.0000 </r>
       <r>  -29.9336    1.0000 </r>
       <r>  -29.9195    1.0000 </r>
       <r>  -29.9031    1.0000 </r>
       <r>  -29.8841    1.0000 </r>
       <r>  -29.8589    1.0000 </r>
       <r>  -29.8395    1.0000 </r>
       <r>  -29.8340    1.0000 </r>
       <r>  -29.8291    1.0000 </r>
       <r>  -29.8223    1.0000 </r>
       <r>  -29.8134    1.0000 </r>
       <r>  -29.8074    1.0000 </r>
       <r>  -29.7719    1.0000 </r>
       <r>  -29.7692    1.0000 </r>
       <r>  -29.7332    1.0000 </r>
       <r>  -29.7214    1.0000 </r>
       <r>  -29.6849    1.0000 </r>
       <r>  -29.6565    1.0000 </r>
       <r>  -29.6390    1.0000 </r>
       <r>  -29.5649    1.0000 </r>
       <r>  -29.5386    1.0000 </r>
       <r>  -27.2780    1.0000 </r>
       <r>  -27.1924    1.0000 </r>
       <r>  -27.0958    1.0000 </r>
       <r>  -27.0229    1.0000 </r>
       <r>  -26.9425    1.0000 </r>
       <r>  -26.9068    1.0000 </r>
       <r>  -26.7719    1.0000 </r>
       <r>  -26.7390    1.0000 </r>
       <r>  -26.7258    1.0000 </r>
       <r>  -26.7031    1.0000 </r>
       <r>  -26.6585    1.0000 </r>
       <r>  -26.6461    1.0000 </r>
       <r>  -26.6322    1.0000 </r>
       <r>  -26.5948    1.0000 </r>
       <r>  -26.5710    1.0000 </r>
       <r>  -26.5563    1.0000 </r>
       <r>  -26.5304    1.0000 </r>
       <r>  -26.4932    1.0000 </r>
       <r>  -26.4378    1.0000 </r>
       <r>  -26.3915    1.0000 </r>
       <r>  -26.3644    1.0000 </r>
       <r>  -26.3493    1.0000 </r>
       <r>  -26.3463    1.0000 </r>
       <r>  -26.3094    1.0000 </r>
       <r>  -26.2265    1.0000 </r>
       <r>  -26.1957    1.0000 </r>
       <r>  -26.0998    1.0000 </r>
       <r>  -26.0083    1.0000 </r>
       <r>  -25.9901    1.0000 </r>
       <r>  -25.9885    1.0000 </r>
       <r>  -25.8860    1.0000 </r>
       <r>  -25.8341    1.0000 </r>
       <r>  -12.0926    1.0000 </r>
       <r>  -11.7833    1.0000 </r>
       <r>  -11.6899    1.0000 </r>
       <r>  -11.6698    1.0000 </r>
       <r>  -11.6097    1.0000 </r>
       <r>  -11.5231    1.0000 </r>
       <r>  -11.4622    1.0000 </r>
       <r>  -11.1943    1.0000 </r>
       <r>  -11.0924    1.0000 </r>
       <r>  -11.0816    1.0000 </r>
       <r>  -11.0576    1.0000 </r>
       <r>  -10.9498    1.0000 </r>
       <r>  -10.9177    1.0000 </r>
       <r>  -10.8694    1.0000 </r>
       <r>  -10.8222    1.0000 </r>
       <r>  -10.7228    1.0000 </r>
       <r>   -9.7942    1.0000 </r>
       <r>   -9.7219    1.0000 </r>
       <r>   -9.4909    1.0000 </r>
       <r>   -9.4785    1.0000 </r>
       <r>   -9.4372    1.0000 </r>
       <r>   -9.4088    1.0000 </r>
       <r>   -9.3887    1.0000 </r>
       <r>   -9.3679    1.0000 </r>
       <r>   -9.3244    1.0000 </r>
       <r>   -9.3054    1.0000 </r>
       <r>   -9.2693    1.0000 </r>
       <r>   -9.2434    1.0000 </r>
       <r>   -9.1727    1.0000 </r>
       <r>   -9.1596    1.0000 </r>
       <r>   -9.1173    1.0000 </r>
       <r>   -9.0918    1.0000 </r>
       <r>   -9.0609    1.0000 </r>
       <r>   -9.0467    1.0000 </r>
       <r>   -9.0362    1.0000 </r>
       <r>   -9.0199    1.0000 </r>
       <r>   -8.9746    1.0000 </r>
       <r>   -8.9730    1.0000 </r>
       <r>   -8.9604    1.0000 </r>
       <r>   -8.9127    1.0000 </r>
       <r>   -8.9066    1.0000 </r>
       <r>   -8.8697    1.0000 </r>
       <r>   -8.8288    1.0000 </r>
       <r>   -8.8106    1.0000 </r>
       <r>   -8.7909    1.0000 </r>
       <r>   -8.7601    1.0000 </r>
       <r>   -8.7486    1.0000 </r>
       <r>   -8.7192    1.0000 </r>
       <r>   -8.7115    1.0000 </r>
       <r>   -8.7011    1.0000 </r>
       <r>   -8.6799    1.0000 </r>
       <r>   -8.6461    1.0000 </r>
       <r>   -8.6251    1.0000 </r>
       <r>   -8.6108    1.0000 </r>
       <r>   -8.5819    1.0000 </r>
       <r>   -8.5592    1.0000 </r>
       <r>   -8.5536    1.0000 </r>
       <r>   -8.5407    1.0000 </r>
       <r>   -8.5320    1.0000 </r>
       <r>   -8.5063    1.0000 </r>
       <r>   -8.4961    1.0000 </r>
       <r>   -8.4895    1.0000 </r>
       <r>   -8.4841    1.0000 </r>
       <r>   -8.4628    1.0000 </r>
       <r>   -8.4484    1.0000 </r>
       <r>   -8.4273    1.0000 </r>
       <r>   -8.4175    1.0000 </r>
       <r>   -8.4104    1.0000 </r>
       <r>   -8.3972    1.0000 </r>
       <r>   -8.3901    1.0000 </r>
       <r>   -8.3749    1.0000 </r>
       <r>   -8.3594    1.0000 </r>
       <r>   -8.3494    1.0000 </r>
       <r>   -8.3366    1.0000 </r>
       <r>   -8.3240    1.0000 </r>
       <r>   -8.3157    1.0000 </r>
       <r>   -8.3018    1.0000 </r>
       <r>   -8.2875    1.0000 </r>
       <r>   -8.2792    1.0000 </r>
       <r>   -8.2675    1.0000 </r>
       <r>   -8.2493    1.0000 </r>
       <r>   -8.2451    1.0000 </r>
       <r>   -8.2171    1.0000 </r>
       <r>   -8.1984    1.0000 </r>
       <r>   -8.1853    1.0000 </r>
       <r>   -8.1782    1.0000 </r>
       <r>   -8.1534    1.0000 </r>
       <r>   -8.1417    1.0000 </r>
       <r>   -8.1314    1.0000 </r>
       <r>   -8.0829    1.0000 </r>
       <r>   -8.0601    1.0000 </r>
       <r>   -8.0406    1.0000 </r>
       <r>   -8.0179    1.0000 </r>
       <r>   -7.9557    1.0000 </r>
       <r>   -7.9526    1.0000 </r>
       <r>   -7.9259    1.0000 </r>
       <r>   -7.9004    1.0000 </r>
       <r>   -7.8762    1.0000 </r>
       <r>   -7.8249    1.0000 </r>
       <r>   -7.8096    1.0000 </r>
       <r>   -7.7933    1.0000 </r>
       <r>   -7.7632    1.0000 </r>
       <r>   -7.7397    1.0000 </r>
       <r>   -7.7300    1.0000 </r>
       <r>   -7.6902    1.0000 </r>
       <r>   -7.6665    1.0000 </r>
       <r>   -7.6529    1.0000 </r>
       <r>   -7.6399    1.0000 </r>
       <r>   -7.6090    1.0000 </r>
       <r>   -7.5836    1.0000 </r>
       <r>   -7.4966    1.0000 </r>
       <r>   -7.4700    1.0000 </r>
       <r>   -5.2401    1.0000 </r>
       <r>   -5.1882    1.0000 </r>
       <r>   -5.1231    1.0000 </r>
       <r>   -4.9642    1.0000 </r>
       <r>   -4.9218    1.0000 </r>
       <r>   -4.8714    1.0000 </r>
       <r>   -4.8351    1.0000 </r>
       <r>   -4.7724    1.0000 </r>
       <r>   -4.7509    1.0000 </r>
       <r>   -4.6405    1.0000 </r>
       <r>   -4.5197    1.0000 </r>
       <r>   -4.4315    1.0000 </r>
       <r>   -4.4191    1.0000 </r>
       <r>   -4.3657    1.0000 </r>
       <r>   -4.3398    1.0000 </r>
       <r>   -4.2932    1.0000 </r>
       <r>   -4.2741    1.0000 </r>
       <r>   -4.2360    1.0000 </r>
       <r>   -4.1755    1.0000 </r>
       <r>   -4.1601    1.0000 </r>
       <r>   -4.1584    1.0000 </r>
       <r>   -4.1235    1.0000 </r>
       <r>   -4.1204    1.0000 </r>
       <r>   -4.0762    1.0000 </r>
       <r>   -4.0473    1.0000 </r>
       <r>   -3.9948    1.0000 </r>
       <r>   -3.9598    1.0000 </r>
       <r>   -3.9404    1.0000 </r>
       <r>   -3.9278    1.0000 </r>
       <r>   -3.9078    1.0000 </r>
       <r>   -3.8624    1.0000 </r>
       <r>   -3.8299    1.0000 </r>
       <r>   -3.8281    1.0000 </r>
       <r>   -3.7635    1.0000 </r>
       <r>   -3.6555    1.0000 </r>
       <r>   -3.5683    1.0000 </r>
       <r>   -3.4647    1.0000 </r>
       <r>   -3.3534    1.0000 </r>
       <r>   -3.2944    1.0000 </r>
       <r>   -3.2605    1.0000 </r>
       <r>   -3.2391    1.0000 </r>
       <r>   -3.1508    1.0000 </r>
       <r>   -3.1190    1.0000 </r>
       <r>   -3.1010    1.0000 </r>
       <r>   -2.9919    1.0000 </r>
       <r>   -2.9582    1.0000 </r>
       <r>   -2.8746    1.0000 </r>
       <r>   -2.7380    1.0000 </r>
       <r>   -1.8734    0.0000 </r>
       <r>   -1.8326    0.0000 </r>
       <r>   -1.7524    0.0000 </r>
       <r>   -1.3617    0.0000 </r>
       <r>   -1.2467    0.0000 </r>
       <r>   -1.2048    0.0000 </r>
       <r>   -1.1634    0.0000 </r>
       <r>   -1.1009    0.0000 </r>
       <r>   -1.0734    0.0000 </r>
       <r>   -0.6489    0.0000 </r>
       <r>   -0.5586    0.0000 </r>
       <r>   -0.5265    0.0000 </r>
       <r>   -0.4632    0.0000 </r>
       <r>   -0.4082    0.0000 </r>
       <r>   -0.3570    0.0000 </r>
       <r>   -0.3264    0.0000 </r>
       <r>   -0.3152    0.0000 </r>
       <r>   -0.2335    0.0000 </r>
       <r>   -0.1743    0.0000 </r>
       <r>   -0.1704    0.0000 </r>
       <r>   -0.1386    0.0000 </r>
       <r>   -0.0639    0.0000 </r>
       <r>   -0.0175    0.0000 </r>
       <r>    0.0819    0.0000 </r>
       <r>    0.1849    0.0000 </r>
       <r>    0.2405    0.0000 </r>
       <r>    0.2756    0.0000 </r>
       <r>    0.2994    0.0000 </r>
       <r>    0.3497    0.0000 </r>
       <r>    0.3634    0.0000 </r>
       <r>    0.3784    0.0000 </r>
       <r>    0.4112    0.0000 </r>
       <r>    0.4286    0.0000 </r>
       <r>    0.4801    0.0000 </r>
       <r>    0.4924    0.0000 </r>
       <r>    0.5234    0.0000 </r>
       <r>    0.5690    0.0000 </r>
       <r>    0.5914    0.0000 </r>
       <r>    0.6148    0.0000 </r>
       <r>    0.6321    0.0000 </r>
       <r>    0.6532    0.0000 </r>
       <r>    0.6726    0.0000 </r>
       <r>    0.6988    0.0000 </r>
       <r>    0.7603    0.0000 </r>
       <r>    0.7657    0.0000 </r>
       <r>    0.7820    0.0000 </r>
       <r>    0.8000    0.0000 </r>
       <r>    0.8263    0.0000 </r>
       <r>    0.8542    0.0000 </r>
       <r>    0.8810    0.0000 </r>
       <r>    0.9011    0.0000 </r>
       <r>    0.9328    0.0000 </r>
       <r>    0.9480    0.0000 </r>
       <r>    0.9666    0.0000 </r>
       <r>    0.9821    0.0000 </r>
       <r>    1.0103    0.0000 </r>
       <r>    1.0381    0.0000 </r>
       <r>    1.0595    0.0000 </r>
       <r>    1.0700    0.0000 </r>
       <r>    1.0778    0.0000 </r>
       <r>    1.1034    0.0000 </r>
       <r>    1.1180    0.0000 </r>
       <r>    1.1482    0.0000 </r>
       <r>    1.2020    0.0000 </r>
      </set>
      <set comment="kpoint 2">
       <r>  -52.1425    1.0000 </r>
       <r>  -52.0678    1.0000 </r>
       <r>  -51.7859    1.0000 </r>
       <r>  -51.6451    1.0000 </r>
       <r>  -51.6295    1.0000 </r>
       <r>  -51.6268    1.0000 </r>
       <r>  -51.6137    1.0000 </r>
       <r>  -51.6026    1.0000 </r>
       <r>  -51.5956    1.0000 </r>
       <r>  -51.5863    1.0000 </r>
       <r>  -51.5803    1.0000 </r>
       <r>  -51.5492    1.0000 </r>
       <r>  -51.5470    1.0000 </r>
       <r>  -51.5070    1.0000 </r>
       <r>  -51.4696    1.0000 </r>
       <r>  -51.4587    1.0000 </r>
       <r>  -51.4471    1.0000 </r>
       <r>  -51.4340    1.0000 </r>
       <r>  -51.4294    1.0000 </r>
       <r>  -51.4030    1.0000 </r>
       <r>  -51.3866    1.0000 </r>
       <r>  -51.3300    1.0000 </r>
       <r>  -51.3253    1.0000 </r>
       <r>  -51.2823    1.0000 </r>
       <r>  -51.2510    1.0000 </r>
       <r>  -51.2107    1.0000 </r>
       <r>  -51.1508    1.0000 </r>
       <r>  -51.1421    1.0000 </r>
       <r>  -51.1114    1.0000 </r>
       <r>  -51.0391    1.0000 </r>
       <r>  -51.0292    1.0000 </r>
       <r>  -50.8336    1.0000 </r>
       <r>  -31.1266    1.0000 </r>
       <r>  -31.0460    1.0000 </r>
       <r>  -30.8857    1.0000 </r>
       <r>  -30.8762    1.0000 </r>
       <r>  -30.8591    1.0000 </r>
       <r>  -30.8487    1.0000 </r>
       <r>  -30.8262    1.0000 </r>
       <r>  -30.7489    1.0000 </r>
       <r>  -30.7452    1.0000 </r>
       <r>  -30.7256    1.0000 </r>
       <r>  -30.7060    1.0000 </r>
       <r>  -30.6150    1.0000 </r>
       <r>  -30.5927    1.0000 </r>
       <r>  -30.5738    1.0000 </r>
       <r>  -30.5556    1.0000 </r>
       <r>  -30.5299    1.0000 </r>
       <r>  -30.5115    1.0000 </r>
       <r>  -30.4638    1.0000 </r>
       <r>  -30.4614    1.0000 </r>
       <r>  -30.4475    1.0000 </r>
       <r>  -30.4364    1.0000 </r>
       <r>  -30.4297    1.0000 </r>
       <r>  -30.4226    1.0000 </r>
       <r>  -30.4184    1.0000 </r>
       <r>  -30.4084    1.0000 </r>
       <r>  -30.4042    1.0000 </r>
       <r>  -30.3947    1.0000 </r>
       <r>  -30.3884    1.0000 </r>
       <r>  -30.3707    1.0000 </r>
       <r>  -30.3645    1.0000 </r>
       <r>  -30.3608    1.0000 </r>
       <r>  -30.3567    1.0000 </r>
       <r>  -30.3409    1.0000 </r>
       <r>  -30.3380    1.0000 </r>
       <r>  -30.3212    1.0000 </r>
       <r>  -30.3149    1.0000 </r>
       <r>  -30.3090    1.0000 </r>
       <r>  -30.2962    1.0000 </r>
       <r>  -30.2835    1.0000 </r>
       <r>  -30.2739    1.0000 </r>
       <r>  -30.2528    1.0000 </r>
       <r>  -30.2381    1.0000 </r>
       <r>  -30.2324    1.0000 </r>
       <r>  -30.2254    1.0000 </r>
       <r>  -30.2151    1.0000 </r>
       <r>  -30.2048    1.0000 </r>
       <r>  -30.2002    1.0000 </r>
       <r>  -30.1837    1.0000 </r>
       <r>  -30.1765    1.0000 </r>
       <r>  -30.1708    1.0000 </r>
       <r>  -30.1580    1.0000 </r>
       <r>  -30.1500    1.0000 </r>
       <r>  -30.1385    1.0000 </r>
       <r>  -30.1345    1.0000 </r>
       <r>  -30.1314    1.0000 </r>
       <r>  -30.1233    1.0000 </r>
       <r>  -30.1142    1.0000 </r>
       <r>  -30.1053    1.0000 </r>
       <r>  -30.0953    1.0000 </r>
       <r>  -30.0913    1.0000 </r>
       <r>  -30.0801    1.0000 </r>
       <r>  -30.0729    1.0000 </r>
       <r>  -30.0682    1.0000 </r>
       <r>  -30.0576    1.0000 </r>
       <r>  -30.0460    1.0000 </r>
       <r>  -30.0287    1.0000 </r>
       <r>  -30.0218    1.0000 </r>
       <r>  -30.0142    1.0000 </r>
       <r>  -30.0124    1.0000 </r>
       <r>  -29.9957    1.0000 </r>
       <r>  -29.9793    1.0000 </r>
       <r>  -29.9744    1.0000 </r>
       <r>  -29.9668    1.0000 </r>
       <r>  -29.9510    1.0000 </r>
       <r>  -29.9413    1.0000 </r>
       <r>  -29.9380    1.0000 </r>
       <r>  -29.9312    1.0000 </r>
       <r>  -29.9192    1.0000 </r>
       <r>  -29.9074    1.0000 </r>
       <r>  -29.8855    1.0000 </r>
       <r>  -29.8611    1.0000 </r>
       <r>  -29.8387    1.0000 </r>
       <r>  -29.8343    1.0000 </r>
       <r>  -29.8285    1.0000 </r>
       <r>  -29.8227    1.0000 </r>
       <r>  -29.8138    1.0000 </r>
       <r>  -29.8105    1.0000 </r>
       <r>  -29.7743    1.0000 </r>
       <r>  -29.7701    1.0000 </r>
       <r>  -29.7337    1.0000 </r>
       <r>  -29.7219    1.0000 </r>
       <r>  -29.6859    1.0000 </r>
       <r>  -29.6579    1.0000 </r>
       <r>  -29.6395    1.0000 </r>
       <r>  -29.5655    1.0000 </r>
       <r>  -29.5387    1.0000 </r>
       <r>  -27.2777    1.0000 </r>
       <r>  -27.1922    1.0000 </r>
       <r>  -27.0959    1.0000 </r>
       <r>  -27.0226    1.0000 </r>
       <r>  -26.9420    1.0000 </r>
       <r>  -26.9072    1.0000 </r>
       <r>  -26.7718    1.0000 </r>
       <r>  -26.7401    1.0000 </r>
       <r>  -26.7252    1.0000 </r>
       <r>  -26.7025    1.0000 </r>
       <r>  -26.6570    1.0000 </r>
       <r>  -26.6479    1.0000 </r>
       <r>  -26.6325    1.0000 </r>
       <r>  -26.5945    1.0000 </r>
       <r>  -26.5708    1.0000 </r>
       <r>  -26.5566    1.0000 </r>
       <r>  -26.5305    1.0000 </r>
       <r>  -26.4932    1.0000 </r>
       <r>  -26.4378    1.0000 </r>
       <r>  -26.3914    1.0000 </r>
       <r>  -26.3644    1.0000 </r>
       <r>  -26.3493    1.0000 </r>
       <r>  -26.3464    1.0000 </r>
       <r>  -26.3094    1.0000 </r>
       <r>  -26.2267    1.0000 </r>
       <r>  -26.1955    1.0000 </r>
       <r>  -26.0998    1.0000 </r>
       <r>  -26.0083    1.0000 </r>
       <r>  -25.9901    1.0000 </r>
[...]
       <r>   -32.5117     0.0000    64.0000 </r>
       <r>   -32.3161     0.0000    64.0000 </r>
       <r>   -32.1205     0.0000    64.0000 </r>
       <r>   -31.9249     0.0000    64.0000 </r>
       <r>   -31.7293     0.0000    64.0000 </r>
       <r>   -31.5337     0.0000    64.0000 </r>
       <r>   -31.3382     0.0000    64.0000 </r>
       <r>   -31.1426     3.2131    64.6285 </r>
       <r>   -30.9470    17.9859    68.1465 </r>
       <r>   -30.7514    62.8515    80.4400 </r>
       <r>   -30.5558    61.4676    92.4629 </r>
       <r>   -30.3602   164.8851   124.7139 </r>
       <r>   -30.1646   200.9822   164.0253 </r>
       <r>   -29.9690   226.1521   208.2599 </r>
       <r>   -29.7734   158.6500   239.2914 </r>
       <r>   -29.5778    69.6255   252.9099 </r>
       <r>   -29.3822    15.7983   256.0000 </r>
       <r>   -29.1866     0.0000   256.0000 </r>
       <r>   -28.9910     0.0000   256.0000 </r>
       <r>   -28.7954     0.0000   256.0000 </r>
       <r>   -28.5998     0.0000   256.0000 </r>
       <r>   -28.4042     0.0000   256.0000 </r>
       <r>   -28.2086     0.0000   256.0000 </r>
       <r>   -28.0130     0.0000   256.0000 </r>
       <r>   -27.8174     0.0000   256.0000 </r>
       <r>   -27.6218     0.0000   256.0000 </r>
       <r>   -27.4262     0.0001   256.0000 </r>
       <r>   -27.2306    10.7089   258.0947 </r>
       <r>   -27.0350    23.2827   262.6487 </r>
       <r>   -26.8394    27.3728   268.0027 </r>
       <r>   -26.6438    57.3496   279.2201 </r>
       <r>   -26.4482    68.7959   292.6764 </r>
       <r>   -26.2526    60.1655   304.4445 </r>
       <r>   -26.0570    28.6732   310.0529 </r>
       <r>   -25.8614    40.3753   317.9502 </r>
       <r>   -25.6658    10.4797   320.0000 </r>
       <r>   -25.4702     0.0000   320.0000 </r>
       <r>   -25.2747     0.0000   320.0000 </r>
       <r>   -25.0791     0.0000   320.0000 </r>
       <r>   -24.8835     0.0000   320.0000 </r>
       <r>   -24.6879     0.0000   320.0000 </r>
       <r>   -24.4923     0.0000   320.0000 </r>
       <r>   -24.2967     0.0000   320.0000 </r>
       <r>   -24.1011     0.0000   320.0000 </r>
       <r>   -23.9055     0.0000   320.0000 </r>
       <r>   -23.7099     0.0000   320.0000 </r>
       <r>   -23.5143     0.0000   320.0000 </r>
       <r>   -23.3187     0.0000   320.0000 </r>
       <r>   -23.1231     0.0000   320.0000 </r>
       <r>   -22.9275     0.0000   320.0000 </r>
       <r>   -22.7319     0.0000   320.0000 </r>
       <r>   -22.5363     0.0000   320.0000 </r>
       <r>   -22.3407     0.0000   320.0000 </r>
       <r>   -22.1451     0.0000   320.0000 </r>
       <r>   -21.9495     0.0000   320.0000 </r>
       <r>   -21.7539     0.0000   320.0000 </r>
       <r>   -21.5583     0.0000   320.0000 </r>
       <r>   -21.3627     0.0000   320.0000 </r>
       <r>   -21.1671     0.0000   320.0000 </r>
       <r>   -20.9715     0.0000   320.0000 </r>
       <r>   -20.7759     0.0000   320.0000 </r>
       <r>   -20.5803     0.0000   320.0000 </r>
       <r>   -20.3847     0.0000   320.0000 </r>
       <r>   -20.1891     0.0000   320.0000 </r>
       <r>   -19.9935     0.0000   320.0000 </r>
       <r>   -19.7979     0.0000   320.0000 </r>
       <r>   -19.6023     0.0000   320.0000 </r>
       <r>   -19.4067     0.0000   320.0000 </r>
       <r>   -19.2112     0.0000   320.0000 </r>
       <r>   -19.0156     0.0000   320.0000 </r>
       <r>   -18.8200     0.0000   320.0000 </r>
       <r>   -18.6244     0.0000   320.0000 </r>
       <r>   -18.4288     0.0000   320.0000 </r>
       <r>   -18.2332     0.0000   320.0000 </r>
       <r>   -18.0376     0.0000   320.0000 </r>
       <r>   -17.8420     0.0000   320.0000 </r>
       <r>   -17.6464     0.0000   320.0000 </r>
       <r>   -17.4508     0.0000   320.0000 </r>
       <r>   -17.2552     0.0000   320.0000 </r>
       <r>   -17.0596     0.0000   320.0000 </r>
       <r>   -16.8640     0.0000   320.0000 </r>
       <r>   -16.6684     0.0000   320.0000 </r>
       <r>   -16.4728     0.0000   320.0000 </r>
       <r>   -16.2772     0.0000   320.0000 </r>
       <r>   -16.0816     0.0000   320.0000 </r>
       <r>   -15.8860     0.0000   320.0000 </r>
       <r>   -15.6904     0.0000   320.0000 </r>
       <r>   -15.4948     0.0000   320.0000 </r>
       <r>   -15.2992     0.0000   320.0000 </r>
       <r>   -15.1036     0.0000   320.0000 </r>
       <r>   -14.9080     0.0000   320.0000 </r>
       <r>   -14.7124     0.0000   320.0000 </r>
       <r>   -14.5168     0.0000   320.0000 </r>
       <r>   -14.3212     0.0000   320.0000 </r>
       <r>   -14.1256     0.0000   320.0000 </r>
       <r>   -13.9300     0.0000   320.0000 </r>
       <r>   -13.7344     0.0000   320.0000 </r>
       <r>   -13.5388     0.0000   320.0000 </r>
       <r>   -13.3432     0.0000   320.0000 </r>
       <r>   -13.1477     0.0000   320.0000 </r>
       <r>   -12.9521     0.0000   320.0000 </r>
       <r>   -12.7565     0.0000   320.0000 </r>
       <r>   -12.5609     0.0000   320.0000 </r>
       <r>   -12.3653     0.0000   320.0000 </r>
       <r>   -12.1697     0.0197   320.0039 </r>
       <r>   -11.9741     9.9201   321.9442 </r>
       <r>   -11.7785    15.2725   324.9315 </r>
       <r>   -11.5829    15.5755   327.9780 </r>
       <r>   -11.3873    21.4605   332.1756 </r>
       <r>   -11.1917    24.7670   337.0199 </r>
       <r>   -10.9961    31.5985   343.2005 </r>
       <r>   -10.8005    27.5062   348.5806 </r>
       <r>   -10.6049    17.4073   351.9854 </r>
       <r>   -10.4093     0.0744   352.0000 </r>
       <r>   -10.2137     0.0000   352.0000 </r>
       <r>   -10.0181     0.0000   352.0000 </r>
       <r>    -9.8225     1.8216   352.3563 </r>
       <r>    -9.6269    18.5852   355.9915 </r>
       <r>    -9.4313    28.1493   361.4974 </r>
       <r>    -9.2357    68.4206   374.8803 </r>
       <r>    -9.0401    66.9056   387.9668 </r>
       <r>    -8.8445    84.7527   404.5441 </r>
       <r>    -8.6489    96.6323   423.4451 </r>
       <r>    -8.4533   127.8170   448.4457 </r>
       <r>    -8.2577   160.7486   479.8876 </r>
       <r>    -8.0621   107.7283   500.9589 </r>
       <r>    -7.8665    72.9074   515.2193 </r>
       <r>    -7.6709    82.1160   531.2810 </r>
       <r>    -7.4753    55.9814   542.2307 </r>
       <r>    -7.2797     9.0455   544.0000 </r>
       <r>    -7.0842     0.0000   544.0000 </r>
       <r>    -6.8886     0.0000   544.0000 </r>
       <r>    -6.6930     0.0000   544.0000 </r>
       <r>    -6.4974     0.0000   544.0000 </r>
       <r>    -6.3018     0.0000   544.0000 </r>
       <r>    -6.1062     0.0000   544.0000 </r>
       <r>    -5.9106     0.0000   544.0000 </r>
       <r>    -5.7150     0.0000   544.0000 </r>
       <r>    -5.5194     0.0000   544.0000 </r>
       <r>    -5.3238     0.0123   544.0024 </r>
       <r>    -5.1282    18.1453   547.5516 </r>
       <r>    -4.9326    32.7345   553.9543 </r>
       <r>    -4.7370    35.6266   560.9228 </r>
       <r>    -4.5414    33.6087   567.4965 </r>
       <r>    -4.3458    36.3946   574.6152 </r>
       <r>    -4.1502    36.7690   581.8071 </r>
       <r>    -3.9546    61.2737   593.7920 </r>
       <r>    -3.7590    66.2164   606.7438 </r>
       <r>    -3.5634    43.0444   615.1631 </r>
       <r>    -3.3678    38.6974   622.7322 </r>
       <r>    -3.1722    39.2777   630.4148 </r>
       <r>    -2.9766    29.0042   636.0879 </r>
       <r>    -2.7810    16.7275   639.3598 </r>
       <r>    -2.5854     3.2733   640.0000 </r>
       <r>    -2.3898     0.0000   640.0000 </r>
       <r>    -2.1942     0.0000   640.0000 </r>
       <r>    -1.9986     0.0002   640.0000 </r>
       <r>    -1.8030     4.2925   640.8396 </r>
       <r>    -1.6074    12.3653   643.2582 </r>
       <r>    -1.4118    21.1951   647.4039 </r>
       <r>    -1.2162    13.9524   650.1330 </r>
       <r>    -1.0207    21.3814   654.3151 </r>
       <r>    -0.8251    25.3346   659.2705 </r>
       <r>    -0.6295    25.7598   664.3090 </r>
       <r>    -0.4339    27.9287   669.7718 </r>
       <r>    -0.2383    34.4129   676.5029 </r>
       <r>    -0.0427    30.3957   682.4481 </r>
       <r>     0.1529    28.8080   688.0829 </r>
       <r>     0.3485    42.9166   696.4772 </r>
       <r>     0.5441    59.5325   708.1216 </r>
       <r>     0.7397    82.3462   724.2283 </r>
       <r>     0.9353    97.8893   743.3751 </r>
       <r>     1.1309   103.5112   763.6216 </r>
       <r>     1.3265    22.3847   767.9999 </r>
       <r>     1.5221     0.0003   768.0000 </r>
       <r>     1.7177     0.0000   768.0000 </r>
       <r>     1.9133     0.0000   768.0000 </r>
       <r>     2.1089     0.0000   768.0000 </r>
       <r>     2.3045     0.0000   768.0000 </r>
       <r>     2.5001     0.0000   768.0000 </r>
       <r>     2.6957     0.0000   768.0000 </r>
       <r>     2.8913     0.0000   768.0000 </r>
       <r>     3.0869     0.0000   768.0000 </r>
       <r>     3.2825     0.0000   768.0000 </r>
       <r>     3.4781     0.0000   768.0000 </r>
       <r>     3.6737     0.0000   768.0000 </r>
       <r>     3.8693     0.0000   768.0000 </r>
      </set>
     </set>
    </array>
   </total>
  </dos>
 </calculation>
 <structure name="finalpos" >
  <crystal>
   <varray name="basis" >
    <v>      13.12862340       0.00000000       0.00000000 </v>
    <v>      -6.56431170      11.36972138       0.00000000 </v>
    <v>       0.00000000       0.00000000      26.82809424 </v>
   </varray>
   <i name="volume">   4004.59716953 </i>
   <varray name="rec_basis" >
    <v>       0.07616945       0.04397645       0.00000000 </v>
    <v>       0.00000000       0.08795290       0.00000000 </v>
    <v>       0.00000000       0.00000000       0.03727436 </v>
   </varray>
  </crystal>
  <varray name="positions" >
   <v>       0.08044349       0.16814540       0.44599594 </v>
   <v>       0.08376979       0.41186268       0.45179643 </v>
   <v>       0.07138912       0.65225671       0.45310702 </v>
   <v>       0.07457689       0.91145336       0.44978624 </v>
   <v>       0.32604509       0.14869386       0.44881582 </v>
   <v>       0.34236117       0.40082169       0.44952312 </v>
   <v>       0.32011237       0.66260549       0.44407553 </v>
   <v>       0.32490306       0.90916470       0.45320980 </v>
   <v>       0.57920392       0.16534468       0.45667021 </v>
   <v>       0.59539100       0.41331501       0.45649758 </v>
   <v>       0.59200430       0.67158842       0.44900400 </v>
   <v>       0.57899057       0.92543348       0.45543520 </v>
   <v>       0.84007814       0.16934048       0.45336698 </v>
   <v>       0.83034812       0.41157064       0.46461554 </v>
   <v>       0.83389111       0.67467198       0.44780613 </v>
   <v>       0.82762668       0.92667497       0.45477711 </v>
   <v>       0.15858420       0.08236493       0.54394722 </v>
   <v>       0.17501442       0.34101416       0.53723236 </v>
   <v>       0.16825162       0.58719204       0.54707281 </v>
   <v>       0.17028160       0.84391084       0.54894934 </v>
   <v>       0.42644627       0.09777435       0.55039019 </v>
   <v>       0.41256909       0.32272411       0.54885676 </v>
   <v>       0.41509598       0.58344483       0.53691456 </v>
   <v>       0.41606345       0.82423732       0.54707119 </v>
   <v>       0.66614526       0.08727839       0.55298893 </v>
   <v>       0.66355686       0.33712280       0.55169227 </v>
   <v>       0.66521602       0.58999374       0.54872981 </v>
   <v>       0.67113340       0.83645387       0.54468666 </v>
   <v>       0.89813590       0.08384295       0.55728368 </v>
   <v>       0.92802723       0.34316726       0.54789374 </v>
   <v>       0.91957921       0.59059353       0.55032898 </v>
   <v>       0.91669110       0.83223289       0.54676372 </v>
   <v>       0.09641024       0.17832555       0.57923867 </v>
   <v>       0.10032654       0.41853532       0.59276544 </v>
   <v>       0.08165647       0.66734957       0.59442768 </v>
   <v>       0.07971549       0.91232403       0.58580753 </v>
   <v>       0.32969219       0.15372647       0.59290904 </v>
   <v>       0.32051079       0.42281311       0.58068518 </v>
   <v>       0.33711613       0.65558116       0.59463371 </v>
   <v>       0.32591839       0.89860442       0.58768171 </v>
   <v>       0.56805884       0.15130209       0.60016584 </v>
   <v>       0.56609475       0.42779693       0.59320460 </v>
   <v>       0.56500486       0.65364463       0.58903760 </v>
   <v>       0.60340221       0.91993774       0.59293050 </v>
   <v>       0.86775595       0.18715211       0.60046073 </v>
   <v>       0.82461757       0.43057588       0.59420825 </v>
   <v>       0.82781279       0.68168505       0.58378909 </v>
   <v>       0.83896626       0.92912503       0.60033992 </v>
   <v>       0.17263129       0.09306641       0.40757338 </v>
   <v>       0.16592109       0.31896272       0.40233411 </v>
   <v>       0.15814662       0.59259352       0.40755328 </v>
   <v>       0.16388000       0.83062051       0.41049039 </v>
   <v>       0.43361435       0.06901302       0.41138392 </v>
   <v>       0.42082998       0.31250087       0.40923576 </v>
   <v>       0.43830648       0.62057186       0.40472231 </v>
   <v>       0.42103621       0.84593634       0.41637840 </v>
   <v>       0.66532338       0.08444203       0.40863552 </v>
   <v>       0.67113295       0.30795608       0.41968187 </v>
   <v>       0.67320934       0.56704677       0.40912196 </v>
   <v>       0.66696383       0.85413259       0.41074183 </v>
   <v>       0.91847354       0.09238292       0.40972329 </v>
   <v>       0.91202918       0.33599361       0.40532078 </v>
   <v>       0.89281632       0.56916929       0.41572156 </v>
   <v>       0.93146610       0.82869038       0.40318945 </v>
   <v>       0.99647096       0.98753592       0.49760704 </v>
   <v>       0.00238814       0.24236663       0.49639409 </v>
   <v>       0.00318837       0.49532391       0.50294309 </v>
   <v>       0.01138436       0.75754759       0.49832568 </v>
   <v>       0.26316669       0.00513416       0.50040971 </v>
   <v>       0.25843719       0.24593495       0.49808558 </v>
   <v>       0.25024746       0.49618918       0.48680379 </v>
   <v>       0.25007289       0.74155170       0.49843635 </v>
   <v>       0.49090222       0.98278495       0.50327420 </v>
   <v>       0.50752213       0.24693460       0.50889733 </v>
   <v>       0.50310703       0.49720267       0.49887424 </v>
   <v>       0.51569333       0.75862669       0.49867817 </v>
   <v>       0.75081236       0.00941124       0.50243874 </v>
   <v>       0.75045663       0.24827375       0.50601985 </v>
   <v>       0.73777865       0.50170265       0.50250168 </v>
   <v>       0.75201200       0.74164878       0.49566489 </v>
  </varray>
  <varray name="velocities" >
   <v>       0.00000000       0.00000000       0.00000000 </v>
   <v>       0.00000000       0.00000000       0.00000000 </v>
   <v>       0.00000000       0.00000000       0.00000000 </v>
   <v>       0.00000000       0.00000000       0.00000000 </v>
   <v>       0.00000000       0.00000000       0.00000000 </v>
   <v>       0.00000000       0.00000000       0.00000000 </v>
   <v>       0.00000000       0.00000000       0.00000000 </v>
   <v>       0.00000000       0.00000000       0.00000000 </v>
   <v>       0.00000000       0.00000000       0.00000000 </v>
   <v>       0.00000000       0.00000000       0.00000000 </v>
   <v>       0.00000000       0.00000000       0.00000000 </v>
   <v>       0.00000000       0.00000000       0.00000000 </v>
   <v>       0.00000000       0.00000000       0.00000000 </v>
   <v>       0.00000000       0.00000000       0.00000000 </v>
   <v>       0.00000000       0.00000000       0.00000000 </v>
   <v>       0.00000000       0.00000000       0.00000000 </v>
   <v>       0.00000000       0.00000000       0.00000000 </v>
   <v>       0.00000000       0.00000000       0.00000000 </v>
   <v>       0.00000000       0.00000000       0.00000000 </v>
   <v>       0.00000000       0.00000000       0.00000000 </v>
   <v>       0.00000000       0.00000000       0.00000000 </v>
   <v>       0.00000000       0.00000000       0.00000000 </v>
   <v>       0.00000000       0.00000000       0.00000000 </v>
   <v>       0.00000000       0.00000000       0.00000000 </v>
   <v>       0.00000000       0.00000000       0.00000000 </v>
   <v>       0.00000000       0.00000000       0.00000000 </v>
   <v>       0.00000000       0.00000000       0.00000000 </v>
   <v>       0.00000000       0.00000000       0.00000000 </v>
   <v>       0.00000000       0.00000000       0.00000000 </v>
   <v>       0.00000000       0.00000000       0.00000000 </v>
   <v>       0.00000000       0.00000000       0.00000000 </v>
   <v>       0.00000000       0.00000000       0.00000000 </v>
   <v>       0.00000000       0.00000000       0.00000000 </v>
   <v>       0.00000000       0.00000000       0.00000000 </v>
   <v>       0.00000000       0.00000000       0.00000000 </v>
   <v>       0.00000000       0.00000000       0.00000000 </v>
   <v>       0.00000000       0.00000000       0.00000000 </v>
   <v>       0.00000000       0.00000000       0.00000000 </v>
   <v>       0.00000000       0.00000000       0.00000000 </v>
   <v>       0.00000000       0.00000000       0.00000000 </v>
   <v>       0.00000000       0.00000000       0.00000000 </v>
   <v>       0.00000000       0.00000000       0.00000000 </v>
   <v>       0.00000000       0.00000000       0.00000000 </v>
   <v>       0.00000000       0.00000000       0.00000000 </v>
   <v>       0.00000000       0.00000000       0.00000000 </v>
   <v>       0.00000000       0.00000000       0.00000000 </v>
   <v>       0.00000000       0.00000000       0.00000000 </v>
   <v>       0.00000000       0.00000000       0.00000000 </v>
   <v>       0.00000000       0.00000000       0.00000000 </v>
   <v>       0.00000000       0.00000000       0.00000000 </v>
   <v>       0.00000000       0.00000000       0.00000000 </v>
   <v>       0.00000000       0.00000000       0.00000000 </v>
   <v>       0.00000000       0.00000000       0.00000000 </v>
   <v>       0.00000000       0.00000000       0.00000000 </v>
   <v>       0.00000000       0.00000000       0.00000000 </v>
   <v>       0.00000000       0.00000000       0.00000000 </v>
   <v>       0.00000000       0.00000000       0.00000000 </v>
   <v>       0.00000000       0.00000000       0.00000000 </v>
   <v>       0.00000000       0.00000000       0.00000000 </v>
   <v>       0.00000000       0.00000000       0.00000000 </v>
   <v>       0.00000000       0.00000000       0.00000000 </v>
   <v>       0.00000000       0.00000000       0.00000000 </v>
   <v>       0.00000000       0.00000000       0.00000000 </v>
   <v>       0.00000000       0.00000000       0.00000000 </v>
   <v>       0.00000000       0.00000000       0.00000000 </v>
   <v>       0.00000000       0.00000000       0.00000000 </v>
   <v>       0.00000000       0.00000000       0.00000000 </v>
   <v>       0.00000000       0.00000000       0.00000000 </v>
   <v>       0.00000000       0.00000000       0.00000000 </v>
   <v>       0.00000000       0.00000000       0.00000000 </v>
   <v>       0.00000000       0.00000000       0.00000000 </v>
   <v>       0.00000000       0.00000000       0.00000000 </v>
   <v>       0.00000000       0.00000000       0.00000000 </v>
   <v>       0.00000000       0.00000000       0.00000000 </v>
   <v>       0.00000000       0.00000000       0.00000000 </v>
   <v>       0.00000000       0.00000000       0.00000000 </v>
   <v>       0.00000000       0.00000000       0.00000000 </v>
   <v>       0.00000000       0.00000000       0.00000000 </v>
   <v>       0.00000000       0.00000000       0.00000000 </v>
   <v>       0.00000000       0.00000000       0.00000000 </v>
  </varray>
 </structure>
</modeling>
