 running on   48 total cores
 distrk:  each k-point on   48 cores,    1 groups
 distr:  one band on   12 cores,    4 groups
 using from now: INCAR     
 vasp.5.4.4.18Apr17-6-g9f103f2a35 (build Mar 16 2023 09:39:13) complex          
  
 POSCAR found type information on POSCAR  Ca Si O 
 POSCAR found :  3 types and     135 ions
 scaLAPACK is switched off
 LDA part: xc-table for Pade appr. of Perdew
 generate k-points for:    2    2    2
 POSCAR, INCAR and KPOINTS ok, starting setup
 FFT: planning ...
 WAVECAR not read
 entering main loop
       N       E                     dE             d eps       ncg     rms          rms(c)
DAV:   1     0.939645892230E+04    0.93965E+04   -0.47188E+05  8320   0.178E+03
DAV:   2    -0.106777326681E+02   -0.94071E+04   -0.91270E+04 10000   0.472E+02
DAV:   3    -0.102479656036E+04   -0.10141E+04   -0.10078E+04 10240   0.158E+02
DAV:   4    -0.107508680315E+04   -0.50290E+02   -0.50113E+02 11008   0.319E+01
DAV:   5    -0.108121520129E+04   -0.61284E+01   -0.61254E+01 15264   0.778E+00    0.844E+01
DAV:   6    -0.929606656492E+03    0.15161E+03   -0.73353E+02 10344   0.410E+01    0.363E+01
DAV:   7    -0.931109144528E+03   -0.15025E+01   -0.73547E+01 11128   0.136E+01    0.182E+01
DAV:   8    -0.929544023438E+03    0.15651E+01   -0.11037E+01 10368   0.566E+00    0.773E+00
DAV:   9    -0.929167939792E+03    0.37608E+00   -0.23394E+00 10944   0.320E+00    0.223E+00
DAV:  10    -0.929269493172E+03   -0.10155E+00   -0.10306E+00 12064   0.171E+00    0.136E+00
DAV:  11    -0.929288609794E+03   -0.19117E-01   -0.13095E-01 11392   0.659E-01    0.752E-01
DAV:  12    -0.929304646295E+03   -0.16037E-01   -0.51563E-02  9936   0.441E-01    0.293E-01
DAV:  13    -0.929309673124E+03   -0.50268E-02   -0.15737E-02 11392   0.267E-01    0.184E-01
DAV:  14    -0.929310348675E+03   -0.67555E-03   -0.57941E-03 11728   0.129E-01    0.107E-01
DAV:  15    -0.929310520257E+03   -0.17158E-03   -0.10144E-03  9808   0.595E-02    0.594E-02
DAV:  16    -0.929310609904E+03   -0.89647E-04   -0.50847E-04 10232   0.590E-02    0.309E-02
DAV:  17    -0.929310628553E+03   -0.18649E-04   -0.34055E-04 11728   0.343E-02    0.223E-02
DAV:  18    -0.929310630772E+03   -0.22191E-05   -0.65947E-05 10064   0.121E-02    0.130E-02
DAV:  19    -0.929310630872E+03   -0.10000E-06   -0.13534E-05  9024   0.858E-03    0.551E-03
DAV:  20    -0.929310631981E+03   -0.11086E-05   -0.72377E-06  9664   0.487E-03    0.281E-03
DAV:  21    -0.929310632655E+03   -0.67431E-06   -0.20839E-06  6160   0.264E-03
   1 F= -.92931063E+03 E0= -.92931063E+03  d E =-.453117E-06
