 running on   52 total cores
 distrk:  each k-point on   52 cores,    1 groups
 distr:  one band on   13 cores,    4 groups
 using from now: INCAR     
 vasp.5.4.4.18Apr17-6-g9f103f2a35 (build Oct 31 2019 15:01:46) complex          
  
 POSCAR found type information on POSCAR  Sc F  C 
 POSCAR found :  3 types and      80 ions
 scaLAPACK is switched off
 LDA part: xc-table for Pade appr. of Perdew
 generate k-points for:    3    3    1
 POSCAR, INCAR and KPOINTS ok, starting setup
 FFT: planning ...
 WAVECAR not read
 entering main loop
       N       E                     dE             d eps       ncg     rms          rms(c)
DAV:   1     0.137052783079E+05    0.13705E+05   -0.27855E+05  4240   0.156E+03
DAV:   2     0.250145709774E+04   -0.11204E+05   -0.10901E+05  4632   0.534E+02
DAV:   3    -0.382260026443E+03   -0.28837E+04   -0.27675E+04  6784   0.294E+02
DAV:   4    -0.741140777645E+03   -0.35888E+03   -0.35479E+03  6056   0.139E+02
DAV:   5    -0.755617671745E+03   -0.14477E+02   -0.14418E+02  6080   0.351E+01    0.763E+01
DAV:   6    -0.599934377957E+03    0.15568E+03   -0.84082E+02  5696   0.640E+01    0.250E+01
DAV:   7    -0.599704333575E+03    0.23004E+00   -0.53921E+01  5952   0.213E+01    0.164E+01
DAV:   8    -0.598008714212E+03    0.16956E+01   -0.10357E+01  5576   0.818E+00    0.444E+00
DAV:   9    -0.597505980111E+03    0.50273E+00   -0.25204E+00  5464   0.510E+00    0.216E+00
DAV:  10    -0.597458183958E+03    0.47796E-01   -0.28447E-01  5864   0.171E+00    0.123E+00
DAV:  11    -0.597320350663E+03    0.13783E+00   -0.17686E-01  5528   0.109E+00    0.839E-01
DAV:  12    -0.597289738199E+03    0.30612E-01   -0.52710E-02  5792   0.602E-01    0.342E-01
DAV:  13    -0.597279785693E+03    0.99525E-02   -0.36822E-02  5640   0.461E-01    0.292E-01
DAV:  14    -0.597276188701E+03    0.35970E-02   -0.12203E-02  5616   0.269E-01    0.160E-01
DAV:  15    -0.597282000391E+03   -0.58117E-02   -0.10897E-02  5832   0.222E-01    0.124E-01
DAV:  16    -0.597285233855E+03   -0.32335E-02   -0.24222E-03  5440   0.152E-01    0.847E-02
DAV:  17    -0.597290678961E+03   -0.54451E-02   -0.26670E-03  5888   0.115E-01    0.103E-01
DAV:  18    -0.597294568783E+03   -0.38898E-02   -0.98785E-04  5368   0.884E-02    0.557E-02
DAV:  19    -0.597296019896E+03   -0.14511E-02   -0.49010E-04  5832   0.519E-02    0.215E-02
DAV:  20    -0.597299165882E+03   -0.31460E-02   -0.14705E-04  5336   0.236E-02    0.214E-02
DAV:  21    -0.597301865646E+03   -0.26998E-02   -0.13418E-04  4392   0.178E-02    0.132E-02
DAV:  22    -0.597303316931E+03   -0.14513E-02   -0.13694E-04  4464   0.159E-02    0.835E-03
DAV:  23    -0.597303737743E+03   -0.42081E-03   -0.14863E-05  4760   0.952E-03    0.505E-03
DAV:  24    -0.597304107401E+03   -0.36966E-03   -0.18471E-05  4448   0.681E-03    0.368E-03
DAV:  25    -0.597304300743E+03   -0.19334E-03   -0.59067E-06  4064   0.453E-03    0.159E-03
DAV:  26    -0.597304377245E+03   -0.76503E-04   -0.18272E-06  3216   0.288E-03    0.142E-03
DAV:  27    -0.597304407204E+03   -0.29959E-04   -0.51432E-07  2648   0.228E-03    0.102E-03
DAV:  28    -0.597304428289E+03   -0.21085E-04   -0.41179E-07  2776   0.166E-03    0.711E-04
DAV:  29    -0.597304440775E+03   -0.12486E-04   -0.39750E-07  2672   0.169E-03    0.642E-04
DAV:  30    -0.597304445178E+03   -0.44029E-05   -0.26343E-07  2616   0.141E-03    0.721E-04
DAV:  31    -0.597304446782E+03   -0.16038E-05   -0.15090E-07  2520   0.111E-03    0.577E-04
DAV:  32    -0.597304447365E+03   -0.58288E-06   -0.97219E-08  2496   0.827E-04
   1 F= -.59730445E+03 E0= -.59730445E+03  d E =-.133460E-24
