 running on   48 total cores
 distrk:  each k-point on   48 cores,    1 groups
 distr:  one band on   12 cores,    4 groups
 using from now: INCAR     
 vasp.5.4.4.18Apr17-6-g9f103f2a35 (build Mar 16 2023 09:39:13) complex          
  
 POSCAR found type information on POSCAR  Ca Si O 
 POSCAR found :  3 types and     135 ions
 scaLAPACK is switched off
 LDA part: xc-table for Pade appr. of Perdew
 generate k-points for:    2    2    2
 POSCAR, INCAR and KPOINTS ok, starting setup
 FFT: planning ...
 WAVECAR not read
 entering main loop
       N       E                     dE             d eps       ncg     rms          rms(c)
DAV:   1     0.988188076783E+04    0.98819E+04   -0.48856E+05  8320   0.188E+03
DAV:   2     0.657936372058E+02   -0.98161E+04   -0.94882E+04  9568   0.515E+02
DAV:   3    -0.100346955157E+04   -0.10693E+04   -0.10621E+04 10192   0.172E+02
DAV:   4    -0.105414304273E+04   -0.50673E+02   -0.50498E+02 11656   0.334E+01
DAV:   5    -0.105834278974E+04   -0.41997E+01   -0.41977E+01 14440   0.742E+00    0.810E+01
DAV:   6    -0.931518742556E+03    0.12682E+03   -0.55869E+02  9952   0.366E+01    0.334E+01
DAV:   7    -0.933610983932E+03   -0.20922E+01   -0.57434E+01 11352   0.118E+01    0.161E+01
DAV:   8    -0.932809829569E+03    0.80115E+00   -0.83502E+00 11040   0.531E+00    0.642E+00
DAV:   9    -0.932573750529E+03    0.23608E+00   -0.16999E+00 10080   0.293E+00    0.182E+00
DAV:  10    -0.932638623807E+03   -0.64873E-01   -0.85913E-01 11080   0.163E+00    0.146E+00
DAV:  11    -0.932630777409E+03    0.78464E-02   -0.13683E-01 11408   0.722E-01    0.700E-01
DAV:  12    -0.932631914754E+03   -0.11373E-02   -0.30567E-02 10360   0.323E-01    0.187E-01
DAV:  13    -0.932632465552E+03   -0.55080E-03   -0.62945E-03 12176   0.180E-01    0.131E-01
DAV:  14    -0.932632493586E+03   -0.28034E-04   -0.28408E-03 10632   0.952E-02    0.900E-02
DAV:  15    -0.932632487492E+03    0.60940E-05   -0.46709E-04 11064   0.376E-02    0.556E-02
DAV:  16    -0.932632463016E+03    0.24477E-04   -0.22196E-04 10208   0.340E-02    0.152E-02
DAV:  17    -0.932632463406E+03   -0.38990E-06   -0.81362E-05 11600   0.170E-02    0.103E-02
DAV:  18    -0.932632463382E+03    0.23821E-07   -0.19297E-05 10504   0.695E-03    0.685E-03
DAV:  19    -0.932632462959E+03    0.42295E-06   -0.22180E-06  6456   0.346E-03
   1 F= -.93263246E+03 E0= -.93263246E+03  d E =-.107237E-25
