 vasp.5.4.4.18Apr17-6-g9f103f2a35 (build Mar 16 2023 09:39:13) complex          
  
 executed on             LinuxIFC date 2024.04.29  21:22:39
 running on   48 total cores
 distrk:  each k-point on   48 cores,    1 groups
 distr:  one band on NCORES_PER_BAND=  12 cores,    4 groups


--------------------------------------------------------------------------------------------------------


 INCAR:
 POTCAR:    PAW_PBE Ca_sv 06Sep2000               
 POTCAR:    PAW_PBE Si 05Jan2001                  
 POTCAR:    PAW_PBE O 08Apr2002                   
 POTCAR:    PAW_PBE Ca_sv 06Sep2000               
   SHA256 =  a47365830e737f14e0e6c5cf1ed81b94e081eecf0a33df105380881bc9da05d5 Ca
   COPYR  = (c) Copyright 06Sep2000 Georg Kresse                                
   COPYR  = This file is part of the software VASP. Any use, copying, and all ot
   COPYR  = If you do not have a valid VASP license, you may not use, copy or di
   VRHFIN =Ca: 3s3p4s                                                           
   LEXCH  = PE                                                                  
   EATOM  =  1006.0909 eV,   73.9456 Ry                                         
                                                                                
   TITEL  = PAW_PBE Ca_sv 06Sep2000                                             
   LULTRA =        F    use ultrasoft PP ?                                      
   IUNSCR =        1    unscreen: 0-lin 1-nonlin 2-no                           
   RPACOR =    2.000    partial core radius                                     
   POMASS =   40.078; ZVAL   =   10.000    mass and valenz                      
   RCORE  =    2.300    outmost cutoff radius                                   
   RWIGS  =    2.500; RWIGS  =    1.323    wigner-seitz radius (au A)           
   ENMAX  =  266.622; ENMIN  =  199.967 eV                                      
   RCLOC  =    1.808    cutoff for local pot                                    
   LCOR   =        T    correct aug charges                                     
   LPAW   =        T    paw PP                                                  
   EAUG   =  420.852                                                            
   RMAX   =    2.359    core radius for proj-oper                               
   RAUG   =    1.300    factor for augmentation sphere                          
   RDEP   =    2.392    radius for radial grids                                 
   RDEPT  =    1.987    core radius for aug-charge                              
                                                                                
   Atomic configuration                                                         
    7 entries                                                                   
     n  l   j            E        occ.                                          
     1  0  0.50     -3949.1705   2.0000                                         
     2  0  0.50      -414.3434   2.0000                                         
     2  1  1.50      -334.7047   6.0000                                         
     3  0  0.50       -47.0896   2.0000                                         
     4  0  0.50        -3.7663   2.0000                                         
     3  1  1.50       -28.0061   6.0000                                         
     3  2  1.50        -4.0817   0.0000                                         
   Description                                                                  
     l       E           TYP  RCUT    TYP  RCUT                                 
     0    -47.0896403     23  2.300                                             
     0     -3.7663320     23  2.300                                             
     1    -28.0060855     23  2.300                                             
     1      6.8029130     23  2.300                                             
     2     -4.0817478     23  2.300                                             
     2      0.4464412     23  2.300                                             
  local pseudopotential read in
  partial core-charges read in
  partial kinetic energy density read in
  atomic valenz-charges read in
  non local Contribution for L=           0  read in
    real space projection operators read in
  non local Contribution for L=           0  read in
    real space projection operators read in
  non local Contribution for L=           1  read in
    real space projection operators read in
  non local Contribution for L=           1  read in
    real space projection operators read in
  non local Contribution for L=           2  read in
    real space projection operators read in
  non local Contribution for L=           2  read in
    real space projection operators read in
    PAW grid and wavefunctions read in
 
   number of l-projection  operators is LMAX  =           6
   number of lm-projection operators is LMMAX =          18
 
 POTCAR:    PAW_PBE Si 05Jan2001                  
   SHA256 =  79d9987ad8750f624c4d6acb2a16d13abf6a777132adc04dc6c8399be72b42bb Si
   COPYR  = (c) Copyright 05Jan2001 Georg Kresse                                
   COPYR  = This file is part of the software VASP. Any use, copying, and all ot
   COPYR  = If you do not have a valid VASP license, you may not use, copy or di
   VRHFIN =Si: s2p2                                                             
   LEXCH  = PE                                                                  
   EATOM  =   103.0669 eV,    7.5752 Ry                                         
                                                                                
   TITEL  = PAW_PBE Si 05Jan2001                                                
   LULTRA =        F    use ultrasoft PP ?                                      
   IUNSCR =        1    unscreen: 0-lin 1-nonlin 2-no                           
   RPACOR =    1.500    partial core radius                                     
   POMASS =   28.085; ZVAL   =    4.000    mass and valenz                      
   RCORE  =    1.900    outmost cutoff radius                                   
   RWIGS  =    2.480; RWIGS  =    1.312    wigner-seitz radius (au A)           
   ENMAX  =  245.345; ENMIN  =  184.009 eV                                      
   ICORE  =        2    local potential                                         
   LCOR   =        T    correct aug charges                                     
   LPAW   =        T    paw PP                                                  
   EAUG   =  322.069                                                            
   DEXC   =    0.000                                                            
   RMAX   =    1.950    core radius for proj-oper                               
   RAUG   =    1.300    factor for augmentation sphere                          
   RDEP   =    1.993    radius for radial grids                                 
   RDEPT  =    1.837    core radius for aug-charge                              
                                                                                
   Atomic configuration                                                         
    6 entries                                                                   
     n  l   j            E        occ.                                          
     1  0  0.50     -1785.8828   2.0000                                         
     2  0  0.50      -139.4969   2.0000                                         
     2  1  1.50       -95.5546   6.0000                                         
     3  0  0.50       -10.8127   2.0000                                         
     3  1  0.50        -4.0811   2.0000                                         
     3  2  1.50        -4.0817   0.0000                                         
   Description                                                                  
     l       E           TYP  RCUT    TYP  RCUT                                 
     0    -10.8127223     23  1.900                                             
     0     -7.6451159     23  1.900                                             
     1     -4.0811372     23  1.900                                             
     1      2.4879257     23  1.900                                             
     2     -4.0817478      7  1.900                                             
  local pseudopotential read in
  partial core-charges read in
  partial kinetic energy density read in
  atomic valenz-charges read in
  non local Contribution for L=           0  read in
    real space projection operators read in
  non local Contribution for L=           0  read in
    real space projection operators read in
  non local Contribution for L=           1  read in
    real space projection operators read in
  non local Contribution for L=           1  read in
    real space projection operators read in
    PAW grid and wavefunctions read in
 
   number of l-projection  operators is LMAX  =           4
   number of lm-projection operators is LMMAX =           8
 
 POTCAR:    PAW_PBE O 08Apr2002                   
   SHA256 =  818f92134a0a090dccd8ba1447fa70422a3b330e708bb4f08108d8ae51209ddf O/
   COPYR  = (c) Copyright 08Apr2002 Georg Kresse                                
   COPYR  = This file is part of the software VASP. Any use, copying, and all ot
   COPYR  = If you do not have a valid VASP license, you may not use, copy or di
   VRHFIN =O: s2p4                                                              
   LEXCH  = PE                                                                  
   EATOM  =   432.3788 eV,   31.7789 Ry                                         
                                                                                
   TITEL  = PAW_PBE O 08Apr2002                                                 
   LULTRA =        F    use ultrasoft PP ?                                      
   IUNSCR =        1    unscreen: 0-lin 1-nonlin 2-no                           
   RPACOR =    1.200    partial core radius                                     
   POMASS =   16.000; ZVAL   =    6.000    mass and valenz                      
   RCORE  =    1.520    outmost cutoff radius                                   
   RWIGS  =    1.550; RWIGS  =    0.820    wigner-seitz radius (au A)           
   ENMAX  =  400.000; ENMIN  =  300.000 eV                                      
   ICORE  =        2    local potential                                         
   LCOR   =        T    correct aug charges                                     
   LPAW   =        T    paw PP                                                  
   EAUG   =  605.392                                                            
   DEXC   =    0.000                                                            
   RMAX   =    1.553    core radius for proj-oper                               
   RAUG   =    1.300    factor for augmentation sphere                          
   RDEP   =    1.550    radius for radial grids                                 
   RDEPT  =    1.329    core radius for aug-charge                              
                                                                                
   Atomic configuration                                                         
    4 entries                                                                   
     n  l   j            E        occ.                                          
     1  0  0.50      -514.6923   2.0000                                         
     2  0  0.50       -23.9615   2.0000                                         
     2  1  0.50        -9.0305   4.0000                                         
     3  2  1.50        -9.5241   0.0000                                         
   Description                                                                  
     l       E           TYP  RCUT    TYP  RCUT                                 
     0    -23.9615318     23  1.200                                             
     0     -9.5240782     23  1.200                                             
     1     -9.0304911     23  1.520                                             
     1      8.1634956     23  1.520                                             
     2     -9.5240782      7  1.500                                             
  local pseudopotential read in
  partial core-charges read in
  partial kinetic energy density read in
  kinetic energy density of atom read in
  atomic valenz-charges read in
  non local Contribution for L=           0  read in
    real space projection operators read in
  non local Contribution for L=           0  read in
    real space projection operators read in
  non local Contribution for L=           1  read in
    real space projection operators read in
  non local Contribution for L=           1  read in
    real space projection operators read in
    PAW grid and wavefunctions read in
 
   number of l-projection  operators is LMAX  =           4
   number of lm-projection operators is LMMAX =           8
 
 Optimization of the real space projectors (new method)

 maximal supplied QI-value         = 16.25
 optimisation between [QCUT,QGAM] = [ 12.51, 25.03] = [ 43.85,175.40] Ry 
 Optimized for a Real-space Cutoff    1.47 Angstroem

   l    n(q)    QCUT    max X(q) W(low)/X(q) W(high)/X(q)  e(spline) 
   0     11    12.514    11.817    0.25E-04    0.32E-05    0.87E-07
   0     11    12.514     8.461    0.39E-04    0.59E-05    0.18E-06
   1     11    12.514     3.957    0.97E-05    0.57E-05    0.28E-07
   1     11    12.514     4.314    0.42E-04    0.14E-04    0.23E-06
   2     10    12.514    14.565    0.79E-04    0.50E-03    0.16E-05
   2     10    12.514    14.552    0.75E-04    0.48E-03    0.15E-05
 Optimization of the real space projectors (new method)

 maximal supplied QI-value         = 19.84
 optimisation between [QCUT,QGAM] = [ 12.50, 25.00] = [ 43.76,175.03] Ry 
 Optimized for a Real-space Cutoff    1.16 Angstroem

   l    n(q)    QCUT    max X(q) W(low)/X(q) W(high)/X(q)  e(spline) 
   0      9    12.501   159.560    0.10E-03    0.83E-04    0.71E-07
   0      9    12.501   115.863    0.99E-04    0.81E-04    0.70E-07
   1      8    12.501    88.339    0.20E-03    0.25E-03    0.76E-07
   1      8    12.501    48.592    0.20E-03    0.24E-03    0.75E-07
 Optimization of the real space projectors (new method)

 maximal supplied QI-value         = 24.76
 optimisation between [QCUT,QGAM] = [ 12.38, 25.00] = [ 42.90,175.06] Ry 
 Optimized for a Real-space Cutoff    1.16 Angstroem

   l    n(q)    QCUT    max X(q) W(low)/X(q) W(high)/X(q)  e(spline) 
   0      9    12.378    20.381    0.16E-03    0.67E-05    0.31E-06
   0      9    12.378    15.268    0.17E-03    0.81E-05    0.33E-06
   1      8    12.378     5.964    0.20E-03    0.16E-03    0.30E-06
   1      8    12.378     5.382    0.18E-03    0.14E-03    0.26E-06
  PAW_PBE Ca_sv 06Sep2000               :
 energy of atom  1       EATOM=-1006.0909
 kinetic energy error for atom=    0.0012 (will be added to EATOM!!)
  PAW_PBE Si 05Jan2001                  :
 energy of atom  2       EATOM= -103.0669
 kinetic energy error for atom=    0.0003 (will be added to EATOM!!)
  PAW_PBE O 08Apr2002                   :
 energy of atom  3       EATOM= -432.3788
 kinetic energy error for atom=    0.0168 (will be added to EATOM!!)
 
 
 POSCAR: Ca Si  O                                
  positions in direct lattice
  No initial velocities read in
 exchange correlation table for  LEXCH =        8
   RHO(1)=    0.500       N(1)  =     2000
   RHO(2)=  100.500       N(2)  =     4000
 


--------------------------------------------------------------------------------------------------------


 ion  position               nearest neighbor table
   1  0.133  0.600  0.906-  81 1.89  92 2.03  88 2.10 120 2.25  67 2.38 125 2.43 110 2.46  68 2.47
                            54 2.62  51 3.04  13 3.06  18 3.08
   2  0.014  0.587  0.614-  74 2.23 100 2.25  95 2.33  63 2.42 125 2.43  92 2.52 118 2.54 111 2.56
                            30 2.85  42 2.85  41 3.10  38 3.14
   3  0.078  0.220  0.303-  75 2.17 135 2.21  62 2.22  72 2.32 127 2.48  32 2.75  40 2.94  52 3.07

   4  0.363  0.247  0.607-  69 2.04 124 2.18 127 2.25  66 2.45  51 2.90  32 3.07  25 3.17
   5  0.629  0.794  0.052- 126 2.17  90 2.27  98 2.36  79 2.42 133 2.44 117 2.49  97 2.56  43 2.86
                            45 2.90  50 3.05  36 3.10
   6  0.054  0.910  0.969-  84 1.96 120 2.32  76 2.41  87 2.48  93 2.54 108 2.54  37 2.93  53 3.01
                            46 3.02  52 3.02
   7  0.710  0.265  0.917-  77 2.08  94 2.16 105 2.30 109 2.35  57 2.39  83 2.55  35 2.81  34 2.90
                            47 2.96  28 3.12
   8  0.483  0.016  0.851-  90 2.21 109 2.22  60 2.32 122 2.37  69 2.40 101 2.50  36 2.99  48 3.05
                            34 3.05  53 3.08
   9  0.870  0.346  0.523- 121 2.17 115 2.50  41 2.52 105 2.56  63 2.57  40 3.03
  10  0.264  0.466  0.407- 127 2.21 113 2.26  63 2.29  73 2.36  66 2.43 135 2.45 111 2.49  32 2.93
                            31 3.06
  11  0.183  1.000  0.486- 112 2.18 103 2.29  62 2.40 131 2.41  80 2.48  78 2.52  39 2.72  52 2.99

  12  0.602  0.173  0.386-  89 2.22  70 2.36  61 2.50  56 2.54  58 2.54  33 2.96
  13  0.883  0.699  0.850-  92 2.12 117 2.22 125 2.29 120 2.31  87 2.36  97 2.51  30 2.94  43 2.94
                            28 2.97  46 3.02   1 3.06
  14  0.509  0.749  0.495-  59 2.16 114 2.23  65 2.24 107 2.46  85 2.56  49 2.69  48 3.07
  15  0.732  0.923  0.561- 134 2.18  61 2.30  65 2.32  55 2.41  59 2.42 114 2.54  40 2.91  42 3.01
                            45 3.07  49 3.07
  16  0.948  0.799  0.407- 118 1.90  95 2.20  55 2.33 112 2.52 100 2.55  30 2.89  38 3.00  45 3.08
                            42 3.12  39 3.14
  17  0.423  0.953  0.257- 101 2.11  56 2.34 106 2.35 131 2.40  86 2.42  79 2.52  59 2.56  36 2.76
                            50 3.05
  18  0.195  0.677  0.165- 113 2.11  99 2.28 110 2.33  86 2.40  81 2.47  78 2.56  50 2.78  44 2.87
                            53 3.00   1 3.08
  19  0.295  0.160  0.082-  64 2.17  56 2.28  93 2.41 119 2.41 101 2.52 116 2.56  32 2.90  34 3.01
                            44 3.15
  20  0.922  0.098  0.740- 115 2.28  87 2.28  96 2.35  84 2.40 134 2.44 105 2.54  80 2.56  25 2.95
                            43 3.02  47 3.07  30 3.13
  21  0.815  0.298  0.197-  89 2.14  75 2.17 132 2.22  58 2.26 128 2.38  94 2.38  71 2.43  37 3.06
                            28 3.10
  22  0.810  0.014  0.155- 133 1.99 106 2.22  94 2.22  72 2.37  55 2.39  58 2.54 108 2.56  36 2.72
                            45 2.81  37 2.85
  23  0.757  0.566  0.295- 130 2.06 100 2.35  82 2.44 128 2.45 126 2.47 114 2.52  38 2.75  33 2.85
                            45 3.13  28 3.16
  24  0.529  0.366  0.181-  64 2.00 128 2.23  89 2.25  82 2.30  58 2.50  73 2.54  33 2.86  44 2.99

  25  0.185  0.095  0.770-  80 2.07 119 2.15  76 2.18 124 2.26  84 2.34  69 2.56  20 2.95  27 3.08
                             4 3.17
  26  0.610  0.455  0.693-  91 2.09  77 2.23 102 2.26 104 2.41  33 3.03  47 3.15
  27  0.262  0.829  0.754-  76 2.25 103 2.28 125 2.42  80 2.45 122 2.46  81 2.48  53 2.76  25 3.08
                            30 3.12
  28  0.796  0.512  0.019- 117 1.48 128 1.65  57 1.71 132 1.79  35 2.78  13 2.97  46 2.99  54 3.09
                            21 3.10   7 3.12  23 3.16
  29  0.493  0.546  0.961-  83 1.63  98 1.65 104 1.68  68 1.73  34 3.02  44 3.06
  30  0.998  0.839  0.658-  95 1.63 125 1.68  80 1.71 118 1.90 134 1.98  87 2.17   2 2.85  16 2.89
                            13 2.94  27 3.12  20 3.13
  31  0.327  0.560  0.658-  88 1.55  66 1.60  85 1.70 111 1.81  51 2.75  10 3.06
  32  0.324  0.220  0.334- 127 1.65  56 1.69 135 1.84  62 1.89  73 1.94 131 2.33   3 2.75  19 2.90
                            10 2.93   4 3.07
  33  0.578  0.435  0.424-  82 1.72 102 1.72  91 1.73  89 1.87  73 1.92  23 2.85  24 2.86  12 2.96
                            26 3.03
  34  0.450  0.285  0.899-  83 1.69 129 1.70 109 1.73 119 1.82  77 1.87  64 2.35  51 2.65   7 2.90
                            19 3.01  29 3.02   8 3.05
  35  0.892  0.407  0.814- 123 1.54  57 1.68 121 1.71  92 1.73 105 2.19  74 2.46  54 2.76  28 2.78
                             7 2.81
  36  0.578  0.064  0.097-  58 1.69  90 1.70 101 1.72 109 1.93 106 1.94  56 2.54  22 2.72  17 2.76
                             8 2.99   5 3.10
  37  0.984  0.156  0.031-  84 1.63  94 1.66  72 1.70 116 1.72 123 2.36  22 2.85  54 2.85   6 2.93
                            21 3.06
  38  1.000  0.544  0.336-  71 1.50 100 1.56 113 1.60 130 1.79  63 2.55  23 2.75  16 3.00   2 3.14

  39  0.224  0.761  0.449- 103 1.76 111 1.80 107 1.81  78 1.82 118 1.82 113 2.51  11 2.72  16 3.14

  40  0.894  0.088  0.439-  75 1.58 112 1.66  61 1.85 134 1.94  55 2.23 115 2.33  15 2.91   3 2.94
                             9 3.03
  41  0.076  0.316  0.613- 121 1.54 115 1.65  63 1.65 124 1.73   9 2.52  51 2.97   2 3.10
  42  0.770  0.655  0.569-  65 1.67  74 1.69  95 1.82 102 2.04 114 2.06 100 2.30   2 2.85  15 3.01
                            16 3.12
  43  0.757  0.930  0.876-  97 1.63 133 1.69  87 1.73  96 1.88  90 1.90   5 2.86  13 2.94  20 3.02

  44  0.283  0.442  0.105-  64 1.57  99 1.59 110 1.64  68 2.00 135 2.07  67 2.47  54 2.85  18 2.87
                            24 2.99  29 3.06  19 3.15
  45  0.696  0.841  0.300-  55 1.64 126 1.68 106 1.75 114 1.75  79 1.90  22 2.81   5 2.90  15 3.07
                            16 3.08  23 3.13
  46  0.914  0.731  0.118- 120 1.54 130 1.70 108 1.80 126 1.89 117 1.98 133 2.50  28 2.99  13 3.02
                             6 3.02
  47  0.668  0.178  0.669-  70 1.62 105 1.74  96 1.86  61 1.92  77 2.02  91 2.41   7 2.96  20 3.07
                            26 3.15
  48  0.544  0.763  0.768-  60 1.72 122 1.77  97 1.81  85 1.85 104 1.97  65 2.05   8 3.05  14 3.07

  49  0.461  0.978  0.557-  59 1.54 131 1.71  69 1.81  60 1.83  70 1.94 103 2.26  14 2.69  15 3.07

  50  0.439  0.682  0.216-  79 1.60  86 1.71  98 1.77 107 1.86  99 1.96  82 2.27  18 2.78   5 3.05
                            17 3.05
  51  0.251  0.376  0.804- 129 1.50  67 1.59 124 1.60  88 1.84 119 2.22  34 2.65  31 2.75   4 2.90
                            41 2.97   1 3.04
  52  0.109  0.956  0.231-  93 1.72  78 1.74 108 1.82  72 1.93  62 2.08 112 2.15  11 2.99   6 3.02
                             3 3.07
  53  0.316  0.848  0.995-  81 1.68  86 1.72  76 1.82 122 1.94  93 2.18 101 2.30  27 2.76  18 3.00
                             6 3.01   8 3.08
  54  0.051  0.402  0.005-  67 1.63 132 1.71 110 1.72 116 1.73 123 1.85  92 2.56   1 2.62  35 2.76
                            44 2.85  37 2.85  28 3.09
  55  0.797  0.934  0.354-  45 1.64  40 2.23  16 2.33  22 2.39  15 2.41
  56  0.428  0.163  0.238-  32 1.69  19 2.28  17 2.34  36 2.54  12 2.54
  57  0.768  0.468  0.874-  35 1.68  28 1.71   7 2.39
  58  0.653  0.179  0.163-  36 1.69  21 2.26  24 2.50  22 2.54  12 2.54
  59  0.543  0.936  0.453-  49 1.54  14 2.16  15 2.42  17 2.56
  60  0.505  0.888  0.688-  48 1.72  49 1.83   8 2.32
  61  0.764  0.126  0.535-  40 1.85  47 1.92  15 2.30  12 2.50
  62  0.226  0.087  0.294-  32 1.89  52 2.08   3 2.22  11 2.40
  63  0.089  0.416  0.504-  41 1.65  10 2.29   2 2.42  38 2.55   9 2.57
  64  0.376  0.337  0.090-  44 1.57  24 2.00  19 2.17  34 2.35
  65  0.660  0.739  0.627-  42 1.67  48 2.05  14 2.24  15 2.32
  66  0.397  0.463  0.580-  31 1.60  10 2.43   4 2.45
  67  0.170  0.390  0.920-  51 1.59  54 1.63   1 2.38  44 2.47
  68  0.338  0.536  0.962-  29 1.73  44 2.00   1 2.47
  69  0.389  0.075  0.666-  49 1.81   4 2.04   8 2.40  25 2.56
  70  0.565  0.116  0.587-  47 1.62  49 1.94  12 2.36
  71  0.956  0.418  0.313-  38 1.50  21 2.43
  72  0.012  0.082  0.162-  37 1.70  52 1.93   3 2.32  22 2.37
  73  0.436  0.343  0.388-  33 1.92  32 1.94  10 2.36  24 2.54
  74  0.823  0.538  0.650-  42 1.69   2 2.23  35 2.46
  75  0.890  0.193  0.344-  40 1.58  21 2.17   3 2.17
  76  0.253  0.967  0.902-  53 1.82  25 2.18  27 2.25   6 2.41
  77  0.576  0.281  0.787-  34 1.87  47 2.02   7 2.08  26 2.23
  78  0.183  0.849  0.317-  52 1.74  39 1.82  11 2.52  18 2.56
  79  0.550  0.766  0.253-  50 1.60  45 1.90   5 2.42  17 2.52
  80  0.094  0.956  0.686-  30 1.71  25 2.07  27 2.45  11 2.48  20 2.56
  81  0.230  0.731  0.952-  53 1.68   1 1.89  18 2.47  27 2.48
  82  0.541  0.530  0.307-  33 1.72  50 2.27  24 2.30  23 2.44
  83  0.532  0.407  0.938-  29 1.63  34 1.69   7 2.55
  84  0.038  0.079  0.920-  37 1.63   6 1.96  25 2.34  20 2.40
  85  0.432  0.665  0.694-  31 1.70  48 1.85  14 2.56
  86  0.376  0.788  0.124-  50 1.71  53 1.72  18 2.40  17 2.42
  87  0.896  0.907  0.811-  43 1.73  30 2.17  20 2.28  13 2.36   6 2.48
  88  0.242  0.537  0.766-  31 1.55  51 1.84   1 2.10
  89  0.675  0.347  0.320-  33 1.87  21 2.14  12 2.22  24 2.25
  90  0.631  0.984  0.979-  36 1.70  43 1.90   8 2.21   5 2.27
  91  0.593  0.340  0.546-  33 1.73  26 2.09  47 2.41
  92  0.979  0.535  0.832-  35 1.73   1 2.03  13 2.12   2 2.52  54 2.56
  93  0.217  0.962  0.120-  52 1.72  53 2.18  19 2.41   6 2.54
  94  0.835  0.167  0.029-  37 1.66   7 2.16  22 2.22  21 2.38
  95  0.895  0.758  0.593-  30 1.63  42 1.82  16 2.20   2 2.33
  96  0.718  0.046  0.759-  47 1.86  43 1.88  20 2.35
  97  0.687  0.810  0.830-  43 1.63  48 1.81  13 2.51   5 2.56
  98  0.511  0.622  0.087-  29 1.65  50 1.77   5 2.36
  99  0.342  0.537  0.192-  44 1.59  50 1.96  18 2.28
 100  0.911  0.574  0.440-  38 1.56   2 2.25  42 2.30  23 2.35  16 2.55
 101  0.445  0.990  0.072-  36 1.72  17 2.11  53 2.30   8 2.50  19 2.52
 102  0.631  0.549  0.515-  33 1.72  42 2.04  26 2.26
 103  0.305  0.848  0.554-  39 1.76  49 2.26  27 2.28  11 2.29
 104  0.569  0.605  0.844-  29 1.68  48 1.97  26 2.41
 105  0.779  0.275  0.722-  47 1.74  35 2.19   7 2.30  20 2.54   9 2.56
 106  0.633  0.967  0.232-  45 1.75  36 1.94  22 2.22  17 2.35
 107  0.346  0.713  0.351-  39 1.81  50 1.86  14 2.46
 108  0.983  0.864  0.180-  46 1.80  52 1.82   6 2.54  22 2.56
 109  0.529  0.170  0.969-  34 1.73  36 1.93   8 2.22   7 2.35
 110  0.142  0.486  0.096-  44 1.64  54 1.72  18 2.33   1 2.46
 111  0.229  0.635  0.550-  39 1.80  31 1.81  10 2.49   2 2.56
 112  0.014  0.014  0.388-  40 1.66  52 2.15  11 2.18  16 2.52
 113  0.132  0.597  0.325-  38 1.60  18 2.11  10 2.26  39 2.51
 114  0.696  0.743  0.423-  45 1.75  42 2.06  14 2.23  23 2.52  15 2.54
 115  0.016  0.184  0.580-  41 1.65  20 2.28  40 2.33   9 2.50
 116  0.091  0.263  0.063-  37 1.72  54 1.73  19 2.56
 117  0.793  0.644  0.021-  28 1.48  46 1.98  13 2.22   5 2.49
 118  0.077  0.784  0.517-  39 1.82  30 1.90  16 1.90   2 2.54
 119  0.315  0.198  0.869-  34 1.82  25 2.15  51 2.22  19 2.41
 120  0.006  0.713  0.017-  46 1.54   1 2.25  13 2.31   6 2.32
 121  0.972  0.366  0.689-  41 1.54  35 1.71   9 2.17
 122  0.442  0.809  0.880-  48 1.77  53 1.94   8 2.37  27 2.46
 123  0.960  0.317  0.895-  35 1.54  54 1.85  37 2.36
 124  0.198  0.287  0.704-  51 1.60  41 1.73   4 2.18  25 2.26
 125  0.061  0.744  0.758-  30 1.68  13 2.29  27 2.42   2 2.43   1 2.43
 126  0.763  0.762  0.190-  45 1.68  46 1.89   5 2.17  23 2.47
 127  0.242  0.273  0.446-  32 1.65  10 2.21   4 2.25   3 2.48
 128  0.697  0.455  0.115-  28 1.65  24 2.23  21 2.38  23 2.45
 129  0.386  0.385  0.803-  51 1.50  34 1.70
 130  0.918  0.615  0.217-  46 1.70  38 1.79  23 2.06
 131  0.389  0.054  0.445-  49 1.71  32 2.33  17 2.40  11 2.41
 132  0.916  0.422  0.078-  54 1.71  28 1.79  21 2.22
 133  0.815  0.905  0.014-  43 1.69  22 1.99   5 2.44  46 2.50
 134  0.922  0.969  0.563-  40 1.94  30 1.98  15 2.18  20 2.44
 135  0.236  0.324  0.241-  32 1.84  44 2.07   3 2.21  10 2.45
 

IMPORTANT INFORMATION: All symmetrisations will be switched off!
NOSYMM: (Re-)initialisation of all symmetry stuff for point group C_1.

 
 

Automatic generation of k-mesh.
 generate k-points for:    2    2    2
Space group operators:
 irot       det(A)        alpha          n_x          n_y          n_z        tau_x        tau_y        tau_z
    1     1.000000     0.000000     1.000000     0.000000     0.000000     0.000000     0.000000     0.000000
 
 Subroutine IBZKPT returns following result:
 ===========================================
 
 Found      8 irreducible k-points:
 
 Following reciprocal coordinates:
            Coordinates               Weight
  0.000000  0.000000  0.000000      1.000000
  0.500000  0.000000  0.000000      1.000000
  0.000000  0.500000  0.000000      1.000000
  0.500000  0.500000  0.000000      1.000000
  0.000000  0.000000  0.500000      1.000000
  0.500000  0.000000  0.500000      1.000000
  0.000000  0.500000  0.500000      1.000000
  0.500000  0.500000  0.500000      1.000000
 
 Following cartesian coordinates:
            Coordinates               Weight
  0.000000  0.000000  0.000000      1.000000
  0.044956  0.000000  0.000000      1.000000
  0.000000  0.044956  0.000000      1.000000
  0.044956  0.044956  0.000000      1.000000
  0.000000  0.000000  0.044956      1.000000
  0.044956  0.000000  0.044956      1.000000
  0.000000  0.044956  0.044956      1.000000
  0.044956  0.044956  0.044956      1.000000
 


--------------------------------------------------------------------------------------------------------




 Dimension of arrays:
   k-points           NKPTS =      8   k-points in BZ     NKDIM =      8   number of bands    NBANDS=    520
   number of dos      NEDOS =    301   number of ions     NIONS =    135
   non local maximal  LDIM  =      6   non local SUM 2l+1 LMDIM =     18
   total plane-waves  NPLWV = 729000
   max r-space proj   IRMAX =   7111   max aug-charges    IRDMAX= 202431
   dimension x,y,z NGX =    90 NGY =   90 NGZ =   90
   dimension x,y,z NGXF=   180 NGYF=  180 NGZF=  180
   support grid    NGXF=   360 NGYF=  360 NGZF=  360
   ions per type =              27  27  81
   NGX,Y,Z   is equivalent  to a cutoff of  13.45, 13.45, 13.45 a.u.
   NGXF,Y,Z  is equivalent  to a cutoff of  26.91, 26.91, 26.91 a.u.

 SYSTEM =  unknown system                          
 POSCAR =  Ca Si  O                                

 Startparameter for this run:
   NWRITE =      2    write-flag & timer
   PREC   = a         normal or accurate (medium, high low for compatibility)
   ISTART =      0    job   : 0-new  1-cont  2-samecut
   ICHARG =      2    charge: 1-file 2-atom 10-const
   ISPIN  =      1    spin polarized calculation?
   LNONCOLLINEAR =      F non collinear calculations
   LSORBIT =      F    spin-orbit coupling
   INIWAV =      1    electr: 0-lowe 1-rand  2-diag
   LASPH  =      F    aspherical Exc in radial PAW
   METAGGA=      F    non-selfconsistent MetaGGA calc.

 Electronic Relaxation 1
   ENCUT  =  600.0 eV  44.10 Ry    6.64 a.u.  22.21 22.21 22.21*2*pi/ulx,y,z
   ENINI  =  600.0     initial cutoff
   ENAUG  =  605.4 eV  augmentation charge cutoff
   NELM   =     60;   NELMIN=  2; NELMDL= -5     # of ELM steps 
   EDIFF  = 0.1E-05   stopping-criterion for ELM
   LREAL  =      T    real-space projection
   NLSPLINE    = F    spline interpolate recip. space projectors
   LCOMPAT=      F    compatible to vasp.4.4
   GGA_COMPAT  = T    GGA compatible to vasp.4.4-vasp.4.6
   LMAXPAW     = -100 max onsite density
   LMAXMIX     =    2 max onsite mixed and CHGCAR
   VOSKOWN=      0    Vosko Wilk Nusair interpolation
   ROPT   =   -0.00025  -0.00025  -0.00025
 Ionic relaxation
   EDIFFG = -.1E-01   stopping-criterion for IOM
   NSW    =      1    number of steps for IOM
   NBLOCK =      1;   KBLOCK =      1    inner block; outer block 
   IBRION =     -1    ionic relax: 0-MD 1-quasi-New 2-CG
   NFREE  =      0    steps in history (QN), initial steepest desc. (CG)
   ISIF   =      2    stress and relaxation
   IWAVPR =     10    prediction:  0-non 1-charg 2-wave 3-comb
   ISYM   =      0    0-nonsym 1-usesym 2-fastsym
   LCORR  =      T    Harris-Foulkes like correction to forces

   POTIM  = 1.0000    time-step for ionic-motion
   TEIN   =    0.0    initial temperature
   TEBEG  =    0.0;   TEEND  =   0.0 temperature during run
   SMASS  =  -3.00    Nose mass-parameter (am)
   estimated Nose-frequenzy (Omega)   =  0.10E-29 period in steps =****** mass=  -0.283E-26a.u.
   SCALEE = 1.0000    scale energy and forces
   NPACO  =    256;   APACO  = 16.0  distance and # of slots for P.C.
   PSTRESS=    0.0 pullay stress

  Mass of Ions in am
   POMASS =  40.08 28.09 16.00
  Ionic Valenz
   ZVAL   =  10.00  4.00  6.00
  Atomic Wigner-Seitz radii
   RWIGS  =  -1.00 -1.00 -1.00
  virtual crystal weights 
   VCA    =   1.00  1.00  1.00
   NELECT =     864.0000    total number of electrons
   NUPDOWN=      -1.0000    fix difference up-down

 DOS related values:
   EMIN   =  10.00;   EMAX   =-10.00  energy-range for DOS
   EFERMI =   0.00
   ISMEAR =     0;   SIGMA  =   0.05  broadening in eV -4-tet -1-fermi 0-gaus

 Electronic relaxation 2 (details)
   IALGO  =     38    algorithm
   LDIAG  =      T    sub-space diagonalisation (order eigenvalues)
   LSUBROT=      F    optimize rotation matrix (better conditioning)
   TURBO    =      0    0=normal 1=particle mesh
   IRESTART =      0    0=no restart 2=restart with 2 vectors
   NREBOOT  =      0    no. of reboots
   NMIN     =      0    reboot dimension
   EREF     =   0.00    reference energy to select bands
   IMIX   =      4    mixing-type and parameters
     AMIX     =   0.40;   BMIX     =  1.00
     AMIX_MAG =   1.60;   BMIX_MAG =  1.00
     AMIN     =   0.10
     WC   =   100.;   INIMIX=   1;  MIXPRE=   1;  MAXMIX= -45

 Intra band minimization:
   WEIMIN = 0.0000     energy-eigenvalue tresh-hold
   EBREAK =  0.48E-09  absolut break condition
   DEPER  =   0.30     relativ break condition  

   TIME   =   0.40     timestep for ELM

  volume/ion in A,a.u.               =      10.19        68.77
  Fermi-wavevector in a.u.,A,eV,Ry     =   1.401948  2.649298 26.741681  1.965458
  Thomas-Fermi vector in A             =   2.524759
 
 Write flags
   LWAVE        =      F    write WAVECAR
   LDOWNSAMPLE  =      F    k-point downsampling of WAVECAR
   LCHARG       =      F    write CHGCAR
   LVTOT        =      F    write LOCPOT, total local potential
   LVHAR        =      F    write LOCPOT, Hartree potential only
   LELF         =      F    write electronic localiz. function (ELF)
   LORBIT       =      0    0 simple, 1 ext, 2 COOP (PROOUT), +10 PAW based schemes


 Dipole corrections
   LMONO  =      F    monopole corrections only (constant potential shift)
   LDIPOL =      F    correct potential (dipole corrections)
   IDIPOL =      0    1-x, 2-y, 3-z, 4-all directions 
   EPSILON=  1.0000000 bulk dielectric constant

 Exchange correlation treatment:
   GGA     =    --    GGA type
   LEXCH   =     8    internal setting for exchange type
   VOSKOWN=      0    Vosko Wilk Nusair interpolation
   LHFCALC =     F    Hartree Fock is set to
   LHFONE  =     F    Hartree Fock one center treatment
   AEXX    =    0.0000 exact exchange contribution

 Linear response parameters
   LEPSILON=     F    determine dielectric tensor
   LRPA    =     F    only Hartree local field effects (RPA)
   LNABLA  =     F    use nabla operator in PAW spheres
   LVEL    =     F    velocity operator in full k-point grid
   LINTERFAST=   F  fast interpolation
   KINTER  =     0    interpolate to denser k-point grid
   CSHIFT  =0.1000    complex shift for real part using Kramers Kronig
   OMEGAMAX=  -1.0    maximum frequency
   DEG_THRESHOLD= 0.2000000E-02 threshold for treating states as degnerate
   RTIME   =   -0.100 relaxation time in fs
  (WPLASMAI=    0.000 imaginary part of plasma frequency in eV, 0.658/RTIME)
   DFIELD  = 0.0000000 0.0000000 0.0000000 field for delta impulse in time
 
 Orbital magnetization related:
   ORBITALMAG=     F  switch on orbital magnetization
   LCHIMAG   =     F  perturbation theory with respect to B field
   DQ        =  0.001000  dq finite difference perturbation B field
   LLRAUG    =     F  two centre corrections for induced B field



--------------------------------------------------------------------------------------------------------


 Static calculation
 charge density and potential will be updated during run
 non-spin polarized calculation
 Variant of blocked Davidson
 Davidson routine will perform the subspace rotation
 perform sub-space diagonalisation
    after iterative eigenvector-optimisation
 modified Broyden-mixing scheme, WC =      100.0
 initial mixing is a Kerker type mixing with AMIX =  0.4000 and BMIX =      1.0000
 Hartree-type preconditioning will be used
 using additional bands           88
 real space projection scheme for non local part
 use partial core corrections
 calculate Harris-corrections to forces 
   (improved forces if not selfconsistent)
 use gradient corrections 
 use of overlap-Matrix (Vanderbilt PP)
 Gauss-broadening in eV      SIGMA  =   0.05


--------------------------------------------------------------------------------------------------------


  energy-cutoff  :      600.00
  volume of cell :     1375.76
      direct lattice vectors                 reciprocal lattice vectors
    11.121947680  0.000000000  0.000000000     0.089912309  0.000000000  0.000000000
     0.000000000 11.121947680  0.000000000     0.000000000  0.089912309  0.000000000
     0.000000000  0.000000000 11.121947680     0.000000000  0.000000000  0.089912309

  length of vectors
    11.121947680 11.121947680 11.121947680     0.089912309  0.089912309  0.089912309


 
 k-points in units of 2pi/SCALE and weight: read from INCAR                         
   0.00000000  0.00000000  0.00000000       0.125
   0.04495615  0.00000000  0.00000000       0.125
   0.00000000  0.04495615  0.00000000       0.125
   0.04495615  0.04495615  0.00000000       0.125
   0.00000000  0.00000000  0.04495615       0.125
   0.04495615  0.00000000  0.04495615       0.125
   0.00000000  0.04495615  0.04495615       0.125
   0.04495615  0.04495615  0.04495615       0.125
 
 k-points in reciprocal lattice and weights: read from INCAR                         
   0.00000000  0.00000000  0.00000000       0.125
   0.50000000  0.00000000  0.00000000       0.125
   0.00000000  0.50000000  0.00000000       0.125
   0.50000000  0.50000000  0.00000000       0.125
   0.00000000  0.00000000  0.50000000       0.125
   0.50000000  0.00000000  0.50000000       0.125
   0.00000000  0.50000000  0.50000000       0.125
   0.50000000  0.50000000  0.50000000       0.125
 
 position of ions in fractional coordinates (direct lattice) 
   0.13265974  0.60022084  0.90645266
   0.01351253  0.58749422  0.61393707
   0.07848335  0.22031675  0.30330010
   0.36265315  0.24736874  0.60670187
   0.62927259  0.79381418  0.05227601
   0.05416781  0.91014265  0.96854538
   0.71014584  0.26501402  0.91657851
   0.48252080  0.01631763  0.85108323
   0.87008992  0.34591267  0.52320038
   0.26415037  0.46634081  0.40660484
   0.18315392  0.99961061  0.48597074
   0.60196256  0.17294404  0.38550049
   0.88251366  0.69908684  0.85048655
   0.50929990  0.74925003  0.49472471
   0.73183006  0.92298641  0.56053067
   0.94759645  0.79859746  0.40670394
   0.42292567  0.95336654  0.25667703
   0.19512117  0.67722393  0.16455619
   0.29531853  0.16002307  0.08192208
   0.92190471  0.09803107  0.73977539
   0.81511560  0.29750086  0.19714948
   0.81032126  0.01419531  0.15515613
   0.75677844  0.56590176  0.29535673
   0.52924029  0.36628626  0.18074560
   0.18510556  0.09500351  0.77005755
   0.60973103  0.45468758  0.69334920
   0.26166292  0.82932323  0.75370136
   0.79557682  0.51151328  0.01910164
   0.49314123  0.54601770  0.96082206
   0.99788377  0.83918641  0.65846761
   0.32656360  0.56031210  0.65770195
   0.32424087  0.21996447  0.33427794
   0.57751125  0.43523429  0.42366719
   0.45038789  0.28488518  0.89874719
   0.89247922  0.40704931  0.81405744
   0.57788070  0.06446895  0.09739443
   0.98353701  0.15635854  0.03130557
   0.99950191  0.54383901  0.33579911
   0.22444917  0.76113313  0.44906616
   0.89406991  0.08776275  0.43896454
   0.07573210  0.31573015  0.61298382
   0.77003967  0.65486840  0.56887696
   0.75714165  0.93043992  0.87611369
   0.28289331  0.44193286  0.10453919
   0.69614545  0.84073500  0.29952972
   0.91422632  0.73139168  0.11798535
   0.66763823  0.17808500  0.66892682
   0.54408480  0.76261731  0.76815401
   0.46133545  0.97818083  0.55697973
   0.43948071  0.68232208  0.21602592
   0.25137423  0.37597831  0.80437669
   0.10876809  0.95601277  0.23086663
   0.31609522  0.84824731  0.99497380
   0.05063918  0.40212166  0.00490855
   0.79654227  0.93444461  0.35417708
   0.42762911  0.16309509  0.23827988
   0.76807611  0.46760865  0.87406331
   0.65292049  0.17936534  0.16269787
   0.54287977  0.93610626  0.45271087
   0.50487452  0.88834214  0.68793167
   0.76360057  0.12609124  0.53486356
   0.22646997  0.08675621  0.29385088
   0.08947311  0.41596384  0.50399191
   0.37642396  0.33697637  0.08984088
   0.66039080  0.73895306  0.62746447
   0.39747657  0.46280599  0.57985125
   0.16962771  0.38998759  0.92034881
   0.33829953  0.53570242  0.96175556
   0.38916370  0.07526192  0.66563584
   0.56452831  0.11560937  0.58679545
   0.95597781  0.41790341  0.31310753
   0.01164598  0.08238095  0.16213238
   0.43563852  0.34317510  0.38776302
   0.82257040  0.53755920  0.64996384
   0.88951501  0.19282634  0.34353779
   0.25256845  0.96672376  0.90200817
   0.57618122  0.28128517  0.78735022
   0.18320378  0.84868762  0.31711265
   0.54989514  0.76606745  0.25332239
   0.09442522  0.95554304  0.68621779
   0.23047978  0.73147667  0.95186733
   0.54098569  0.52972612  0.30680370
   0.53179340  0.40683435  0.93772371
   0.03849116  0.07862304  0.92030964
   0.43204340  0.66507014  0.69423163
   0.37608754  0.78796511  0.12360667
   0.89609036  0.90700558  0.81079129
   0.24173081  0.53660056  0.76596632
   0.67464020  0.34650540  0.31963629
   0.63097511  0.98384939  0.97860009
   0.59273638  0.34018085  0.54570529
   0.97887414  0.53516229  0.83183853
   0.21680762  0.96167530  0.11978639
   0.83461111  0.16705131  0.02867564
   0.89487096  0.75841186  0.59267120
   0.71828490  0.04615217  0.75880751
   0.68738965  0.80979435  0.82968235
   0.51080255  0.62155562  0.08731854
   0.34231129  0.53739847  0.19238791
   0.91095679  0.57441164  0.44009090
   0.44502101  0.99023213  0.07161681
   0.63052561  0.54878665  0.51496080
   0.30510602  0.84788226  0.55392846
   0.56877521  0.60462943  0.84399519
   0.77852552  0.27488664  0.72191307
   0.63258176  0.96726045  0.23177878
   0.34552061  0.71301533  0.35122541
   0.98304102  0.86426512  0.18038870
   0.52854106  0.17043890  0.96904010
   0.14220565  0.48646453  0.09617037
   0.22936449  0.63476787  0.55026974
   0.01388108  0.01415839  0.38843491
   0.13249494  0.59740271  0.32461581
   0.69618673  0.74334735  0.42334406
   0.01556883  0.18448655  0.57962545
   0.09055032  0.26330093  0.06264368
   0.79294838  0.64433616  0.02059366
   0.07738794  0.78398960  0.51733165
   0.31519148  0.19829054  0.86930586
   0.00601107  0.71254952  0.01654293
   0.97176206  0.36584586  0.68880224
   0.44202843  0.80930879  0.88043312
   0.95953019  0.31736738  0.89503029
   0.19786326  0.28676211  0.70448909
   0.06112331  0.74443239  0.75832465
   0.76330755  0.76160445  0.19016201
   0.24170839  0.27265289  0.44601595
   0.69673971  0.45511849  0.11458218
   0.38585272  0.38494894  0.80313977
   0.91770097  0.61476221  0.21681448
   0.38878836  0.05376367  0.44476501
   0.91622216  0.42176391  0.07751041
   0.81492538  0.90468956  0.01415504
   0.92235356  0.96864757  0.56301223
   0.23620421  0.32384381  0.24077481
 
 position of ions in cartesian coordinates  (Angst):
   1.47543465  6.67562473 10.08151904
   0.15028564  6.53408001  6.82817599
   0.87288769  2.45035139  3.37328785
   4.03340934  2.75122214  6.74770643
   6.99873684  8.82875983  0.58141110
   0.60245159 10.12255891 10.77211109
   7.89820484  2.94747205 10.19413820
   5.36657105  0.18148388  9.46570321
   9.67709454  3.84722261  5.81900726
   2.93786654  5.18661806  4.52223778
   2.03702829 11.11761685  5.40494117
   6.69499610  1.92347461  4.28751632
   9.81527070  7.77520731  9.45906688
   5.66440687  8.33311959  5.50230235
   8.13937563 10.26540657  6.23419283
  10.53911810  8.88195919  4.52333994
   4.70375715 10.60329276  2.85474849
   2.17012743  7.53204917  1.83018530
   3.28451725  1.77976826  0.91113305
  10.25337594  1.09029647  8.22774318
   9.06567305  3.30878904  2.19268615
   9.01235068  0.15787944  1.72563831
   8.41685018  6.29392977  3.28494207
   5.88618279  4.07381663  2.01024316
   2.05873440  1.05662402  8.56453974
   6.78139663  5.05701153  7.71139353
   2.91020132  9.22368957  8.38262713
   8.84836375  5.68902397  0.21244740
   5.48469099  6.07278031 10.68621263
  11.09841111  9.33338733  7.32344232
   3.63202327  6.23176190  7.31492668
   3.60619003  2.44643329  3.71782175
   6.42304994  4.84065299  4.71200437
   5.00919052  3.16847804  9.99581924
   9.92610714  4.52718115  9.05390423
   6.42715886  0.71702027  1.08321580
  10.93884722  1.73901146  0.34817886
  11.11640798  6.04854896  3.73474017
   2.49631188  8.46528284  4.99449033
   9.94379873  0.97609271  4.88214066
   0.84228850  3.51153424  6.81757400
   8.56434093  7.28341206  6.32701982
   8.42088983 10.34830406  9.74409066
   3.14632459  4.91515413  1.16267941
   7.74249322  9.35061063  3.33135384
  10.16797732  8.13449999  1.31222686
   7.42543741  1.98065206  7.43976907
   6.05128265  8.48178985  8.54336869
   5.13094873 10.87927605  6.19469937
   4.88788147  7.58875053  2.40262901
   2.79577104  4.18161114  8.94623548
   1.20971296 10.63272401  2.56768654
   3.51559447  9.43416225 11.06604650
   0.56320632  4.47237601  0.05459267
   8.85910144 10.39284410  3.93913897
   4.75606856  1.81393510  2.65013632
   8.54250235  5.20071889  9.72128644
   7.26174753  1.99489197  1.80951716
   6.03788044 10.41132489  5.03502660
   5.61518805  9.88009485  7.65114002
   8.49272564  1.40238015  5.94872449
   2.51878718  0.96489799  3.26819416
   0.99511522  4.62632808  5.60537160
   4.18656757  3.74783352  0.99920561
   7.34483190  8.21859723  6.97862696
   4.42071359  5.14730397  6.44907529
   1.88659048  4.33742154 10.23607126
   3.76254968  5.95805431 10.69659498
   4.32825834  0.83705915  7.40316698
   6.27865436  1.28580140  6.52630834
  10.63233515  4.64789984  3.48236555
   0.12952593  0.91623661  1.80322784
   4.84514884  3.81677553  4.31268004
   9.14858500  5.97870532  7.22886378
   9.89313944  2.14460448  3.82080928
   2.80905313 10.75185110 10.03208768
   6.40825739  3.12843896  8.75686796
   2.03758284  9.43905933  3.52691032
   6.11590499  8.52016209  2.81743837
   1.05019234 10.62749975  7.63207839
   2.56338400  8.13544529 10.58661863
   6.01681458  5.89158621  3.41225473
   5.91457834  4.52479039 10.42931407
   0.42809670  0.87444135 10.23563561
   4.80516408  7.39687530  7.72120785
   4.18282591  8.76370676  1.37474693
   9.96627006 10.08766859  9.01757828
   2.68851742  5.96804336  8.51903731
   7.50331301  3.85381493  3.55497809
   7.01767212 10.94232149 10.88393899
   6.59238303  3.78347362  6.06930564
  10.88698702  5.95204702  9.25166461
   2.41132306 10.69570241  1.33225798
   9.28250108  1.85793588  0.31892892
   9.95270796  8.43501699  6.59165804
   7.98872703  0.51330203  8.43941742
   7.64511167  9.00649038  9.22768368
   5.68111921  6.91290905  0.97115219
   3.80716829  5.97691771  2.13972822
  10.13161379  6.38857626  4.89466797
   4.94950043 11.01330989  0.79651837
   7.01267286  6.10357639  5.72736710
   3.39337319  9.43010217  6.16076335
   6.32588816  6.72465693  9.38687033
   8.65872011  3.05727488  8.02907943
   7.03554126 10.75782014  2.57783149
   3.84286213  7.93011914  3.90631066
  10.93333083  9.61231140  2.00627364
   5.87840607  1.89561251 10.77761327
   1.58160380  5.41043300  1.06960181
   2.55097987  7.05985508  6.12007131
   0.15438464  0.15746886  4.32015272
   1.47360180  6.64428173  3.61036005
   7.74295239  8.26747032  4.70841051
   0.17315575  2.05184974  6.44656389
   1.00709592  2.92841919  0.69671969
   8.81913043  7.16627303  0.22904161
   0.86070462  8.71949136  5.75373560
   3.50554310  2.20537696  9.66837430
   0.06685481  7.92493845  0.18398964
  10.80788681  4.06891853  7.66082250
   4.91621703  9.00109007  9.79213105
  10.67184456  3.52974345  9.95448008
   2.20062482  3.18935317  7.83529080
   0.67981022  8.27953810  8.43404705
   8.48946663  8.47052484  2.11497189
   2.68826812  3.03243114  4.96056605
   7.74910263  5.06180407  1.27437702
   4.29143371  4.28138200  8.93247849
  10.20662214  6.83735310  2.41139930
   4.32408375  0.59795675  4.94665318
  10.19017492  4.69083615  0.86206678
   9.06355744 10.06190995  0.15743160
  10.25836804 10.77324757  6.26179253
   2.62705086  3.60177392  2.67788489
 


--------------------------------------------------------------------------------------------------------


 k-point  1 :   0.0000 0.0000 0.0000  plane waves:   45961
 k-point  2 :   0.5000 0.0000 0.0000  plane waves:   45932
 k-point  3 :   0.0000 0.5000 0.0000  plane waves:   45932
 k-point  4 :   0.5000 0.5000 0.0000  plane waves:   45920
 k-point  5 :   0.0000 0.0000 0.5000  plane waves:   45932
 k-point  6 :   0.5000 0.0000 0.5000  plane waves:   45920
 k-point  7 :   0.0000 0.5000 0.5000  plane waves:   45920
 k-point  8 :   0.5000 0.5000 0.5000  plane waves:   45920

 maximum and minimum number of plane-waves per node :      3885     3771

 maximum number of plane-waves:     45961
 maximum index in each direction: 
   IXMAX=   22   IYMAX=   22   IZMAX=   22
   IXMIN=  -22   IYMIN=  -22   IZMIN=  -22


 real space projection operators:
  total allocation   :      48765.20 KBytes
  max/ min on nodes  :       4416.59       3721.02


 parallel 3D FFT for wavefunctions:
    minimum data exchange during FFTs selected (reduces bandwidth)
 parallel 3D FFT for charge:
    minimum data exchange during FFTs selected (reduces bandwidth)


 total amount of memory used by VASP MPI-rank0   149169. kBytes
=======================================================================

   base      :      30000. kBytes
   nonlr-proj:      21629. kBytes
   fftplans  :      20560. kBytes
   grid      :      10967. kBytes
   one-center:        186. kBytes
   wavefun   :      65827. kBytes
 
     INWAV:  cpu time    0.0001: real time    0.0004
 Broyden mixing: mesh for mixing (old mesh)
   NGX = 45   NGY = 45   NGZ = 45
  (NGX  =180   NGY  =180   NGZ  =180)
  gives a total of  91125 points

 initial charge density was supplied:
 charge density of overlapping atoms calculated
 number of electron     864.0000000 magnetization 
 keeping initial charge density in first step


--------------------------------------------------------------------------------------------------------


 Maximum index for non-local projection operator          796
 Maximum index for augmentation-charges         6985 (set IRDMAX)


--------------------------------------------------------------------------------------------------------


 First call to EWALD:  gamma=   0.159
 Maximum number of real-space cells 3x 3x 3
 Maximum number of reciprocal cells 3x 3x 3

    FEWALD:  cpu time    0.0053: real time    0.0054


--------------------------------------- Iteration      1(   1)  ---------------------------------------


    POTLOK:  cpu time    0.0896: real time    0.0956
    SETDIJ:  cpu time    0.2847: real time    0.2854
     EDDAV:  cpu time   29.8714: real time   29.9875
       DOS:  cpu time    0.0026: real time    0.0026
    --------------------------------------------
      LOOP:  cpu time   30.2482: real time   30.3712

 eigenvalue-minimisations  :  8320
 total energy-change (2. order) : 0.9881881E+04  (-0.4885569E+05)
 number of electron     864.0000000 magnetization 
 augmentation part      864.0000000 magnetization 

 Free energy of the ion-electron system (eV)
  ---------------------------------------------------
  alpha Z        PSCENC =      3473.39795963
  Ewald energy   TEWEN  =    -53205.84999193
  -Hartree energ DENC   =    -13303.88631830
  -exchange      EXHF   =         0.00000000
  -V(xc)+E(xc)   XCENC  =      3218.73640841
  PAW double counting   =     50594.51003143   -49994.65612350
  entropy T*S    EENTRO =        -0.03368174
  eigenvalues    EBANDS =      4131.12225000
  atomic energy  EATOM  =     64968.54023382
  Solvation  Ediel_sol  =         0.00000000
  ---------------------------------------------------
  free energy    TOTEN  =      9881.88076783 eV

  energy without entropy =     9881.91444957  energy(sigma->0) =     9881.89760870


--------------------------------------------------------------------------------------------------------




--------------------------------------- Iteration      1(   2)  ---------------------------------------


     EDDAV:  cpu time   33.0414: real time   33.1498
       DOS:  cpu time    0.0009: real time    0.0009
    --------------------------------------------
      LOOP:  cpu time   33.0422: real time   33.1507

 eigenvalue-minimisations  :  9568
 total energy-change (2. order) :-0.9816087E+04  (-0.9488241E+04)
 number of electron     864.0000000 magnetization 
 augmentation part      864.0000000 magnetization 

 Free energy of the ion-electron system (eV)
  ---------------------------------------------------
  alpha Z        PSCENC =      3473.39795963
  Ewald energy   TEWEN  =    -53205.84999193
  -Hartree energ DENC   =    -13303.88631830
  -exchange      EXHF   =         0.00000000
  -V(xc)+E(xc)   XCENC  =      3218.73640841
  PAW double counting   =     50594.51003143   -49994.65612350
  entropy T*S    EENTRO =        -0.00000000
  eigenvalues    EBANDS =     -5684.99856236
  atomic energy  EATOM  =     64968.54023382
  Solvation  Ediel_sol  =         0.00000000
  ---------------------------------------------------
  free energy    TOTEN  =        65.79363721 eV

  energy without entropy =       65.79363721  energy(sigma->0) =       65.79363721


--------------------------------------------------------------------------------------------------------




--------------------------------------- Iteration      1(   3)  ---------------------------------------


     EDDAV:  cpu time   35.2203: real time   35.3373
       DOS:  cpu time    0.0011: real time    0.0011
    --------------------------------------------
      LOOP:  cpu time   35.2214: real time   35.3383

 eigenvalue-minimisations  : 10192
 total energy-change (2. order) :-0.1069263E+04  (-0.1062097E+04)
 number of electron     864.0000000 magnetization 
 augmentation part      864.0000000 magnetization 

 Free energy of the ion-electron system (eV)
  ---------------------------------------------------
  alpha Z        PSCENC =      3473.39795963
  Ewald energy   TEWEN  =    -53205.84999193
  -Hartree energ DENC   =    -13303.88631830
  -exchange      EXHF   =         0.00000000
  -V(xc)+E(xc)   XCENC  =      3218.73640841
  PAW double counting   =     50594.51003143   -49994.65612350
  entropy T*S    EENTRO =        -0.00000000
  eigenvalues    EBANDS =     -6754.26175114
  atomic energy  EATOM  =     64968.54023382
  Solvation  Ediel_sol  =         0.00000000
  ---------------------------------------------------
  free energy    TOTEN  =     -1003.46955157 eV

  energy without entropy =    -1003.46955157  energy(sigma->0) =    -1003.46955157


--------------------------------------------------------------------------------------------------------




--------------------------------------- Iteration      1(   4)  ---------------------------------------


     EDDAV:  cpu time   38.8964: real time   39.0240
       DOS:  cpu time    0.0010: real time    0.0010
    --------------------------------------------
      LOOP:  cpu time   38.8974: real time   39.0250

 eigenvalue-minimisations  : 11656
 total energy-change (2. order) :-0.5067349E+02  (-0.5049801E+02)
 number of electron     864.0000000 magnetization 
 augmentation part      864.0000000 magnetization 

 Free energy of the ion-electron system (eV)
  ---------------------------------------------------
  alpha Z        PSCENC =      3473.39795963
  Ewald energy   TEWEN  =    -53205.84999193
  -Hartree energ DENC   =    -13303.88631830
  -exchange      EXHF   =         0.00000000
  -V(xc)+E(xc)   XCENC  =      3218.73640841
  PAW double counting   =     50594.51003143   -49994.65612350
  entropy T*S    EENTRO =        -0.00000000
  eigenvalues    EBANDS =     -6804.93524230
  atomic energy  EATOM  =     64968.54023382
  Solvation  Ediel_sol  =         0.00000000
  ---------------------------------------------------
  free energy    TOTEN  =     -1054.14304273 eV

  energy without entropy =    -1054.14304273  energy(sigma->0) =    -1054.14304273


--------------------------------------------------------------------------------------------------------




--------------------------------------- Iteration      1(   5)  ---------------------------------------


     EDDAV:  cpu time   45.7708: real time   45.9105
       DOS:  cpu time    0.0011: real time    0.0011
    CHARGE:  cpu time    1.0631: real time    1.0657
    MIXING:  cpu time    0.0041: real time    0.0042
    --------------------------------------------
      LOOP:  cpu time   46.8390: real time   46.9814

 eigenvalue-minimisations  : 14440
 total energy-change (2. order) :-0.4199747E+01  (-0.4197663E+01)
 number of electron     864.0000006 magnetization 
 augmentation part      133.2740104 magnetization 

 Broyden mixing:
  rms(total) = 0.80982E+01    rms(broyden)= 0.80976E+01
  rms(prec ) = 0.96967E+01
  weight for this iteration     100.00

 Free energy of the ion-electron system (eV)
  ---------------------------------------------------
  alpha Z        PSCENC =      3473.39795963
  Ewald energy   TEWEN  =    -53205.84999193
  -Hartree energ DENC   =    -13303.88631830
  -exchange      EXHF   =         0.00000000
  -V(xc)+E(xc)   XCENC  =      3218.73640841
  PAW double counting   =     50594.51003143   -49994.65612350
  entropy T*S    EENTRO =        -0.00000000
  eigenvalues    EBANDS =     -6809.13498931
  atomic energy  EATOM  =     64968.54023382
  Solvation  Ediel_sol  =         0.00000000
  ---------------------------------------------------
  free energy    TOTEN  =     -1058.34278974 eV

  energy without entropy =    -1058.34278974  energy(sigma->0) =    -1058.34278974


--------------------------------------------------------------------------------------------------------




--------------------------------------- Iteration      1(   6)  ---------------------------------------


    POTLOK:  cpu time    0.0845: real time    0.0936
    SETDIJ:  cpu time    0.2790: real time    0.2839
     EDDAV:  cpu time   33.9309: real time   34.6858
       DOS:  cpu time    0.0009: real time    0.0010
    CHARGE:  cpu time    1.0510: real time    1.0765
    MIXING:  cpu time    0.0032: real time    0.0032
    --------------------------------------------
      LOOP:  cpu time   35.3495: real time   36.1439

 eigenvalue-minimisations  :  9952
 total energy-change (2. order) : 0.1268240E+03  (-0.5586895E+02)
 number of electron     864.0000006 magnetization 
 augmentation part      121.6013342 magnetization 

 Broyden mixing:
  rms(total) = 0.33434E+01    rms(broyden)= 0.33425E+01
  rms(prec ) = 0.35418E+01
  weight for this iteration     100.00

 eigenvalues of (default mixing * dielectric matrix)
  average eigenvalue GAMMA=   1.0728
  1.0728

 Free energy of the ion-electron system (eV)
  ---------------------------------------------------
  alpha Z        PSCENC =      3473.39795963
  Ewald energy   TEWEN  =    -53205.84999193
  -Hartree energ DENC   =    -14452.50435709
  -exchange      EXHF   =         0.00000000
  -V(xc)+E(xc)   XCENC  =      3299.50975694
  PAW double counting   =     64848.79410039   -64386.62720596
  entropy T*S    EENTRO =        -0.00000000
  eigenvalues    EBANDS =     -5476.77923835
  atomic energy  EATOM  =     64968.54023382
  Solvation  Ediel_sol  =         0.00000000
  ---------------------------------------------------
  free energy    TOTEN  =      -931.51874256 eV

  energy without entropy =     -931.51874256  energy(sigma->0) =     -931.51874256


--------------------------------------------------------------------------------------------------------




--------------------------------------- Iteration      1(   7)  ---------------------------------------


    POTLOK:  cpu time    0.0825: real time    0.0933
    SETDIJ:  cpu time    0.2785: real time    0.2839
     EDDAV:  cpu time   37.8528: real time   38.1473
       DOS:  cpu time    0.0012: real time    0.0012
    CHARGE:  cpu time    1.0636: real time    1.0663
    MIXING:  cpu time    0.0033: real time    0.0033
    --------------------------------------------
      LOOP:  cpu time   39.2818: real time   39.5952

 eigenvalue-minimisations  : 11352
 total energy-change (2. order) :-0.2092241E+01  (-0.5743417E+01)
 number of electron     864.0000006 magnetization 
 augmentation part      120.0174460 magnetization 

 Broyden mixing:
  rms(total) = 0.16140E+01    rms(broyden)= 0.16140E+01
  rms(prec ) = 0.17627E+01
  weight for this iteration     100.00

 eigenvalues of (default mixing * dielectric matrix)
  average eigenvalue GAMMA=   1.2542
  1.2542  1.2542

 Free energy of the ion-electron system (eV)
  ---------------------------------------------------
  alpha Z        PSCENC =      3473.39795963
  Ewald energy   TEWEN  =    -53205.84999193
  -Hartree energ DENC   =    -14514.97818570
  -exchange      EXHF   =         0.00000000
  -V(xc)+E(xc)   XCENC  =      3304.15126925
  PAW double counting   =     77491.94129262   -77090.47717213
  entropy T*S    EENTRO =        -0.00000000
  eigenvalues    EBANDS =     -5360.33638950
  atomic energy  EATOM  =     64968.54023382
  Solvation  Ediel_sol  =         0.00000000
  ---------------------------------------------------
  free energy    TOTEN  =      -933.61098393 eV

  energy without entropy =     -933.61098393  energy(sigma->0) =     -933.61098393


--------------------------------------------------------------------------------------------------------




--------------------------------------- Iteration      1(   8)  ---------------------------------------


    POTLOK:  cpu time    0.0863: real time    0.0933
    SETDIJ:  cpu time    0.2782: real time    0.2833
     EDDAV:  cpu time   37.0433: real time   37.1533
       DOS:  cpu time    0.0010: real time    0.0010
    CHARGE:  cpu time    1.0888: real time    1.0915
    MIXING:  cpu time    0.0034: real time    0.0034
    --------------------------------------------
      LOOP:  cpu time   38.5009: real time   38.6258

 eigenvalue-minimisations  : 11040
 total energy-change (2. order) : 0.8011544E+00  (-0.8350245E+00)
 number of electron     864.0000006 magnetization 
 augmentation part      120.3678751 magnetization 

 Broyden mixing:
  rms(total) = 0.64194E+00    rms(broyden)= 0.64186E+00
  rms(prec ) = 0.75132E+00
  weight for this iteration     100.00

 eigenvalues of (default mixing * dielectric matrix)
  average eigenvalue GAMMA=   1.3824
  2.1475  0.9999  0.9999

 Free energy of the ion-electron system (eV)
  ---------------------------------------------------
  alpha Z        PSCENC =      3473.39795963
  Ewald energy   TEWEN  =    -53205.84999193
  -Hartree energ DENC   =    -14471.54675152
  -exchange      EXHF   =         0.00000000
  -V(xc)+E(xc)   XCENC  =      3301.47554550
  PAW double counting   =     84311.84991898   -83947.06230715
  entropy T*S    EENTRO =        -0.00000000
  eigenvalues    EBANDS =     -5363.61443691
  atomic energy  EATOM  =     64968.54023382
  Solvation  Ediel_sol  =         0.00000000
  ---------------------------------------------------
  free energy    TOTEN  =      -932.80982957 eV

  energy without entropy =     -932.80982957  energy(sigma->0) =     -932.80982957


--------------------------------------------------------------------------------------------------------




--------------------------------------- Iteration      1(   9)  ---------------------------------------


    POTLOK:  cpu time    0.0844: real time    0.0907
    SETDIJ:  cpu time    0.2818: real time    0.2825
     EDDAV:  cpu time   34.8146: real time   34.9305
       DOS:  cpu time    0.0011: real time    0.0011
    CHARGE:  cpu time    1.0587: real time    1.0613
    MIXING:  cpu time    0.0034: real time    0.0034
    --------------------------------------------
      LOOP:  cpu time   36.2440: real time   36.3694

 eigenvalue-minimisations  : 10080
 total energy-change (2. order) : 0.2360790E+00  (-0.1699913E+00)
 number of electron     864.0000006 magnetization 
 augmentation part      119.8261533 magnetization 

 Broyden mixing:
  rms(total) = 0.18212E+00    rms(broyden)= 0.18211E+00
  rms(prec ) = 0.21797E+00
  weight for this iteration     100.00

 eigenvalues of (default mixing * dielectric matrix)
  average eigenvalue GAMMA=   1.3956
  2.3254  1.3120  0.9725  0.9725

 Free energy of the ion-electron system (eV)
  ---------------------------------------------------
  alpha Z        PSCENC =      3473.39795963
  Ewald energy   TEWEN  =    -53205.84999193
  -Hartree energ DENC   =    -14529.52195938
  -exchange      EXHF   =         0.00000000
  -V(xc)+E(xc)   XCENC  =      3305.94545874
  PAW double counting   =     89364.30065646   -89023.60888920
  entropy T*S    EENTRO =        -0.00000000
  eigenvalues    EBANDS =     -5285.77721868
  atomic energy  EATOM  =     64968.54023382
  Solvation  Ediel_sol  =         0.00000000
  ---------------------------------------------------
  free energy    TOTEN  =      -932.57375053 eV

  energy without entropy =     -932.57375053  energy(sigma->0) =     -932.57375053


--------------------------------------------------------------------------------------------------------




--------------------------------------- Iteration      1(  10)  ---------------------------------------


    POTLOK:  cpu time    0.0840: real time    0.0914
    SETDIJ:  cpu time    0.2822: real time    0.2829
     EDDAV:  cpu time   37.3255: real time   37.4443
       DOS:  cpu time    0.0011: real time    0.0011
    CHARGE:  cpu time    1.0896: real time    1.0923
    MIXING:  cpu time    0.0037: real time    0.0037
    --------------------------------------------
      LOOP:  cpu time   38.7861: real time   38.9157

 eigenvalue-minimisations  : 11080
 total energy-change (2. order) :-0.6487328E-01  (-0.8591296E-01)
 number of electron     864.0000006 magnetization 
 augmentation part      119.6617475 magnetization 

 Broyden mixing:
  rms(total) = 0.14594E+00    rms(broyden)= 0.14592E+00
  rms(prec ) = 0.16742E+00
  weight for this iteration     100.00

 eigenvalues of (default mixing * dielectric matrix)
  average eigenvalue GAMMA=   1.3250
  2.4068  1.3005  1.1845  0.8666  0.8666

 Free energy of the ion-electron system (eV)
  ---------------------------------------------------
  alpha Z        PSCENC =      3473.39795963
  Ewald energy   TEWEN  =    -53205.84999193
  -Hartree energ DENC   =    -14538.45520094
  -exchange      EXHF   =         0.00000000
  -V(xc)+E(xc)   XCENC  =      3306.67700590
  PAW double counting   =     89951.02046832   -89613.12879774
  entropy T*S    EENTRO =        -0.00000000
  eigenvalues    EBANDS =     -5274.84030086
  atomic energy  EATOM  =     64968.54023382
  Solvation  Ediel_sol  =         0.00000000
  ---------------------------------------------------
  free energy    TOTEN  =      -932.63862381 eV

  energy without entropy =     -932.63862381  energy(sigma->0) =     -932.63862381


--------------------------------------------------------------------------------------------------------




--------------------------------------- Iteration      1(  11)  ---------------------------------------


    POTLOK:  cpu time    0.0849: real time    0.0939
    SETDIJ:  cpu time    0.2829: real time    0.2836
     EDDAV:  cpu time   38.0788: real time   38.1907
       DOS:  cpu time    0.0011: real time    0.0011
    CHARGE:  cpu time    1.0617: real time    1.0643
    MIXING:  cpu time    0.0036: real time    0.0036
    --------------------------------------------
      LOOP:  cpu time   39.5130: real time   39.6372

 eigenvalue-minimisations  : 11408
 total energy-change (2. order) : 0.7846398E-02  (-0.1368347E-01)
 number of electron     864.0000006 magnetization 
 augmentation part      119.6491628 magnetization 

 Broyden mixing:
  rms(total) = 0.69995E-01    rms(broyden)= 0.69988E-01
  rms(prec ) = 0.78972E-01
  weight for this iteration     100.00

 eigenvalues of (default mixing * dielectric matrix)
  average eigenvalue GAMMA=   1.3962
  2.3543  2.1286  1.0156  1.0156  0.9315  0.9315

 Free energy of the ion-electron system (eV)
  ---------------------------------------------------
  alpha Z        PSCENC =      3473.39795963
  Ewald energy   TEWEN  =    -53205.84999193
  -Hartree energ DENC   =    -14542.25854336
  -exchange      EXHF   =         0.00000000
  -V(xc)+E(xc)   XCENC  =      3306.94435359
  PAW double counting   =     89777.05401334   -89438.69987379
  entropy T*S    EENTRO =        -0.00000000
  eigenvalues    EBANDS =     -5271.75892872
  atomic energy  EATOM  =     64968.54023382
  Solvation  Ediel_sol  =         0.00000000
  ---------------------------------------------------
  free energy    TOTEN  =      -932.63077741 eV

  energy without entropy =     -932.63077741  energy(sigma->0) =     -932.63077741


--------------------------------------------------------------------------------------------------------




--------------------------------------- Iteration      1(  12)  ---------------------------------------


    POTLOK:  cpu time    0.0846: real time    0.0927
    SETDIJ:  cpu time    0.2819: real time    0.2825
     EDDAV:  cpu time   45.9845: real time   46.7209
       DOS:  cpu time    0.0010: real time    0.0010
    CHARGE:  cpu time    1.0607: real time    1.0635
    MIXING:  cpu time    0.0037: real time    0.0037
    --------------------------------------------
      LOOP:  cpu time   47.4163: real time   48.1642

 eigenvalue-minimisations  : 10360
 total energy-change (2. order) :-0.1137345E-02  (-0.3056704E-02)
 number of electron     864.0000006 magnetization 
 augmentation part      119.6604387 magnetization 

 Broyden mixing:
  rms(total) = 0.18724E-01    rms(broyden)= 0.18717E-01
  rms(prec ) = 0.24295E-01
  weight for this iteration     100.00

 eigenvalues of (default mixing * dielectric matrix)
  average eigenvalue GAMMA=   1.4074
  2.5187  2.5187  1.0470  1.0470  0.9326  0.8941  0.8941

 Free energy of the ion-electron system (eV)
  ---------------------------------------------------
  alpha Z        PSCENC =      3473.39795963
  Ewald energy   TEWEN  =    -53205.84999193
  -Hartree energ DENC   =    -14542.33722478
  -exchange      EXHF   =         0.00000000
  -V(xc)+E(xc)   XCENC  =      3306.91884705
  PAW double counting   =     89479.34650583   -89139.40013044
  entropy T*S    EENTRO =        -0.00000000
  eigenvalues    EBANDS =     -5273.24811394
  atomic energy  EATOM  =     64968.54023382
  Solvation  Ediel_sol  =         0.00000000
  ---------------------------------------------------
  free energy    TOTEN  =      -932.63191475 eV

  energy without entropy =     -932.63191475  energy(sigma->0) =     -932.63191475


--------------------------------------------------------------------------------------------------------




--------------------------------------- Iteration      1(  13)  ---------------------------------------


    POTLOK:  cpu time    0.0824: real time    0.0916
    SETDIJ:  cpu time    0.2790: real time    0.2838
     EDDAV:  cpu time   39.9620: real time   40.3044
       DOS:  cpu time    0.0010: real time    0.0010
    CHARGE:  cpu time    1.0630: real time    1.0658
    MIXING:  cpu time    0.0038: real time    0.0038
    --------------------------------------------
      LOOP:  cpu time   41.3913: real time   41.7505

 eigenvalue-minimisations  : 12176
 total energy-change (2. order) :-0.5507977E-03  (-0.6294536E-03)
 number of electron     864.0000006 magnetization 
 augmentation part      119.6711737 magnetization 

 Broyden mixing:
  rms(total) = 0.13096E-01    rms(broyden)= 0.13094E-01
  rms(prec ) = 0.15934E-01
  weight for this iteration     100.00

 eigenvalues of (default mixing * dielectric matrix)
  average eigenvalue GAMMA=   1.3781
  2.6709  2.4737  0.9191  0.9191  1.2003  1.0227  0.9095  0.9095

 Free energy of the ion-electron system (eV)
  ---------------------------------------------------
  alpha Z        PSCENC =      3473.39795963
  Ewald energy   TEWEN  =    -53205.84999193
  -Hartree energ DENC   =    -14542.84033294
  -exchange      EXHF   =         0.00000000
  -V(xc)+E(xc)   XCENC  =      3306.93166793
  PAW double counting   =     89357.72601103   -89017.01726711
  entropy T*S    EENTRO =        -0.00000000
  eigenvalues    EBANDS =     -5273.52074598
  atomic energy  EATOM  =     64968.54023382
  Solvation  Ediel_sol  =         0.00000000
  ---------------------------------------------------
  free energy    TOTEN  =      -932.63246555 eV

  energy without entropy =     -932.63246555  energy(sigma->0) =     -932.63246555


--------------------------------------------------------------------------------------------------------




--------------------------------------- Iteration      1(  14)  ---------------------------------------


    POTLOK:  cpu time    0.0853: real time    0.0920
    SETDIJ:  cpu time    0.2819: real time    0.2825
     EDDAV:  cpu time   35.8838: real time   35.9936
       DOS:  cpu time    0.0011: real time    0.0011
    CHARGE:  cpu time    1.0648: real time    1.0712
    MIXING:  cpu time    0.0037: real time    0.0038
    --------------------------------------------
      LOOP:  cpu time   37.3205: real time   37.4441

 eigenvalue-minimisations  : 10632
 total energy-change (2. order) :-0.2803447E-04  (-0.2840805E-03)
 number of electron     864.0000006 magnetization 
 augmentation part      119.6640394 magnetization 

 Broyden mixing:
  rms(total) = 0.90019E-02    rms(broyden)= 0.90011E-02
  rms(prec ) = 0.10166E-01
  weight for this iteration     100.00

 eigenvalues of (default mixing * dielectric matrix)
  average eigenvalue GAMMA=   1.3457
  2.7678  2.4722  1.4329  1.0000  1.0000  0.9253  0.9253  0.7937  0.7937

 Free energy of the ion-electron system (eV)
  ---------------------------------------------------
  alpha Z        PSCENC =      3473.39795963
  Ewald energy   TEWEN  =    -53205.84999193
  -Hartree energ DENC   =    -14543.81710271
  -exchange      EXHF   =         0.00000000
  -V(xc)+E(xc)   XCENC  =      3306.99097308
  PAW double counting   =     89371.38909406   -89030.57006877
  entropy T*S    EENTRO =        -0.00000000
  eigenvalues    EBANDS =     -5272.71359077
  atomic energy  EATOM  =     64968.54023382
  Solvation  Ediel_sol  =         0.00000000
  ---------------------------------------------------
  free energy    TOTEN  =      -932.63249359 eV

  energy without entropy =     -932.63249359  energy(sigma->0) =     -932.63249359


--------------------------------------------------------------------------------------------------------




--------------------------------------- Iteration      1(  15)  ---------------------------------------


    POTLOK:  cpu time    0.0826: real time    0.0922
    SETDIJ:  cpu time    0.2790: real time    0.2838
     EDDAV:  cpu time   36.7261: real time   37.5416
       DOS:  cpu time    0.0009: real time    0.0009
    CHARGE:  cpu time    1.0614: real time    1.0823
    MIXING:  cpu time    0.0035: real time    0.0036
    --------------------------------------------
      LOOP:  cpu time   38.1536: real time   39.0044

 eigenvalue-minimisations  : 11064
 total energy-change (2. order) : 0.6094022E-05  (-0.4670871E-04)
 number of electron     864.0000006 magnetization 
 augmentation part      119.6681743 magnetization 

 Broyden mixing:
  rms(total) = 0.55621E-02    rms(broyden)= 0.55616E-02
  rms(prec ) = 0.63658E-02
  weight for this iteration     100.00

 eigenvalues of (default mixing * dielectric matrix)
  average eigenvalue GAMMA=   1.4163
  2.9244  2.3660  2.3660  0.9414  1.0197  1.0197  0.8705  0.8705  0.8925  0.8925

 Free energy of the ion-electron system (eV)
  ---------------------------------------------------
  alpha Z        PSCENC =      3473.39795963
  Ewald energy   TEWEN  =    -53205.84999193
  -Hartree energ DENC   =    -14543.87167431
  -exchange      EXHF   =         0.00000000
  -V(xc)+E(xc)   XCENC  =      3306.99070039
  PAW double counting   =     89379.06591812   -89038.19747919
  entropy T*S    EENTRO =        -0.00000000
  eigenvalues    EBANDS =     -5272.70815402
  atomic energy  EATOM  =     64968.54023382
  Solvation  Ediel_sol  =         0.00000000
  ---------------------------------------------------
  free energy    TOTEN  =      -932.63248749 eV

  energy without entropy =     -932.63248749  energy(sigma->0) =     -932.63248749


--------------------------------------------------------------------------------------------------------




--------------------------------------- Iteration      1(  16)  ---------------------------------------


    POTLOK:  cpu time    0.0840: real time    0.0922
    SETDIJ:  cpu time    0.2769: real time    0.2820
     EDDAV:  cpu time   35.0682: real time   35.1818
       DOS:  cpu time    0.0010: real time    0.0010
    CHARGE:  cpu time    1.0633: real time    1.0658
    MIXING:  cpu time    0.0046: real time    0.0046
    --------------------------------------------
      LOOP:  cpu time   36.4980: real time   36.6275

 eigenvalue-minimisations  : 10208
 total energy-change (2. order) : 0.2447661E-04  (-0.2219567E-04)
 number of electron     864.0000006 magnetization 
 augmentation part      119.6631480 magnetization 

 Broyden mixing:
  rms(total) = 0.15215E-02    rms(broyden)= 0.15198E-02
  rms(prec ) = 0.20112E-02
  weight for this iteration     100.00

 eigenvalues of (default mixing * dielectric matrix)
  average eigenvalue GAMMA=   1.4097
  3.0295  2.4082  2.4082  1.1831  0.9314  1.0078  1.0078  0.9027  0.9027  0.8627
  0.8627

 Free energy of the ion-electron system (eV)
  ---------------------------------------------------
  alpha Z        PSCENC =      3473.39795963
  Ewald energy   TEWEN  =    -53205.84999193
  -Hartree energ DENC   =    -14544.46501858
  -exchange      EXHF   =         0.00000000
  -V(xc)+E(xc)   XCENC  =      3307.02859427
  PAW double counting   =     89408.83940471   -89068.01625039
  entropy T*S    EENTRO =        -0.00000000
  eigenvalues    EBANDS =     -5272.10739455
  atomic energy  EATOM  =     64968.54023382
  Solvation  Ediel_sol  =         0.00000000
  ---------------------------------------------------
  free energy    TOTEN  =      -932.63246302 eV

  energy without entropy =     -932.63246302  energy(sigma->0) =     -932.63246302


--------------------------------------------------------------------------------------------------------




--------------------------------------- Iteration      1(  17)  ---------------------------------------


    POTLOK:  cpu time    0.0860: real time    0.0937
    SETDIJ:  cpu time    0.2823: real time    0.2829
     EDDAV:  cpu time   38.4726: real time   38.5868
       DOS:  cpu time    0.0012: real time    0.0012
    CHARGE:  cpu time    1.0699: real time    1.0724
    MIXING:  cpu time    0.0041: real time    0.0041
    --------------------------------------------
      LOOP:  cpu time   39.9161: real time   40.0410

 eigenvalue-minimisations  : 11600
 total energy-change (2. order) :-0.3899040E-06  (-0.8136205E-05)
 number of electron     864.0000006 magnetization 
 augmentation part      119.6653365 magnetization 

 Broyden mixing:
  rms(total) = 0.10303E-02    rms(broyden)= 0.10289E-02
[...]
   -.112E+02 -.277E+02 0.914E+02   -.300E+01 0.378E+02 -.701E+02   0.118E+02 -.128E+02 -.224E+02   -.564E-03 -.621E-03 0.340E-03
   -.663E+02 -.266E+02 -.990E+02   0.734E+02 0.208E+02 0.919E+02   -.693E+01 0.796E+01 0.105E+02   0.711E-03 0.358E-03 0.373E-03
   -.392E+02 -.234E+02 0.612E+02   0.359E+02 0.179E+02 -.698E+02   0.562E+01 0.574E+01 0.780E+01   0.148E-03 0.522E-04 -.295E-03
   -.263E+02 0.360E+02 0.143E+01   0.229E+02 -.481E+02 0.912E+01   0.485E+01 0.104E+02 -.117E+02   0.894E-03 0.259E-03 0.936E-04
   0.193E+02 0.557E+02 0.250E+02   -.969E+01 -.445E+02 -.270E+02   -.116E+02 -.142E+02 0.207E+01   -.438E-03 -.726E-03 0.529E-03
   0.724E+01 0.259E+02 0.222E+02   0.767E+01 -.181E+02 -.314E+02   -.170E+02 -.101E+02 0.865E+01   -.921E-03 -.497E-04 -.183E-03
   -.509E+01 -.439E+01 0.714E+02   -.183E+02 0.498E+01 -.737E+02   0.264E+02 -.759E+00 0.252E+01   0.721E-03 0.969E-03 -.369E-03
   0.984E+02 0.304E+02 -.655E+02   -.104E+03 -.312E+02 0.584E+02   0.744E+00 -.210E+01 0.794E+01   -.842E-04 -.920E-03 0.284E-03
   0.380E+02 -.343E+01 -.286E+02   -.397E+02 -.878E+00 0.248E+02   0.158E+01 0.456E+01 0.506E+01   0.764E-03 0.418E-03 0.192E-03
   0.223E+02 0.759E+02 0.396E+02   -.187E+02 -.938E+02 -.459E+02   -.506E+01 0.175E+02 0.710E+01   0.680E-03 -.500E-03 0.331E-03
   -.516E+02 0.274E+02 0.362E+02   0.608E+02 -.238E+02 -.281E+02   -.730E+01 -.374E+01 -.897E+01   0.241E-03 -.258E-03 -.358E-03
   -.412E+02 -.139E+02 -.785E+02   0.519E+02 0.182E+02 0.957E+02   -.107E+02 -.129E+01 -.146E+02   -.499E-03 -.175E-03 -.581E-03
   0.497E+02 0.274E+02 -.235E+02   -.658E+02 -.283E+02 0.420E+02   0.135E+02 0.407E+01 -.153E+02   -.460E-03 -.155E-03 0.258E-03
   0.513E+02 0.276E+02 0.566E+02   -.668E+02 -.349E+02 -.620E+02   0.157E+02 0.810E+01 0.500E+01   -.682E-04 0.219E-03 -.203E-03
   0.186E+02 -.511E+01 0.244E+01   -.219E+02 0.159E+02 0.611E+01   0.535E+01 -.989E+01 -.945E+01   0.115E-02 -.248E-03 0.202E-03
   -.450E+02 0.221E+02 -.111E+02   0.526E+02 -.174E+02 0.254E+02   -.731E+01 -.458E+01 -.165E+02   -.838E-03 -.332E-03 0.336E-03
   -.430E+02 -.252E+02 0.108E+02   0.568E+02 0.224E+02 -.249E+02   -.137E+02 0.470E+01 0.152E+02   0.706E-03 -.483E-03 0.169E-03
   -.253E+02 -.182E+02 0.345E+02   0.358E+02 0.264E+02 -.340E+02   -.950E+01 -.841E+01 -.941E+00   0.635E-03 0.272E-03 0.268E-03
   0.303E+02 -.439E+02 -.463E+02   -.336E+02 0.553E+02 0.531E+02   0.204E+01 -.111E+02 -.893E+01   0.501E-03 0.283E-03 -.470E-03
   -.220E+02 0.445E+02 -.515E+02   0.264E+02 -.474E+02 0.545E+02   -.389E+01 0.248E+01 -.301E+01   -.407E-03 -.450E-03 -.330E-03
   -.344E+02 0.284E+02 -.327E+02   0.269E+02 -.209E+02 0.341E+02   0.819E+01 -.877E+01 -.625E+00   0.214E-03 -.569E-04 -.411E-03
   -.410E+01 -.258E+02 -.157E+02   0.112E+02 0.180E+02 0.174E+02   -.768E+01 0.950E+01 -.715E+00   0.108E-03 0.578E-03 -.270E-03
   0.805E+02 -.202E+01 -.986E+02   -.931E+02 0.161E+02 0.115E+03   0.103E+02 -.131E+02 -.169E+02   -.860E-03 -.344E-03 -.532E-03
   -.413E+02 0.343E+02 -.153E+02   0.303E+02 -.378E+02 0.163E+02   0.120E+02 0.251E+01 -.346E+00   -.805E-03 -.375E-03 0.187E-03
   -.112E+02 -.197E+02 0.364E+02   0.227E+02 0.946E+01 -.367E+02   -.989E+01 0.964E+01 -.263E+01   0.891E-04 0.312E-03 -.409E-03
   -.277E+01 -.288E+01 -.310E+02   0.270E+02 0.105E+02 0.297E+02   -.256E+02 -.707E+01 0.287E+01   -.552E-03 -.282E-03 -.703E-03
   -.136E+02 0.704E+02 0.132E+02   0.597E+01 -.802E+02 -.497E+01   0.107E+02 0.985E+01 -.963E+01   0.777E-03 -.920E-03 0.103E-03
   -.505E+02 0.243E+02 0.435E+02   0.444E+02 -.476E+02 -.488E+02   0.704E+01 0.239E+02 0.427E+01   -.472E-03 0.763E-03 0.575E-03
   -.237E+02 0.245E+02 -.224E+02   0.457E+02 -.275E+02 0.337E+02   -.247E+02 0.247E+01 -.106E+02   -.470E-03 0.798E-03 -.512E-03
   0.777E+02 0.851E+01 0.243E+02   -.888E+02 0.223E+02 -.254E+02   0.121E+02 -.245E+02 0.107E+01   0.527E-03 -.818E-03 -.317E-03
   -.128E+03 0.311E+02 -.165E+02   0.125E+03 -.341E+02 0.189E+02   0.757E+01 0.333E+01 -.825E+00   -.436E-03 -.503E-03 -.403E-04
   0.181E+02 0.170E+02 -.186E+02   -.279E+02 -.286E+02 0.167E+02   0.122E+02 0.137E+02 0.371E+01   -.424E-03 0.984E-03 0.440E-03
   -.283E+02 0.211E+02 -.441E+02   0.499E+02 -.261E+02 0.244E+02   -.201E+02 0.461E+01 0.181E+02   -.679E-03 -.387E-03 0.421E-03
   -.274E+02 0.634E+01 -.430E+02   0.162E+02 -.200E+01 0.481E+02   0.943E+01 -.191E+01 -.296E+01   -.205E-04 -.948E-04 0.326E-03
   -.103E+02 0.826E+02 -.315E+02   0.657E+01 -.851E+02 0.367E+02   0.370E+01 0.321E+01 -.371E+01   -.414E-04 -.147E-03 0.689E-04
   -.184E+02 0.102E+03 0.169E+02   0.296E+02 -.130E+03 -.936E+01   -.102E+02 0.251E+02 -.541E+01   -.431E-04 0.507E-03 0.211E-03
   0.632E+02 -.181E+02 0.360E+02   -.586E+02 -.125E+01 -.408E+02   -.812E+01 0.203E+02 0.248E+01   -.388E-03 0.159E-03 0.413E-03
   -.721E+02 0.693E+01 -.375E+01   0.839E+02 -.179E+02 0.178E+02   -.124E+02 0.109E+02 -.149E+02   -.676E-03 -.157E-03 -.441E-04
   -.279E+02 0.466E+02 -.160E+02   0.266E+02 -.592E+02 0.610E+01   0.304E+01 0.134E+02 0.108E+02   0.558E-03 -.925E-03 -.493E-03
   0.681E+02 0.333E+02 -.936E+02   -.821E+02 -.244E+02 0.108E+03   0.129E+02 -.117E+02 -.125E+02   -.305E-03 0.241E-03 0.199E-03
   0.354E+02 -.421E+02 0.435E+02   -.547E+02 0.361E+02 -.292E+02   0.214E+02 0.669E+01 -.162E+02   0.117E-02 0.215E-03 -.848E-03
   -.516E+02 -.639E+02 0.752E+02   0.814E+02 0.827E+02 -.862E+02   -.260E+02 -.188E+02 0.911E+01   -.529E-03 -.143E-03 0.581E-03
   -.852E+02 0.156E+02 0.363E+02   0.804E+02 -.273E+02 -.387E+02   0.812E+01 0.136E+02 0.195E+01   -.293E-03 -.432E-03 -.655E-03
   0.420E+02 -.413E+02 -.582E+01   -.479E+02 0.479E+02 -.786E+01   0.381E+01 -.491E+01 0.138E+02   -.440E-03 0.527E-03 -.411E-04
   -.264E+02 -.251E+02 -.305E+02   0.229E+02 0.188E+02 0.504E+02   0.339E+01 0.936E+01 -.224E+02   0.310E-03 -.118E-03 -.468E-03
   -.604E+02 0.254E+02 0.519E+02   0.675E+02 -.291E+02 -.371E+02   -.545E+01 0.912E+00 -.174E+02   0.341E-03 -.133E-03 -.368E-03
   -.189E+02 -.555E+02 -.243E+02   0.230E+02 0.568E+02 0.260E+02   -.533E+01 -.112E+01 -.108E+01   -.380E-03 0.231E-03 0.404E-03
   0.544E+02 -.676E+02 0.162E+02   -.636E+02 0.742E+02 -.200E+02   0.965E+01 -.610E+01 0.355E+01   -.880E-03 0.302E-03 -.855E-03
 -----------------------------------------------------------------------------------------------
   0.138E+03 -.450E+02 -.599E+01   0.995E-13 0.114E-12 0.746E-12   -.138E+03 0.450E+02 0.596E+01   -.370E-02 -.480E-03 0.942E-04
 
 
 POSITION                                       TOTAL-FORCE (eV/Angst)
 -----------------------------------------------------------------------------------
      1.47543      6.67562     10.08152         0.824016     -0.520147     -0.236137
      0.15029      6.53408      6.82818         2.755356     -0.593717      0.644186
      0.87289      2.45035      3.37329         0.556891      1.571266      0.012673
      4.03341      2.75122      6.74771         3.692142      1.212640     -2.394102
      6.99874      8.82876      0.58141        -1.526782     -0.951492     -0.945059
      0.60245     10.12256     10.77211         0.826383     -2.969208      0.240679
      7.89820      2.94747     10.19414        -0.821573     -0.118603      1.747961
      5.36657      0.18148      9.46570        -1.616226      0.564946     -1.142479
      9.67709      3.84722      5.81901        -3.205899      0.322474     -2.453348
      2.93787      5.18662      4.52224         1.584104      0.053461     -0.558235
      2.03703     11.11762      5.40494         0.966665      1.702610      0.715774
      6.69500      1.92347      4.28752        -0.982168     -0.605499      0.430212
      9.81527      7.77521      9.45907        -1.567079      0.940178     -1.080772
      5.66441      8.33312      5.50230        -1.157065     -3.081367     -0.377246
      8.13938     10.26541      6.23419        -1.285984      0.085409      0.797172
     10.53912      8.88196      4.52334        -2.640684      1.549457     -4.220255
      4.70376     10.60329      2.85475        -2.018498     -0.386603      2.658646
      2.17013      7.53205      1.83019        -0.291990      1.386894     -0.503078
      3.28452      1.77977      0.91113        -0.856466     -1.443893     -0.095012
     10.25338      1.09030      8.22774        -0.329059     -0.335974     -0.614419
      9.06567      3.30879      2.19269        -0.311542      0.630597      0.337394
      9.01235      0.15788      1.72564         1.345726      1.291352      2.669383
      8.41685      6.29393      3.28494        -3.865518     -0.834755      0.375347
      5.88618      4.07382      2.01024         1.312059      0.143702      1.116015
      2.05873      1.05662      8.56454         1.381880      0.145216      1.105834
      6.78140      5.05701      7.71139        -0.514118      1.336420      1.160986
      2.91020      9.22369      8.38263         0.259778     -1.002725     -1.276081
      8.84836      5.68902      0.21245        -1.297090     -8.463043      2.353188
      5.48469      6.07278     10.68621        -3.086281      1.141457     -0.715078
     11.09841      9.33339      7.32344         2.836359      4.618495     -0.049140
      3.63202      6.23176      7.31493         3.399914      4.069873     -4.403949
      3.60619      2.44643      3.71782         0.922395      0.514986     -0.835210
      6.42305      4.84065      4.71200        -1.730989     -2.034894     -0.638005
      5.00919      3.16848      9.99582         0.928219     -1.258646     -0.759639
      9.92611      4.52718      9.05390         0.531795      3.509376     -4.614495
      6.42716      0.71702      1.08322        -1.931929      1.707844     -1.435999
     10.93885      1.73901      0.34818         1.941373      0.675904     -0.076000
     11.11641      6.04855      3.73474         1.923701      1.294681     -3.232057
      2.49631      8.46528      4.99449         1.546155     -1.524006      1.373765
      9.94380      0.97609      4.88214        -0.279598     -3.915648      3.653605
      0.84229      3.51153      6.81757         4.431160     -1.320760     -3.269631
      8.56434      7.28341      6.32702        -3.162854     -1.060413     -0.393463
      8.42089     10.34830      9.74409        -0.066694      1.855753      0.034277
      3.14632      4.91515      1.16268         1.054167      0.044818     -0.222264
      7.74249      9.35061      3.33135        -2.624505     -0.719885      0.869488
     10.16798      8.13450      1.31223        -4.125819      1.100162      4.075693
      7.42544      1.98065      7.43977        -0.457312      0.807468      0.201428
      6.05128      8.48179      8.54337        -0.528605     -2.630808     -0.020628
      5.13095     10.87928      6.19470        -3.937118      6.346146      4.197645
      4.88788      7.58875      2.40263        -0.558156     -4.450886     -0.121166
      2.79577      4.18161      8.94624        -2.853283      1.669344      2.548706
      1.20971     10.63272      2.56769         0.901039      2.508589     -0.179535
      3.51559      9.43416     11.06605         0.786131      1.068772     -0.057350
      0.56321      4.47238      0.05459        -1.261677     -4.597400      2.180620
      8.85910     10.39284      3.93914         1.227350      1.085639      1.309812
      4.75607      1.81394      2.65014         0.720103      0.299695      0.566253
      8.54250      5.20072      9.72129         0.573823     -0.946153      0.817291
      7.26175      1.99489      1.80952        -0.592775     -1.989563     -0.875615
      6.03788     10.41132      5.03503         4.543491     -3.611073     -2.104519
      5.61519      9.88009      7.65114         0.510350     -0.258384     -1.444726
      8.49273      1.40238      5.94872         2.592817      1.108109     -1.437247
      2.51879      0.96490      3.26819        -1.379651     -0.076446      0.082629
      0.99512      4.62633      5.60537        -1.071275     -0.624973      2.564134
      4.18657      3.74783      0.99921        -0.664884     -1.671331     -4.878041
      7.34483      8.21860      6.97863         0.201129     -0.850943      2.439189
      4.42071      5.14730      6.44908        -1.340032      0.153627      0.665116
      1.88659      4.33742     10.23607         0.147390      0.033786     -2.155947
      3.76255      5.95805     10.69659         1.323637     -0.847857      2.031628
      4.32826      0.83706      7.40317        -3.024759     -3.625618      1.494964
      6.27865      1.28580      6.52631         0.719868     -0.467860      0.447869
     10.63234      4.64790      3.48237        -1.019972     -5.569327     -1.419744
      0.12953      0.91624      1.80323        -0.035370     -1.016083     -0.852137
      4.84515      3.81678      4.31268         1.168616     -0.878585     -0.933364
      9.14859      5.97871      7.22886        -1.051468      1.205065     -0.276026
      9.89314      2.14460      3.82081        -1.727971      0.327939      0.869632
      2.80905     10.75185     10.03209         2.104920     -2.725006      0.964848
      6.40826      3.12844      8.75687        -1.383427     -3.696272     -2.858775
      2.03758      9.43906      3.52691        -1.161870     -0.001259      1.200616
      6.11590      8.52016      2.81744         2.001732      1.749178      1.466629
      1.05019     10.62750      7.63208         0.215342     -1.102177      0.036865
      2.56338      8.13545     10.58662         2.311677      6.166585      1.831136
      6.01681      5.89159      3.41225         0.155099      0.984142      0.971680
      5.91458      4.52479     10.42931         1.960512      0.270774      3.019781
      0.42810      0.87444     10.23564        -1.114857      3.590485     -1.123235
      4.80516      7.39688      7.72121        -1.050100      0.649198     -0.906664
      4.18283      8.76371      1.37475        -1.499443     -0.323414      0.078849
      9.96627     10.08767      9.01758        -0.412065     -0.564856     -0.821510
      2.68852      5.96804      8.51904        -2.432621     -2.797452     -1.044306
      7.50331      3.85381      3.55498         0.136343      2.167501      3.475744
      7.01767     10.94232     10.88394         2.356530      0.218935     -0.862028
      6.59238      3.78347      6.06931         1.460270     -1.673751     -1.123647
     10.88699      5.95205      9.25166        -1.992548     -3.036005      0.073739
      2.41132     10.69570      1.33226        -2.075620     -2.387892     -0.514074
      9.28250      1.85794      0.31893         3.014510     -0.165265      0.156730
      9.95271      8.43502      6.59166        -4.857201     -2.922926      0.847415
      7.98873      0.51330      8.43942        -0.111012      0.251445      1.243957
      7.64511      9.00649      9.22768        -1.454286     -0.387385      0.808911
      5.68112      6.91291      0.97115         1.931623     -0.201224     -0.894286
      3.80717      5.97692      2.13973         0.072077      2.987632      2.624140
     10.13161      6.38858      4.89467        -2.587075      3.172780      3.242794
      4.94950     11.01331      0.79652         0.230566      0.819143     -0.330970
      7.01267      6.10358      5.72737         2.025027      0.900574     -0.903365
      3.39337      9.43010      6.16076         0.236105      0.078817     -2.281731
      6.32589      6.72466      9.38687         0.040759      1.898678      1.197462
      8.65872      3.05727      8.02908         0.956228     -0.205740     -0.475301
      7.03554     10.75782      2.57783        -1.285885      0.298290     -2.086442
      3.84286      7.93012      3.90631         0.494395     -0.348027     -0.079769
     10.93333      9.61231      2.00627         0.686670     -1.286552      0.746073
      5.87841      1.89561     10.77761        -0.561652      1.719325      1.066529
      1.58160      5.41043      1.06960        -2.230445      1.024158     -0.248267
      2.55098      7.05986      6.12007         1.006514     -1.018194      0.588074
      0.15438      0.15747      4.32015         1.552289     -0.585728     -2.992883
      1.47360      6.64428      3.61036        -1.408432      0.558992      1.595484
      7.74295      8.26747      4.70841         3.047448      0.070928     -1.419656
      0.17316      2.05185      6.44656         0.978172      0.673311     -0.963804
      1.00710      2.92842      0.69672        -2.684937     -0.608966      0.712964
      8.81913      7.16627      0.22904         1.008368      6.284397     -0.033081
      0.86070      8.71949      5.75374         4.809893      0.282742      1.655680
      3.50554      2.20538      9.66837         2.356366      2.118698      1.792065
      0.06685      7.92494      0.18399         1.527293     -0.392402     -1.667737
     10.80789      4.06892      7.66082        -1.707453      2.435603      2.202804
      4.91622      9.00109      9.79213        -0.017518      0.633550      1.552347
     10.67184      3.52974      9.95448         0.973007     -2.521361      2.116509
      2.20062      3.18935      7.83529        -3.480759      0.926664     -2.309651
      0.67981      8.27954      8.43405        -0.593376     -0.019829     -0.808022
      8.48947      8.47052      2.11497         1.794003      0.867253      0.938608
      2.68827      3.03243      4.96057        -1.056958     -2.759855      1.929619
      7.74910      5.06180      1.27438         2.142740      0.603639     -1.869682
      4.29143      4.28138      8.93248         3.809018     -0.017200     -1.831340
     10.20662      6.83735      2.41140         3.369028      1.930791     -0.415218
      4.32408      0.59796      4.94665        -2.090494      1.695504      0.070411
     10.19017      4.69084      0.86207        -0.095052      3.069377     -2.538106
      9.06356     10.06191      0.15743         1.677421     -2.774566     -2.567072
     10.25837     10.77325      6.26179        -1.206706      0.133518      0.590798
      2.62705      3.60177      2.67788         0.474579      0.461110     -0.320633
 -----------------------------------------------------------------------------------
    total drift:                               -0.006590     -0.020111     -0.030308


--------------------------------------------------------------------------------------------------------



  FREE ENERGIE OF THE ION-ELECTRON SYSTEM (eV)
  ---------------------------------------------------
  free  energy   TOTEN  =      -932.63246296 eV

  energy  without entropy=     -932.63246296  energy(sigma->0) =     -932.63246296
 


--------------------------------------------------------------------------------------------------------


    POTLOK:  cpu time    0.3677: real time    0.3686


--------------------------------------------------------------------------------------------------------


     LOOP+:  cpu time  751.2726: real time  756.9121
    4ORBIT:  cpu time    0.0000: real time    0.0000

 total amount of memory used by VASP MPI-rank0   149169. kBytes
=======================================================================

   base      :      30000. kBytes
   nonlr-proj:      21629. kBytes
   fftplans  :      20560. kBytes
   grid      :      10967. kBytes
   one-center:        186. kBytes
   wavefun   :      65827. kBytes
 
  
  
 General timing and accounting informations for this job:
 ========================================================
  
                  Total CPU time used (sec):      767.527
                            User time (sec):      764.106
                          System time (sec):        3.421
                         Elapsed time (sec):      773.403
  
                   Maximum memory used (kb):      279392.
                   Average memory used (kb):           0.
  
                          Minor page faults:        88330
                          Major page faults:            0
                 Voluntary context switches:          369
