<?xml version="1.0" encoding="ISO-8859-1"?>
<modeling>
 <generator>
  <i name="program" type="string">vasp </i>
  <i name="version" type="string">5.4.4.18Apr17-6-g9f103f2a35  </i>
  <i name="subversion" type="string">(build Oct 31 2019 15:01:46) complex            parallel </i>
  <i name="platform" type="string">LinuxIFC </i>
  <i name="date" type="string">2024 04 28 </i>
  <i name="time" type="string">23:21:15 </i>
 </generator>
 <incar>
  <i type="int" name="ISTART">     0</i>
  <i type="string" name="PREC">a</i>
  <i type="logical" name="ADDGRID"> T  </i>
  <i type="int" name="IBRION">    -1</i>
  <i name="EDIFF">      0.00000100</i>
  <i name="EDIFFG">     -0.01000000</i>
  <i type="int" name="NSW">     1</i>
  <i type="int" name="ISIF">     2</i>
  <i type="int" name="ISYM">     0</i>
  <i name="ENCUT">    600.00000000</i>
  <i name="POTIM">      1.00000000</i>
  <i type="string" name="LREAL">  Auto</i>
  <i type="int" name="ISMEAR">     0</i>
  <i name="SIGMA">      0.05000000</i>
  <i name="KSPACING">      0.30000000</i>
  <i type="logical" name="KGAMMA"> T  </i>
  <i type="logical" name="LWAVE"> F  </i>
  <i type="logical" name="LCHARG"> F  </i>
  <i type="logical" name="LSCALAPACK"> F  </i>
  <v type="int" name="KPOINT_BSE">    -1     0     0     0</v>
 </incar>
 <structure name="primitive_cell" >
  <crystal>
   <varray name="basis" >
    <v>      14.01277600       0.00000000       0.00000000 </v>
    <v>       0.00000000      14.01277600       0.00000000 </v>
    <v>       0.00000000       0.00000000      14.01277600 </v>
   </varray>
   <i name="volume">   2751.51914558 </i>
   <varray name="rec_basis" >
    <v>       0.07136345       0.00000000       0.00000000 </v>
    <v>       0.00000000       0.07136345       0.00000000 </v>
    <v>       0.00000000       0.00000000       0.07136345 </v>
   </varray>
  </crystal>
  <varray name="positions" >
   <v>       0.48922756      -0.47978690       0.43199952 </v>
   <v>       0.49994059      -0.33542639       0.46538181 </v>
   <v>       0.37526627       0.49700607      -0.44903824 </v>
   <v>      -0.34942734       0.45005768       0.35219853 </v>
   <v>       0.27684816      -0.46168429       0.40579107 </v>
   <v>       0.28346262       0.46158086       0.47844019 </v>
   <v>      -0.46127069      -0.32407168      -0.42070055 </v>
   <v>      -0.46113384       0.36048716      -0.41978963 </v>
   <v>       0.40482923       0.32680954       0.32077786 </v>
   <v>      -0.36693732      -0.38911143      -0.39699669 </v>
   <v>       0.29796996      -0.35277261      -0.49418151 </v>
   <v>      -0.31144726      -0.36643026       0.32700792 </v>
   <v>       0.43172667      -0.31750108      -0.37430919 </v>
   <v>      -0.24809909       0.46995535       0.40256051 </v>
   <v>      -0.24181289      -0.43343667       0.43164117 </v>
   <v>       0.31247538       0.49981008       0.19359136 </v>
   <v>       0.23725647       0.41219138       0.30781583 </v>
   <v>       0.24578650       0.33752375       0.47881973 </v>
   <v>       0.47804217      -0.17617165       0.37456748 </v>
   <v>      -0.26730192       0.49199773      -0.37895144 </v>
   <v>      -0.44566055       0.21545353       0.46474061 </v>
   <v>       0.46662055       0.28804320       0.22241556 </v>
   <v>      -0.39649367      -0.41795407       0.13948190 </v>
   <v>      -0.41788043       0.26810852       0.22803628 </v>
   <v>      -0.44022542       0.28782247      -0.32664987 </v>
   <v>       0.17457109      -0.48546655      -0.42763282 </v>
   <v>      -0.40845993      -0.21281087      -0.37219478 </v>
   <v>       0.46776657      -0.30107115      -0.25184181 </v>
   <v>      -0.16738818       0.39766035       0.45411806 </v>
   <v>       0.26420928      -0.19599175       0.34337143 </v>
   <v>      -0.35628655       0.40351188       0.10185835 </v>
   <v>      -0.26030741      -0.20086722       0.34126080 </v>
   <v>       0.40818498      -0.10223449       0.36988886 </v>
   <v>       0.31903693       0.35099672      -0.25776124 </v>
   <v>       0.46519226       0.22436865      -0.30862186 </v>
   <v>      -0.41607957      -0.12001260       0.27675700 </v>
   <v>      -0.43632583      -0.32435814      -0.20139963 </v>
   <v>       0.30262573       0.37802386       0.09749619 </v>
   <v>       0.18741790       0.33530482      -0.36176822 </v>
   <v>       0.25621205      -0.46392900      -0.23140824 </v>
   <v>       0.41009481       0.29107581       0.10064540 </v>
   <v>      -0.34570034       0.23451624      -0.31583974 </v>
   <v>      -0.14161347      -0.30743357      -0.45994693 </v>
   <v>       0.07300556      -0.49084101      -0.48915004 </v>
   <v>      -0.23491717       0.30754393       0.17875903 </v>
   <v>      -0.34712501      -0.39061656       0.03998738 </v>
   <v>       0.30319413       0.13248908       0.35847086 </v>
   <v>       0.38501097      -0.31569152      -0.17409416 </v>
   <v>       0.46420084      -0.04026465       0.45059784 </v>
   <v>       0.40135279      -0.42973123       0.00064818 </v>
   <v>      -0.32545096       0.37101404      -0.18888204 </v>
   <v>      -0.20459894      -0.35106470      -0.26148894 </v>
   <v>      -0.06999532      -0.45360230       0.33286135 </v>
   <v>       0.03888567      -0.42050183       0.43261012 </v>
   <v>      -0.42817988      -0.12352285      -0.29826445 </v>
   <v>       0.29712387       0.41300778      -0.17002913 </v>
   <v>       0.46731203       0.39147015      -0.00431290 </v>
   <v>       0.45540223      -0.16548469      -0.23900030 </v>
   <v>      -0.12213914       0.47768869       0.19333187 </v>
   <v>      -0.29020690       0.49217105       0.02372576 </v>
   <v>       0.05240176       0.44047476       0.29273839 </v>
   <v>       0.28399510      -0.38545806      -0.15880352 </v>
   <v>      -0.28077552      -0.07349657       0.37282843 </v>
   <v>      -0.30850314       0.16398860       0.19505842 </v>
   <v>      -0.27573721       0.10919055       0.42538543 </v>
   <v>      -0.43493595       0.34193842      -0.00497442 </v>
   <v>      -0.14387131      -0.28614861      -0.33003085 </v>
   <v>       0.43135129      -0.21481188       0.03483166 </v>
   <v>       0.19052540      -0.11614355       0.31985505 </v>
   <v>      -0.42860462      -0.32368307      -0.02222225 </v>
   <v>       0.39173533       0.38516510      -0.10972137 </v>
   <v>       0.45648917      -0.31157314      -0.02614156 </v>
   <v>      -0.38111333      -0.01193069       0.49507180 </v>
   <v>      -0.13836537       0.35919805       0.14805111 </v>
   <v>       0.14965294       0.37304638       0.10281696 </v>
   <v>       0.32216057       0.19160423      -0.22796568 </v>
   <v>      -0.44977318      -0.02800502      -0.35328479 </v>
   <v>      -0.24630764       0.28604085      -0.20711523 </v>
   <v>       0.00818608       0.44182869      -0.42125055 </v>
   <v>      -0.27675602      -0.27544892       0.02650924 </v>
   <v>       0.25994429       0.07480765      -0.45825322 </v>
   <v>       0.08199901      -0.19203873       0.30282783 </v>
   <v>       0.18824530      -0.17114413      -0.28425131 </v>
   <v>       0.02735459      -0.25254492      -0.45566981 </v>
   <v>       0.03043310       0.44142183       0.17951731 </v>
   <v>      -0.32578824      -0.24524103      -0.13044972 </v>
   <v>       0.27878146       0.03461171       0.40685126 </v>
   <v>       0.07712123       0.24350965      -0.37713026 </v>
   <v>      -0.03523005      -0.29741245       0.26160656 </v>
   <v>       0.44453382      -0.08859638       0.06361723 </v>
   <v>      -0.08713312      -0.33876273       0.12773097 </v>
   <v>      -0.14288041      -0.09000279       0.35354374 </v>
   <v>      -0.30807364      -0.05192099       0.16479138 </v>
   <v>       0.21923741      -0.02457444      -0.42733591 </v>
   <v>      -0.34898073      -0.09661695      -0.21110857 </v>
   <v>       0.20560210       0.41824413      -0.10846301 </v>
   <v>      -0.15007197       0.17053891      -0.34453003 </v>
   <v>       0.13089991      -0.08479615      -0.42868266 </v>
   <v>      -0.12910797       0.29169537      -0.24194237 </v>
   <v>       0.25145211       0.14782626       0.09757967 </v>
   <v>       0.39896504       0.04289231       0.16453411 </v>
   <v>      -0.06237726      -0.19760681       0.26656326 </v>
   <v>       0.02656160      -0.45594984       0.11625153 </v>
   <v>      -0.03272639       0.23738230      -0.46138269 </v>
   <v>       0.21111637      -0.17994476       0.03963925 </v>
   <v>       0.24495140      -0.07261336      -0.25139446 </v>
   <v>       0.20876875      -0.38454163      -0.05727061 </v>
   <v>       0.34018853      -0.01647033      -0.25669876 </v>
   <v>      -0.22590755       0.38700598      -0.05345232 </v>
   <v>      -0.08796552      -0.21115473      -0.27300129 </v>
   <v>      -0.02932887       0.30970978       0.17589176 </v>
   <v>       0.08901272       0.46533286      -0.00809843 </v>
   <v>       0.47237762       0.00783174      -0.22100350 </v>
   <v>      -0.31900516       0.06296698      -0.22987863 </v>
   <v>       0.28127738       0.04125843       0.13397825 </v>
   <v>      -0.24070949       0.04554599       0.16855263 </v>
   <v>      -0.22495885       0.17297426      -0.15474983 </v>
   <v>      -0.09235421       0.32026359       0.03097410 </v>
   <v>       0.29454717      -0.05781102       0.02843178 </v>
   <v>      -0.11221933       0.17958058      -0.23587088 </v>
   <v>       0.18260046       0.01028513       0.20524747 </v>
   <v>      -0.05117362      -0.14566815       0.16424109 </v>
   <v>      -0.33779977      -0.02762933       0.03056159 </v>
   <v>       0.24453351      -0.11820360      -0.10467071 </v>
   <v>      -0.47663810      -0.04515735      -0.03294573 </v>
   <v>      -0.36515693       0.08443004      -0.10374641 </v>
   <v>       0.13123576      -0.02353504      -0.24137882 </v>
   <v>       0.06715418       0.19634219       0.02920551 </v>
   <v>       0.08457998      -0.19401120      -0.05373356 </v>
   <v>      -0.07959986      -0.03732063       0.06589411 </v>
   <v>      -0.01138871      -0.10354913      -0.21029129 </v>
   <v>      -0.01128403      -0.18942643      -0.02391314 </v>
   <v>       0.20367734      -0.00840543      -0.07874864 </v>
   <v>      -0.04907720       0.10914510      -0.16599858 </v>
   <v>       0.09177230       0.04988387      -0.01869468 </v>
  </varray>
 </structure>
 <varray name="primitive_index" >
  <v type="int" >        1 </v>
  <v type="int" >      125 </v>
  <v type="int" >       98 </v>
  <v type="int" >      102 </v>
  <v type="int" >       57 </v>
  <v type="int" >       33 </v>
  <v type="int" >       48 </v>
  <v type="int" >      100 </v>
  <v type="int" >       63 </v>
  <v type="int" >       83 </v>
  <v type="int" >       10 </v>
  <v type="int" >       19 </v>
  <v type="int" >      103 </v>
  <v type="int" >       52 </v>
  <v type="int" >      106 </v>
  <v type="int" >       62 </v>
  <v type="int" >       23 </v>
  <v type="int" >      121 </v>
  <v type="int" >      133 </v>
  <v type="int" >       22 </v>
  <v type="int" >       24 </v>
  <v type="int" >       28 </v>
  <v type="int" >       66 </v>
  <v type="int" >      118 </v>
  <v type="int" >       42 </v>
  <v type="int" >       64 </v>
  <v type="int" >      111 </v>
  <v type="int" >       51 </v>
  <v type="int" >       68 </v>
  <v type="int" >       97 </v>
  <v type="int" >        9 </v>
  <v type="int" >      108 </v>
  <v type="int" >       38 </v>
  <v type="int" >       93 </v>
  <v type="int" >       56 </v>
  <v type="int" >        7 </v>
  <v type="int" >       73 </v>
  <v type="int" >        4 </v>
  <v type="int" >       27 </v>
  <v type="int" >       76 </v>
  <v type="int" >       87 </v>
  <v type="int" >      130 </v>
  <v type="int" >      105 </v>
  <v type="int" >       32 </v>
  <v type="int" >       88 </v>
  <v type="int" >       46 </v>
  <v type="int" >       92 </v>
  <v type="int" >       70 </v>
  <v type="int" >       85 </v>
  <v type="int" >      122 </v>
  <v type="int" >      128 </v>
  <v type="int" >       59 </v>
  <v type="int" >       26 </v>
  <v type="int" >       84 </v>
  <v type="int" >       37 </v>
  <v type="int" >       35 </v>
  <v type="int" >       41 </v>
  <v type="int" >       91 </v>
  <v type="int" >      107 </v>
  <v type="int" >      104 </v>
  <v type="int" >       96 </v>
  <v type="int" >       36 </v>
  <v type="int" >       55 </v>
  <v type="int" >       20 </v>
  <v type="int" >       79 </v>
  <v type="int" >      123 </v>
  <v type="int" >       47 </v>
  <v type="int" >       80 </v>
  <v type="int" >       34 </v>
  <v type="int" >       86 </v>
  <v type="int" >      112 </v>
  <v type="int" >       54 </v>
  <v type="int" >       25 </v>
  <v type="int" >       30 </v>
  <v type="int" >       99 </v>
  <v type="int" >        2 </v>
  <v type="int" >       94 </v>
  <v type="int" >       53 </v>
  <v type="int" >      120 </v>
  <v type="int" >       65 </v>
  <v type="int" >       77 </v>
  <v type="int" >      113 </v>
  <v type="int" >      115 </v>
  <v type="int" >       11 </v>
  <v type="int" >       31 </v>
  <v type="int" >        5 </v>
  <v type="int" >       39 </v>
  <v type="int" >      126 </v>
  <v type="int" >      129 </v>
  <v type="int" >       29 </v>
  <v type="int" >        6 </v>
  <v type="int" >       58 </v>
  <v type="int" >       95 </v>
  <v type="int" >       44 </v>
  <v type="int" >      110 </v>
  <v type="int" >       74 </v>
  <v type="int" >      127 </v>
  <v type="int" >       78 </v>
  <v type="int" >       75 </v>
  <v type="int" >      117 </v>
  <v type="int" >       81 </v>
  <v type="int" >       40 </v>
  <v type="int" >       89 </v>
  <v type="int" >        8 </v>
  <v type="int" >       18 </v>
  <v type="int" >       43 </v>
  <v type="int" >      124 </v>
  <v type="int" >      131 </v>
  <v type="int" >       21 </v>
  <v type="int" >      132 </v>
  <v type="int" >       71 </v>
  <v type="int" >       13 </v>
  <v type="int" >       16 </v>
  <v type="int" >        3 </v>
  <v type="int" >       50 </v>
  <v type="int" >      116 </v>
  <v type="int" >      101 </v>
  <v type="int" >       82 </v>
  <v type="int" >       67 </v>
  <v type="int" >       49 </v>
  <v type="int" >       90 </v>
  <v type="int" >      134 </v>
  <v type="int" >       17 </v>
  <v type="int" >      114 </v>
  <v type="int" >       61 </v>
  <v type="int" >      119 </v>
  <v type="int" >       60 </v>
  <v type="int" >       15 </v>
  <v type="int" >       69 </v>
  <v type="int" >       14 </v>
  <v type="int" >       12 </v>
  <v type="int" >       72 </v>
  <v type="int" >       45 </v>
  <v type="int" >      135 </v>
  <v type="int" >      109 </v>
 </varray>
 <kpoints>
  <generation param="Gamma">
   <v type="int" name="divisions">       2        2        2 </v>
   <v name="usershift">      0.00000000       0.00000000       0.00000000 </v>
   <v name="genvec1">      0.50000000       0.00000000       0.00000000 </v>
   <v name="genvec2">      0.00000000       0.50000000       0.00000000 </v>
   <v name="genvec3">      0.00000000       0.00000000       0.50000000 </v>
   <v name="shift">      0.00000000       0.00000000       0.00000000 </v>
  </generation>
  <varray name="kpointlist" >
   <v>       0.00000000       0.00000000       0.00000000 </v>
   <v>       0.50000000       0.00000000       0.00000000 </v>
   <v>       0.00000000       0.50000000       0.00000000 </v>
   <v>       0.50000000       0.50000000       0.00000000 </v>
   <v>       0.00000000       0.00000000       0.50000000 </v>
   <v>       0.50000000       0.00000000       0.50000000 </v>
   <v>       0.00000000       0.50000000       0.50000000 </v>
   <v>       0.50000000       0.50000000       0.50000000 </v>
  </varray>
  <varray name="weights" >
   <v>       0.12500000 </v>
   <v>       0.12500000 </v>
   <v>       0.12500000 </v>
   <v>       0.12500000 </v>
   <v>       0.12500000 </v>
   <v>       0.12500000 </v>
   <v>       0.12500000 </v>
   <v>       0.12500000 </v>
  </varray>
 </kpoints>
 <parameters>
  <separator name="general" >
   <i type="string" name="SYSTEM">unknown system</i>
   <i type="logical" name="LCOMPAT"> F  </i>
  </separator>
  <separator name="electronic" >
   <i type="string" name="PREC">a</i>
   <i name="ENMAX">    600.00000000</i>
   <i name="ENAUG">    605.39200000</i>
   <i name="EDIFF">      0.00000100</i>
   <i type="int" name="IALGO">    38</i>
   <i type="int" name="IWAVPR">    10</i>
   <i type="int" name="NBANDS">   520</i>
   <i name="NELECT">    864.00000000</i>
   <i type="int" name="TURBO">     0</i>
   <i type="int" name="IRESTART">     0</i>
   <i type="int" name="NREBOOT">     0</i>
   <i type="int" name="NMIN">     0</i>
   <i name="EREF">      0.00000000</i>
   <separator name="electronic smearing" >
    <i type="int" name="ISMEAR">     0</i>
    <i name="SIGMA">      0.05000000</i>
    <i name="KSPACING">      0.30000000</i>
    <i type="logical" name="KGAMMA"> T  </i>
   </separator>
   <separator name="electronic projectors" >
    <i type="logical" name="LREAL"> T  </i>
    <v name="ROPT">     -0.00025000     -0.00025000     -0.00025000</v>
    <i type="int" name="LMAXPAW">  -100</i>
    <i type="int" name="LMAXMIX">     2</i>
    <i type="logical" name="NLSPLINE"> F  </i>
   </separator>
   <separator name="electronic startup" >
    <i type="int" name="ISTART">     0</i>
    <i type="int" name="ICHARG">     2</i>
    <i type="int" name="INIWAV">     1</i>
   </separator>
   <separator name="electronic spin" >
    <i type="int" name="ISPIN">     1</i>
    <i type="logical" name="LNONCOLLINEAR"> F  </i>
    <v name="MAGMOM">      1.00000000      1.00000000      1.00000000      1.00000000      1.00000000      1.00000000      1.00000000      1.00000000      1.00000000      1.00000000      1.00000000      1.00000000      1.00000000      1.00000000      1.00000000      1.00000000      1.00000000      1.00000000      1.00000000      1.00000000
      1.00000000      1.00000000      1.00000000      1.00000000      1.00000000      1.00000000      1.00000000      1.00000000      1.00000000      1.00000000      1.00000000      1.00000000      1.00000000      1.00000000      1.00000000      1.00000000      1.00000000      1.00000000      1.00000000      1.00000000
      1.00000000      1.00000000      1.00000000      1.00000000      1.00000000      1.00000000      1.00000000      1.00000000      1.00000000      1.00000000      1.00000000      1.00000000      1.00000000      1.00000000      1.00000000      1.00000000      1.00000000      1.00000000      1.00000000      1.00000000
      1.00000000      1.00000000      1.00000000      1.00000000      1.00000000      1.00000000      1.00000000      1.00000000      1.00000000      1.00000000      1.00000000      1.00000000      1.00000000      1.00000000      1.00000000      1.00000000      1.00000000      1.00000000      1.00000000      1.00000000
      1.00000000      1.00000000      1.00000000      1.00000000      1.00000000      1.00000000      1.00000000      1.00000000      1.00000000      1.00000000      1.00000000      1.00000000      1.00000000      1.00000000      1.00000000      1.00000000      1.00000000      1.00000000      1.00000000      1.00000000
      1.00000000      1.00000000      1.00000000      1.00000000      1.00000000      1.00000000      1.00000000      1.00000000      1.00000000      1.00000000      1.00000000      1.00000000      1.00000000      1.00000000      1.00000000      1.00000000      1.00000000      1.00000000      1.00000000      1.00000000
      1.00000000      1.00000000      1.00000000      1.00000000      1.00000000      1.00000000      1.00000000      1.00000000      1.00000000      1.00000000      1.00000000      1.00000000      1.00000000      1.00000000      1.00000000</v>
    <i name="NUPDOWN">     -1.00000000</i>
    <i type="logical" name="LSORBIT"> F  </i>
    <v name="SAXIS">      0.00000000      0.00000000      1.00000000</v>
    <i type="logical" name="LSPIRAL"> F  </i>
    <v name="QSPIRAL">      0.00000000      0.00000000      0.00000000</v>
    <i type="logical" name="LZEROZ"> F  </i>
   </separator>
   <separator name="electronic exchange-correlation" >
    <i type="logical" name="LASPH"> F  </i>
    <i type="logical" name="LMETAGGA"> F  </i>
   </separator>
   <separator name="electronic convergence" >
    <i type="int" name="NELM">    60</i>
    <i type="int" name="NELMDL">    -5</i>
    <i type="int" name="NELMIN">     2</i>
    <i name="ENINI">    600.00000000</i>
    <separator name="electronic convergence detail" >
     <i type="logical" name="LDIAG"> T  </i>
     <i type="logical" name="LSUBROT"> F  </i>
     <i name="WEIMIN">      0.00000000</i>
     <i name="EBREAK">      0.00000000</i>
     <i name="DEPER">      0.30000000</i>
     <i type="int" name="NRMM">     4</i>
     <i name="TIME">      0.40000000</i>
    </separator>
   </separator>
   <separator name="electronic mixer" >
    <i name="AMIX">      0.40000000</i>
    <i name="BMIX">      1.00000000</i>
    <i name="AMIN">      0.10000000</i>
    <i name="AMIX_MAG">      1.60000000</i>
    <i name="BMIX_MAG">      1.00000000</i>
    <separator name="electronic mixer details" >
     <i type="int" name="IMIX">     4</i>
     <i type="logical" name="MIXFIRST"> F  </i>
     <i type="int" name="MAXMIX">   -45</i>
     <i name="WC">    100.00000000</i>
     <i type="int" name="INIMIX">     1</i>
     <i type="int" name="MIXPRE">     1</i>
     <i type="int" name="MREMOVE">     5</i>
    </separator>
   </separator>
   <separator name="electronic dipolcorrection" >
    <i type="logical" name="LDIPOL"> F  </i>
    <i type="logical" name="LMONO"> F  </i>
    <i type="int" name="IDIPOL">     0</i>
    <i name="EPSILON">      1.00000000</i>
    <v name="DIPOL">   -100.00000000   -100.00000000   -100.00000000</v>
    <i name="EFIELD">      0.00000000</i>
   </separator>
  </separator>
  <separator name="grids" >
   <i type="int" name="NGX">   112</i>
   <i type="int" name="NGY">   112</i>
   <i type="int" name="NGZ">   112</i>
   <i type="int" name="NGXF">   224</i>
   <i type="int" name="NGYF">   224</i>
   <i type="int" name="NGZF">   224</i>
   <i type="logical" name="ADDGRID"> T  </i>
  </separator>
  <separator name="ionic" >
   <i type="int" name="NSW">     1</i>
   <i type="int" name="IBRION">    -1</i>
   <i type="int" name="MDALGO">     0</i>
   <i type="int" name="ISIF">     2</i>
   <i name="PSTRESS">      0.00000000</i>
   <i name="EDIFFG">     -0.01000000</i>
   <i type="int" name="NFREE">     0</i>
   <i name="POTIM">      1.00000000</i>
   <i name="SMASS">     -3.00000000</i>
   <i name="SCALEE">      1.00000000</i>
  </separator>
  <separator name="ionic md" >
   <i name="TEBEG">      0.00010000</i>
   <i name="TEEND">      0.00010000</i>
   <i type="int" name="NBLOCK">     1</i>
   <i type="int" name="KBLOCK">     1</i>
   <i type="int" name="NPACO">   256</i>
   <i name="APACO">     16.00000000</i>
  </separator>
  <separator name="symmetry" >
   <i type="int" name="ISYM">     0</i>
   <i name="SYMPREC">      0.00001000</i>
  </separator>
  <separator name="dos" >
   <i type="int" name="LORBIT">     0</i>
   <v name="RWIGS">     -1.00000000     -1.00000000     -1.00000000</v>
   <i type="int" name="NEDOS">   301</i>
   <i name="EMIN">     10.00000000</i>
   <i name="EMAX">    -10.00000000</i>
   <i name="EFERMI">      0.00000000</i>
  </separator>
  <separator name="writing" >
   <i type="int" name="NWRITE">     2</i>
   <i type="logical" name="LWAVE"> F  </i>
   <i type="logical" name="LDOWNSAMPLE"> F  </i>
   <i type="logical" name="LCHARG"> F  </i>
   <i type="logical" name="LPARD"> F  </i>
   <i type="logical" name="LVTOT"> F  </i>
   <i type="logical" name="LVHAR"> F  </i>
   <i type="logical" name="LELF"> F  </i>
   <i type="logical" name="LOPTICS"> F  </i>
   <v name="STM">      0.00000000      0.00000000      0.00000000      0.00000000      0.00000000      0.00000000      0.00000000</v>
  </separator>
  <separator name="performance" >
   <i type="int" name="NPAR">     4</i>
   <i type="int" name="NSIM">     4</i>
   <i type="int" name="NBLK">    -1</i>
   <i type="logical" name="LPLANE"> T  </i>
   <i type="logical" name="LSCALAPACK"> F  </i>
   <i type="logical" name="LSCAAWARE"> F  </i>
   <i type="logical" name="LSCALU"> F  </i>
   <i type="logical" name="LASYNC"> F  </i>
   <i type="logical" name="LORBITALREAL"> F  </i>
  </separator>
  <separator name="miscellaneous" >
   <i type="int" name="IDIOT">     3</i>
   <i type="int" name="ISPECIAL">     0</i>
   <i type="logical" name="LMUSIC"> F  </i>
   <v name="POMASS">     40.07800000     28.08500000     16.00000000</v>
   <v name="DARWINR">      0.00000000      0.00000000      0.00000000</v>
   <v name="DARWINV">      1.00000000      1.00000000      1.00000000</v>
   <i type="logical" name="LCORR"> T  </i>
  </separator>
  <i type="logical" name="GGA_COMPAT"> T  </i>
  <i type="logical" name="LBERRY"> F  </i>
  <i type="int" name="ICORELEVEL">     0</i>
  <i type="logical" name="LDAU"> F  </i>
  <i type="int" name="I_CONSTRAINED_M">     0</i>
  <separator name="electronic exchange-correlation" >
   <i type="string" name="GGA">--</i>
   <i type="int" name="VOSKOWN">     0</i>
   <i type="logical" name="LHFCALC"> F  </i>
   <i type="string" name="PRECFOCK"></i>
   <i type="logical" name="LSYMGRAD"> F  </i>
   <i type="logical" name="LHFONE"> F  </i>
   <i type="logical" name="LRHFCALC"> F  </i>
   <i type="logical" name="LTHOMAS"> F  </i>
   <i type="logical" name="LMODELHF"> F  </i>
   <i name="ENCUT4O">     -1.00000000</i>
   <i type="int" name="EXXOEP">     0</i>
   <i type="int" name="FOURORBIT">     0</i>
   <i name="AEXX">      0.00000000</i>
   <i name="HFALPHA">      0.00000000</i>
   <i name="MCALPHA">      0.00000000</i>
   <i name="ALDAX">      1.00000000</i>
   <i name="AGGAX">      1.00000000</i>
   <i name="ALDAC">      1.00000000</i>
   <i name="AGGAC">      1.00000000</i>
   <i type="int" name="NKREDX">     1</i>
   <i type="int" name="NKREDY">     1</i>
   <i type="int" name="NKREDZ">     1</i>
   <i type="logical" name="SHIFTRED"> F  </i>
   <i type="logical" name="ODDONLY"> F  </i>
   <i type="logical" name="EVENONLY"> F  </i>
   <i type="int" name="LMAXFOCK">     0</i>
   <i type="int" name="NMAXFOCKAE">     0</i>
   <i type="logical" name="LFOCKAEDFT"> F  </i>
   <i name="HFSCREEN">      0.00000000</i>
   <i name="HFSCREENC">      0.00000000</i>
   <i type="int" name="NBANDSGWLOW">     0</i>
  </separator>
  <separator name="vdW DFT" >
   <i type="logical" name="LUSE_VDW"> F  </i>
   <i name="Zab_VDW">     -0.84910000</i>
   <i name="PARAM1">      0.12340000</i>
   <i name="PARAM2">      1.00000000</i>
   <i name="PARAM3">      0.00000000</i>
  </separator>
  <separator name="model GW" >
   <i type="int" name="MODEL_GW">     0</i>
   <i name="MODEL_EPS0">     12.22897398</i>
   <i name="MODEL_ALPHA">      1.00000000</i>
  </separator>
  <separator name="linear response parameters" >
   <i type="logical" name="LEPSILON"> F  </i>
   <i type="logical" name="LRPA"> F  </i>
   <i type="logical" name="LNABLA"> F  </i>
   <i type="logical" name="LVEL"> F  </i>
   <i type="int" name="KINTER">     0</i>
   <i name="CSHIFT">      0.10000000</i>
   <i name="OMEGAMAX">     -1.00000000</i>
   <i name="DEG_THRESHOLD">      0.00200000</i>
   <i name="RTIME">     -0.10000000</i>
   <i name="WPLASMAI">      0.00000000</i>
   <v name="DFIELD">      0.00000000      0.00000000      0.00000000</v>
   <v name="WPLASMA">      0.00000000      0.00000000      0.00000000      0.00000000      0.00000000      0.00000000      0.00000000      0.00000000      0.00000000</v>
  </separator>
  <separator name="orbital magnetization" >
   <i type="logical" name="NUCIND"> F  </i>
   <v name="MAGPOS">      0.00000000      0.00000000      0.00000000</v>
   <i type="logical" name="LNICSALL"> T  </i>
   <i type="logical" name="ORBITALMAG"> F  </i>
   <i type="logical" name="LMAGBLOCH"> F  </i>
   <i type="logical" name="LCHIMAG"> F  </i>
   <i type="logical" name="LGAUGE"> T  </i>
   <i type="int" name="MAGATOM">     0</i>
   <v name="MAGDIPOL">      0.00000000      0.00000000      0.00000000</v>
   <v name="AVECCONST">      0.00000000      0.00000000      0.00000000</v>
  </separator>
  <separator name="response functions" >
   <i type="logical" name="LADDER"> F  </i>
   <i type="logical" name="LRPAFORCE"> F  </i>
   <i type="logical" name="LFXC"> F  </i>
   <i type="logical" name="LHARTREE"> T  </i>
   <i type="int" name="IBSE">     0</i>
   <v type="int" name="KPOINT">    -1     0     0     0</v>
   <i type="logical" name="LTCTE"> F  </i>
   <i type="logical" name="LTETE"> F  </i>
   <i type="logical" name="LTRIPLET"> F  </i>
   <i type="logical" name="LFXCEPS"> F  </i>
   <i type="logical" name="LFXHEG"> F  </i>
   <i type="int" name="NATURALO">     2</i>
   <i type="logical" name="L2ORDER"> F  </i>
   <i type="logical" name="LMP2LT"> F  </i>
   <i type="logical" name="LUSEW"> F  </i>
   <i name="ENCUTGW">     -2.00000000</i>
   <i name="ENCUTGWSOFT">     -2.00000000</i>
   <i name="ENCUTLF">     -1.00000000</i>
   <i type="int" name="LMAXMP2">    -1</i>
   <i name="SCISSOR">      0.00000000</i>
   <i type="int" name="NOMEGA">     0</i>
   <i type="int" name="NOMEGAR">     0</i>
   <i type="int" name="NBANDSGW">    -1</i>
   <i type="int" name="NBANDSO">    -1</i>
   <i type="int" name="NBANDSV">    -1</i>
   <i type="int" name="NELM">     1</i>
   <i type="int" name="NELMHF">     1</i>
   <i type="int" name="DIM">     3</i>
   <i type="int" name="ANTIRES">     0</i>
   <i name="OMEGAMAX">    -30.00000000</i>
   <i name="OMEGAMIN">    -30.00000000</i>
   <i name="OMEGATL">   -200.00000000</i>
   <i type="int" name="OMEGAGRID">   140</i>
   <i name="CSHIFT">     -0.10000000</i>
   <i type="logical" name="SELFENERGY"> F  </i>
   <i type="logical" name="LSPECTRAL"> F  </i>
   <i type="logical" name="LSPECTRALGW"> F  </i>
   <i type="logical" name="LSINGLES"> F  </i>
   <i type="logical" name="LFERMIGW"> F  </i>
   <i type="logical" name="ODDONLYGW"> F  </i>
   <i type="logical" name="EVENONLYGW"> F  </i>
   <i type="int" name="NKREDLFX">     1</i>
   <i type="int" name="NKREDLFY">     1</i>
   <i type="int" name="NKREDLFZ">     1</i>
   <i type="int" name="MAXMEM">  2800</i>
   <i type="int" name="TELESCOPE">     0</i>
   <i type="int" name="TAUPAR">     1</i>
   <i type="int" name="OMEGAPAR">    -1</i>
   <i name="LAMBDA">      1.00000000</i>
  </separator>
  <separator name="External order field" >
   <i name="OFIELD_KAPPA">      0.00000000</i>
   <v name="OFIELD_K">      0.00000000      0.00000000      0.00000000</v>
   <i name="OFIELD_Q6_NEAR">      0.00000000</i>
   <i name="OFIELD_Q6_FAR">      0.00000000</i>
   <i name="OFIELD_A">      0.00000000</i>
  </separator>
 </parameters>
 <atominfo>
  <atoms>     135 </atoms>
  <types>       3 </types>
  <array name="atoms" >
   <dimension dim="1">ion</dimension>
   <field type="string">element</field>
   <field type="int">atomtype</field>
   <set>
    <rc><c>Ca</c><c>   1</c></rc>
    <rc><c>Ca</c><c>   1</c></rc>
    <rc><c>Ca</c><c>   1</c></rc>
    <rc><c>Ca</c><c>   1</c></rc>
    <rc><c>Ca</c><c>   1</c></rc>
    <rc><c>Ca</c><c>   1</c></rc>
    <rc><c>Ca</c><c>   1</c></rc>
    <rc><c>Ca</c><c>   1</c></rc>
    <rc><c>Ca</c><c>   1</c></rc>
    <rc><c>Ca</c><c>   1</c></rc>
    <rc><c>Ca</c><c>   1</c></rc>
    <rc><c>Ca</c><c>   1</c></rc>
    <rc><c>Ca</c><c>   1</c></rc>
    <rc><c>Ca</c><c>   1</c></rc>
    <rc><c>Ca</c><c>   1</c></rc>
    <rc><c>Ca</c><c>   1</c></rc>
    <rc><c>Ca</c><c>   1</c></rc>
    <rc><c>Ca</c><c>   1</c></rc>
    <rc><c>Ca</c><c>   1</c></rc>
    <rc><c>Ca</c><c>   1</c></rc>
    <rc><c>Ca</c><c>   1</c></rc>
    <rc><c>Ca</c><c>   1</c></rc>
    <rc><c>Ca</c><c>   1</c></rc>
    <rc><c>Ca</c><c>   1</c></rc>
    <rc><c>Ca</c><c>   1</c></rc>
    <rc><c>Ca</c><c>   1</c></rc>
    <rc><c>Ca</c><c>   1</c></rc>
    <rc><c>Si</c><c>   2</c></rc>
    <rc><c>Si</c><c>   2</c></rc>
    <rc><c>Si</c><c>   2</c></rc>
    <rc><c>Si</c><c>   2</c></rc>
    <rc><c>Si</c><c>   2</c></rc>
    <rc><c>Si</c><c>   2</c></rc>
    <rc><c>Si</c><c>   2</c></rc>
    <rc><c>Si</c><c>   2</c></rc>
    <rc><c>Si</c><c>   2</c></rc>
    <rc><c>Si</c><c>   2</c></rc>
    <rc><c>Si</c><c>   2</c></rc>
    <rc><c>Si</c><c>   2</c></rc>
    <rc><c>Si</c><c>   2</c></rc>
    <rc><c>Si</c><c>   2</c></rc>
    <rc><c>Si</c><c>   2</c></rc>
    <rc><c>Si</c><c>   2</c></rc>
    <rc><c>Si</c><c>   2</c></rc>
    <rc><c>Si</c><c>   2</c></rc>
    <rc><c>Si</c><c>   2</c></rc>
    <rc><c>Si</c><c>   2</c></rc>
    <rc><c>Si</c><c>   2</c></rc>
    <rc><c>Si</c><c>   2</c></rc>
    <rc><c>Si</c><c>   2</c></rc>
    <rc><c>Si</c><c>   2</c></rc>
    <rc><c>Si</c><c>   2</c></rc>
    <rc><c>Si</c><c>   2</c></rc>
    <rc><c>Si</c><c>   2</c></rc>
    <rc><c>O </c><c>   3</c></rc>
    <rc><c>O </c><c>   3</c></rc>
    <rc><c>O </c><c>   3</c></rc>
    <rc><c>O </c><c>   3</c></rc>
    <rc><c>O </c><c>   3</c></rc>
    <rc><c>O </c><c>   3</c></rc>
    <rc><c>O </c><c>   3</c></rc>
    <rc><c>O </c><c>   3</c></rc>
    <rc><c>O </c><c>   3</c></rc>
    <rc><c>O </c><c>   3</c></rc>
    <rc><c>O </c><c>   3</c></rc>
    <rc><c>O </c><c>   3</c></rc>
    <rc><c>O </c><c>   3</c></rc>
    <rc><c>O </c><c>   3</c></rc>
    <rc><c>O </c><c>   3</c></rc>
    <rc><c>O </c><c>   3</c></rc>
    <rc><c>O </c><c>   3</c></rc>
    <rc><c>O </c><c>   3</c></rc>
    <rc><c>O </c><c>   3</c></rc>
    <rc><c>O </c><c>   3</c></rc>
    <rc><c>O </c><c>   3</c></rc>
    <rc><c>O </c><c>   3</c></rc>
    <rc><c>O </c><c>   3</c></rc>
    <rc><c>O </c><c>   3</c></rc>
    <rc><c>O </c><c>   3</c></rc>
    <rc><c>O </c><c>   3</c></rc>
    <rc><c>O </c><c>   3</c></rc>
    <rc><c>O </c><c>   3</c></rc>
    <rc><c>O </c><c>   3</c></rc>
    <rc><c>O </c><c>   3</c></rc>
    <rc><c>O </c><c>   3</c></rc>
    <rc><c>O </c><c>   3</c></rc>
    <rc><c>O </c><c>   3</c></rc>
    <rc><c>O </c><c>   3</c></rc>
    <rc><c>O </c><c>   3</c></rc>
    <rc><c>O </c><c>   3</c></rc>
    <rc><c>O </c><c>   3</c></rc>
    <rc><c>O </c><c>   3</c></rc>
    <rc><c>O </c><c>   3</c></rc>
    <rc><c>O </c><c>   3</c></rc>
    <rc><c>O </c><c>   3</c></rc>
    <rc><c>O </c><c>   3</c></rc>
    <rc><c>O </c><c>   3</c></rc>
    <rc><c>O </c><c>   3</c></rc>
    <rc><c>O </c><c>   3</c></rc>
    <rc><c>O </c><c>   3</c></rc>
    <rc><c>O </c><c>   3</c></rc>
    <rc><c>O </c><c>   3</c></rc>
    <rc><c>O </c><c>   3</c></rc>
    <rc><c>O </c><c>   3</c></rc>
    <rc><c>O </c><c>   3</c></rc>
    <rc><c>O </c><c>   3</c></rc>
    <rc><c>O </c><c>   3</c></rc>
    <rc><c>O </c><c>   3</c></rc>
    <rc><c>O </c><c>   3</c></rc>
    <rc><c>O </c><c>   3</c></rc>
    <rc><c>O </c><c>   3</c></rc>
    <rc><c>O </c><c>   3</c></rc>
    <rc><c>O </c><c>   3</c></rc>
    <rc><c>O </c><c>   3</c></rc>
    <rc><c>O </c><c>   3</c></rc>
    <rc><c>O </c><c>   3</c></rc>
    <rc><c>O </c><c>   3</c></rc>
    <rc><c>O </c><c>   3</c></rc>
    <rc><c>O </c><c>   3</c></rc>
    <rc><c>O </c><c>   3</c></rc>
    <rc><c>O </c><c>   3</c></rc>
    <rc><c>O </c><c>   3</c></rc>
    <rc><c>O </c><c>   3</c></rc>
    <rc><c>O </c><c>   3</c></rc>
    <rc><c>O </c><c>   3</c></rc>
    <rc><c>O </c><c>   3</c></rc>
    <rc><c>O </c><c>   3</c></rc>
    <rc><c>O </c><c>   3</c></rc>
    <rc><c>O </c><c>   3</c></rc>
    <rc><c>O </c><c>   3</c></rc>
    <rc><c>O </c><c>   3</c></rc>
    <rc><c>O </c><c>   3</c></rc>
    <rc><c>O </c><c>   3</c></rc>
    <rc><c>O </c><c>   3</c></rc>
    <rc><c>O </c><c>   3</c></rc>
   </set>
  </array>
  <array name="atomtypes" >
   <dimension dim="1">type</dimension>
   <field type="int">atomspertype</field>
   <field type="string">element</field>
   <field>mass</field>
   <field>valence</field>
   <field type="string">pseudopotential</field>
   <set>
    <rc><c>  27</c><c>Ca</c><c>     40.07800000</c><c>     10.00000000</c><c>  PAW_PBE Ca_sv 06Sep2000               </c></rc>
    <rc><c>  27</c><c>Si</c><c>     28.08500000</c><c>      4.00000000</c><c>  PAW_PBE Si 05Jan2001                  </c></rc>
    <rc><c>  81</c><c>O </c><c>     16.00000000</c><c>      6.00000000</c><c>  PAW_PBE O 08Apr2002                   </c></rc>
   </set>
  </array>
 </atominfo>
 <structure name="initialpos" >
  <crystal>
   <varray name="basis" >
    <v>      14.01277600       0.00000000       0.00000000 </v>
    <v>       0.00000000      14.01277600       0.00000000 </v>
    <v>       0.00000000       0.00000000      14.01277600 </v>
   </varray>
   <i name="volume">   2751.51914558 </i>
   <varray name="rec_basis" >
    <v>       0.07136345       0.00000000       0.00000000 </v>
    <v>       0.00000000       0.07136345       0.00000000 </v>
    <v>       0.00000000       0.00000000       0.07136345 </v>
   </varray>
  </crystal>
  <varray name="positions" >
   <v>       0.48922756       0.52021310       0.43199952 </v>
   <v>       0.32216057       0.19160423       0.77203432 </v>
   <v>       0.68099484       0.06296698       0.77012137 </v>
   <v>       0.30262573       0.37802386       0.09749619 </v>
   <v>       0.67421176       0.75475897       0.86955028 </v>
   <v>       0.91286688       0.66123727       0.12773097 </v>
   <v>       0.58392043       0.87998740       0.27675700 </v>
   <v>       0.96727361       0.23738230       0.53861731 </v>
   <v>       0.64371345       0.40351188       0.10185835 </v>
   <v>       0.29796996       0.64722739       0.50581849 </v>
   <v>       0.02735459       0.74745508       0.54433019 </v>
   <v>       0.98861129       0.89645087       0.78970871 </v>
   <v>       0.08901272       0.46533286       0.99190157 </v>
   <v>       0.92040014       0.96267937       0.06589411 </v>
   <v>       0.06715418       0.19634219       0.02920551 </v>
   <v>       0.47237762       0.00783174       0.77899650 </v>
   <v>       0.66220023       0.97237067       0.03056159 </v>
   <v>       0.21111637       0.82005524       0.03963925 </v>
   <v>       0.68855274       0.63356974       0.32700792 </v>
   <v>       0.69149686       0.16398860       0.19505842 </v>
   <v>       0.77409245       0.38700598       0.94654768 </v>
   <v>       0.73269808       0.49199773       0.62104856 </v>
   <v>       0.23725647       0.41219138       0.30781583 </v>
   <v>       0.55433945       0.21545353       0.46474061 </v>
   <v>       0.61888667       0.98806931       0.49507180 </v>
   <v>       0.93000468       0.54639770       0.33286135 </v>
   <v>       0.18741790       0.33530482       0.63823178 </v>
   <v>       0.46662055       0.28804320       0.22241556 </v>
   <v>       0.44453382       0.91140362       0.06361723 </v>
   <v>       0.86163463       0.35919805       0.14805111 </v>
   <v>       0.03043310       0.44142183       0.17951731 </v>
   <v>       0.07300556       0.50915899       0.51084996 </v>
   <v>       0.28346262       0.46158086       0.47844019 </v>
   <v>       0.19052540       0.88385645       0.31985505 </v>
   <v>       0.29712387       0.41300778       0.82997087 </v>
   <v>       0.28399510       0.61454194       0.84119648 </v>
   <v>       0.57182012       0.87647715       0.70173555 </v>
   <v>       0.40818498       0.89776551       0.36988886 </v>
   <v>       0.27878146       0.03461171       0.40685126 </v>
   <v>       0.93762274       0.80239319       0.26656326 </v>
   <v>       0.46731203       0.39147015       0.99568710 </v>
   <v>       0.55977458       0.28782247       0.67335013 </v>
   <v>       0.24495140       0.92738664       0.74860554 </v>
   <v>       0.21923741       0.97542556       0.57266409 </v>
   <v>       0.20367734       0.99159457       0.92125136 </v>
   <v>       0.65287499       0.60938344       0.03998738 </v>
   <v>       0.85612869       0.71385139       0.66996915 </v>
   <v>       0.53872931       0.67592832       0.57929945 </v>
   <v>       0.88778067       0.17958058       0.76412912 </v>
   <v>       0.28127738       0.04125843       0.13397825 </v>
   <v>       0.46776657       0.69892885       0.74815819 </v>
   <v>       0.75190091       0.46995535       0.40256051 </v>
   <v>       0.75369236       0.28604085       0.79288477 </v>
   <v>       0.45648917       0.68842686       0.97385844 </v>
   <v>       0.71922448       0.92650343       0.37282843 </v>
   <v>       0.46519226       0.22436865       0.69137814 </v>
   <v>       0.27684816       0.53831571       0.40579107 </v>
   <v>       0.85711959       0.90999721       0.35354374 </v>
   <v>       0.79540106       0.64893530       0.73851106 </v>
   <v>       0.13123576       0.97646496       0.75862118 </v>
   <v>       0.52336190       0.95484265       0.96705427 </v>
   <v>       0.31247538       0.49981008       0.19359136 </v>
   <v>       0.40482923       0.32680954       0.32077786 </v>
   <v>       0.17457109       0.51453345       0.57236718 </v>
   <v>       0.72324398       0.72455108       0.02650924 </v>
   <v>       0.60350633       0.58204593       0.13948190 </v>
   <v>       0.29454717       0.94218898       0.02843178 </v>
   <v>       0.83261182       0.39766035       0.45411806 </v>
   <v>       0.08457998       0.80598880       0.94626644 </v>
   <v>       0.38501097       0.68430848       0.82590584 </v>
   <v>       0.97067113       0.30970978       0.17589176 </v>
   <v>       0.98871597       0.81057357       0.97608686 </v>
   <v>       0.56367417       0.67564186       0.79860037 </v>
   <v>       0.20560210       0.41824413       0.89153699 </v>
   <v>       0.87089203       0.29169537       0.75805763 </v>
   <v>       0.25621205       0.53607100       0.76859176 </v>
   <v>       0.25994429       0.07480765       0.54174678 </v>
   <v>       0.13089991       0.91520385       0.57131734 </v>
   <v>       0.72426279       0.10919055       0.42538543 </v>
   <v>       0.43135129       0.78518812       0.03483166 </v>
   <v>       0.39896504       0.04289231       0.16453411 </v>
   <v>       0.90764579       0.32026359       0.03097410 </v>
   <v>       0.63306268       0.61088857       0.60300331 </v>
   <v>       0.03888567       0.57949817       0.43261012 </v>
   <v>       0.46420084       0.95973535       0.45059784 </v>
   <v>       0.57139538       0.67631693       0.97777775 </v>
   <v>       0.41009481       0.29107581       0.10064540 </v>
   <v>       0.76508283       0.30754393       0.17875903 </v>
   <v>       0.02656160       0.54405016       0.11625153 </v>
   <v>       0.18260046       0.01028513       0.20524747 </v>
   <v>       0.45540223       0.83451531       0.76099970 </v>
   <v>       0.30319413       0.13248908       0.35847086 </v>
   <v>       0.31903693       0.35099672       0.74223876 </v>
   <v>       0.55022682       0.97199498       0.64671521 </v>
   <v>       0.69192636       0.94807901       0.16479138 </v>
   <v>       0.05240176       0.44047476       0.29273839 </v>
   <v>       0.26420928       0.80400825       0.34337143 </v>
   <v>       0.37526627       0.49700607       0.55096176 </v>
   <v>       0.14965294       0.37304638       0.10281696 </v>
   <v>       0.53886616       0.36048716       0.58021037 </v>
   <v>       0.77504115       0.17297426       0.84525017 </v>
   <v>       0.65057266       0.45005768       0.35219853 </v>
   <v>       0.43172667       0.68249892       0.62569081 </v>
   <v>       0.70979310       0.49217105       0.02372576 </v>
   <v>       0.85838653       0.69256643       0.54005307 </v>
   <v>       0.75818711       0.56656333       0.43164117 </v>
   <v>       0.87786086       0.47768869       0.19333187 </v>
   <v>       0.73969259       0.79913278       0.34126080 </v>
   <v>       0.09177230       0.04988387       0.98130532 </v>
   <v>       0.65101927       0.90338305       0.78889143 </v>
   <v>       0.59154007       0.78718913       0.62780522 </v>
   <v>       0.39173533       0.38516510       0.89027863 </v>
   <v>       0.08199901       0.80796127       0.30282783 </v>
   <v>       0.24453351       0.88179640       0.89532929 </v>
   <v>       0.18824530       0.82885587       0.71574869 </v>
   <v>       0.75929051       0.04554599       0.16855263 </v>
   <v>       0.25145211       0.14782626       0.09757967 </v>
   <v>       0.58211957       0.26810852       0.22803628 </v>
   <v>       0.63484307       0.08443004       0.89625359 </v>
   <v>       0.00818608       0.44182869       0.57874945 </v>
   <v>       0.24578650       0.33752375       0.47881973 </v>
   <v>       0.40135279       0.57026877       0.00064818 </v>
   <v>       0.56506405       0.34193842       0.99502558 </v>
   <v>       0.20876875       0.61545837       0.94272939 </v>
   <v>       0.49994059       0.66457361       0.46538181 </v>
   <v>       0.07712123       0.24350965       0.62286974 </v>
   <v>       0.84992803       0.17053891       0.65546997 </v>
   <v>       0.67454904       0.37101404       0.81111796 </v>
   <v>       0.96476995       0.70258755       0.26160656 </v>
   <v>       0.65429966       0.23451624       0.68416026 </v>
   <v>       0.34018853       0.98352967       0.74330124 </v>
   <v>       0.91203448       0.78884527       0.72699871 </v>
   <v>       0.47804217       0.82382835       0.37456748 </v>
   <v>       0.94882638       0.85433185       0.16424109 </v>
   <v>       0.95092280       0.10914510       0.83400142 </v>
  </varray>
  <varray name="velocities" >
   <v>       0.00000000       0.00000000       0.00000000 </v>
   <v>       0.00000000       0.00000000       0.00000000 </v>
   <v>       0.00000000       0.00000000       0.00000000 </v>
   <v>       0.00000000       0.00000000       0.00000000 </v>
   <v>       0.00000000       0.00000000       0.00000000 </v>
   <v>       0.00000000       0.00000000       0.00000000 </v>
   <v>       0.00000000       0.00000000       0.00000000 </v>
   <v>       0.00000000       0.00000000       0.00000000 </v>
   <v>       0.00000000       0.00000000       0.00000000 </v>
   <v>       0.00000000       0.00000000       0.00000000 </v>
   <v>       0.00000000       0.00000000       0.00000000 </v>
   <v>       0.00000000       0.00000000       0.00000000 </v>
   <v>       0.00000000       0.00000000       0.00000000 </v>
   <v>       0.00000000       0.00000000       0.00000000 </v>
   <v>       0.00000000       0.00000000       0.00000000 </v>
   <v>       0.00000000       0.00000000       0.00000000 </v>
   <v>       0.00000000       0.00000000       0.00000000 </v>
   <v>       0.00000000       0.00000000       0.00000000 </v>
   <v>       0.00000000       0.00000000       0.00000000 </v>
   <v>       0.00000000       0.00000000       0.00000000 </v>
   <v>       0.00000000       0.00000000       0.00000000 </v>
   <v>       0.00000000       0.00000000       0.00000000 </v>
   <v>       0.00000000       0.00000000       0.00000000 </v>
   <v>       0.00000000       0.00000000       0.00000000 </v>
   <v>       0.00000000       0.00000000       0.00000000 </v>
   <v>       0.00000000       0.00000000       0.00000000 </v>
   <v>       0.00000000       0.00000000       0.00000000 </v>
   <v>       0.00000000       0.00000000       0.00000000 </v>
   <v>       0.00000000       0.00000000       0.00000000 </v>
   <v>       0.00000000       0.00000000       0.00000000 </v>
   <v>       0.00000000       0.00000000       0.00000000 </v>
   <v>       0.00000000       0.00000000       0.00000000 </v>
   <v>       0.00000000       0.00000000       0.00000000 </v>
   <v>       0.00000000       0.00000000       0.00000000 </v>
   <v>       0.00000000       0.00000000       0.00000000 </v>
   <v>       0.00000000       0.00000000       0.00000000 </v>
   <v>       0.00000000       0.00000000       0.00000000 </v>
   <v>       0.00000000       0.00000000       0.00000000 </v>
   <v>       0.00000000       0.00000000       0.00000000 </v>
   <v>       0.00000000       0.00000000       0.00000000 </v>
   <v>       0.00000000       0.00000000       0.00000000 </v>
   <v>       0.00000000       0.00000000       0.00000000 </v>
   <v>       0.00000000       0.00000000       0.00000000 </v>
   <v>       0.00000000       0.00000000       0.00000000 </v>
   <v>       0.00000000       0.00000000       0.00000000 </v>
   <v>       0.00000000       0.00000000       0.00000000 </v>
   <v>       0.00000000       0.00000000       0.00000000 </v>
   <v>       0.00000000       0.00000000       0.00000000 </v>
   <v>       0.00000000       0.00000000       0.00000000 </v>
   <v>       0.00000000       0.00000000       0.00000000 </v>
   <v>       0.00000000       0.00000000       0.00000000 </v>
   <v>       0.00000000       0.00000000       0.00000000 </v>
   <v>       0.00000000       0.00000000       0.00000000 </v>
   <v>       0.00000000       0.00000000       0.00000000 </v>
   <v>       0.00000000       0.00000000       0.00000000 </v>
   <v>       0.00000000       0.00000000       0.00000000 </v>
   <v>       0.00000000       0.00000000       0.00000000 </v>
   <v>       0.00000000       0.00000000       0.00000000 </v>
   <v>       0.00000000       0.00000000       0.00000000 </v>
   <v>       0.00000000       0.00000000       0.00000000 </v>
   <v>       0.00000000       0.00000000       0.00000000 </v>
   <v>       0.00000000       0.00000000       0.00000000 </v>
   <v>       0.00000000       0.00000000       0.00000000 </v>
   <v>       0.00000000       0.00000000       0.00000000 </v>
   <v>       0.00000000       0.00000000       0.00000000 </v>
   <v>       0.00000000       0.00000000       0.00000000 </v>
   <v>       0.00000000       0.00000000       0.00000000 </v>
   <v>       0.00000000       0.00000000       0.00000000 </v>
   <v>       0.00000000       0.00000000       0.00000000 </v>
   <v>       0.00000000       0.00000000       0.00000000 </v>
   <v>       0.00000000       0.00000000       0.00000000 </v>
   <v>       0.00000000       0.00000000       0.00000000 </v>
   <v>       0.00000000       0.00000000       0.00000000 </v>
   <v>       0.00000000       0.00000000       0.00000000 </v>
   <v>       0.00000000       0.00000000       0.00000000 </v>
   <v>       0.00000000       0.00000000       0.00000000 </v>
   <v>       0.00000000       0.00000000       0.00000000 </v>
   <v>       0.00000000       0.00000000       0.00000000 </v>
   <v>       0.00000000       0.00000000       0.00000000 </v>
   <v>       0.00000000       0.00000000       0.00000000 </v>
   <v>       0.00000000       0.00000000       0.00000000 </v>
   <v>       0.00000000       0.00000000       0.00000000 </v>
   <v>       0.00000000       0.00000000       0.00000000 </v>
   <v>       0.00000000       0.00000000       0.00000000 </v>
   <v>       0.00000000       0.00000000       0.00000000 </v>
   <v>       0.00000000       0.00000000       0.00000000 </v>
   <v>       0.00000000       0.00000000       0.00000000 </v>
   <v>       0.00000000       0.00000000       0.00000000 </v>
   <v>       0.00000000       0.00000000       0.00000000 </v>
   <v>       0.00000000       0.00000000       0.00000000 </v>
   <v>       0.00000000       0.00000000       0.00000000 </v>
   <v>       0.00000000       0.00000000       0.00000000 </v>
   <v>       0.00000000       0.00000000       0.00000000 </v>
   <v>       0.00000000       0.00000000       0.00000000 </v>
   <v>       0.00000000       0.00000000       0.00000000 </v>
   <v>       0.00000000       0.00000000       0.00000000 </v>
   <v>       0.00000000       0.00000000       0.00000000 </v>
   <v>       0.00000000       0.00000000       0.00000000 </v>
   <v>       0.00000000       0.00000000       0.00000000 </v>
   <v>       0.00000000       0.00000000       0.00000000 </v>
   <v>       0.00000000       0.00000000       0.00000000 </v>
   <v>       0.00000000       0.00000000       0.00000000 </v>
   <v>       0.00000000       0.00000000       0.00000000 </v>
   <v>       0.00000000       0.00000000       0.00000000 </v>
   <v>       0.00000000       0.00000000       0.00000000 </v>
   <v>       0.00000000       0.00000000       0.00000000 </v>
   <v>       0.00000000       0.00000000       0.00000000 </v>
   <v>       0.00000000       0.00000000       0.00000000 </v>
   <v>       0.00000000       0.00000000       0.00000000 </v>
   <v>       0.00000000       0.00000000       0.00000000 </v>
   <v>       0.00000000       0.00000000       0.00000000 </v>
   <v>       0.00000000       0.00000000       0.00000000 </v>
   <v>       0.00000000       0.00000000       0.00000000 </v>
   <v>       0.00000000       0.00000000       0.00000000 </v>
   <v>       0.00000000       0.00000000       0.00000000 </v>
   <v>       0.00000000       0.00000000       0.00000000 </v>
   <v>       0.00000000       0.00000000       0.00000000 </v>
   <v>       0.00000000       0.00000000       0.00000000 </v>
   <v>       0.00000000       0.00000000       0.00000000 </v>
   <v>       0.00000000       0.00000000       0.00000000 </v>
   <v>       0.00000000       0.00000000       0.00000000 </v>
   <v>       0.00000000       0.00000000       0.00000000 </v>
   <v>       0.00000000       0.00000000       0.00000000 </v>
   <v>       0.00000000       0.00000000       0.00000000 </v>
   <v>       0.00000000       0.00000000       0.00000000 </v>
   <v>       0.00000000       0.00000000       0.00000000 </v>
   <v>       0.00000000       0.00000000       0.00000000 </v>
   <v>       0.00000000       0.00000000       0.00000000 </v>
   <v>       0.00000000       0.00000000       0.00000000 </v>
   <v>       0.00000000       0.00000000       0.00000000 </v>
   <v>       0.00000000       0.00000000       0.00000000 </v>
   <v>       0.00000000       0.00000000       0.00000000 </v>
   <v>       0.00000000       0.00000000       0.00000000 </v>
   <v>       0.00000000       0.00000000       0.00000000 </v>
   <v>       0.00000000       0.00000000       0.00000000 </v>
  </varray>
 </structure>
 <calculation>
  <scstep>
   <time name="dav">   53.90   53.91</time>
   <time name="total">   54.50   54.50</time>
   <energy>
    <i name="alphaZ">   1736.69897902 </i>
    <i name="ewald"> -31470.31173752 </i>
    <i name="hartreedc"> -28135.72204474 </i>
    <i name="XCdc">   3104.68943872 </i>
    <i name="pawpsdc">  50594.51003143 </i>
    <i name="pawaedc"> -49994.65612350 </i>
    <i name="eentropy">     -0.04687951 </i>
    <i name="bandstr">  -1704.39481809 </i>
    <i name="atom">  64968.54023382 </i>
    <i name="e_fr_energy">   9099.30707964 </i>
    <i name="e_wo_entrp">   9099.35395915 </i>
    <i name="e_0_energy">   9099.33051939 </i>
   </energy>
  </scstep>
  <scstep>
   <time name="dav">   64.29   64.31</time>
   <time name="total">   64.29   64.31</time>
   <energy>
    <i name="e_fr_energy">    113.52481024 </i>
    <i name="e_wo_entrp">    113.53344465 </i>
    <i name="e_0_energy">    113.52912744 </i>
   </energy>
  </scstep>
  <scstep>
   <time name="dav">   64.17   64.19</time>
   <time name="total">   64.17   64.19</time>
   <energy>
    <i name="e_fr_energy">   -954.46172960 </i>
    <i name="e_wo_entrp">   -954.42055156 </i>
    <i name="e_0_energy">   -954.44114058 </i>
   </energy>
  </scstep>
  <scstep>
   <time name="dav">   68.86   68.87</time>
   <time name="total">   68.86   68.88</time>
   <energy>
    <i name="e_fr_energy">  -1004.98944842 </i>
    <i name="e_wo_entrp">  -1004.93549304 </i>
    <i name="e_0_energy">  -1004.96247073 </i>
   </energy>
  </scstep>
  <scstep>
   <time name="dav">   86.75   86.77</time>
   <time name="total">   89.43   89.44</time>
   <energy>
    <i name="e_fr_energy">  -1011.43661058 </i>
    <i name="e_wo_entrp">  -1011.38311442 </i>
    <i name="e_0_energy">  -1011.40986250 </i>
   </energy>
  </scstep>
  <scstep>
   <time name="dav">   62.74   62.73</time>
   <time name="total">   65.98   65.99</time>
   <energy>
    <i name="e_fr_energy">   -873.83124224 </i>
    <i name="e_wo_entrp">   -873.80316969 </i>
    <i name="e_0_energy">   -873.81720597 </i>
   </energy>
  </scstep>
  <scstep>
   <time name="dav">   64.30   64.30</time>
   <time name="total">   67.52   67.53</time>
   <energy>
    <i name="e_fr_energy">   -875.19405395 </i>
    <i name="e_wo_entrp">   -875.14256737 </i>
    <i name="e_0_energy">   -875.16831066 </i>
   </energy>
  </scstep>
  <scstep>
   <time name="dav">   72.45   72.45</time>
   <time name="total">   75.75   75.76</time>
   <energy>
    <i name="e_fr_energy">   -851.32387194 </i>
    <i name="e_wo_entrp">   -851.30178307 </i>
    <i name="e_0_energy">   -851.31282750 </i>
   </energy>
  </scstep>
  <scstep>
   <time name="dav">   69.75   69.75</time>
   <time name="total">   73.02   73.04</time>
   <energy>
    <i name="e_fr_energy">   -841.88418247 </i>
    <i name="e_wo_entrp">   -841.82560345 </i>
    <i name="e_0_energy">   -841.85489296 </i>
   </energy>
  </scstep>
  <scstep>
   <time name="dav">   67.33   67.33</time>
   <time name="total">   70.56   70.58</time>
   <energy>
    <i name="e_fr_energy">   -843.50884153 </i>
    <i name="e_wo_entrp">   -843.48754678 </i>
    <i name="e_0_energy">   -843.49819416 </i>
   </energy>
  </scstep>
  <scstep>
   <time name="dav">   73.51   73.51</time>
   <time name="total">   76.80   76.82</time>
   <energy>
    <i name="e_fr_energy">   -840.15910122 </i>
    <i name="e_wo_entrp">   -840.11624466 </i>
    <i name="e_0_energy">   -840.13767294 </i>
   </energy>
  </scstep>
  <scstep>
   <time name="dav">   65.31   65.31</time>
   <time name="total">   68.52   68.53</time>
   <energy>
    <i name="e_fr_energy">   -840.32344192 </i>
    <i name="e_wo_entrp">   -840.26463594 </i>
    <i name="e_0_energy">   -840.29403893 </i>
   </energy>
  </scstep>
  <scstep>
   <time name="dav">   69.27   69.27</time>
   <time name="total">   72.56   72.58</time>
   <energy>
    <i name="e_fr_energy">   -840.13960955 </i>
    <i name="e_wo_entrp">   -840.12011995 </i>
    <i name="e_0_energy">   -840.12986475 </i>
   </energy>
  </scstep>
  <scstep>
   <time name="dav">   71.85   71.85</time>
   <time name="total">   75.13   75.15</time>
   <energy>
    <i name="e_fr_energy">   -839.63434209 </i>
    <i name="e_wo_entrp">   -839.60782179 </i>
    <i name="e_0_energy">   -839.62108194 </i>
   </energy>
  </scstep>
  <scstep>
   <time name="dav">   67.45   67.45</time>
   <time name="total">   70.68   70.70</time>
   <energy>
    <i name="e_fr_energy">   -838.97178482 </i>
    <i name="e_wo_entrp">   -838.94119642 </i>
    <i name="e_0_energy">   -838.95649062 </i>
   </energy>
  </scstep>
  <scstep>
   <time name="dav">   67.45   67.45</time>
   <time name="total">   70.66   70.67</time>
   <energy>
    <i name="e_fr_energy">   -838.75177502 </i>
    <i name="e_wo_entrp">   -838.69578670 </i>
    <i name="e_0_energy">   -838.72378086 </i>
   </energy>
  </scstep>
  <scstep>
   <time name="dav">   62.12   62.12</time>
   <time name="total">   65.43   65.44</time>
   <energy>
    <i name="e_fr_energy">   -838.65338173 </i>
    <i name="e_wo_entrp">   -838.61744115 </i>
    <i name="e_0_energy">   -838.63541144 </i>
   </energy>
  </scstep>
  <scstep>
   <time name="dav">   64.92   64.92</time>
   <time name="total">   68.20   68.22</time>
   <energy>
    <i name="e_fr_energy">   -838.65622570 </i>
    <i name="e_wo_entrp">   -838.59896200 </i>
    <i name="e_0_energy">   -838.62759385 </i>
   </energy>
  </scstep>
  <scstep>
   <time name="dav">   70.49   70.49</time>
   <time name="total">   73.74   73.76</time>
   <energy>
    <i name="e_fr_energy">   -838.63286508 </i>
    <i name="e_wo_entrp">   -838.58771603 </i>
    <i name="e_0_energy">   -838.61029056 </i>
   </energy>
  </scstep>
  <scstep>
   <time name="dav">   65.72   65.71</time>
   <time name="total">   68.90   68.92</time>
   <energy>
    <i name="e_fr_energy">   -838.60312608 </i>
    <i name="e_wo_entrp">   -838.55520785 </i>
    <i name="e_0_energy">   -838.57916697 </i>
   </energy>
  </scstep>
  <scstep>
   <time name="dav">   68.74   68.74</time>
   <time name="total">   72.01   72.02</time>
   <energy>
    <i name="e_fr_energy">   -838.59747889 </i>
    <i name="e_wo_entrp">   -838.54856651 </i>
    <i name="e_0_energy">   -838.57302270 </i>
   </energy>
  </scstep>
  <scstep>
   <time name="dav">   60.55   60.55</time>
   <time name="total">   63.77   63.79</time>
   <energy>
    <i name="e_fr_energy">   -838.60329236 </i>
    <i name="e_wo_entrp">   -838.55425026 </i>
    <i name="e_0_energy">   -838.57877131 </i>
   </energy>
  </scstep>
  <scstep>
   <time name="dav">   65.55   65.54</time>
   <time name="total">   68.72   68.74</time>
   <energy>
    <i name="e_fr_energy">   -838.59729518 </i>
    <i name="e_wo_entrp">   -838.53280935 </i>
    <i name="e_0_energy">   -838.56505226 </i>
   </energy>
  </scstep>
  <scstep>
   <time name="dav">   63.36   63.36</time>
   <time name="total">   66.61   66.62</time>
   <energy>
    <i name="e_fr_energy">   -838.58099363 </i>
    <i name="e_wo_entrp">   -838.51956296 </i>
    <i name="e_0_energy">   -838.55027830 </i>
   </energy>
  </scstep>
  <scstep>
   <time name="dav">   71.44   71.44</time>
   <time name="total">   74.71   74.73</time>
   <energy>
    <i name="e_fr_energy">   -838.57267483 </i>
    <i name="e_wo_entrp">   -838.50866339 </i>
    <i name="e_0_energy">   -838.54066911 </i>
   </energy>
  </scstep>
  <scstep>
   <time name="dav">   61.14   61.14</time>
   <time name="total">   64.33   64.34</time>
   <energy>
    <i name="e_fr_energy">   -838.57754349 </i>
    <i name="e_wo_entrp">   -838.51500443 </i>
    <i name="e_0_energy">   -838.54627396 </i>
   </energy>
  </scstep>
  <scstep>
   <time name="dav">   62.83   62.83</time>
   <time name="total">   66.05   66.07</time>
   <energy>
    <i name="e_fr_energy">   -838.57707434 </i>
    <i name="e_wo_entrp">   -838.51375706 </i>
    <i name="e_0_energy">   -838.54541570 </i>
   </energy>
  </scstep>
  <scstep>
   <time name="dav">   67.79   67.78</time>
   <time name="total">   71.01   71.03</time>
   <energy>
    <i name="e_fr_energy">   -838.57698626 </i>
    <i name="e_wo_entrp">   -838.51289051 </i>
    <i name="e_0_energy">   -838.54493838 </i>
   </energy>
  </scstep>
  <scstep>
   <time name="dav">   57.61   57.61</time>
   <time name="total">   60.85   60.86</time>
   <energy>
    <i name="e_fr_energy">   -838.57697838 </i>
    <i name="e_wo_entrp">   -838.51439185 </i>
    <i name="e_0_energy">   -838.54568511 </i>
   </energy>
  </scstep>
  <scstep>
   <time name="dav">   58.86   58.86</time>
   <time name="total">   61.98   61.99</time>
   <energy>
    <i name="e_fr_energy">   -838.57741186 </i>
    <i name="e_wo_entrp">   -838.51417719 </i>
    <i name="e_0_energy">   -838.54579452 </i>
   </energy>
  </scstep>
  <scstep>
   <time name="dav">   66.52   66.52</time>
   <time name="total">   69.71   69.72</time>
   <energy>
    <i name="e_fr_energy">   -838.57714105 </i>
    <i name="e_wo_entrp">   -838.51479742 </i>
    <i name="e_0_energy">   -838.54596923 </i>
   </energy>
  </scstep>
  <scstep>
   <time name="dav">   57.94   57.94</time>
   <time name="total">   61.13   61.14</time>
   <energy>
    <i name="e_fr_energy">   -838.57720390 </i>
    <i name="e_wo_entrp">   -838.51556047 </i>
    <i name="e_0_energy">   -838.54638218 </i>
   </energy>
  </scstep>
  <scstep>
   <time name="dav">   61.16   61.16</time>
   <time name="total">   64.33   64.35</time>
   <energy>
    <i name="e_fr_energy">   -838.57716893 </i>
    <i name="e_wo_entrp">   -838.51511529 </i>
    <i name="e_0_energy">   -838.54614211 </i>
   </energy>
  </scstep>
  <scstep>
   <time name="dav">   54.40   54.40</time>
   <time name="total">   57.57   57.58</time>
   <energy>
    <i name="e_fr_energy">   -838.57714781 </i>
    <i name="e_wo_entrp">   -838.51464558 </i>
    <i name="e_0_energy">   -838.54589670 </i>
   </energy>
  </scstep>
  <scstep>
   <time name="dav">   55.95   55.95</time>
   <time name="total">   59.12   59.12</time>
   <energy>
    <i name="e_fr_energy">   -838.57716272 </i>
    <i name="e_wo_entrp">   -838.51483948 </i>
    <i name="e_0_energy">   -838.54600110 </i>
   </energy>
  </scstep>
  <scstep>
   <time name="dav">   48.54   48.54</time>
   <time name="total">   51.74   51.76</time>
   <energy>
    <i name="e_fr_energy">   -838.57715557 </i>
    <i name="e_wo_entrp">   -838.51478365 </i>
    <i name="e_0_energy">   -838.54596961 </i>
   </energy>
  </scstep>
  <scstep>
   <time name="dav">   46.25   46.25</time>
   <time name="total">   49.35   49.35</time>
   <energy>
    <i name="e_fr_energy">   -838.57715686 </i>
    <i name="e_wo_entrp">   -838.51470722 </i>
    <i name="e_0_energy">   -838.54593204 </i>
   </energy>
  </scstep>
  <scstep>
   <time name="dav">   41.43   41.43</time>
   <time name="total">   42.02   42.04</time>
   <energy>
    <i name="alphaZ">   1736.69897902 </i>
    <i name="ewald"> -31470.31173752 </i>
    <i name="hartreedc"> -30045.31880551 </i>
    <i name="XCdc">   3208.42795031 </i>
    <i name="pawpsdc">  82321.97418339 </i>
    <i name="pawaedc"> -81979.93560274 </i>
    <i name="eentropy">     -0.06244318 </i>
    <i name="bandstr">  -9578.58991412 </i>
    <i name="atom">  64968.54023382 </i>
    <i name="e_fr_energy">   -838.57715653 </i>
    <i name="e_wo_entrp">   -838.51471335 </i>
    <i name="e_0_energy">   -838.54593494 </i>
   </energy>
  </scstep>
  <structure>
   <crystal>
    <varray name="basis" >
     <v>      14.01277600       0.00000000       0.00000000 </v>
     <v>       0.00000000      14.01277600       0.00000000 </v>
     <v>       0.00000000       0.00000000      14.01277600 </v>
    </varray>
    <i name="volume">   2751.51914558 </i>
    <varray name="rec_basis" >
     <v>       0.07136345       0.00000000       0.00000000 </v>
     <v>       0.00000000       0.07136345       0.00000000 </v>
     <v>       0.00000000       0.00000000       0.07136345 </v>
    </varray>
   </crystal>
   <varray name="positions" >
    <v>       0.48922756       0.52021310       0.43199952 </v>
    <v>       0.32216057       0.19160423       0.77203432 </v>
    <v>       0.68099484       0.06296698       0.77012137 </v>
    <v>       0.30262573       0.37802386       0.09749619 </v>
    <v>       0.67421176       0.75475897       0.86955028 </v>
    <v>       0.91286688       0.66123727       0.12773097 </v>
    <v>       0.58392043       0.87998740       0.27675700 </v>
    <v>       0.96727361       0.23738230       0.53861731 </v>
    <v>       0.64371345       0.40351188       0.10185835 </v>
    <v>       0.29796996       0.64722739       0.50581849 </v>
    <v>       0.02735459       0.74745508       0.54433019 </v>
    <v>       0.98861129       0.89645087       0.78970871 </v>
    <v>       0.08901272       0.46533286       0.99190157 </v>
    <v>       0.92040014       0.96267937       0.06589411 </v>
    <v>       0.06715418       0.19634219       0.02920551 </v>
    <v>       0.47237762       0.00783174       0.77899650 </v>
    <v>       0.66220023       0.97237067       0.03056159 </v>
    <v>       0.21111637       0.82005524       0.03963925 </v>
    <v>       0.68855274       0.63356974       0.32700792 </v>
    <v>       0.69149686       0.16398860       0.19505842 </v>
    <v>       0.77409245       0.38700598       0.94654768 </v>
    <v>       0.73269808       0.49199773       0.62104856 </v>
    <v>       0.23725647       0.41219138       0.30781583 </v>
    <v>       0.55433945       0.21545353       0.46474061 </v>
    <v>       0.61888667       0.98806931       0.49507180 </v>
    <v>       0.93000468       0.54639770       0.33286135 </v>
    <v>       0.18741790       0.33530482       0.63823178 </v>
    <v>       0.46662055       0.28804320       0.22241556 </v>
    <v>       0.44453382       0.91140362       0.06361723 </v>
    <v>       0.86163463       0.35919805       0.14805111 </v>
    <v>       0.03043310       0.44142183       0.17951731 </v>
    <v>       0.07300556       0.50915899       0.51084996 </v>
    <v>       0.28346262       0.46158086       0.47844019 </v>
    <v>       0.19052540       0.88385645       0.31985505 </v>
    <v>       0.29712387       0.41300778       0.82997087 </v>
    <v>       0.28399510       0.61454194       0.84119648 </v>
    <v>       0.57182012       0.87647715       0.70173555 </v>
    <v>       0.40818498       0.89776551       0.36988886 </v>
    <v>       0.27878146       0.03461171       0.40685126 </v>
    <v>       0.93762274       0.80239319       0.26656326 </v>
    <v>       0.46731203       0.39147015       0.99568710 </v>
    <v>       0.55977458       0.28782247       0.67335013 </v>
    <v>       0.24495140       0.92738664       0.74860554 </v>
    <v>       0.21923741       0.97542556       0.57266409 </v>
    <v>       0.20367734       0.99159457       0.92125136 </v>
    <v>       0.65287499       0.60938344       0.03998738 </v>
    <v>       0.85612869       0.71385139       0.66996915 </v>
    <v>       0.53872931       0.67592832       0.57929945 </v>
    <v>       0.88778067       0.17958058       0.76412912 </v>
    <v>       0.28127738       0.04125843       0.13397825 </v>
    <v>       0.46776657       0.69892885       0.74815819 </v>
    <v>       0.75190091       0.46995535       0.40256051 </v>
    <v>       0.75369236       0.28604085       0.79288477 </v>
    <v>       0.45648917       0.68842686       0.97385844 </v>
    <v>       0.71922448       0.92650343       0.37282843 </v>
    <v>       0.46519226       0.22436865       0.69137814 </v>
    <v>       0.27684816       0.53831571       0.40579107 </v>
    <v>       0.85711959       0.90999721       0.35354374 </v>
    <v>       0.79540106       0.64893530       0.73851106 </v>
    <v>       0.13123576       0.97646496       0.75862118 </v>
    <v>       0.52336190       0.95484265       0.96705427 </v>
    <v>       0.31247538       0.49981008       0.19359136 </v>
    <v>       0.40482923       0.32680954       0.32077786 </v>
    <v>       0.17457109       0.51453345       0.57236718 </v>
    <v>       0.72324398       0.72455108       0.02650924 </v>
    <v>       0.60350633       0.58204593       0.13948190 </v>
    <v>       0.29454717       0.94218898       0.02843178 </v>
    <v>       0.83261182       0.39766035       0.45411806 </v>
    <v>       0.08457998       0.80598880       0.94626644 </v>
    <v>       0.38501097       0.68430848       0.82590584 </v>
    <v>       0.97067113       0.30970978       0.17589176 </v>
    <v>       0.98871597       0.81057357       0.97608686 </v>
    <v>       0.56367417       0.67564186       0.79860037 </v>
    <v>       0.20560210       0.41824413       0.89153699 </v>
    <v>       0.87089203       0.29169537       0.75805763 </v>
    <v>       0.25621205       0.53607100       0.76859176 </v>
    <v>       0.25994429       0.07480765       0.54174678 </v>
    <v>       0.13089991       0.91520385       0.57131734 </v>
    <v>       0.72426279       0.10919055       0.42538543 </v>
    <v>       0.43135129       0.78518812       0.03483166 </v>
    <v>       0.39896504       0.04289231       0.16453411 </v>
    <v>       0.90764579       0.32026359       0.03097410 </v>
    <v>       0.63306268       0.61088857       0.60300331 </v>
    <v>       0.03888567       0.57949817       0.43261012 </v>
    <v>       0.46420084       0.95973535       0.45059784 </v>
    <v>       0.57139538       0.67631693       0.97777775 </v>
    <v>       0.41009481       0.29107581       0.10064540 </v>
    <v>       0.76508283       0.30754393       0.17875903 </v>
    <v>       0.02656160       0.54405016       0.11625153 </v>
    <v>       0.18260046       0.01028513       0.20524747 </v>
    <v>       0.45540223       0.83451531       0.76099970 </v>
    <v>       0.30319413       0.13248908       0.35847086 </v>
    <v>       0.31903693       0.35099672       0.74223876 </v>
    <v>       0.55022682       0.97199498       0.64671521 </v>
    <v>       0.69192636       0.94807901       0.16479138 </v>
    <v>       0.05240176       0.44047476       0.29273839 </v>
    <v>       0.26420928       0.80400825       0.34337143 </v>
    <v>       0.37526627       0.49700607       0.55096176 </v>
    <v>       0.14965294       0.37304638       0.10281696 </v>
    <v>       0.53886616       0.36048716       0.58021037 </v>
    <v>       0.77504115       0.17297426       0.84525017 </v>
    <v>       0.65057266       0.45005768       0.35219853 </v>
    <v>       0.43172667       0.68249892       0.62569081 </v>
    <v>       0.70979310       0.49217105       0.02372576 </v>
    <v>       0.85838653       0.69256643       0.54005307 </v>
    <v>       0.75818711       0.56656333       0.43164117 </v>
    <v>       0.87786086       0.47768869       0.19333187 </v>
    <v>       0.73969259       0.79913278       0.34126080 </v>
    <v>       0.09177230       0.04988387       0.98130532 </v>
    <v>       0.65101927       0.90338305       0.78889143 </v>
    <v>       0.59154007       0.78718913       0.62780522 </v>
    <v>       0.39173533       0.38516510       0.89027863 </v>
    <v>       0.08199901       0.80796127       0.30282783 </v>
    <v>       0.24453351       0.88179640       0.89532929 </v>
    <v>       0.18824530       0.82885587       0.71574869 </v>
    <v>       0.75929051       0.04554599       0.16855263 </v>
    <v>       0.25145211       0.14782626       0.09757967 </v>
    <v>       0.58211957       0.26810852       0.22803628 </v>
    <v>       0.63484307       0.08443004       0.89625359 </v>
    <v>       0.00818608       0.44182869       0.57874945 </v>
    <v>       0.24578650       0.33752375       0.47881973 </v>
    <v>       0.40135279       0.57026877       0.00064818 </v>
    <v>       0.56506405       0.34193842       0.99502558 </v>
    <v>       0.20876875       0.61545837       0.94272939 </v>
    <v>       0.49994059       0.66457361       0.46538181 </v>
    <v>       0.07712123       0.24350965       0.62286974 </v>
    <v>       0.84992803       0.17053891       0.65546997 </v>
    <v>       0.67454904       0.37101404       0.81111796 </v>
    <v>       0.96476995       0.70258755       0.26160656 </v>
    <v>       0.65429966       0.23451624       0.68416026 </v>
    <v>       0.34018853       0.98352967       0.74330124 </v>
    <v>       0.91203448       0.78884527       0.72699871 </v>
    <v>       0.47804217       0.82382835       0.37456748 </v>
    <v>       0.94882638       0.85433185       0.16424109 </v>
    <v>       0.95092280       0.10914510       0.83400142 </v>
   </varray>
  </structure>
  <varray name="forces" >
   <v>       0.02722834      -1.82674903      -0.06466053 </v>
   <v>       0.69416287       0.48008011      -0.54999607 </v>
   <v>       1.49254834       0.34784084      -2.06815096 </v>
   <v>      -3.92475546       3.27580404      -0.61799582 </v>
   <v>       0.62614886      -0.17765251      -0.25996842 </v>
   <v>       0.08584517      -0.23747173      -2.81049833 </v>
   <v>       2.45243494      -0.11874664      -0.23522676 </v>
   <v>      -1.58636704       0.21823028       0.12577264 </v>
   <v>      -2.32469743      -1.49605465       6.39762000 </v>
   <v>       1.21451438       1.72646249       1.17842477 </v>
   <v>      -0.54363428       0.84064832      -0.90627869 </v>
   <v>       2.63559379       1.73615271       1.72963822 </v>
   <v>       1.63704344       0.64940821      -1.32498137 </v>
   <v>       1.17615235      -0.53894639       0.23608008 </v>
   <v>       0.84442862       0.37390352       0.82464397 </v>
   <v>       1.66652304       0.40332600       2.98988218 </v>
   <v>      -1.02325371       1.37479666      -4.22509639 </v>
   <v>      -0.71234316      -2.48397485       0.01119251 </v>
   <v>      -2.26835918       3.40874178      -2.02365926 </v>
   <v>      -0.42036024       2.34938815       1.79323134 </v>
   <v>       1.56752822      -0.49518513      -0.21792406 </v>
   <v>      -0.22312872       1.60083060       0.25291974 </v>
   <v>      -0.51722786      -0.34064529      -2.51911227 </v>
   <v>       0.47924548       0.76447378      -0.62106615 </v>
   <v>       1.01849622      -0.59258453      -0.48061097 </v>
   <v>       1.04390832      -0.33204200       0.27793062 </v>
   <v>      -0.57498816       1.33253504      -1.16728137 </v>
   <v>      -1.98545640       0.85646419      -0.14976945 </v>
   <v>       0.56366157       1.28150446      -2.61141137 </v>
   <v>       4.89110999      -1.53515276      -0.75174461 </v>
   <v>       0.87967350      -3.10330398       0.19773786 </v>
   <v>      -0.71283362      -2.88126906       4.35029390 </v>
   <v>       0.88893278      -7.36576013      10.17938699 </v>
   <v>      -4.31632565       0.85243586      -1.04673571 </v>
   <v>      -0.84574598       2.66488271       0.70115507 </v>
   <v>      -2.54315324       1.64273378       6.41628945 </v>
   <v>      -0.47475294      -4.38681760       1.13156589 </v>
   <v>      -7.21074977       7.29154205       1.23575836 </v>
   <v>       0.41720325       0.78543692      -0.51227031 </v>
   <v>       0.33162871      12.59617226       2.82493330 </v>
   <v>      -3.23717295       1.16459901      -1.46592170 </v>
   <v>      -4.63210459       1.67262437      -2.46129211 </v>
   <v>      -6.22373707      -4.05517593       1.54488209 </v>
   <v>       1.14789944      -0.50632892       1.31829724 </v>
   <v>      -1.47661266       1.22885324       1.08333131 </v>
   <v>       1.51551256       2.68076294       1.47268122 </v>
   <v>      -2.64655644      -3.10585613      -4.37513666 </v>
   <v>       3.42620683       1.60555677      -2.42423441 </v>
   <v>       0.81122447      -5.58936283       0.85958140 </v>
   <v>      -0.02771106       1.08027667       0.52566778 </v>
   <v>      -0.63706724       5.38468619      -1.56937907 </v>
   <v>      -0.24309489     -14.51628779      -0.77540616 </v>
   <v>      -1.52761513      -4.08731996      -2.73013201 </v>
   <v>      -2.22915647      -4.65118801       2.32451351 </v>
   <v>      -0.38263857      -1.41739427      -0.21975089 </v>
   <v>       0.03314473      -0.79380868       1.03229274 </v>
   <v>      -0.86032326       2.82299036      -5.43160665 </v>
   <v>       2.61385703      -1.79250023      -1.29989997 </v>
   <v>      -0.56399130      -0.96654451      -0.23005688 </v>
   <v>       2.24451159       1.81806022       1.50261842 </v>
   <v>      -3.07931079      -1.50353814       2.89825630 </v>
   <v>      -0.35318349      -1.52999394       0.95470298 </v>
   <v>       2.19133288      -1.02377938      -2.90961924 </v>
   <v>       1.20435360       0.67126132      -2.56955091 </v>
   <v>       0.56419443      -3.57456619       0.37816975 </v>
   <v>       0.84577556      -0.07829230       0.78002901 </v>
   <v>       1.60774955       3.89369466       3.77403489 </v>
   <v>      -2.36634297       1.89317468      -1.48298242 </v>
   <v>      -0.63075980       0.61675204      -0.50651927 </v>
   <v>      -3.40154255      -1.86727845       1.60152334 </v>
   <v>       0.18985679       3.03247824       2.10424046 </v>
   <v>      -1.27830211       0.45098398       0.06674754 </v>
   <v>       0.33342005      -1.21172333      -0.81948002 </v>
   <v>      -1.75861773      -1.55059662       1.32073649 </v>
   <v>      -1.89183227       6.47829588       2.13783845 </v>
   <v>       1.93711781      -1.95511614      -1.24861131 </v>
   <v>       0.58028413       0.82411506      -1.56925201 </v>
   <v>      -3.84635151      -2.10517130      -2.07735608 </v>
   <v>      -3.20778023       0.07507824       0.36385918 </v>
   <v>      -0.76189836       0.43016767      -0.49566360 </v>
   <v>      -1.00493299      -1.72184902      -0.82724217 </v>
[...]
       <r>    -0.0144    23.2899   806.8059 </r>
       <r>     0.1585    34.6579   812.7985 </r>
       <r>     0.3314    54.0937   822.1516 </r>
       <r>     0.5043    43.1614   829.6144 </r>
       <r>     0.6772    51.1475   838.4581 </r>
       <r>     0.8501    44.8707   846.2164 </r>
       <r>     1.0230    27.1548   850.9116 </r>
       <r>     1.1959    60.8076   861.4256 </r>
       <r>     1.3688    40.8234   868.4842 </r>
       <r>     1.5417     9.9978   870.2128 </r>
       <r>     1.7146    10.3943   872.0101 </r>
       <r>     1.8875    12.0723   874.0974 </r>
       <r>     2.0605    25.6276   878.5286 </r>
       <r>     2.2334    15.3962   881.1907 </r>
       <r>     2.4063    18.8157   884.4440 </r>
       <r>     2.5792    15.4889   887.1221 </r>
       <r>     2.7521    28.1918   891.9966 </r>
       <r>     2.9250    28.6240   896.9459 </r>
       <r>     3.0979    36.1962   903.2044 </r>
       <r>     3.2708    33.3795   908.9759 </r>
       <r>     3.4437    45.9391   916.9190 </r>
       <r>     3.6166    63.4223   927.8850 </r>
       <r>     3.7895    68.7788   939.7773 </r>
       <r>     3.9624    60.6352   950.2614 </r>
       <r>     4.1353    54.3431   959.6576 </r>
       <r>     4.3082    68.9349   971.5768 </r>
       <r>     4.4811    80.3673   985.4727 </r>
       <r>     4.6540    75.3442   998.5001 </r>
       <r>     4.8269    60.5723  1008.9734 </r>
       <r>     4.9998    72.9394  1021.5850 </r>
       <r>     5.1727    81.8137  1035.7310 </r>
       <r>     5.3456    24.6866  1039.9994 </r>
       <r>     5.5186     0.0033  1040.0000 </r>
       <r>     5.6915     0.0000  1040.0000 </r>
       <r>     5.8644     0.0000  1040.0000 </r>
       <r>     6.0373     0.0000  1040.0000 </r>
       <r>     6.2102     0.0000  1040.0000 </r>
       <r>     6.3831     0.0000  1040.0000 </r>
       <r>     6.5560     0.0000  1040.0000 </r>
       <r>     6.7289     0.0000  1040.0000 </r>
       <r>     6.9018     0.0000  1040.0000 </r>
       <r>     7.0747     0.0000  1040.0000 </r>
       <r>     7.2476     0.0000  1040.0000 </r>
       <r>     7.4205     0.0000  1040.0000 </r>
       <r>     7.5934     0.0000  1040.0000 </r>
      </set>
     </set>
    </array>
   </total>
  </dos>
 </calculation>
 <structure name="finalpos" >
  <crystal>
   <varray name="basis" >
    <v>      14.01277600       0.00000000       0.00000000 </v>
    <v>       0.00000000      14.01277600       0.00000000 </v>
    <v>       0.00000000       0.00000000      14.01277600 </v>
   </varray>
   <i name="volume">   2751.51914558 </i>
   <varray name="rec_basis" >
    <v>       0.07136345       0.00000000       0.00000000 </v>
    <v>       0.00000000       0.07136345       0.00000000 </v>
    <v>       0.00000000       0.00000000       0.07136345 </v>
   </varray>
  </crystal>
  <varray name="positions" >
   <v>       0.48922756       0.52021310       0.43199952 </v>
   <v>       0.32216057       0.19160423       0.77203432 </v>
   <v>       0.68099484       0.06296698       0.77012137 </v>
   <v>       0.30262573       0.37802386       0.09749619 </v>
   <v>       0.67421176       0.75475897       0.86955028 </v>
   <v>       0.91286688       0.66123727       0.12773097 </v>
   <v>       0.58392043       0.87998740       0.27675700 </v>
   <v>       0.96727361       0.23738230       0.53861731 </v>
   <v>       0.64371345       0.40351188       0.10185835 </v>
   <v>       0.29796996       0.64722739       0.50581849 </v>
   <v>       0.02735459       0.74745508       0.54433019 </v>
   <v>       0.98861129       0.89645087       0.78970871 </v>
   <v>       0.08901272       0.46533286       0.99190157 </v>
   <v>       0.92040014       0.96267937       0.06589411 </v>
   <v>       0.06715418       0.19634219       0.02920551 </v>
   <v>       0.47237762       0.00783174       0.77899650 </v>
   <v>       0.66220023       0.97237067       0.03056159 </v>
   <v>       0.21111637       0.82005524       0.03963925 </v>
   <v>       0.68855274       0.63356974       0.32700792 </v>
   <v>       0.69149686       0.16398860       0.19505842 </v>
   <v>       0.77409245       0.38700598       0.94654768 </v>
   <v>       0.73269808       0.49199773       0.62104856 </v>
   <v>       0.23725647       0.41219138       0.30781583 </v>
   <v>       0.55433945       0.21545353       0.46474061 </v>
   <v>       0.61888667       0.98806931       0.49507180 </v>
   <v>       0.93000468       0.54639770       0.33286135 </v>
   <v>       0.18741790       0.33530482       0.63823178 </v>
   <v>       0.46662055       0.28804320       0.22241556 </v>
   <v>       0.44453382       0.91140362       0.06361723 </v>
   <v>       0.86163463       0.35919805       0.14805111 </v>
   <v>       0.03043310       0.44142183       0.17951731 </v>
   <v>       0.07300556       0.50915899       0.51084996 </v>
   <v>       0.28346262       0.46158086       0.47844019 </v>
   <v>       0.19052540       0.88385645       0.31985505 </v>
   <v>       0.29712387       0.41300778       0.82997087 </v>
   <v>       0.28399510       0.61454194       0.84119648 </v>
   <v>       0.57182012       0.87647715       0.70173555 </v>
   <v>       0.40818498       0.89776551       0.36988886 </v>
   <v>       0.27878146       0.03461171       0.40685126 </v>
   <v>       0.93762274       0.80239319       0.26656326 </v>
   <v>       0.46731203       0.39147015       0.99568710 </v>
   <v>       0.55977458       0.28782247       0.67335013 </v>
   <v>       0.24495140       0.92738664       0.74860554 </v>
   <v>       0.21923741       0.97542556       0.57266409 </v>
   <v>       0.20367734       0.99159457       0.92125136 </v>
   <v>       0.65287499       0.60938344       0.03998738 </v>
   <v>       0.85612869       0.71385139       0.66996915 </v>
   <v>       0.53872931       0.67592832       0.57929945 </v>
   <v>       0.88778067       0.17958058       0.76412912 </v>
   <v>       0.28127738       0.04125843       0.13397825 </v>
   <v>       0.46776657       0.69892885       0.74815819 </v>
   <v>       0.75190091       0.46995535       0.40256051 </v>
   <v>       0.75369236       0.28604085       0.79288477 </v>
   <v>       0.45648917       0.68842686       0.97385844 </v>
   <v>       0.71922448       0.92650343       0.37282843 </v>
   <v>       0.46519226       0.22436865       0.69137814 </v>
   <v>       0.27684816       0.53831571       0.40579107 </v>
   <v>       0.85711959       0.90999721       0.35354374 </v>
   <v>       0.79540106       0.64893530       0.73851106 </v>
   <v>       0.13123576       0.97646496       0.75862118 </v>
   <v>       0.52336190       0.95484265       0.96705427 </v>
   <v>       0.31247538       0.49981008       0.19359136 </v>
   <v>       0.40482923       0.32680954       0.32077786 </v>
   <v>       0.17457109       0.51453345       0.57236718 </v>
   <v>       0.72324398       0.72455108       0.02650924 </v>
   <v>       0.60350633       0.58204593       0.13948190 </v>
   <v>       0.29454717       0.94218898       0.02843178 </v>
   <v>       0.83261182       0.39766035       0.45411806 </v>
   <v>       0.08457998       0.80598880       0.94626644 </v>
   <v>       0.38501097       0.68430848       0.82590584 </v>
   <v>       0.97067113       0.30970978       0.17589176 </v>
   <v>       0.98871597       0.81057357       0.97608686 </v>
   <v>       0.56367417       0.67564186       0.79860037 </v>
   <v>       0.20560210       0.41824413       0.89153699 </v>
   <v>       0.87089203       0.29169537       0.75805763 </v>
   <v>       0.25621205       0.53607100       0.76859176 </v>
   <v>       0.25994429       0.07480765       0.54174678 </v>
   <v>       0.13089991       0.91520385       0.57131734 </v>
   <v>       0.72426279       0.10919055       0.42538543 </v>
   <v>       0.43135129       0.78518812       0.03483166 </v>
   <v>       0.39896504       0.04289231       0.16453411 </v>
   <v>       0.90764579       0.32026359       0.03097410 </v>
   <v>       0.63306268       0.61088857       0.60300331 </v>
   <v>       0.03888567       0.57949817       0.43261012 </v>
   <v>       0.46420084       0.95973535       0.45059784 </v>
   <v>       0.57139538       0.67631693       0.97777775 </v>
   <v>       0.41009481       0.29107581       0.10064540 </v>
   <v>       0.76508283       0.30754393       0.17875903 </v>
   <v>       0.02656160       0.54405016       0.11625153 </v>
   <v>       0.18260046       0.01028513       0.20524747 </v>
   <v>       0.45540223       0.83451531       0.76099970 </v>
   <v>       0.30319413       0.13248908       0.35847086 </v>
   <v>       0.31903693       0.35099672       0.74223876 </v>
   <v>       0.55022682       0.97199498       0.64671521 </v>
   <v>       0.69192636       0.94807901       0.16479138 </v>
   <v>       0.05240176       0.44047476       0.29273839 </v>
   <v>       0.26420928       0.80400825       0.34337143 </v>
   <v>       0.37526627       0.49700607       0.55096176 </v>
   <v>       0.14965294       0.37304638       0.10281696 </v>
   <v>       0.53886616       0.36048716       0.58021037 </v>
   <v>       0.77504115       0.17297426       0.84525017 </v>
   <v>       0.65057266       0.45005768       0.35219853 </v>
   <v>       0.43172667       0.68249892       0.62569081 </v>
   <v>       0.70979310       0.49217105       0.02372576 </v>
   <v>       0.85838653       0.69256643       0.54005307 </v>
   <v>       0.75818711       0.56656333       0.43164117 </v>
   <v>       0.87786086       0.47768869       0.19333187 </v>
   <v>       0.73969259       0.79913278       0.34126080 </v>
   <v>       0.09177230       0.04988387       0.98130532 </v>
   <v>       0.65101927       0.90338305       0.78889143 </v>
   <v>       0.59154007       0.78718913       0.62780522 </v>
   <v>       0.39173533       0.38516510       0.89027863 </v>
   <v>       0.08199901       0.80796127       0.30282783 </v>
   <v>       0.24453351       0.88179640       0.89532929 </v>
   <v>       0.18824530       0.82885587       0.71574869 </v>
   <v>       0.75929051       0.04554599       0.16855263 </v>
   <v>       0.25145211       0.14782626       0.09757967 </v>
   <v>       0.58211957       0.26810852       0.22803628 </v>
   <v>       0.63484307       0.08443004       0.89625359 </v>
   <v>       0.00818608       0.44182869       0.57874945 </v>
   <v>       0.24578650       0.33752375       0.47881973 </v>
   <v>       0.40135279       0.57026877       0.00064818 </v>
   <v>       0.56506405       0.34193842       0.99502558 </v>
   <v>       0.20876875       0.61545837       0.94272939 </v>
   <v>       0.49994059       0.66457361       0.46538181 </v>
   <v>       0.07712123       0.24350965       0.62286974 </v>
   <v>       0.84992803       0.17053891       0.65546997 </v>
   <v>       0.67454904       0.37101404       0.81111796 </v>
   <v>       0.96476995       0.70258755       0.26160656 </v>
   <v>       0.65429966       0.23451624       0.68416026 </v>
   <v>       0.34018853       0.98352967       0.74330124 </v>
   <v>       0.91203448       0.78884527       0.72699871 </v>
   <v>       0.47804217       0.82382835       0.37456748 </v>
   <v>       0.94882638       0.85433185       0.16424109 </v>
   <v>       0.95092280       0.10914510       0.83400142 </v>
  </varray>
  <varray name="velocities" >
   <v>       0.00000000       0.00000000       0.00000000 </v>
   <v>       0.00000000       0.00000000       0.00000000 </v>
   <v>       0.00000000       0.00000000       0.00000000 </v>
   <v>       0.00000000       0.00000000       0.00000000 </v>
   <v>       0.00000000       0.00000000       0.00000000 </v>
   <v>       0.00000000       0.00000000       0.00000000 </v>
   <v>       0.00000000       0.00000000       0.00000000 </v>
   <v>       0.00000000       0.00000000       0.00000000 </v>
   <v>       0.00000000       0.00000000       0.00000000 </v>
   <v>       0.00000000       0.00000000       0.00000000 </v>
   <v>       0.00000000       0.00000000       0.00000000 </v>
   <v>       0.00000000       0.00000000       0.00000000 </v>
   <v>       0.00000000       0.00000000       0.00000000 </v>
   <v>       0.00000000       0.00000000       0.00000000 </v>
   <v>       0.00000000       0.00000000       0.00000000 </v>
   <v>       0.00000000       0.00000000       0.00000000 </v>
   <v>       0.00000000       0.00000000       0.00000000 </v>
   <v>       0.00000000       0.00000000       0.00000000 </v>
   <v>       0.00000000       0.00000000       0.00000000 </v>
   <v>       0.00000000       0.00000000       0.00000000 </v>
   <v>       0.00000000       0.00000000       0.00000000 </v>
   <v>       0.00000000       0.00000000       0.00000000 </v>
   <v>       0.00000000       0.00000000       0.00000000 </v>
   <v>       0.00000000       0.00000000       0.00000000 </v>
   <v>       0.00000000       0.00000000       0.00000000 </v>
   <v>       0.00000000       0.00000000       0.00000000 </v>
   <v>       0.00000000       0.00000000       0.00000000 </v>
   <v>       0.00000000       0.00000000       0.00000000 </v>
   <v>       0.00000000       0.00000000       0.00000000 </v>
   <v>       0.00000000       0.00000000       0.00000000 </v>
   <v>       0.00000000       0.00000000       0.00000000 </v>
   <v>       0.00000000       0.00000000       0.00000000 </v>
   <v>       0.00000000       0.00000000       0.00000000 </v>
   <v>       0.00000000       0.00000000       0.00000000 </v>
   <v>       0.00000000       0.00000000       0.00000000 </v>
   <v>       0.00000000       0.00000000       0.00000000 </v>
   <v>       0.00000000       0.00000000       0.00000000 </v>
   <v>       0.00000000       0.00000000       0.00000000 </v>
   <v>       0.00000000       0.00000000       0.00000000 </v>
   <v>       0.00000000       0.00000000       0.00000000 </v>
   <v>       0.00000000       0.00000000       0.00000000 </v>
   <v>       0.00000000       0.00000000       0.00000000 </v>
   <v>       0.00000000       0.00000000       0.00000000 </v>
   <v>       0.00000000       0.00000000       0.00000000 </v>
   <v>       0.00000000       0.00000000       0.00000000 </v>
   <v>       0.00000000       0.00000000       0.00000000 </v>
   <v>       0.00000000       0.00000000       0.00000000 </v>
   <v>       0.00000000       0.00000000       0.00000000 </v>
   <v>       0.00000000       0.00000000       0.00000000 </v>
   <v>       0.00000000       0.00000000       0.00000000 </v>
   <v>       0.00000000       0.00000000       0.00000000 </v>
   <v>       0.00000000       0.00000000       0.00000000 </v>
   <v>       0.00000000       0.00000000       0.00000000 </v>
   <v>       0.00000000       0.00000000       0.00000000 </v>
   <v>       0.00000000       0.00000000       0.00000000 </v>
   <v>       0.00000000       0.00000000       0.00000000 </v>
   <v>       0.00000000       0.00000000       0.00000000 </v>
   <v>       0.00000000       0.00000000       0.00000000 </v>
   <v>       0.00000000       0.00000000       0.00000000 </v>
   <v>       0.00000000       0.00000000       0.00000000 </v>
   <v>       0.00000000       0.00000000       0.00000000 </v>
   <v>       0.00000000       0.00000000       0.00000000 </v>
   <v>       0.00000000       0.00000000       0.00000000 </v>
   <v>       0.00000000       0.00000000       0.00000000 </v>
   <v>       0.00000000       0.00000000       0.00000000 </v>
   <v>       0.00000000       0.00000000       0.00000000 </v>
   <v>       0.00000000       0.00000000       0.00000000 </v>
   <v>       0.00000000       0.00000000       0.00000000 </v>
   <v>       0.00000000       0.00000000       0.00000000 </v>
   <v>       0.00000000       0.00000000       0.00000000 </v>
   <v>       0.00000000       0.00000000       0.00000000 </v>
   <v>       0.00000000       0.00000000       0.00000000 </v>
   <v>       0.00000000       0.00000000       0.00000000 </v>
   <v>       0.00000000       0.00000000       0.00000000 </v>
   <v>       0.00000000       0.00000000       0.00000000 </v>
   <v>       0.00000000       0.00000000       0.00000000 </v>
   <v>       0.00000000       0.00000000       0.00000000 </v>
   <v>       0.00000000       0.00000000       0.00000000 </v>
   <v>       0.00000000       0.00000000       0.00000000 </v>
   <v>       0.00000000       0.00000000       0.00000000 </v>
   <v>       0.00000000       0.00000000       0.00000000 </v>
   <v>       0.00000000       0.00000000       0.00000000 </v>
   <v>       0.00000000       0.00000000       0.00000000 </v>
   <v>       0.00000000       0.00000000       0.00000000 </v>
   <v>       0.00000000       0.00000000       0.00000000 </v>
   <v>       0.00000000       0.00000000       0.00000000 </v>
   <v>       0.00000000       0.00000000       0.00000000 </v>
   <v>       0.00000000       0.00000000       0.00000000 </v>
   <v>       0.00000000       0.00000000       0.00000000 </v>
   <v>       0.00000000       0.00000000       0.00000000 </v>
   <v>       0.00000000       0.00000000       0.00000000 </v>
   <v>       0.00000000       0.00000000       0.00000000 </v>
   <v>       0.00000000       0.00000000       0.00000000 </v>
   <v>       0.00000000       0.00000000       0.00000000 </v>
   <v>       0.00000000       0.00000000       0.00000000 </v>
   <v>       0.00000000       0.00000000       0.00000000 </v>
   <v>       0.00000000       0.00000000       0.00000000 </v>
   <v>       0.00000000       0.00000000       0.00000000 </v>
   <v>       0.00000000       0.00000000       0.00000000 </v>
   <v>       0.00000000       0.00000000       0.00000000 </v>
   <v>       0.00000000       0.00000000       0.00000000 </v>
   <v>       0.00000000       0.00000000       0.00000000 </v>
   <v>       0.00000000       0.00000000       0.00000000 </v>
   <v>       0.00000000       0.00000000       0.00000000 </v>
   <v>       0.00000000       0.00000000       0.00000000 </v>
   <v>       0.00000000       0.00000000       0.00000000 </v>
   <v>       0.00000000       0.00000000       0.00000000 </v>
   <v>       0.00000000       0.00000000       0.00000000 </v>
   <v>       0.00000000       0.00000000       0.00000000 </v>
   <v>       0.00000000       0.00000000       0.00000000 </v>
   <v>       0.00000000       0.00000000       0.00000000 </v>
   <v>       0.00000000       0.00000000       0.00000000 </v>
   <v>       0.00000000       0.00000000       0.00000000 </v>
   <v>       0.00000000       0.00000000       0.00000000 </v>
   <v>       0.00000000       0.00000000       0.00000000 </v>
   <v>       0.00000000       0.00000000       0.00000000 </v>
   <v>       0.00000000       0.00000000       0.00000000 </v>
   <v>       0.00000000       0.00000000       0.00000000 </v>
   <v>       0.00000000       0.00000000       0.00000000 </v>
   <v>       0.00000000       0.00000000       0.00000000 </v>
   <v>       0.00000000       0.00000000       0.00000000 </v>
   <v>       0.00000000       0.00000000       0.00000000 </v>
   <v>       0.00000000       0.00000000       0.00000000 </v>
   <v>       0.00000000       0.00000000       0.00000000 </v>
   <v>       0.00000000       0.00000000       0.00000000 </v>
   <v>       0.00000000       0.00000000       0.00000000 </v>
   <v>       0.00000000       0.00000000       0.00000000 </v>
   <v>       0.00000000       0.00000000       0.00000000 </v>
   <v>       0.00000000       0.00000000       0.00000000 </v>
   <v>       0.00000000       0.00000000       0.00000000 </v>
   <v>       0.00000000       0.00000000       0.00000000 </v>
   <v>       0.00000000       0.00000000       0.00000000 </v>
   <v>       0.00000000       0.00000000       0.00000000 </v>
   <v>       0.00000000       0.00000000       0.00000000 </v>
   <v>       0.00000000       0.00000000       0.00000000 </v>
  </varray>
 </structure>
</modeling>
