 vasp.5.4.4.18Apr17-6-g9f103f2a35 (build Oct 31 2019 15:01:46) complex          
  
 executed on             LinuxIFC date 2024.04.30  04:23:32
 running on   52 total cores
 distrk:  each k-point on   52 cores,    1 groups
 distr:  one band on NCORES_PER_BAND=  13 cores,    4 groups


--------------------------------------------------------------------------------------------------------


 INCAR:
 POTCAR:    PAW_PBE Ca_sv 06Sep2000               
 POTCAR:    PAW_PBE Si 05Jan2001                  
 POTCAR:    PAW_PBE O 08Apr2002                   
 POTCAR:    PAW_PBE Ca_sv 06Sep2000               
   SHA256 =  a47365830e737f14e0e6c5cf1ed81b94e081eecf0a33df105380881bc9da05d5 Ca
   COPYR  = (c) Copyright 06Sep2000 Georg Kresse                                
   COPYR  = This file is part of the software VASP. Any use, copying, and all ot
   COPYR  = If you do not have a valid VASP license, you may not use, copy or di
   VRHFIN =Ca: 3s3p4s                                                           
   LEXCH  = PE                                                                  
   EATOM  =  1006.0909 eV,   73.9456 Ry                                         
                                                                                
   TITEL  = PAW_PBE Ca_sv 06Sep2000                                             
   LULTRA =        F    use ultrasoft PP ?                                      
   IUNSCR =        1    unscreen: 0-lin 1-nonlin 2-no                           
   RPACOR =    2.000    partial core radius                                     
   POMASS =   40.078; ZVAL   =   10.000    mass and valenz                      
   RCORE  =    2.300    outmost cutoff radius                                   
   RWIGS  =    2.500; RWIGS  =    1.323    wigner-seitz radius (au A)           
   ENMAX  =  266.622; ENMIN  =  199.967 eV                                      
   RCLOC  =    1.808    cutoff for local pot                                    
   LCOR   =        T    correct aug charges                                     
   LPAW   =        T    paw PP                                                  
   EAUG   =  420.852                                                            
   RMAX   =    2.359    core radius for proj-oper                               
   RAUG   =    1.300    factor for augmentation sphere                          
   RDEP   =    2.392    radius for radial grids                                 
   RDEPT  =    1.987    core radius for aug-charge                              
                                                                                
   Atomic configuration                                                         
    7 entries                                                                   
     n  l   j            E        occ.                                          
     1  0  0.50     -3949.1705   2.0000                                         
     2  0  0.50      -414.3434   2.0000                                         
     2  1  1.50      -334.7047   6.0000                                         
     3  0  0.50       -47.0896   2.0000                                         
     4  0  0.50        -3.7663   2.0000                                         
     3  1  1.50       -28.0061   6.0000                                         
     3  2  1.50        -4.0817   0.0000                                         
   Description                                                                  
     l       E           TYP  RCUT    TYP  RCUT                                 
     0    -47.0896403     23  2.300                                             
     0     -3.7663320     23  2.300                                             
     1    -28.0060855     23  2.300                                             
     1      6.8029130     23  2.300                                             
     2     -4.0817478     23  2.300                                             
     2      0.4464412     23  2.300                                             
  local pseudopotential read in
  partial core-charges read in
  partial kinetic energy density read in
  atomic valenz-charges read in
  non local Contribution for L=           0  read in
    real space projection operators read in
  non local Contribution for L=           0  read in
    real space projection operators read in
  non local Contribution for L=           1  read in
    real space projection operators read in
  non local Contribution for L=           1  read in
    real space projection operators read in
  non local Contribution for L=           2  read in
    real space projection operators read in
  non local Contribution for L=           2  read in
    real space projection operators read in
    PAW grid and wavefunctions read in
 
   number of l-projection  operators is LMAX  =           6
   number of lm-projection operators is LMMAX =          18
 
 POTCAR:    PAW_PBE Si 05Jan2001                  
   SHA256 =  79d9987ad8750f624c4d6acb2a16d13abf6a777132adc04dc6c8399be72b42bb Si
   COPYR  = (c) Copyright 05Jan2001 Georg Kresse                                
   COPYR  = This file is part of the software VASP. Any use, copying, and all ot
   COPYR  = If you do not have a valid VASP license, you may not use, copy or di
   VRHFIN =Si: s2p2                                                             
   LEXCH  = PE                                                                  
   EATOM  =   103.0669 eV,    7.5752 Ry                                         
                                                                                
   TITEL  = PAW_PBE Si 05Jan2001                                                
   LULTRA =        F    use ultrasoft PP ?                                      
   IUNSCR =        1    unscreen: 0-lin 1-nonlin 2-no                           
   RPACOR =    1.500    partial core radius                                     
   POMASS =   28.085; ZVAL   =    4.000    mass and valenz                      
   RCORE  =    1.900    outmost cutoff radius                                   
   RWIGS  =    2.480; RWIGS  =    1.312    wigner-seitz radius (au A)           
   ENMAX  =  245.345; ENMIN  =  184.009 eV                                      
   ICORE  =        2    local potential                                         
   LCOR   =        T    correct aug charges                                     
   LPAW   =        T    paw PP                                                  
   EAUG   =  322.069                                                            
   DEXC   =    0.000                                                            
   RMAX   =    1.950    core radius for proj-oper                               
   RAUG   =    1.300    factor for augmentation sphere                          
   RDEP   =    1.993    radius for radial grids                                 
   RDEPT  =    1.837    core radius for aug-charge                              
                                                                                
   Atomic configuration                                                         
    6 entries                                                                   
     n  l   j            E        occ.                                          
     1  0  0.50     -1785.8828   2.0000                                         
     2  0  0.50      -139.4969   2.0000                                         
     2  1  1.50       -95.5546   6.0000                                         
     3  0  0.50       -10.8127   2.0000                                         
     3  1  0.50        -4.0811   2.0000                                         
     3  2  1.50        -4.0817   0.0000                                         
   Description                                                                  
     l       E           TYP  RCUT    TYP  RCUT                                 
     0    -10.8127223     23  1.900                                             
     0     -7.6451159     23  1.900                                             
     1     -4.0811372     23  1.900                                             
     1      2.4879257     23  1.900                                             
     2     -4.0817478      7  1.900                                             
  local pseudopotential read in
  partial core-charges read in
  partial kinetic energy density read in
  atomic valenz-charges read in
  non local Contribution for L=           0  read in
    real space projection operators read in
  non local Contribution for L=           0  read in
    real space projection operators read in
  non local Contribution for L=           1  read in
    real space projection operators read in
  non local Contribution for L=           1  read in
    real space projection operators read in
    PAW grid and wavefunctions read in
 
   number of l-projection  operators is LMAX  =           4
   number of lm-projection operators is LMMAX =           8
 
 POTCAR:    PAW_PBE O 08Apr2002                   
   SHA256 =  818f92134a0a090dccd8ba1447fa70422a3b330e708bb4f08108d8ae51209ddf O/
   COPYR  = (c) Copyright 08Apr2002 Georg Kresse                                
   COPYR  = This file is part of the software VASP. Any use, copying, and all ot
   COPYR  = If you do not have a valid VASP license, you may not use, copy or di
   VRHFIN =O: s2p4                                                              
   LEXCH  = PE                                                                  
   EATOM  =   432.3788 eV,   31.7789 Ry                                         
                                                                                
   TITEL  = PAW_PBE O 08Apr2002                                                 
   LULTRA =        F    use ultrasoft PP ?                                      
   IUNSCR =        1    unscreen: 0-lin 1-nonlin 2-no                           
   RPACOR =    1.200    partial core radius                                     
   POMASS =   16.000; ZVAL   =    6.000    mass and valenz                      
   RCORE  =    1.520    outmost cutoff radius                                   
   RWIGS  =    1.550; RWIGS  =    0.820    wigner-seitz radius (au A)           
   ENMAX  =  400.000; ENMIN  =  300.000 eV                                      
   ICORE  =        2    local potential                                         
   LCOR   =        T    correct aug charges                                     
   LPAW   =        T    paw PP                                                  
   EAUG   =  605.392                                                            
   DEXC   =    0.000                                                            
   RMAX   =    1.553    core radius for proj-oper                               
   RAUG   =    1.300    factor for augmentation sphere                          
   RDEP   =    1.550    radius for radial grids                                 
   RDEPT  =    1.329    core radius for aug-charge                              
                                                                                
   Atomic configuration                                                         
    4 entries                                                                   
     n  l   j            E        occ.                                          
     1  0  0.50      -514.6923   2.0000                                         
     2  0  0.50       -23.9615   2.0000                                         
     2  1  0.50        -9.0305   4.0000                                         
     3  2  1.50        -9.5241   0.0000                                         
   Description                                                                  
     l       E           TYP  RCUT    TYP  RCUT                                 
     0    -23.9615318     23  1.200                                             
     0     -9.5240782     23  1.200                                             
     1     -9.0304911     23  1.520                                             
     1      8.1634956     23  1.520                                             
     2     -9.5240782      7  1.500                                             
  local pseudopotential read in
  partial core-charges read in
  partial kinetic energy density read in
  kinetic energy density of atom read in
  atomic valenz-charges read in
  non local Contribution for L=           0  read in
    real space projection operators read in
  non local Contribution for L=           0  read in
    real space projection operators read in
  non local Contribution for L=           1  read in
    real space projection operators read in
  non local Contribution for L=           1  read in
    real space projection operators read in
    PAW grid and wavefunctions read in
 
   number of l-projection  operators is LMAX  =           4
   number of lm-projection operators is LMMAX =           8
 
 Optimization of the real space projectors (new method)

 maximal supplied QI-value         = 16.25
 optimisation between [QCUT,QGAM] = [ 12.51, 25.03] = [ 43.85,175.40] Ry 
 Optimized for a Real-space Cutoff    1.47 Angstroem

   l    n(q)    QCUT    max X(q) W(low)/X(q) W(high)/X(q)  e(spline) 
   0     11    12.514    11.817    0.25E-04    0.32E-05    0.87E-07
   0     11    12.514     8.461    0.39E-04    0.59E-05    0.18E-06
   1     11    12.514     3.957    0.97E-05    0.57E-05    0.28E-07
   1     11    12.514     4.314    0.42E-04    0.14E-04    0.23E-06
   2     10    12.514    14.565    0.79E-04    0.50E-03    0.16E-05
   2     10    12.514    14.552    0.75E-04    0.48E-03    0.15E-05
 Optimization of the real space projectors (new method)

 maximal supplied QI-value         = 19.84
 optimisation between [QCUT,QGAM] = [ 12.50, 25.00] = [ 43.76,175.03] Ry 
 Optimized for a Real-space Cutoff    1.16 Angstroem

   l    n(q)    QCUT    max X(q) W(low)/X(q) W(high)/X(q)  e(spline) 
   0      9    12.501   159.560    0.10E-03    0.83E-04    0.71E-07
   0      9    12.501   115.863    0.99E-04    0.81E-04    0.70E-07
   1      8    12.501    88.339    0.20E-03    0.25E-03    0.76E-07
   1      8    12.501    48.592    0.20E-03    0.24E-03    0.75E-07
 Optimization of the real space projectors (new method)

 maximal supplied QI-value         = 24.76
 optimisation between [QCUT,QGAM] = [ 12.38, 25.00] = [ 42.90,175.06] Ry 
 Optimized for a Real-space Cutoff    1.16 Angstroem

   l    n(q)    QCUT    max X(q) W(low)/X(q) W(high)/X(q)  e(spline) 
   0      9    12.378    20.381    0.16E-03    0.67E-05    0.31E-06
   0      9    12.378    15.268    0.17E-03    0.81E-05    0.33E-06
   1      8    12.378     5.964    0.20E-03    0.16E-03    0.30E-06
   1      8    12.378     5.382    0.18E-03    0.14E-03    0.26E-06
  PAW_PBE Ca_sv 06Sep2000               :
 energy of atom  1       EATOM=-1006.0909
 kinetic energy error for atom=    0.0012 (will be added to EATOM!!)
  PAW_PBE Si 05Jan2001                  :
 energy of atom  2       EATOM= -103.0669
 kinetic energy error for atom=    0.0003 (will be added to EATOM!!)
  PAW_PBE O 08Apr2002                   :
 energy of atom  3       EATOM= -432.3788
 kinetic energy error for atom=    0.0168 (will be added to EATOM!!)
 
 
 POSCAR: Ca Si  O                                
  positions in direct lattice
  No initial velocities read in
 exchange correlation table for  LEXCH =        8
   RHO(1)=    0.500       N(1)  =     2000
   RHO(2)=  100.500       N(2)  =     4000
 


--------------------------------------------------------------------------------------------------------


 ion  position               nearest neighbor table
   1  0.868  0.788  0.225-  74 2.22 134 2.31  92 2.38  61 2.46  68 2.52  76 2.57  38 2.93  25 3.08

   2  0.703  0.823  0.647-  87 2.11 100 2.28  78 2.31  58 2.37  81 2.41 103 2.43 124 2.55  19 2.61
                            15 2.81  35 3.07
   3  0.081  0.370  0.313- 113 1.96 125 2.30 122 2.44  94 2.46  49 2.53   6 2.61   4 2.92
   4  0.108  0.465  0.545- 120 1.84 129 2.23  90 2.35  50 2.83  54 2.90   3 2.92
   5  0.400  0.799  0.928-  75 2.19 135 2.26 101 2.34  64 2.35  32 2.65
   6  0.251  0.300  0.183- 125 2.08  95 2.36  97 2.37 113 2.45  66 2.48   3 2.61  49 2.91  26 2.99
                            13 3.10   9 3.12
   7  0.807  0.377  0.473- 126 2.07  94 2.13  90 2.24 104 2.32  53 2.86  15 3.15
   8  0.631  0.634  0.919-  58 1.90  61 2.42 101 2.47 114 2.47 102 2.48  77 2.51  39 2.88  41 3.13

   9  0.209  0.475  0.983-  66 2.21  62 2.31 122 2.31  63 2.34  83 2.40  64 2.48  23 2.49  31 2.90
                            33 3.06   6 3.12
  10  0.816  0.175  0.970- 121 2.15 108 2.26  82 2.31  13 2.82  40 3.04  43 3.10
  11  0.845  0.806  0.918-  58 2.10 111 2.24 108 2.30  81 2.40  61 2.52  37 2.93  43 3.15
  12  0.468  0.936  0.427-  72 2.11 103 2.19  65 2.21  21 2.86  14 2.97  44 3.00
  13  0.028  0.188  0.087- 125 1.91 116 2.11  46 2.72  10 2.82  33 2.96   6 3.10
  14  0.377  0.697  0.422- 107 2.14  80 2.31  91 2.53 103 2.55  12 2.97  49 3.14
  15  0.779  0.594  0.634-  81 2.05  87 2.10  98 2.35 130 2.47  77 2.54   2 2.81  47 3.15   7 3.15

  16  0.195  0.824  0.255-  60 1.97 107 2.27  70 2.33 110 2.37  57 2.39  93 2.45  68 2.55  46 2.70
                            51 2.85  22 2.91
  17  0.649  0.011  0.127- 121 1.86  88 2.03  92 2.23  69 2.31  65 2.38  44 2.65  38 2.91  18 3.06
                            27 3.17
  18  0.595  0.012  0.870- 121 1.98 101 2.12 118 2.38 135 2.49  17 3.06
  19  0.817  0.924  0.482- 119 1.95 124 2.29  87 2.36 100 2.49  92 2.53   2 2.61  38 2.69  35 3.10

  20  0.667  0.345  0.755-  77 2.23  98 2.25 106 2.41  79 2.56  29 2.98  24 3.05  28 3.07
  21  0.401  0.014  0.651-  96 1.95  73 2.09  56 2.24  78 2.34  72 2.36  12 2.86  52 3.11
  22  0.061  0.017  0.340- 119 2.04  57 2.29  70 2.29 128 2.48 125 2.52  38 2.59  16 2.91  26 2.95
                            46 2.99
  23  0.221  0.598  0.808-  64 2.28   9 2.49  85 2.51  84 2.52  75 2.52  83 2.55  63 2.55  37 2.76
                            32 3.06
  24  0.477  0.377  0.933- 109 2.03  62 2.27  20 3.05
  25  0.955  0.567  0.108-  76 2.04 102 2.18 122 2.29 134 2.40  63 2.45  41 3.02   1 3.08
  26  0.279  0.139  0.382-  72 1.92 128 2.13  97 2.18  70 2.30  22 2.95   6 2.99  34 3.09
  27  0.544  0.201  0.292-  69 2.15  65 2.17  97 2.19 105 2.43  86 2.47  53 2.65  34 2.97  17 3.17

  28  0.648  0.130  0.604- 124 1.42  73 1.66  79 1.68 126 1.72  40 2.79  20 3.07
  29  0.518  0.507  0.624-  77 1.62 106 1.63 130 1.64 131 1.79  91 2.00  42 2.72  34 2.81  20 2.98
                            32 3.10
  30  0.297  0.284  0.714-  56 1.56 127 1.73  84 1.74  83 2.06 132 2.18  33 2.78  52 3.02
  31  0.365  0.584  0.144- 110 1.49  62 1.51  95 1.60  49 2.32 114 2.32   9 2.90
  32  0.419  0.739  0.709-  85 1.50 131 1.54  78 1.66  75 1.67   5 2.65  48 3.06  23 3.06  29 3.10

  33  0.108  0.266  0.859- 117 1.57  83 1.72  89 1.73  66 1.74  82 2.37 132 2.52  30 2.78  52 2.81
                            13 2.96  47 2.98   9 3.06  43 3.11
  34  0.435  0.328  0.484- 127 1.58  97 1.87 106 1.87  91 1.92  42 2.75  29 2.81  27 2.97  26 3.09

  35  0.663  0.719  0.407-  74 1.55 103 1.76  87 1.81  80 2.34 130 2.40  42 2.76  39 3.00   2 3.07
                            19 3.10
  36  0.111  0.033  0.631- 123 1.50  71 1.57  96 1.63 132 1.89 112 2.49  48 2.59  54 2.69  43 3.00

  37  0.010  0.695  0.762-  59 1.54  99 1.77  81 1.80 111 2.06  63 2.48  23 2.76  47 2.85  11 2.93

  38  0.847  0.033  0.279- 119 1.52 116 1.57  92 1.73  69 1.93  22 2.59  19 2.69  17 2.91   1 2.93

  39  0.616  0.711  0.154- 114 1.52  61 1.57  88 1.67  74 1.73  80 2.51   8 2.88  35 3.00
  40  0.850  0.088  0.726-  79 1.46 100 1.64  82 1.72 112 1.79 123 2.25 108 2.53  43 2.56  28 2.79
                            10 3.04  54 3.05
  41  0.731  0.439  0.074- 102 1.45 109 1.58 115 1.77 105 1.91  53 2.70  25 3.02   8 3.13
  42  0.568  0.502  0.395-  80 1.61 104 1.62 130 1.68  91 1.77  29 2.72  34 2.75  35 2.76
  43  0.005  0.019  0.866- 108 1.56 123 1.58 133 1.81 117 2.18  82 2.22  55 2.55  40 2.56  36 3.00
                            52 3.03  10 3.10  33 3.11  11 3.15
  44  0.439  0.936  0.171-  93 1.47  65 1.59 135 1.79  88 2.00  45 2.45  17 2.65  12 3.00
  45  0.401  0.101  0.044-  86 1.52  67 1.62 135 1.71 118 1.71  44 2.45  52 2.64  46 3.06
  46  0.166  0.999  0.106- 133 1.59  67 1.62  70 1.65  57 1.83  60 1.88  16 2.70  13 2.72  51 2.83
                            22 2.99  45 3.06  52 3.11
  47  0.953  0.458  0.792-  98 1.61  59 1.70  89 1.70  63 2.00  90 2.55  37 2.85  33 2.98  15 3.15

  48  0.202  0.833  0.595-  99 1.73  85 1.75  96 1.77 107 1.79  71 2.05  36 2.59  32 3.06
  49  0.224  0.531  0.274- 113 1.54 110 1.58 122 1.67 129 1.84  95 1.85  31 2.32   3 2.53   6 2.91
                            14 3.14
  50  0.014  0.642  0.406-  68 1.74 120 1.75  76 1.78 129 1.79   4 2.83
  51  0.133  0.773  0.023- 134 1.60  60 1.63  64 1.69 111 1.80  46 2.83  16 2.85
  52  0.259  0.078  0.868- 117 1.50  55 1.63  56 1.77 118 1.80  67 1.98  45 2.64  33 2.81  30 3.02
                            43 3.03  21 3.11  46 3.11
  53  0.750  0.289  0.250- 105 1.63  69 1.89  94 2.00 115 2.03 104 2.13  27 2.65  41 2.70   7 2.86

  54  0.013  0.237  0.585-  90 1.53 112 1.56 132 1.83 128 2.03  36 2.69   4 2.90  40 3.05
  55  0.211  0.950  0.836-  52 1.63  43 2.55
  56  0.311  0.154  0.747-  30 1.56  52 1.77  21 2.24
  57  0.041  0.926  0.167-  46 1.83  22 2.29  16 2.39
  58  0.686  0.768  0.842- 101 1.76   8 1.90  11 2.10   2 2.37
  59  0.012  0.570  0.718-  37 1.54  47 1.70
  60  0.228  0.851  0.091-  51 1.63  46 1.88  16 1.97
  61  0.728  0.723  0.080-  39 1.57   8 2.42   1 2.46  11 2.52
  62  0.395  0.521  0.035-  31 1.51  24 2.27   9 2.31
  63  0.035  0.548  0.914-  47 2.00   9 2.34  25 2.45  37 2.48  23 2.55
  64  0.242  0.685  0.982-  51 1.69  23 2.28   5 2.35   9 2.48
  65  0.494  0.024  0.260-  44 1.59  27 2.17  12 2.21  17 2.38
  66  0.198  0.285  0.976-  33 1.74   9 2.21   6 2.48
  67  0.264  0.072  0.038-  45 1.62  46 1.62  52 1.98
  68  0.019  0.789  0.380-  50 1.74   1 2.52  16 2.55
  69  0.714  0.132  0.271-  53 1.89  38 1.93  27 2.15  17 2.31
  70  0.226  0.021  0.233-  46 1.65  22 2.29  26 2.30  16 2.33
  71  0.067  0.937  0.547-  36 1.57  48 2.05
  72  0.414  0.104  0.470-  26 1.92  12 2.11  21 2.36
  73  0.520  0.148  0.665-  28 1.66  21 2.09
  74  0.692  0.739  0.278-  35 1.55  39 1.73   1 2.22
  75  0.431  0.649  0.820-  32 1.67   5 2.19  23 2.52
  76  0.943  0.589  0.281-  50 1.78  25 2.04   1 2.57
  77  0.600  0.524  0.735-  29 1.62  20 2.23   8 2.51  15 2.54
  78  0.510  0.848  0.686-  32 1.66   2 2.31  21 2.34
  79  0.736  0.139  0.718-  40 1.46  28 1.68  20 2.56
  80  0.521  0.607  0.318-  42 1.61  14 2.31  35 2.34  39 2.51
  81  0.859  0.715  0.733-  37 1.80  15 2.05  11 2.40   2 2.41
  82  0.929  0.183  0.806-  40 1.72  43 2.22  10 2.31  33 2.37
  83  0.178  0.383  0.800-  33 1.72  84 1.97  30 2.06   9 2.40  23 2.55
  84  0.336  0.422  0.753-  30 1.74  83 1.97  23 2.52
  85  0.294  0.763  0.690-  32 1.50  48 1.75  23 2.51
  86  0.498  0.178  0.086-  45 1.52  27 2.47
  87  0.778  0.727  0.512-  35 1.81  15 2.10   2 2.11  19 2.36
  88  0.583  0.849  0.134-  39 1.67  44 2.00  17 2.03
  89  0.984  0.346  0.880-  47 1.70  33 1.73
  90  0.949  0.352  0.600-  54 1.53   7 2.24   4 2.35  47 2.55
  91  0.437  0.494  0.473-  42 1.77  34 1.92  29 2.00  14 2.53
  92  0.736  0.934  0.280-  38 1.73  17 2.23   1 2.38  19 2.53
  93  0.405  0.835  0.237-  44 1.47  16 2.45
  94  0.893  0.279  0.345-  53 2.00   7 2.13   3 2.46
  95  0.358  0.468  0.218-  31 1.60  49 1.85   6 2.36
  96  0.239  0.976  0.631-  36 1.63  48 1.77  21 1.95
  97  0.384  0.288  0.337-  34 1.87  26 2.18  27 2.19   6 2.37
  98  0.841  0.421  0.718-  47 1.61  20 2.25  15 2.35
  99  0.099  0.738  0.647-  48 1.73  37 1.77
 100  0.844  0.951  0.693-  40 1.64   2 2.28  19 2.49
 101  0.596  0.843  0.937-  58 1.76  18 2.12   5 2.34   8 2.47
 102  0.788  0.539  0.027-  41 1.45  25 2.18   8 2.48
 103  0.562  0.788  0.497-  35 1.76  12 2.19   2 2.43  14 2.55
 104  0.644  0.392  0.358-  42 1.62  53 2.13   7 2.32
 105  0.646  0.335  0.169-  53 1.63  41 1.91  27 2.43
 106  0.509  0.367  0.621-  29 1.63  34 1.87  20 2.41
 107  0.233  0.809  0.446-  48 1.79  14 2.14  16 2.27
 108  0.885  0.000  0.922-  43 1.56  10 2.26  11 2.30  40 2.53
 109  0.643  0.412  0.974-  41 1.58  24 2.03
 110  0.267  0.640  0.206-  31 1.49  49 1.58  16 2.37
 111  0.037  0.796  0.904-  51 1.80  37 2.06  11 2.24
 112  0.925  0.137  0.601-  54 1.56  40 1.79  36 2.49
 113  0.236  0.424  0.352-  49 1.54   3 1.96   6 2.45
 114  0.562  0.597  0.116-  39 1.52  31 2.32   8 2.47
 115  0.849  0.356  0.123-  41 1.77  53 2.03
 116  0.891  0.113  0.180-  38 1.57  13 2.11
 117  0.147  0.140  0.885-  52 1.50  33 1.57  43 2.18
 118  0.410  0.097  0.897-  45 1.71  52 1.80  18 2.38
 119  0.898  0.045  0.399-  38 1.52  19 1.95  22 2.04
 120  0.972  0.536  0.504-  50 1.75   4 1.84
 121  0.647  0.108  0.000-  17 1.86  18 1.98  10 2.15
 122  0.134  0.508  0.164-  49 1.67  25 2.29   9 2.31   3 2.44
 123  0.033  0.026  0.734-  36 1.50  43 1.58  40 2.25
 124  0.662  0.018  0.556-  28 1.42  19 2.29   2 2.55
 125  0.113  0.195  0.228-  13 1.91   6 2.08   3 2.30  22 2.52
 126  0.737  0.225  0.533-  28 1.72   7 2.07
 127  0.333  0.305  0.571-  34 1.58  30 1.73
 128  0.118  0.187  0.456-  54 2.03  26 2.13  22 2.48
 129  0.158  0.587  0.407-  50 1.79  49 1.84   4 2.23
 130  0.602  0.560  0.523-  29 1.64  42 1.68  35 2.40  15 2.47
 131  0.431  0.634  0.629-  32 1.54  29 1.79
 132  0.144  0.189  0.660-  54 1.83  36 1.89  30 2.18  33 2.52
 133  0.083  0.988  0.997-  46 1.59  43 1.81
 134  0.028  0.760  0.111-  51 1.60   1 2.31  25 2.40
 135  0.449  0.964  0.019-  45 1.71  44 1.79   5 2.26  18 2.49
 

IMPORTANT INFORMATION: All symmetrisations will be switched off!
NOSYMM: (Re-)initialisation of all symmetry stuff for point group C_1.

 
 

Automatic generation of k-mesh.
 generate k-points for:    2    2    2
Space group operators:
 irot       det(A)        alpha          n_x          n_y          n_z        tau_x        tau_y        tau_z
    1     1.000000     0.000001     1.000000     0.000000     0.000000     0.000000     0.000000     0.000000
 
 Subroutine IBZKPT returns following result:
 ===========================================
 
 Found      8 irreducible k-points:
 
 Following reciprocal coordinates:
            Coordinates               Weight
  0.000000  0.000000  0.000000      1.000000
  0.500000  0.000000  0.000000      1.000000
  0.000000  0.500000  0.000000      1.000000
  0.500000  0.500000  0.000000      1.000000
  0.000000  0.000000  0.500000      1.000000
  0.500000  0.000000  0.500000      1.000000
  0.000000  0.500000  0.500000      1.000000
  0.500000  0.500000  0.500000      1.000000
 
 Following cartesian coordinates:
            Coordinates               Weight
  0.000000  0.000000  0.000000      1.000000
  0.042999  0.000000  0.000000      1.000000
  0.000000  0.042999  0.000000      1.000000
  0.042999  0.042999  0.000000      1.000000
  0.000000  0.000000  0.042999      1.000000
  0.042999  0.000000  0.042999      1.000000
  0.000000  0.042999  0.042999      1.000000
  0.042999  0.042999  0.042999      1.000000
 


--------------------------------------------------------------------------------------------------------




 Dimension of arrays:
   k-points           NKPTS =      8   k-points in BZ     NKDIM =      8   number of bands    NBANDS=    520
   number of dos      NEDOS =    301   number of ions     NIONS =    135
   non local maximal  LDIM  =      6   non local SUM 2l+1 LMDIM =     18
   total plane-waves  NPLWV = 884736
   max r-space proj   IRMAX =   7548   max aug-charges    IRDMAX= 214954
   dimension x,y,z NGX =    96 NGY =   96 NGZ =   96
   dimension x,y,z NGXF=   192 NGYF=  192 NGZF=  192
   support grid    NGXF=   384 NGYF=  384 NGZF=  384
   ions per type =              27  27  81
   NGX,Y,Z   is equivalent  to a cutoff of  13.72, 13.72, 13.72 a.u.
   NGXF,Y,Z  is equivalent  to a cutoff of  27.45, 27.45, 27.45 a.u.

 SYSTEM =  unknown system                          
 POSCAR =  Ca Si  O                                

 Startparameter for this run:
   NWRITE =      2    write-flag & timer
   PREC   = a         normal or accurate (medium, high low for compatibility)
   ISTART =      0    job   : 0-new  1-cont  2-samecut
   ICHARG =      2    charge: 1-file 2-atom 10-const
   ISPIN  =      1    spin polarized calculation?
   LNONCOLLINEAR =      F non collinear calculations
   LSORBIT =      F    spin-orbit coupling
   INIWAV =      1    electr: 0-lowe 1-rand  2-diag
   LASPH  =      F    aspherical Exc in radial PAW
   METAGGA=      F    non-selfconsistent MetaGGA calc.

 Electronic Relaxation 1
   ENCUT  =  600.0 eV  44.10 Ry    6.64 a.u.  23.22 23.22 23.22*2*pi/ulx,y,z
   ENINI  =  600.0     initial cutoff
   ENAUG  =  605.4 eV  augmentation charge cutoff
   NELM   =     60;   NELMIN=  2; NELMDL= -5     # of ELM steps 
   EDIFF  = 0.1E-05   stopping-criterion for ELM
   LREAL  =      T    real-space projection
   NLSPLINE    = F    spline interpolate recip. space projectors
   LCOMPAT=      F    compatible to vasp.4.4
   GGA_COMPAT  = T    GGA compatible to vasp.4.4-vasp.4.6
   LMAXPAW     = -100 max onsite density
   LMAXMIX     =    2 max onsite mixed and CHGCAR
   VOSKOWN=      0    Vosko Wilk Nusair interpolation
   ROPT   =   -0.00025  -0.00025  -0.00025
 Ionic relaxation
   EDIFFG = -.1E-01   stopping-criterion for IOM
   NSW    =      1    number of steps for IOM
   NBLOCK =      1;   KBLOCK =      1    inner block; outer block 
   IBRION =     -1    ionic relax: 0-MD 1-quasi-New 2-CG
   NFREE  =      0    steps in history (QN), initial steepest desc. (CG)
   ISIF   =      2    stress and relaxation
   IWAVPR =     10    prediction:  0-non 1-charg 2-wave 3-comb
   ISYM   =      0    0-nonsym 1-usesym 2-fastsym
   LCORR  =      T    Harris-Foulkes like correction to forces

   POTIM  = 1.0000    time-step for ionic-motion
   TEIN   =    0.0    initial temperature
   TEBEG  =    0.0;   TEEND  =   0.0 temperature during run
   SMASS  =  -3.00    Nose mass-parameter (am)
   estimated Nose-frequenzy (Omega)   =  0.10E-29 period in steps =****** mass=  -0.309E-26a.u.
   SCALEE = 1.0000    scale energy and forces
   NPACO  =    256;   APACO  = 16.0  distance and # of slots for P.C.
   PSTRESS=    0.0 pullay stress

  Mass of Ions in am
   POMASS =  40.08 28.09 16.00
  Ionic Valenz
   ZVAL   =  10.00  4.00  6.00
  Atomic Wigner-Seitz radii
   RWIGS  =  -1.00 -1.00 -1.00
  virtual crystal weights 
   VCA    =   1.00  1.00  1.00
   NELECT =     864.0000    total number of electrons
   NUPDOWN=      -1.0000    fix difference up-down

 DOS related values:
   EMIN   =  10.00;   EMAX   =-10.00  energy-range for DOS
   EFERMI =   0.00
   ISMEAR =     0;   SIGMA  =   0.05  broadening in eV -4-tet -1-fermi 0-gaus

 Electronic relaxation 2 (details)
   IALGO  =     38    algorithm
   LDIAG  =      T    sub-space diagonalisation (order eigenvalues)
   LSUBROT=      F    optimize rotation matrix (better conditioning)
   TURBO    =      0    0=normal 1=particle mesh
   IRESTART =      0    0=no restart 2=restart with 2 vectors
   NREBOOT  =      0    no. of reboots
   NMIN     =      0    reboot dimension
   EREF     =   0.00    reference energy to select bands
   IMIX   =      4    mixing-type and parameters
     AMIX     =   0.40;   BMIX     =  1.00
     AMIX_MAG =   1.60;   BMIX_MAG =  1.00
     AMIN     =   0.10
     WC   =   100.;   INIMIX=   1;  MIXPRE=   1;  MAXMIX= -45

 Intra band minimization:
   WEIMIN = 0.0000     energy-eigenvalue tresh-hold
   EBREAK =  0.48E-09  absolut break condition
   DEPER  =   0.30     relativ break condition  

   TIME   =   0.40     timestep for ELM

  volume/ion in A,a.u.               =      11.65        78.60
  Fermi-wavevector in a.u.,A,eV,Ry     =   1.340915  2.533962 24.463997  1.798053
  Thomas-Fermi vector in A             =   2.469190
 
 Write flags
   LWAVE        =      F    write WAVECAR
   LDOWNSAMPLE  =      F    k-point downsampling of WAVECAR
   LCHARG       =      F    write CHGCAR
   LVTOT        =      F    write LOCPOT, total local potential
   LVHAR        =      F    write LOCPOT, Hartree potential only
   LELF         =      F    write electronic localiz. function (ELF)
   LORBIT       =      0    0 simple, 1 ext, 2 COOP (PROOUT), +10 PAW based schemes


 Dipole corrections
   LMONO  =      F    monopole corrections only (constant potential shift)
   LDIPOL =      F    correct potential (dipole corrections)
   IDIPOL =      0    1-x, 2-y, 3-z, 4-all directions 
   EPSILON=  1.0000000 bulk dielectric constant

 Exchange correlation treatment:
   GGA     =    --    GGA type
   LEXCH   =     8    internal setting for exchange type
   VOSKOWN=      0    Vosko Wilk Nusair interpolation
   LHFCALC =     F    Hartree Fock is set to
   LHFONE  =     F    Hartree Fock one center treatment
   AEXX    =    0.0000 exact exchange contribution

 Linear response parameters
   LEPSILON=     F    determine dielectric tensor
   LRPA    =     F    only Hartree local field effects (RPA)
   LNABLA  =     F    use nabla operator in PAW spheres
   LVEL    =     F    velocity operator in full k-point grid
   LINTERFAST=   F  fast interpolation
   KINTER  =     0    interpolate to denser k-point grid
   CSHIFT  =0.1000    complex shift for real part using Kramers Kronig
   OMEGAMAX=  -1.0    maximum frequency
   DEG_THRESHOLD= 0.2000000E-02 threshold for treating states as degnerate
   RTIME   =   -0.100 relaxation time in fs
  (WPLASMAI=    0.000 imaginary part of plasma frequency in eV, 0.658/RTIME)
   DFIELD  = 0.0000000 0.0000000 0.0000000 field for delta impulse in time
 
 Orbital magnetization related:
   ORBITALMAG=     F  switch on orbital magnetization
   LCHIMAG   =     F  perturbation theory with respect to B field
   DQ        =  0.001000  dq finite difference perturbation B field
   LLRAUG    =     F  two centre corrections for induced B field



--------------------------------------------------------------------------------------------------------


 Static calculation
 charge density and potential will be updated during run
 non-spin polarized calculation
 Variant of blocked Davidson
 Davidson routine will perform the subspace rotation
 perform sub-space diagonalisation
    after iterative eigenvector-optimisation
 modified Broyden-mixing scheme, WC =      100.0
 initial mixing is a Kerker type mixing with AMIX =  0.4000 and BMIX =      1.0000
 Hartree-type preconditioning will be used
 using additional bands           88
 real space projection scheme for non local part
 use partial core corrections
 calculate Harris-corrections to forces 
   (improved forces if not selfconsistent)
 use gradient corrections 
 use of overlap-Matrix (Vanderbilt PP)
 Gauss-broadening in eV      SIGMA  =   0.05


--------------------------------------------------------------------------------------------------------


  energy-cutoff  :      600.00
  volume of cell :     1572.30
      direct lattice vectors                 reciprocal lattice vectors
    11.628173330  0.000000000  0.000000000     0.085998030  0.000000000  0.000000000
     0.000000000 11.628173330  0.000000000     0.000000000  0.085998030  0.000000000
     0.000000000  0.000000000 11.628173330     0.000000000  0.000000000  0.085998030

  length of vectors
    11.628173330 11.628173330 11.628173330     0.085998030  0.085998030  0.085998030


 
 k-points in units of 2pi/SCALE and weight: read from INCAR                         
   0.00000000  0.00000000  0.00000000       0.125
   0.04299902  0.00000000  0.00000000       0.125
   0.00000000  0.04299902  0.00000000       0.125
   0.04299902  0.04299902  0.00000000       0.125
   0.00000000  0.00000000  0.04299902       0.125
   0.04299902  0.00000000  0.04299902       0.125
   0.00000000  0.04299902  0.04299902       0.125
   0.04299902  0.04299902  0.04299902       0.125
 
 k-points in reciprocal lattice and weights: read from INCAR                         
   0.00000000  0.00000000  0.00000000       0.125
   0.50000000  0.00000000  0.00000000       0.125
   0.00000000  0.50000000  0.00000000       0.125
   0.50000000  0.50000000  0.00000000       0.125
   0.00000000  0.00000000  0.50000000       0.125
   0.50000000  0.00000000  0.50000000       0.125
   0.00000000  0.50000000  0.50000000       0.125
   0.50000000  0.50000000  0.50000000       0.125
 
 position of ions in fractional coordinates (direct lattice) 
   0.86833098  0.78833754  0.22494391
   0.70333409  0.82253022  0.64664269
   0.08140290  0.37028905  0.31309575
   0.10753372  0.46455098  0.54452000
   0.40020177  0.79921578  0.92828064
   0.25051408  0.29965618  0.18283993
   0.80703049  0.37683508  0.47305352
   0.63084005  0.63439404  0.91876820
   0.20919334  0.47450678  0.98317136
   0.81616807  0.17525193  0.96986933
   0.84536570  0.80646412  0.91753043
   0.46772336  0.93606047  0.42700666
   0.02826388  0.18761016  0.08721629
   0.37735460  0.69685769  0.42173043
   0.77949927  0.59382353  0.63351996
   0.19541313  0.82407629  0.25507691
   0.64927980  0.01102757  0.12725332
   0.59461452  0.01228967  0.86997729
   0.81731485  0.92375238  0.48153632
   0.66688864  0.34536427  0.75497440
   0.40104083  0.01357800  0.65110963
   0.06096972  0.01710761  0.33981906
   0.22088313  0.59759782  0.80816054
   0.47690940  0.37653703  0.93340962
   0.95469029  0.56736931  0.10752637
   0.27910544  0.13924669  0.38179837
   0.54431504  0.20099557  0.29161931
   0.64772849  0.13000150  0.60376499
   0.51795801  0.50674436  0.62368892
   0.29671244  0.28366971  0.71357222
   0.36462765  0.58439924  0.14430331
   0.41934244  0.73931217  0.70900387
   0.10778382  0.26595411  0.85874448
   0.43456632  0.32844846  0.48411458
   0.66294017  0.71930980  0.40691758
   0.11069857  0.03295486  0.63139437
   0.00981992  0.69483905  0.76197125
   0.84711047  0.03311666  0.27938400
   0.61550658  0.71070152  0.15362988
   0.85011127  0.08804055  0.72571661
   0.73120511  0.43897888  0.07363840
   0.56775749  0.50222453  0.39487595
   0.00540215  0.01906976  0.86630613
   0.43872124  0.93648213  0.17066488
   0.40058792  0.10057474  0.04392886
   0.16622882  0.99934267  0.10622399
   0.95280528  0.45838705  0.79158080
   0.20183710  0.83281823  0.59469254
   0.22351002  0.53098339  0.27436449
   0.01411207  0.64201824  0.40612762
   0.13341346  0.77264518  0.02317662
   0.25916638  0.07807737  0.86796170
   0.75025041  0.28915759  0.25040127
   0.01316957  0.23736233  0.58508013
   0.21119442  0.94989572  0.83597301
   0.31113468  0.15433423  0.74696189
   0.04051367  0.92591399  0.16682155
   0.68644083  0.76785503  0.84189195
   0.01206121  0.56982307  0.71786026
   0.22792839  0.85107136  0.09080965
   0.72829618  0.72291784  0.08012485
   0.39480131  0.52149347  0.03506016
   0.03528899  0.54751855  0.91390001
   0.24178453  0.68549569  0.98216720
   0.49431364  0.02390934  0.26028833
   0.19836089  0.28491442  0.97623300
   0.26403213  0.07236795  0.03837254
   0.01921942  0.78904866  0.38020597
   0.71444671  0.13212062  0.27109773
   0.22649656  0.02062782  0.23262382
   0.06715543  0.93650071  0.54731361
   0.41419038  0.10419966  0.46974111
   0.52010258  0.14760641  0.66480838
   0.69225502  0.73871234  0.27848012
   0.43111729  0.64862856  0.81964952
   0.94347373  0.58878304  0.28144110
   0.59959059  0.52421248  0.73533955
   0.50993487  0.84761489  0.68602734
   0.73599928  0.13932077  0.71806211
   0.52101666  0.60718910  0.31784268
   0.85878433  0.71535114  0.73298821
   0.92873881  0.18335753  0.80642270
   0.17802285  0.38290003  0.80049045
   0.33552083  0.42230197  0.75285276
   0.29396314  0.76273533  0.69047745
   0.49781557  0.17792347  0.08581015
   0.77799854  0.72698396  0.51210260
   0.58257162  0.84943619  0.13381661
   0.98438127  0.34576978  0.87984420
   0.94941818  0.35174576  0.59981610
   0.43699753  0.49355809  0.47264339
   0.73589357  0.93368653  0.28025253
   0.40495646  0.83451212  0.23691006
   0.89337078  0.27873687  0.34471017
   0.35840836  0.46822522  0.21845842
   0.23895067  0.97571100  0.63097639
   0.38394719  0.28843696  0.33695055
   0.84098834  0.42113860  0.71837635
   0.09941932  0.73846340  0.64720383
   0.84393446  0.95065904  0.69258482
   0.59620037  0.84303616  0.93744244
   0.78798044  0.53947227  0.02693220
   0.56223854  0.78846287  0.49689552
   0.64447343  0.39192237  0.35843102
   0.64646977  0.33495899  0.16863097
   0.50949593  0.36726521  0.62143215
   0.23316952  0.80907291  0.44591257
   0.88450882  0.00028758  0.92154751
   0.64261156  0.41214454  0.97389426
   0.26720639  0.64016803  0.20607208
   0.03728987  0.79614638  0.90433406
   0.92543040  0.13656400  0.60069246
   0.23591374  0.42408725  0.35203988
   0.56190582  0.59739644  0.11645231
   0.84942655  0.35635603  0.12332151
   0.89119535  0.11260627  0.17996598
   0.14744998  0.13986196  0.88529479
   0.40995856  0.09683971  0.89688958
   0.89797026  0.04548967  0.39881103
   0.97208058  0.53631143  0.50438699
   0.64702877  0.10811442  0.00010161
   0.13420152  0.50786976  0.16389394
   0.03308854  0.02647149  0.73374199
   0.66224249  0.01849257  0.55639983
   0.11305296  0.19485114  0.22811213
   0.73678549  0.22526521  0.53332436
   0.33346113  0.30536509  0.57146274
   0.11837399  0.18674329  0.45582928
   0.15823378  0.58749554  0.40670838
   0.60160955  0.55953875  0.52266314
   0.43124834  0.63413925  0.62879515
   0.14358555  0.18947780  0.65954201
   0.08348797  0.98819545  0.99747518
   0.02784853  0.75995536  0.11072679
   0.44929463  0.96390355  0.01917037
 
 position of ions in cartesian coordinates  (Angst):
  10.09710309  9.16692551  2.61568679
   8.17849072  9.56452400  7.51927327
   0.94656702  4.30578524  3.64073167
   1.25042072  5.40187937  6.33177294
   4.65361557  9.29341960 10.79420813
   2.91302114  3.48445399  2.12609435
   9.38429047  4.38190363  5.50074835
   7.33551741  7.37684380 10.68359592
   2.43253637  5.51764708 11.43248697
   9.49054383  2.03785978 11.27780865
   9.83005891  9.37770456 10.66920293
   5.43876831 10.88467341  4.96530747
   0.32865726  2.18156349  1.01416611
   4.38794470  8.10318201  4.90395456
   9.06415260  6.90508299  7.36667990
   2.27229774  9.58250196  2.96607848
   7.54993809  0.12823051  1.47972366
   6.91428066  0.14290643 10.11624675
   9.50387876 10.74155283  5.59938777
   7.75469671  4.01595557  8.77897317
   4.66337234  0.15788731  7.57121559
   0.70896651  0.19893024  3.95147496
   2.56846727  6.94897109  9.39743082
   5.54558511  4.37843781 10.85384884
  11.10130421  6.59746865  1.25033530
   3.24548639  1.61918462  4.43961762
   6.32938963  2.33721128  3.39099984
   7.53189917  1.51167992  7.02068396
   6.02290547  5.89251125  7.25236291
   3.45022364  3.29856058  8.29754142
   4.23995357  6.79549567  1.67798389
   4.87618657  8.59685010  8.24441995
   1.25332890  3.09256045  9.98562971
   5.05321244  3.81925567  5.62936819
   7.70878319  8.36425907  4.73170816
   1.28722214  0.38320485  7.34196312
   0.11418777  8.07970893  8.86033374
   9.85034740  0.38508630  3.24872563
   7.15721715  8.26416048  1.78643484
   9.88524121  1.02375072  8.43875851
   8.50257978  5.10452246  0.85628009
   6.60198249  5.83995393  4.59168599
   0.06281719  0.22174650 10.07355785
   5.10152657 10.88957658  1.98452083
   4.65810581  1.16950050  0.51081241
   1.93293752 11.62052975  1.23519092
  11.07938489  5.33020409  9.20463877
   2.34699674  9.68415468  6.91518794
   2.59901328  6.17436695  3.19035788
   0.16409764  7.46549943  4.72252241
   1.55135478  8.98445208  0.26950174
   3.01363157  0.90789715 10.09280908
   8.72404181  3.36237452  2.91170932
   0.15313799  2.76009029  6.80341318
   2.45580534 11.04555209  9.72083907
   3.61792794  1.79462522  8.68580237
   0.47109994 10.76668840  1.93982991
   7.98205301  8.92875133  9.78966557
   0.14024985  6.62600140  8.34740353
   2.65039080  9.89640526  1.05595037
   8.46875417  8.40621397  0.93170566
   4.59081807  6.06401650  0.40768557
   0.41034646  6.36664064 10.62698770
   2.81151237  7.97106267 11.42081042
   5.74796463  0.27802197  3.02667785
   2.30657481  3.31303423 11.35180657
   3.07021136  0.84150702  0.44620250
   0.22348677  9.17519454  4.42110088
   8.30771020  1.53632150  3.15237134
   2.63374131  0.23986392  2.70499010
   0.78089499 10.88979261  6.36425758
   4.81627750  1.21165173  5.46223108
   6.04784293  1.71639297  7.73050706
   8.04966136  8.58987508  3.23821505
   5.01310655  7.54236537  9.53102673
  10.97087610  6.84647129  3.27264590
   6.97214326  6.09563353  8.55065572
   5.92961104  9.85621282  7.97724483
   8.55832722  1.62004605  8.34975069
   6.05847203  7.06050013  3.69592982
   9.98609305  8.31822704  8.52331390
  10.79953583  2.13211315  9.37722295
   2.07008061  4.45242794  9.30824171
   3.90149434  4.91060054  8.75430233
   3.41825433  8.86921857  8.02899150
   5.78868569  2.06892493  0.99781524
   9.04670186  8.45349555  5.95481784
   6.77424376  9.87739125  1.55604269
  11.44655600  4.02067094 10.23098091
  11.03999911  4.09016063  6.97476556
   5.08148305  5.73917902  5.49597926
   8.55709794 10.85706880  3.25882499
   4.70890392  9.70385162  2.75483124
  10.38827023  3.24120058  4.00834958
   4.16763452  5.44460396  2.54027232
   2.77855981 11.34573667  7.33710287
   4.46460445  3.35399501  3.91811937
   9.77915814  4.89707260  8.35340470
   1.15606504  8.58698043  7.52579834
   9.81341620 11.05442807  8.05349629
   6.93272124  9.80297059 10.90074315
   9.16277318  6.27307705  0.31317226
   6.53780715  9.16838286  5.77798722
   7.49404872  4.55734129  4.16789797
   7.51726258  3.89496122  1.96087009
   5.92450695  4.27062356  7.22612077
   2.71133558  9.40804009  5.18514870
  10.28522187  0.00334408 10.71591423
   7.47239859  4.79248820 11.32461121
   3.10712220  7.44398482  2.39624185
   0.43361303  9.25772808 10.51575319
  10.76106504  1.58798992  6.98495602
   2.74324591  4.93136004  4.09358074
   6.53393828  6.94662930  1.35412760
   9.87727917  4.14376964  1.43400392
  10.36297399  1.30940521  2.09267560
   1.71457388  1.62633916 10.29436129
   4.76706921  1.12606897 10.42918752
  10.44175387  0.52896181  4.63744379
  11.30352153  6.23632227  5.86509937
   7.52376264  1.25717324  0.00118157
   1.56051858  5.90559755  1.90578714
   0.38475924  0.30781508  8.53207907
   7.70067048  0.21503476  6.46991371
   1.31459936  2.26576281  2.65252738
   8.56746944  2.61942285  6.20158810
   3.87754382  3.55083819  6.64506780
   1.37647332  2.17148337  5.30046193
   1.83996980  6.83149993  4.72927550
   6.99562013  6.50641360  6.07761759
   5.01463042  7.37388113  7.31173905
   1.66963763  2.20328068  7.66926880
   0.97081262 11.49090800 11.59881424
   0.32382754  8.83689265  1.28755034
   5.22447589 11.20843752  0.22291634
 


--------------------------------------------------------------------------------------------------------


 k-point  1 :   0.0000 0.0000 0.0000  plane waves:   52515
 k-point  2 :   0.5000 0.0000 0.0000  plane waves:   52518
 k-point  3 :   0.0000 0.5000 0.0000  plane waves:   52518
 k-point  4 :   0.5000 0.5000 0.0000  plane waves:   52456
 k-point  5 :   0.0000 0.0000 0.5000  plane waves:   52518
 k-point  6 :   0.5000 0.0000 0.5000  plane waves:   52456
 k-point  7 :   0.0000 0.5000 0.5000  plane waves:   52456
 k-point  8 :   0.5000 0.5000 0.5000  plane waves:   52568

 maximum and minimum number of plane-waves per node :      4066     3984

 maximum number of plane-waves:     52568
 maximum index in each direction: 
   IXMAX=   23   IYMAX=   23   IZMAX=   23
   IXMIN=  -23   IYMIN=  -23   IZMIN=  -23


 real space projection operators:
  total allocation   :      51787.61 KBytes
  max/ min on nodes  :       4410.94       3673.12


 parallel 3D FFT for wavefunctions:
    minimum data exchange during FFTs selected (reduces bandwidth)
 parallel 3D FFT for charge:
    minimum data exchange during FFTs selected (reduces bandwidth)


 total amount of memory used by VASP MPI-rank0   158028. kBytes
=======================================================================

   base      :      30000. kBytes
   nonlr-proj:      22477. kBytes
   fftplans  :      23353. kBytes
   grid      :      12472. kBytes
   one-center:        171. kBytes
   wavefun   :      69555. kBytes
 
     INWAV:  cpu time    0.0000: real time    0.0000
 Broyden mixing: mesh for mixing (old mesh)
   NGX = 47   NGY = 47   NGZ = 47
  (NGX  =192   NGY  =192   NGZ  =192)
  gives a total of 103823 points

 initial charge density was supplied:
 charge density of overlapping atoms calculated
 number of electron     864.0000000 magnetization 
 keeping initial charge density in first step


--------------------------------------------------------------------------------------------------------


 Maximum index for non-local projection operator          848
 Maximum index for augmentation-charges         7528 (set IRDMAX)


--------------------------------------------------------------------------------------------------------


 First call to EWALD:  gamma=   0.152
 Maximum number of real-space cells 3x 3x 3
 Maximum number of reciprocal cells 3x 3x 3

    FEWALD:  cpu time    0.0052: real time    0.0051


--------------------------------------- Iteration      1(   1)  ---------------------------------------


    POTLOK:  cpu time    0.1350: real time    0.1445
    SETDIJ:  cpu time    0.3612: real time    0.3633
     EDDAV:  cpu time   34.4793: real time   34.4805
       DOS:  cpu time    0.0026: real time    0.0026
    --------------------------------------------
      LOOP:  cpu time   34.9782: real time   34.9909

 eigenvalue-minimisations  :  8320
 total energy-change (2. order) : 0.9759532E+04  (-0.4841583E+05)
 number of electron     864.0000000 magnetization 
 augmentation part      864.0000000 magnetization 

 Free energy of the ion-electron system (eV)
  ---------------------------------------------------
  alpha Z        PSCENC =      3039.22321400
  Ewald energy   TEWEN  =    -48195.10343504
  -Hartree energ DENC   =    -16478.35910016
  -exchange      EXHF   =         0.00000000
  -V(xc)+E(xc)   XCENC  =      3194.68767239
  PAW double counting   =     50594.51003143   -49994.65612350
  entropy T*S    EENTRO =        -0.03845605
  eigenvalues    EBANDS =      2630.72827151
  atomic energy  EATOM  =     64968.54023382
  Solvation  Ediel_sol  =         0.00000000
  ---------------------------------------------------
  free energy    TOTEN  =      9759.53230841 eV

  energy without entropy =     9759.57076446  energy(sigma->0) =     9759.55153643


--------------------------------------------------------------------------------------------------------




--------------------------------------- Iteration      1(   2)  ---------------------------------------


     EDDAV:  cpu time   38.6170: real time   38.6248
       DOS:  cpu time    0.0018: real time    0.0017
    --------------------------------------------
      LOOP:  cpu time   38.6187: real time   38.6265

 eigenvalue-minimisations  :  9736
 total energy-change (2. order) :-0.9629395E+04  (-0.9278299E+04)
 number of electron     864.0000000 magnetization 
 augmentation part      864.0000000 magnetization 

 Free energy of the ion-electron system (eV)
  ---------------------------------------------------
  alpha Z        PSCENC =      3039.22321400
  Ewald energy   TEWEN  =    -48195.10343504
  -Hartree energ DENC   =    -16478.35910016
  -exchange      EXHF   =         0.00000000
  -V(xc)+E(xc)   XCENC  =      3194.68767239
  PAW double counting   =     50594.51003143   -49994.65612350
  entropy T*S    EENTRO =        -0.00000004
  eigenvalues    EBANDS =     -6998.70545022
  atomic energy  EATOM  =     64968.54023382
  Solvation  Ediel_sol  =         0.00000000
  ---------------------------------------------------
  free energy    TOTEN  =       130.13704269 eV

  energy without entropy =      130.13704273  energy(sigma->0) =      130.13704271


--------------------------------------------------------------------------------------------------------




--------------------------------------- Iteration      1(   3)  ---------------------------------------


     EDDAV:  cpu time   40.5960: real time   40.6094
       DOS:  cpu time    0.0010: real time    0.0010
    --------------------------------------------
      LOOP:  cpu time   40.5970: real time   40.6104

 eigenvalue-minimisations  : 10360
 total energy-change (2. order) :-0.1097690E+04  (-0.1087860E+04)
 number of electron     864.0000000 magnetization 
 augmentation part      864.0000000 magnetization 

 Free energy of the ion-electron system (eV)
  ---------------------------------------------------
  alpha Z        PSCENC =      3039.22321400
  Ewald energy   TEWEN  =    -48195.10343504
  -Hartree energ DENC   =    -16478.35910016
  -exchange      EXHF   =         0.00000000
  -V(xc)+E(xc)   XCENC  =      3194.68767239
  PAW double counting   =     50594.51003143   -49994.65612350
  entropy T*S    EENTRO =        -0.00000000
  eigenvalues    EBANDS =     -8096.39524548
  atomic energy  EATOM  =     64968.54023382
  Solvation  Ediel_sol  =         0.00000000
  ---------------------------------------------------
  free energy    TOTEN  =      -967.55275253 eV

  energy without entropy =     -967.55275253  energy(sigma->0) =     -967.55275253


--------------------------------------------------------------------------------------------------------




--------------------------------------- Iteration      1(   4)  ---------------------------------------


     EDDAV:  cpu time   43.6200: real time   43.6231
       DOS:  cpu time    0.0010: real time    0.0010
    --------------------------------------------
      LOOP:  cpu time   43.6210: real time   43.6241

 eigenvalue-minimisations  : 11376
 total energy-change (2. order) :-0.5282011E+02  (-0.5261501E+02)
 number of electron     864.0000000 magnetization 
 augmentation part      864.0000000 magnetization 

 Free energy of the ion-electron system (eV)
  ---------------------------------------------------
  alpha Z        PSCENC =      3039.22321400
  Ewald energy   TEWEN  =    -48195.10343504
  -Hartree energ DENC   =    -16478.35910016
  -exchange      EXHF   =         0.00000000
  -V(xc)+E(xc)   XCENC  =      3194.68767239
  PAW double counting   =     50594.51003143   -49994.65612350
  entropy T*S    EENTRO =        -0.00000000
  eigenvalues    EBANDS =     -8149.21535327
  atomic energy  EATOM  =     64968.54023382
  Solvation  Ediel_sol  =         0.00000000
  ---------------------------------------------------
  free energy    TOTEN  =     -1020.37286032 eV

  energy without entropy =    -1020.37286032  energy(sigma->0) =    -1020.37286032


--------------------------------------------------------------------------------------------------------




--------------------------------------- Iteration      1(   5)  ---------------------------------------


     EDDAV:  cpu time   52.8990: real time   52.9136
       DOS:  cpu time    0.0011: real time    0.0011
    CHARGE:  cpu time    1.3219: real time    1.3219
    MIXING:  cpu time    0.0072: real time    0.0073
    --------------------------------------------
      LOOP:  cpu time   54.2292: real time   54.2439

 eigenvalue-minimisations  : 14424
 total energy-change (2. order) :-0.5361296E+01  (-0.5358232E+01)
 number of electron     864.0000008 magnetization 
 augmentation part      133.6170580 magnetization 

 Broyden mixing:
  rms(total) = 0.87426E+01    rms(broyden)= 0.87419E+01
  rms(prec ) = 0.10501E+02
  weight for this iteration     100.00

 Free energy of the ion-electron system (eV)
  ---------------------------------------------------
  alpha Z        PSCENC =      3039.22321400
  Ewald energy   TEWEN  =    -48195.10343504
  -Hartree energ DENC   =    -16478.35910016
  -exchange      EXHF   =         0.00000000
  -V(xc)+E(xc)   XCENC  =      3194.68767239
  PAW double counting   =     50594.51003143   -49994.65612350
  entropy T*S    EENTRO =        -0.00000000
  eigenvalues    EBANDS =     -8154.57664923
  atomic energy  EATOM  =     64968.54023382
  Solvation  Ediel_sol  =         0.00000000
  ---------------------------------------------------
  free energy    TOTEN  =     -1025.73415628 eV

  energy without entropy =    -1025.73415628  energy(sigma->0) =    -1025.73415628


--------------------------------------------------------------------------------------------------------




--------------------------------------- Iteration      1(   6)  ---------------------------------------


    POTLOK:  cpu time    0.1061: real time    0.1107
    SETDIJ:  cpu time    0.3476: real time    0.3475
     EDDAV:  cpu time   39.1148: real time   39.1190
       DOS:  cpu time    0.0030: real time    0.0030
    CHARGE:  cpu time    1.3286: real time    1.3286
    MIXING:  cpu time    0.0062: real time    0.0062
    --------------------------------------------
      LOOP:  cpu time   40.9064: real time   40.9151

 eigenvalue-minimisations  :  9936
 total energy-change (2. order) : 0.1498596E+03  (-0.7034382E+02)
 number of electron     864.0000007 magnetization 
 augmentation part      119.2877895 magnetization 

 Broyden mixing:
  rms(total) = 0.40550E+01    rms(broyden)= 0.40538E+01
  rms(prec ) = 0.46218E+01
  weight for this iteration     100.00

 eigenvalues of (default mixing * dielectric matrix)
  average eigenvalue GAMMA=   0.9520
  0.9520

 Free energy of the ion-electron system (eV)
  ---------------------------------------------------
  alpha Z        PSCENC =      3039.22321400
  Ewald energy   TEWEN  =    -48195.10343504
  -Hartree energ DENC   =    -17866.68577778
  -exchange      EXHF   =         0.00000000
  -V(xc)+E(xc)   XCENC  =      3285.50943308
  PAW double counting   =     66188.29476844   -65726.82558765
  entropy T*S    EENTRO =        -0.01555265
  eigenvalues    EBANDS =     -6568.81181609
  atomic energy  EATOM  =     64968.54023382
  Solvation  Ediel_sol  =         0.00000000
  ---------------------------------------------------
  free energy    TOTEN  =      -875.87451985 eV

  energy without entropy =     -875.85896721  energy(sigma->0) =     -875.86674353


--------------------------------------------------------------------------------------------------------




--------------------------------------- Iteration      1(   7)  ---------------------------------------


    POTLOK:  cpu time    0.1325: real time    0.1477
    SETDIJ:  cpu time    0.3713: real time    0.3713
     EDDAV:  cpu time   41.8288: real time   41.8338
       DOS:  cpu time    0.0010: real time    0.0010
    CHARGE:  cpu time    1.3311: real time    1.3311
    MIXING:  cpu time    0.0059: real time    0.0059
    --------------------------------------------
      LOOP:  cpu time   43.6707: real time   43.6909

 eigenvalue-minimisations  : 10760
 total energy-change (2. order) :-0.2837655E+01  (-0.9607565E+01)
 number of electron     864.0000007 magnetization 
 augmentation part      119.3203395 magnetization 

 Broyden mixing:
  rms(total) = 0.24190E+01    rms(broyden)= 0.24187E+01
  rms(prec ) = 0.29729E+01
  weight for this iteration     100.00

 eigenvalues of (default mixing * dielectric matrix)
  average eigenvalue GAMMA=   0.9286
  1.0830  0.7742

 Free energy of the ion-electron system (eV)
  ---------------------------------------------------
  alpha Z        PSCENC =      3039.22321400
  Ewald energy   TEWEN  =    -48195.10343504
  -Hartree energ DENC   =    -17884.51253734
  -exchange      EXHF   =         0.00000000
  -V(xc)+E(xc)   XCENC  =      3285.92783533
  PAW double counting   =     78226.68944934   -77811.22972007
  entropy T*S    EENTRO =        -0.00000000
  eigenvalues    EBANDS =     -6508.24721467
  atomic energy  EATOM  =     64968.54023382
  Solvation  Ediel_sol  =         0.00000000
  ---------------------------------------------------
  free energy    TOTEN  =      -878.71217462 eV

  energy without entropy =     -878.71217462  energy(sigma->0) =     -878.71217462


--------------------------------------------------------------------------------------------------------




--------------------------------------- Iteration      1(   8)  ---------------------------------------


    POTLOK:  cpu time    0.1003: real time    0.1048
    SETDIJ:  cpu time    0.3397: real time    0.3397
     EDDAV:  cpu time   44.4306: real time   44.4321
       DOS:  cpu time    0.0022: real time    0.0022
    CHARGE:  cpu time    1.3363: real time    1.3363
    MIXING:  cpu time    0.0056: real time    0.0056
    --------------------------------------------
      LOOP:  cpu time   46.2149: real time   46.2208

 eigenvalue-minimisations  : 11704
 total energy-change (2. order) : 0.5750118E+01  (-0.2760910E+01)
 number of electron     864.0000007 magnetization 
 augmentation part      118.3554126 magnetization 

 Broyden mixing:
  rms(total) = 0.14593E+01    rms(broyden)= 0.14591E+01
  rms(prec ) = 0.17146E+01
  weight for this iteration     100.00

 eigenvalues of (default mixing * dielectric matrix)
  average eigenvalue GAMMA=   1.0172
  1.4474  1.0698  0.5344

 Free energy of the ion-electron system (eV)
  ---------------------------------------------------
  alpha Z        PSCENC =      3039.22321400
  Ewald energy   TEWEN  =    -48195.10343504
  -Hartree energ DENC   =    -17919.00271957
  -exchange      EXHF   =         0.00000000
  -V(xc)+E(xc)   XCENC  =      3286.95078244
  PAW double counting   =     84353.13136125   -83963.77371616
  entropy T*S    EENTRO =        -0.00000594
  eigenvalues    EBANDS =     -6442.92777134
  atomic energy  EATOM  =     64968.54023382
  Solvation  Ediel_sol  =         0.00000000
  ---------------------------------------------------
  free energy    TOTEN  =      -872.96205653 eV

  energy without entropy =     -872.96205058  energy(sigma->0) =     -872.96205356


--------------------------------------------------------------------------------------------------------




--------------------------------------- Iteration      1(   9)  ---------------------------------------


    POTLOK:  cpu time    0.1205: real time    0.1355
    SETDIJ:  cpu time    0.3505: real time    0.3505
     EDDAV:  cpu time   39.2829: real time   39.2841
       DOS:  cpu time    0.0022: real time    0.0022
    CHARGE:  cpu time    1.3320: real time    1.3320
    MIXING:  cpu time    0.0056: real time    0.0056
    --------------------------------------------
      LOOP:  cpu time   41.0938: real time   41.1098

 eigenvalue-minimisations  :  9984
 total energy-change (2. order) : 0.3623404E+00  (-0.1123344E+01)
 number of electron     864.0000007 magnetization 
 augmentation part      118.3996439 magnetization 

 Broyden mixing:
  rms(total) = 0.98275E+00    rms(broyden)= 0.98262E+00
  rms(prec ) = 0.13134E+01
  weight for this iteration     100.00

 eigenvalues of (default mixing * dielectric matrix)
  average eigenvalue GAMMA=   1.0094
  1.8258  1.0225  0.5947  0.5947

 Free energy of the ion-electron system (eV)
  ---------------------------------------------------
  alpha Z        PSCENC =      3039.22321400
  Ewald energy   TEWEN  =    -48195.10343504
  -Hartree energ DENC   =    -17941.10712035
  -exchange      EXHF   =         0.00000000
  -V(xc)+E(xc)   XCENC  =      3288.11563380
  PAW double counting   =     90207.05503670   -89838.08955023
  entropy T*S    EENTRO =        -0.00002994
  eigenvalues    EBANDS =     -6401.23369889
  atomic energy  EATOM  =     64968.54023382
  Solvation  Ediel_sol  =         0.00000000
  ---------------------------------------------------
  free energy    TOTEN  =      -872.59971612 eV

  energy without entropy =     -872.59968618  energy(sigma->0) =     -872.59970115


--------------------------------------------------------------------------------------------------------




--------------------------------------- Iteration      1(  10)  ---------------------------------------


    POTLOK:  cpu time    0.1220: real time    0.1266
    SETDIJ:  cpu time    0.3514: real time    0.3514
     EDDAV:  cpu time   39.7980: real time   39.8009
       DOS:  cpu time    0.0022: real time    0.0022
    CHARGE:  cpu time    1.3296: real time    1.3296
    MIXING:  cpu time    0.0121: real time    0.0121
    --------------------------------------------
      LOOP:  cpu time   41.6154: real time   41.6228

 eigenvalue-minimisations  : 10160
 total energy-change (2. order) : 0.5769941E+00  (-0.3365694E+00)
 number of electron     864.0000007 magnetization 
 augmentation part      118.3469327 magnetization 

 Broyden mixing:
  rms(total) = 0.58770E+00    rms(broyden)= 0.58760E+00
  rms(prec ) = 0.93329E+00
  weight for this iteration     100.00

 eigenvalues of (default mixing * dielectric matrix)
  average eigenvalue GAMMA=   0.9504
  2.0018  0.9986  0.6097  0.6097  0.5322

 Free energy of the ion-electron system (eV)
  ---------------------------------------------------
  alpha Z        PSCENC =      3039.22321400
  Ewald energy   TEWEN  =    -48195.10343504
  -Hartree energ DENC   =    -17966.46676798
  -exchange      EXHF   =         0.00000000
  -V(xc)+E(xc)   XCENC  =      3289.63866356
  PAW double counting   =     93649.09944435   -93292.66535525
  entropy T*S    EENTRO =        -0.00101156
  eigenvalues    EBANDS =     -6364.28770795
  atomic energy  EATOM  =     64968.54023382
  Solvation  Ediel_sol  =         0.00000000
  ---------------------------------------------------
  free energy    TOTEN  =      -872.02272205 eV

  energy without entropy =     -872.02171049  energy(sigma->0) =     -872.02221627


--------------------------------------------------------------------------------------------------------




--------------------------------------- Iteration      1(  11)  ---------------------------------------


    POTLOK:  cpu time    0.1198: real time    0.1333
    SETDIJ:  cpu time    0.3497: real time    0.3497
     EDDAV:  cpu time   40.0784: real time   40.0793
       DOS:  cpu time    0.0027: real time    0.0027
    CHARGE:  cpu time    1.3426: real time    1.3425
    MIXING:  cpu time    0.0058: real time    0.0058
    --------------------------------------------
      LOOP:  cpu time   41.8990: real time   41.9133

 eigenvalue-minimisations  : 10256
 total energy-change (2. order) : 0.6055652E+00  (-0.9998613E-01)
 number of electron     864.0000007 magnetization 
 augmentation part      118.1947153 magnetization 

 Broyden mixing:
  rms(total) = 0.24723E+00    rms(broyden)= 0.24717E+00
  rms(prec ) = 0.30913E+00
  weight for this iteration     100.00

 eigenvalues of (default mixing * dielectric matrix)
  average eigenvalue GAMMA=   0.9765
  2.2467  1.0228  1.0228  0.5281  0.5193  0.5193

 Free energy of the ion-electron system (eV)
  ---------------------------------------------------
  alpha Z        PSCENC =      3039.22321400
  Ewald energy   TEWEN  =    -48195.10343504
  -Hartree energ DENC   =    -17981.69825956
  -exchange      EXHF   =         0.00000000
  -V(xc)+E(xc)   XCENC  =      3290.39886022
  PAW double counting   =     94681.87398100   -94328.98253870
  entropy T*S    EENTRO =        -0.02238498
  eigenvalues    EBANDS =     -6345.64682757
  atomic energy  EATOM  =     64968.54023382
  Solvation  Ediel_sol  =         0.00000000
  ---------------------------------------------------
  free energy    TOTEN  =      -871.41715681 eV

  energy without entropy =     -871.39477183  energy(sigma->0) =     -871.40596432


--------------------------------------------------------------------------------------------------------




--------------------------------------- Iteration      1(  12)  ---------------------------------------


    POTLOK:  cpu time    0.1011: real time    0.1052
    SETDIJ:  cpu time    0.3406: real time    0.3405
     EDDAV:  cpu time   39.0386: real time   39.0393
       DOS:  cpu time    0.0026: real time    0.0026
    CHARGE:  cpu time    1.3365: real time    1.3364
    MIXING:  cpu time    0.0061: real time    0.0061
    --------------------------------------------
      LOOP:  cpu time   40.8255: real time   40.8303

 eigenvalue-minimisations  :  9912
 total energy-change (2. order) :-0.5361792E-01  (-0.8688343E-01)
 number of electron     864.0000007 magnetization 
 augmentation part      118.1855593 magnetization 

 Broyden mixing:
  rms(total) = 0.27152E+00    rms(broyden)= 0.27143E+00
  rms(prec ) = 0.38146E+00
  weight for this iteration     100.00

 eigenvalues of (default mixing * dielectric matrix)
  average eigenvalue GAMMA=   0.9465
  2.2864  1.0676  1.0676  0.6573  0.6573  0.4445  0.4445

 Free energy of the ion-electron system (eV)
  ---------------------------------------------------
  alpha Z        PSCENC =      3039.22321400
  Ewald energy   TEWEN  =    -48195.10343504
  -Hartree energ DENC   =    -17997.52359185
  -exchange      EXHF   =         0.00000000
  -V(xc)+E(xc)   XCENC  =      3291.41394628
  PAW double counting   =     95557.65079652   -95207.44906540
  entropy T*S    EENTRO =        -0.02321885
  eigenvalues    EBANDS =     -6328.19965421
  atomic energy  EATOM  =     64968.54023382
  Solvation  Ediel_sol  =         0.00000000
  ---------------------------------------------------
  free energy    TOTEN  =      -871.47077473 eV

  energy without entropy =     -871.44755588  energy(sigma->0) =     -871.45916531


--------------------------------------------------------------------------------------------------------




--------------------------------------- Iteration      1(  13)  ---------------------------------------


    POTLOK:  cpu time    0.1341: real time    0.1483
    SETDIJ:  cpu time    0.3601: real time    0.3601
     EDDAV:  cpu time   42.3752: real time   42.3753
       DOS:  cpu time    0.0025: real time    0.0025
    CHARGE:  cpu time    1.3350: real time    1.3350
    MIXING:  cpu time    0.0069: real time    0.0069
    --------------------------------------------
      LOOP:  cpu time   44.2138: real time   44.2280

 eigenvalue-minimisations  : 10976
 total energy-change (2. order) :-0.6591039E-01  (-0.3879541E-01)
 number of electron     864.0000007 magnetization 
 augmentation part      118.0369977 magnetization 

 Broyden mixing:
  rms(total) = 0.28616E+00    rms(broyden)= 0.28603E+00
  rms(prec ) = 0.45305E+00
  weight for this iteration     100.00

 eigenvalues of (default mixing * dielectric matrix)
  average eigenvalue GAMMA=   0.9111
  2.3391  1.3826  0.9197  0.5503  0.5503  0.6342  0.5453  0.3670

 Free energy of the ion-electron system (eV)
  ---------------------------------------------------
  alpha Z        PSCENC =      3039.22321400
  Ewald energy   TEWEN  =    -48195.10343504
  -Hartree energ DENC   =    -18004.61512756
  -exchange      EXHF   =         0.00000000
  -V(xc)+E(xc)   XCENC  =      3291.77722058
  PAW double counting   =     95684.21104341   -95334.13862218
  entropy T*S    EENTRO =        -0.00341265
  eigenvalues    EBANDS =     -6321.42779952
  atomic energy  EATOM  =     64968.54023382
  Solvation  Ediel_sol  =         0.00000000
  ---------------------------------------------------
  free energy    TOTEN  =      -871.53668512 eV

  energy without entropy =     -871.53327247  energy(sigma->0) =     -871.53497880


--------------------------------------------------------------------------------------------------------




--------------------------------------- Iteration      1(  14)  ---------------------------------------


    POTLOK:  cpu time    0.1012: real time    0.1075
    SETDIJ:  cpu time    0.3405: real time    0.3405
     EDDAV:  cpu time   41.5645: real time   41.5670
       DOS:  cpu time    0.0025: real time    0.0025
    CHARGE:  cpu time    1.3344: real time    1.3344
    MIXING:  cpu time    0.0060: real time    0.0060
    --------------------------------------------
      LOOP:  cpu time   43.3492: real time   43.3580

 eigenvalue-minimisations  : 10752
 total energy-change (2. order) : 0.7375074E-01  (-0.6129547E-02)
 number of electron     864.0000007 magnetization 
 augmentation part      118.0598265 magnetization 

 Broyden mixing:
  rms(total) = 0.13578E+00    rms(broyden)= 0.13576E+00
  rms(prec ) = 0.20111E+00
  weight for this iteration     100.00

 eigenvalues of (default mixing * dielectric matrix)
  average eigenvalue GAMMA=   0.8872
  2.3600  1.5692  0.9022  0.6140  0.6140  0.7055  0.4420  0.4420  0.3363

 Free energy of the ion-electron system (eV)
  ---------------------------------------------------
  alpha Z        PSCENC =      3039.22321400
  Ewald energy   TEWEN  =    -48195.10343504
  -Hartree energ DENC   =    -18005.33037313
  -exchange      EXHF   =         0.00000000
  -V(xc)+E(xc)   XCENC  =      3291.83620354
  PAW double counting   =     95670.60934252   -95320.51695240
  entropy T*S    EENTRO =        -0.01680333
  eigenvalues    EBANDS =     -6320.70436437
  atomic energy  EATOM  =     64968.54023382
  Solvation  Ediel_sol  =         0.00000000
  ---------------------------------------------------
  free energy    TOTEN  =      -871.46293439 eV

  energy without entropy =     -871.44613105  energy(sigma->0) =     -871.45453272


--------------------------------------------------------------------------------------------------------




--------------------------------------- Iteration      1(  15)  ---------------------------------------


    POTLOK:  cpu time    0.1290: real time    0.1442
    SETDIJ:  cpu time    0.3496: real time    0.3496
     EDDAV:  cpu time   43.5613: real time   43.5624
       DOS:  cpu time    0.0026: real time    0.0026
    CHARGE:  cpu time    1.3359: real time    1.3359
    MIXING:  cpu time    0.0061: real time    0.0061
    --------------------------------------------
      LOOP:  cpu time   45.3846: real time   45.4008

 eigenvalue-minimisations  : 11400
 total energy-change (2. order) :-0.8326094E-02  (-0.7113185E-02)
 number of electron     864.0000007 magnetization 
 augmentation part      118.1320445 magnetization 

 Broyden mixing:
  rms(total) = 0.19231E+00    rms(broyden)= 0.19222E+00
  rms(prec ) = 0.28370E+00
  weight for this iteration     100.00

 eigenvalues of (default mixing * dielectric matrix)
  average eigenvalue GAMMA=   0.9126
  2.3723  1.9049  0.8613  0.8613  0.8827  0.5285  0.5285  0.4968  0.3451  0.3451

 Free energy of the ion-electron system (eV)
  ---------------------------------------------------
  alpha Z        PSCENC =      3039.22321400
  Ewald energy   TEWEN  =    -48195.10343504
  -Hartree energ DENC   =    -18005.81978605
  -exchange      EXHF   =         0.00000000
  -V(xc)+E(xc)   XCENC  =      3291.87949626
  PAW double counting   =     95608.67690948   -95258.36534589
  entropy T*S    EENTRO =        -0.02290869
  eigenvalues    EBANDS =     -6320.47963837
  atomic energy  EATOM  =     64968.54023382
  Solvation  Ediel_sol  =         0.00000000
  ---------------------------------------------------
  free energy    TOTEN  =      -871.47126048 eV

  energy without entropy =     -871.44835179  energy(sigma->0) =     -871.45980614


--------------------------------------------------------------------------------------------------------




--------------------------------------- Iteration      1(  16)  ---------------------------------------


    POTLOK:  cpu time    0.1193: real time    0.1240
    SETDIJ:  cpu time    0.3467: real time    0.3467
     EDDAV:  cpu time   41.2645: real time   41.2638
       DOS:  cpu time    0.0026: real time    0.0026
    CHARGE:  cpu time    1.3361: real time    1.3360
    MIXING:  cpu time    0.0058: real time    0.0058
    --------------------------------------------
      LOOP:  cpu time   43.0750: real time   43.0790

 eigenvalue-minimisations  : 10648
 total energy-change (2. order) : 0.1287293E-01  (-0.5327438E-02)
 number of electron     864.0000007 magnetization 
 augmentation part      118.0671655 magnetization 

 Broyden mixing:
  rms(total) = 0.52618E-01    rms(broyden)= 0.52487E-01
  rms(prec ) = 0.78090E-01
  weight for this iteration     100.00

 eigenvalues of (default mixing * dielectric matrix)
  average eigenvalue GAMMA=   0.9400
  2.4961  2.2233  0.8495  0.8495  0.8412  0.8412  0.5398  0.5398  0.4952  0.3324
  0.3324

 Free energy of the ion-electron system (eV)
  ---------------------------------------------------
  alpha Z        PSCENC =      3039.22321400
  Ewald energy   TEWEN  =    -48195.10343504
  -Hartree energ DENC   =    -18008.71891003
  -exchange      EXHF   =         0.00000000
  -V(xc)+E(xc)   XCENC  =      3292.00465816
  PAW double counting   =     95523.63224444   -95172.73681686
  entropy T*S    EENTRO =        -0.02140080
  eigenvalues    EBANDS =     -6318.27817525
  atomic energy  EATOM  =     64968.54023382
  Solvation  Ediel_sol  =         0.00000000
  ---------------------------------------------------
  free energy    TOTEN  =      -871.45838756 eV

  energy without entropy =     -871.43698676  energy(sigma->0) =     -871.44768716


--------------------------------------------------------------------------------------------------------




--------------------------------------- Iteration      1(  17)  ---------------------------------------


    POTLOK:  cpu time    0.1024: real time    0.1157
    SETDIJ:  cpu time    0.3404: real time    0.3404
     EDDAV:  cpu time   38.1634: real time   38.1643
       DOS:  cpu time    0.0030: real time    0.0030
    CHARGE:  cpu time    1.3123: real time    1.3122
    MIXING:  cpu time    0.0064: real time    0.0063
    --------------------------------------------
      LOOP:  cpu time   39.9279: real time   39.9421

 eigenvalue-minimisations  :  9624
 total energy-change (2. order) :-0.2051510E-03  (-0.9673159E-03)
 number of electron     864.0000007 magnetization 
 augmentation part      118.0884386 magnetization 

 Broyden mixing:
  rms(total) = 0.23642E-01    rms(broyden)= 0.23632E-01
  rms(prec ) = 0.36305E-01
  weight for this iteration     100.00

 eigenvalues of (default mixing * dielectric matrix)
  average eigenvalue GAMMA=   0.9610
  2.4526  2.4526  1.0204  1.0204  0.8448  0.8448  0.6590  0.5284  0.5284  0.5182
  0.3315  0.3315

 Free energy of the ion-electron system (eV)
  ---------------------------------------------------
  alpha Z        PSCENC =      3039.22321400
  Ewald energy   TEWEN  =    -48195.10343504
  -Hartree energ DENC   =    -18009.73117297
  -exchange      EXHF   =         0.00000000
  -V(xc)+E(xc)   XCENC  =      3292.05660089
  PAW double counting   =     95466.87045067   -95115.65194475
  entropy T*S    EENTRO =        -0.02390404
  eigenvalues    EBANDS =     -6317.63863529
  atomic energy  EATOM  =     64968.54023382
  Solvation  Ediel_sol  =         0.00000000
  ---------------------------------------------------
  free energy    TOTEN  =      -871.45859271 eV

  energy without entropy =     -871.43468866  energy(sigma->0) =     -871.44664068


--------------------------------------------------------------------------------------------------------




--------------------------------------- Iteration      1(  18)  ---------------------------------------


    POTLOK:  cpu time    0.1029: real time    0.1075
    SETDIJ:  cpu time    0.3406: real time    0.3406
     EDDAV:  cpu time   43.0843: real time   43.0835
       DOS:  cpu time    0.0027: real time    0.0027
    CHARGE:  cpu time    1.3024: real time    1.3024
    MIXING:  cpu time    0.0066: real time    0.0066
    --------------------------------------------
      LOOP:  cpu time   44.8394: real time   44.8433

 eigenvalue-minimisations  : 11256
 total energy-change (2. order) :-0.3630368E-03  (-0.2743225E-03)
 number of electron     864.0000007 magnetization 
[...]
   0.677E+01 0.102E+03 -.377E+02   -.134E+01 -.893E+02 0.305E+02   -.910E+01 -.139E+02 0.848E+01   0.233E-02 -.596E-03 0.129E-01
   0.137E+03 -.662E+02 -.836E+02   -.151E+03 0.625E+02 0.100E+03   0.142E+02 0.383E+01 -.162E+02   0.460E-04 -.128E-04 -.517E-04
   0.642E+01 -.259E+02 -.132E+02   -.272E+02 0.524E+02 0.208E+02   0.243E+02 -.255E+02 -.883E+01   -.910E-03 -.117E-03 -.218E-02
   0.104E+03 0.352E+02 0.146E+02   -.124E+03 -.247E+02 -.131E+02   0.191E+02 -.145E+02 -.243E+01   0.505E-02 -.177E-01 0.332E-03
   0.265E+02 0.464E+02 -.697E+02   -.483E+02 -.595E+02 0.708E+02   0.267E+02 0.135E+02 -.319E+00   0.917E-03 0.190E-02 0.317E-02
   -.292E+02 0.131E+03 -.545E+02   0.239E+02 -.163E+03 0.702E+02   0.121E+01 0.254E+02 -.108E+02   -.107E-02 -.188E-02 0.746E-02
   0.160E+02 -.460E+02 0.324E+02   -.351E+01 0.355E+02 -.293E+02   -.156E+02 0.124E+02 -.498E+01   -.309E-02 0.317E-02 0.188E-02
   -.216E+03 0.786E+02 -.935E+01   0.232E+03 -.108E+03 0.223E+02   -.159E+02 0.297E+02 -.123E+02   0.221E-02 -.736E-02 0.734E-02
   0.240E+00 0.483E+02 0.546E+02   0.201E+02 -.420E+02 -.491E+02   -.217E+02 -.852E+01 -.653E+01   0.252E-02 0.296E-02 -.306E-02
   -.101E+03 -.840E+02 0.362E+01   0.962E+02 0.903E+02 -.159E+02   0.681E+01 -.614E+01 0.146E+02   0.139E-01 0.279E-02 0.166E-01
   0.741E+02 0.341E+01 -.735E+02   -.889E+02 -.156E+02 0.576E+02   0.128E+02 0.146E+02 0.192E+02   -.313E-02 -.275E-02 -.286E-02
   0.515E+02 0.241E+02 0.532E+02   -.574E+02 -.335E+02 -.650E+02   0.513E+01 0.958E+01 0.134E+02   0.322E-02 -.256E-02 -.350E-02
   -.297E+02 0.854E+02 -.208E+02   0.347E+02 -.109E+03 0.169E+02   -.602E+01 0.242E+02 0.468E+01   0.137E-02 0.379E-02 -.423E-02
   -.123E+02 0.932E+01 -.964E+00   0.129E+02 -.923E+01 0.134E+02   -.461E+00 -.159E+01 -.134E+02   -.705E-02 0.507E-02 0.107E-01
   -.498E+02 0.217E+02 0.499E+02   0.654E+02 0.111E+02 -.672E+02   -.116E+02 -.268E+02 0.146E+02   0.527E-03 -.582E-02 0.269E-02
   0.150E+01 0.244E+02 0.201E+02   -.123E+02 -.192E+02 -.240E+01   0.128E+02 -.671E+01 -.215E+02   -.215E-02 -.231E-02 -.530E-03
   -.372E+02 -.419E+02 0.332E+02   0.445E+02 0.249E+02 -.388E+02   -.705E+01 0.176E+02 0.679E+01   -.132E-01 -.612E-02 0.101E-01
   0.554E+02 -.102E+03 0.459E+02   -.843E+02 0.103E+03 -.575E+02   0.295E+02 0.273E+00 0.102E+02   -.248E-02 0.856E-03 0.756E-02
   -.462E+02 0.875E+02 -.295E+02   0.457E+02 -.113E+03 0.411E+02   0.276E+01 0.248E+02 -.125E+02   -.225E-02 -.538E-02 -.205E-01
   0.253E+02 0.326E+01 -.732E+02   -.308E+02 -.384E+01 0.565E+02   0.683E+01 0.190E+01 0.212E+02   0.164E-02 -.116E-02 0.970E-03
   0.108E+03 0.533E+02 -.573E+02   -.134E+03 -.592E+02 0.728E+02   0.238E+02 0.532E+01 -.152E+02   0.239E-02 0.447E-02 -.144E-03
   -.458E+02 0.630E+02 0.359E+02   0.333E+02 -.662E+02 -.510E+02   0.118E+02 0.164E+01 0.117E+02   -.887E-03 -.277E-02 -.316E-03
   -.180E+02 -.859E+02 -.166E+02   -.244E+01 0.121E+03 0.161E+02   0.177E+02 -.263E+02 0.336E+01   -.110E-02 -.561E-02 0.397E-02
   0.327E+01 0.460E+02 0.102E+03   -.105E+02 -.362E+02 -.104E+03   0.805E+01 -.114E+02 -.112E+01   0.154E-02 -.124E-03 0.459E-03
   0.561E+02 -.124E+02 0.924E+02   -.718E+02 -.443E+01 -.108E+03   0.150E+02 0.149E+02 0.153E+02   -.671E-03 0.365E-02 -.126E-02
   -.100E+03 0.135E+02 -.191E+03   0.117E+03 -.351E+02 0.213E+03   -.171E+02 0.181E+02 -.190E+02   0.731E-02 -.470E-02 0.284E-02
   -.310E+01 0.146E+03 -.457E+02   -.858E+01 -.179E+03 0.377E+02   0.899E+01 0.317E+02 0.714E+01   0.868E-03 -.834E-02 0.497E-02
   -.377E+02 -.430E+02 -.195E+01   0.582E+02 0.383E+02 0.353E+01   -.220E+02 0.403E+01 -.123E+01   -.154E-02 0.637E-03 0.212E-02
   0.651E+02 -.422E+02 0.481E+02   -.588E+02 0.598E+02 -.635E+02   -.555E+01 -.183E+02 0.125E+02   -.328E-03 0.305E-02 0.243E-02
   0.483E+02 -.432E+02 0.233E+02   -.644E+02 0.341E+02 -.103E+02   0.833E+01 0.929E+01 -.144E+02   0.750E-03 0.341E-02 -.205E-02
   -.945E+02 -.136E+03 0.974E+02   0.112E+03 0.140E+03 -.116E+03   -.197E+02 -.192E+01 0.188E+02   -.102E-02 0.748E-02 -.570E-02
   0.293E+02 -.108E+03 -.767E+02   -.176E+02 0.123E+03 0.109E+03   -.101E+02 -.144E+02 -.313E+02   -.730E-03 0.167E-02 -.181E-03
   0.163E+03 -.924E+02 0.467E+02   -.177E+03 0.822E+02 -.351E+02   0.100E+02 0.151E+02 -.147E+02   0.774E-03 -.305E-02 -.101E-02
   -.498E+02 -.212E+03 0.887E+02   0.446E+02 0.222E+03 -.876E+02   0.860E+01 -.652E+01 -.575E+01   0.222E-02 0.797E-02 0.622E-03
   0.129E+03 0.128E+02 0.530E+02   -.143E+03 -.102E+02 -.693E+02   0.129E+02 -.545E+01 0.168E+02   0.107E-02 -.357E-02 0.244E-02
   0.311E+02 0.110E+03 0.134E+02   -.459E+02 -.112E+03 -.168E+02   0.127E+02 -.118E+01 0.874E+01   0.136E-02 0.259E-02 -.238E-02
   0.522E+02 0.755E+01 0.750E+02   -.494E+02 -.418E+02 -.911E+02   -.219E+01 0.229E+02 0.112E+02   -.349E-02 0.756E-02 -.225E-02
   0.561E+02 -.301E+02 -.703E+02   -.571E+02 0.235E+02 0.794E+02   0.194E+01 0.787E+01 -.824E+01   0.241E-02 0.451E-02 0.254E-02
   0.696E+02 -.274E+02 0.561E+02   -.546E+02 0.326E+02 -.663E+02   -.189E+02 -.566E+01 0.114E+02   -.973E-02 0.580E-02 -.295E-02
   0.547E+02 -.452E+02 0.236E+01   -.702E+02 0.435E+02 -.461E+01   0.109E+02 0.660E-01 0.410E+01   0.157E-01 0.230E-02 -.972E-02
   0.495E+02 -.695E+02 -.589E+02   -.447E+02 0.685E+02 0.524E+02   -.814E+01 0.241E+01 0.872E+01   0.519E-02 0.291E-02 -.141E-03
   -.183E+02 -.910E+02 -.975E+02   0.299E+02 0.899E+02 0.110E+03   -.129E+02 0.397E+01 -.146E+02   0.299E-02 -.444E-02 0.258E-02
   -.131E+03 0.480E+01 0.408E+02   0.144E+03 0.133E+02 -.375E+02   -.763E+01 -.175E+02 -.422E+01   -.619E-02 -.110E-01 -.317E-02
   0.607E+02 0.715E+02 0.514E+02   -.690E+02 -.824E+02 -.670E+02   0.935E+01 0.660E+01 0.106E+02   -.187E-02 -.821E-02 -.537E-02
   -.211E+02 -.105E+03 0.487E+02   0.358E+02 0.110E+03 -.445E+02   -.177E+02 -.368E+01 -.401E+01   0.359E-02 0.304E-02 -.290E-02
   0.105E+03 0.450E+02 0.643E+02   -.116E+03 -.572E+02 -.688E+02   0.777E+01 0.141E+02 -.958E-01   -.359E-03 0.214E-02 0.213E-03
   0.106E+03 0.107E+03 0.139E+02   -.124E+03 -.103E+03 0.308E+01   0.185E+02 -.840E+01 -.178E+02   0.207E-03 -.229E-02 0.203E-02
   0.201E+02 0.405E+02 0.282E+02   -.121E+02 -.530E+02 -.476E+02   -.863E+01 0.115E+02 0.246E+02   -.571E-02 0.710E-02 -.140E-02
 -----------------------------------------------------------------------------------------------
   -.555E+02 -.130E+03 -.585E+02   0.737E-12 0.128E-12 0.902E-12   0.555E+02 0.130E+03 0.585E+02   0.273E-01 -.108E-01 0.130E-02
 
 
 POSITION                                       TOTAL-FORCE (eV/Angst)
 -----------------------------------------------------------------------------------
     10.09710      9.16693      2.61569         1.395916     -0.512441     -0.567612
      8.17849      9.56452      7.51927        -2.187172      1.913569      3.173580
      0.94657      4.30579      3.64073        -6.834923     -2.857184      0.398680
      1.25042      5.40188      6.33177         5.180830     -2.115107      2.547806
      4.65362      9.29342     10.79421        -0.904106      0.587735      1.701521
      2.91302      3.48445      2.12609         3.496454      0.228973     -1.121186
      9.38429      4.38190      5.50075         0.499835      0.378109      0.335263
      7.33552      7.37684     10.68360        -1.794177     -3.854140      1.655628
      2.43254      5.51765     11.43249        -1.146858     -0.670391      1.096352
      9.49054      2.03786     11.27781        -1.220520      0.904903      1.145996
      9.83006      9.37770     10.66920        -0.595879      0.272266      1.418060
      5.43877     10.88467      4.96531         1.101936      0.828962     -1.033516
      0.32866      2.18156      1.01417        -1.516136      0.804085     -1.189811
      4.38794      8.10318      4.90395         1.202896     -2.030653      0.544296
      9.06415      6.90508      7.36668         0.039468     -2.804832      0.039145
      2.27230      9.58250      2.96608        -1.436552     -1.461481      3.649255
      7.54994      0.12823      1.47972         1.360327     -1.227537      3.500964
      6.91428      0.14291     10.11625        -0.805449      0.054851     -3.043383
      9.50388     10.74155      5.59939         0.346841     -0.555222      2.092922
      7.75470      4.01596      8.77897         0.371215     -0.603571     -0.706615
      4.66337      0.15789      7.57122         3.809749      1.296030      0.503748
      0.70897      0.19893      3.95147         2.217719      0.617699      1.239009
      2.56847      6.94897      9.39743         1.806699      0.299840     -2.208716
      5.54559      4.37844     10.85385        -1.938012     -0.051746      0.485289
     11.10130      6.59747      1.25034         0.732916     -0.455741     -1.546490
      3.24549      1.61918      4.43962        -2.058904      0.714440     -0.917472
      6.32939      2.33721      3.39100        -1.522943      0.364429      0.208057
      7.53190      1.51168      7.02068        -1.174442     10.805255      1.658549
      6.02291      5.89251      7.25236        -3.353737      2.729596      0.625506
      3.45022      3.29856      8.29754         0.124792      5.978041     -3.541562
      4.23995      6.79550      1.67798         8.894578     -2.537654     -1.336959
      4.87619      8.59685      8.24442         7.803209     -1.565110      1.278644
      1.25333      3.09256      9.98563        -0.254881      6.677161      0.140730
      5.05321      3.81926      5.62937        -0.682351      0.836367     -1.290120
      7.70878      8.36426      4.73171        -2.041965     -0.315366      5.822525
      1.28722      0.38320      7.34196         2.323409      3.114345     -3.959577
      0.11419      8.07971      8.86033        -2.497831      6.044917     -0.111921
      9.85035      0.38509      3.24873        -7.821161      2.783155     -3.057290
      7.15722      8.26416      1.78643         2.458174      5.503785      1.361243
      9.88524      1.02375      8.43876         9.218869     -3.027309     -3.618158
      8.50258      5.10452      0.85628        -2.511700     -8.399966      3.526747
      6.60198      5.83995      4.59169        -2.068638      0.134735      0.220586
      0.06282      0.22175     10.07356         4.779982     -0.310617      3.270083
      5.10153     10.88958      1.98452         4.080907      0.597703     -3.292078
      4.65811      1.16950      0.51081         1.016765     -1.685651     -4.095175
      1.93294     11.62053      1.23519        -1.795727     -4.986076      3.409027
     11.07938      5.33020      9.20464         1.747386     -0.100159      3.309740
      2.34700      9.68415      6.91519        -2.789443      0.392487     -2.348481
      2.59901      6.17437      3.19036        -0.784516     -1.484932      1.049549
      0.16410      7.46550      4.72252        -0.894091      0.240026     -3.040494
      1.55135      8.98445      0.26950        -1.385389     -0.852465     -2.163669
      3.01363      0.90790     10.09281         7.269129     -5.019032     -1.434499
      8.72404      3.36237      2.91171         5.815993     -2.402342      0.513682
      0.15314      2.76009      6.80341         4.100445     -4.694567     -2.972479
      2.45581     11.04555      9.72084         2.968531      0.510741      0.744695
      3.61793      1.79463      8.68580        -0.209232     -0.277858      1.209476
      0.47110     10.76669      1.93983         0.471204      4.001905      3.942855
      7.98205      8.92875      9.78967         0.372955      3.433329     -3.223730
      0.14025      6.62600      8.34740         0.903257     -5.714975     -2.335604
      2.65039      9.89641      1.05595         0.939744      3.334785     -3.548428
      8.46875      8.40621      0.93171         4.150166      1.046643     -1.728992
      4.59082      6.06402      0.40769        -0.731627     -1.810620     -6.899354
      0.41035      6.36664     10.62699        -0.979207      0.378174     -1.124355
      2.81151      7.97106     11.42081        -1.622930     -0.820404     -1.124504
      5.74796      0.27802      3.02668        -0.118742      0.733243     -0.464855
      2.30657      3.31303     11.35181        -0.171142      2.338111      3.163795
      3.07021      0.84151      0.44620         0.062843      1.992997     -1.111315
      0.22349      9.17519      4.42110        -1.415525     -3.041877      0.446928
      8.30771      1.53632      3.15237         0.696352      4.051786      0.450721
      2.63374      0.23986      2.70499         1.957480     -0.907603      0.746614
      0.78089     10.88979      6.36426        -0.515518     -1.370511     -1.901701
      4.81628      1.21165      5.46223         2.603232     -1.738382      1.956644
      6.04784      1.71639      7.73051         3.030485      1.044165      0.942422
      8.04966      8.58988      3.23822        -0.094281     -1.415425      0.099402
      5.01311      7.54237      9.53103        -0.593848      2.591942      2.310136
     10.97088      6.84647      3.27265         0.636577      1.336795      3.921515
      6.97214      6.09563      8.55066         1.595856     -0.105536      0.961659
      5.92961      9.85621      7.97724        -2.374421     -0.153758      1.743684
      8.55833      1.62005      8.34975        -7.556441      3.586870      3.222978
      6.05847      7.06050      3.69593         1.056933      1.365098      0.412407
      9.98609      8.31823      8.52331         4.218651      0.856379      2.533254
     10.79954      2.13211      9.37722        -0.656391     -3.029791      1.526305
      2.07008      4.45243      9.30824        -4.717051     -3.894216     -2.078550
      3.90149      4.91060      8.75430         5.104159     -0.713402      0.193102
      3.41825      8.86922      8.02899        -6.346057      3.322540     -1.430417
      5.78869      2.06892      0.99782        -1.303488      3.503134      2.371234
      9.04670      8.45350      5.95482        -1.197254      0.169414     -4.836337
      6.77424      9.87739      1.55604        -3.672524     -1.663846      1.346435
     11.44656      4.02067     10.23098         0.479918      0.086527      0.671907
     11.04000      4.09016      6.97477         3.478871      1.082713     -1.191059
      5.08148      5.73918      5.49598        -1.289689     -4.048337     -1.006676
      8.55710     10.85707      3.25882         4.847306      0.400890      0.773260
      4.70890      9.70385      2.75483        -4.127066     -6.288323      4.881184
     10.38827      3.24120      4.00835        -3.139267      1.835694     -1.928032
      4.16763      5.44460      2.54027        -0.097471      0.563076      0.718559
      2.77856     11.34574      7.33710        -1.392168     -2.140798     -1.027270
      4.46460      3.35400      3.91812         1.761019      0.108797      2.326655
      9.77916      4.89707      8.35340        -1.976153      2.380016      3.193587
      1.15607      8.58698      7.52580        -0.716798      0.167385      1.589224
      9.81342     11.05443      8.05350        -1.057232      0.292576      0.772041
      6.93272      9.80297     10.90074         0.151350     -1.495057     -0.934752
      9.16277      6.27308      0.31317         3.921787      5.974173     -2.719241
      6.53781      9.16838      5.77799         2.002564     -1.513311     -3.782957
      7.49405      4.55734      4.16790         0.194091      0.550947      1.256160
      7.51726      3.89496      1.96087         0.635372      1.344612     -1.302761
      5.92451      4.27062      7.22612         2.253282     -0.619181     -0.914326
      2.71134      9.40804      5.18515         1.323842      1.321242      4.457571
     10.28522      0.00334     10.71591        -2.168619     -0.502925      0.217877
      7.47240      4.79249     11.32461        -0.744786     -1.601390     -3.284246
      3.10712      7.44398      2.39624        -2.781442      8.841368      2.787299
      0.43361      9.25773     10.51575         0.853682     -1.614917     -3.304636
     10.76107      1.58799      6.98496        -0.713880     -1.965995      0.206947
      2.74325      4.93136      4.09358        -0.628818     -3.528824      3.394577
      6.53394      6.94663      1.35413        -2.694528     -1.988446     -0.890732
      9.87728      4.14377      1.43400        -1.489635     -0.684290      0.345100
     10.36297      1.30941      2.09268         0.801162     -0.665721     -2.843621
      1.71457      1.62634     10.29436        -7.696862      0.130121     -1.391171
      4.76707      1.12607     10.42919        -1.983524      1.865651      0.317884
     10.44175      0.52896      4.63744         1.578846      1.181082      1.261424
     11.30352      6.23632      5.86510        -4.389765      4.865858     -3.026852
      7.52376      1.25717      0.00118         3.418641      3.471113     -4.631792
      1.56052      5.90560      1.90579        -0.625108     -2.870133      0.406766
      0.38476      0.30782      8.53208        -2.022963     -2.514158      5.321349
      7.70067      0.21503      6.46991         0.624297    -11.375382     -4.945618
      1.31460      2.26576      2.65253         0.907776      1.313537      0.883337
      8.56747      2.61942      6.20159        -3.900767     -0.490012      1.152538
      3.87754      3.55084      6.64507        -4.626907     -1.566092      1.839646
      1.37647      2.17148      5.30046        -3.384378      1.448646      2.192697
      1.83997      6.83150      4.72928        -1.272863      2.885590     -1.770399
      6.99562      6.50641      6.07762         5.680226      0.584312     -0.835059
      5.01463      7.37388      7.31174         1.080832     -4.320498     -5.073705
      1.66964      2.20328      7.66927        -3.056165      1.320059      0.224301
      0.97081     11.49091     11.59881        -3.192769      1.871385     -4.541468
      0.32383      8.83689      1.28755         0.070972     -4.550237     -0.832622
      5.22448     11.20844      0.22292        -0.567894     -1.005362      5.224067
 -----------------------------------------------------------------------------------
    total drift:                                0.013001     -0.010278      0.005600


--------------------------------------------------------------------------------------------------------



  FREE ENERGIE OF THE ION-ELECTRON SYSTEM (eV)
  ---------------------------------------------------
  free  energy   TOTEN  =      -871.45874221 eV

  energy  without entropy=     -871.43546702  energy(sigma->0) =     -871.44710461
 


--------------------------------------------------------------------------------------------------------


    POTLOK:  cpu time    0.4401: real time    0.4417


--------------------------------------------------------------------------------------------------------


     LOOP+:  cpu time 1017.9978: real time 1018.2658
    4ORBIT:  cpu time    0.0000: real time    0.0000

 total amount of memory used by VASP MPI-rank0   158028. kBytes
=======================================================================

   base      :      30000. kBytes
   nonlr-proj:      22477. kBytes
   fftplans  :      23353. kBytes
   grid      :      12472. kBytes
   one-center:        171. kBytes
   wavefun   :      69555. kBytes
 
  
  
 General timing and accounting informations for this job:
 ========================================================
  
                  Total CPU time used (sec):     1039.584
                            User time (sec):     1036.448
                          System time (sec):        3.136
                         Elapsed time (sec):     1040.138
  
                   Maximum memory used (kb):      308696.
                   Average memory used (kb):           0.
  
                          Minor page faults:        84013
                          Major page faults:            0
                 Voluntary context switches:         1843
