 running on   48 total cores
 distrk:  each k-point on   48 cores,    1 groups
 distr:  one band on   12 cores,    4 groups
 using from now: INCAR     
 vasp.5.4.4.18Apr17-6-g9f103f2a35 (build Mar 16 2023 09:39:13) complex          
  
 POSCAR found type information on POSCAR  Ca Si O 
 POSCAR found :  3 types and     135 ions
 scaLAPACK is switched off
 LDA part: xc-table for Pade appr. of Perdew
 generate k-points for:    2    2    2
 POSCAR, INCAR and KPOINTS ok, starting setup
 FFT: planning ...
 WAVECAR not read
 entering main loop
       N       E                     dE             d eps       ncg     rms          rms(c)
DAV:   1     0.971493012223E+04    0.97149E+04   -0.48406E+05  8320   0.184E+03
DAV:   2     0.273037633957E+02   -0.96876E+04   -0.93746E+04  9728   0.500E+02
DAV:   3    -0.101788479582E+04   -0.10452E+04   -0.10381E+04 10248   0.167E+02
DAV:   4    -0.106797377275E+04   -0.50089E+02   -0.49919E+02 11464   0.328E+01
DAV:   5    -0.107280069304E+04   -0.48269E+01   -0.48245E+01 14232   0.758E+00    0.858E+01
DAV:   6    -0.930418673122E+03    0.14238E+03   -0.64823E+02  9784   0.393E+01    0.368E+01
DAV:   7    -0.932667705445E+03   -0.22490E+01   -0.67255E+01 11216   0.130E+01    0.178E+01
DAV:   8    -0.931591836214E+03    0.10759E+01   -0.10968E+01 10520   0.592E+00    0.730E+00
DAV:   9    -0.931294029777E+03    0.29781E+00   -0.22163E+00 10248   0.322E+00    0.208E+00
DAV:  10    -0.931388515914E+03   -0.94486E-01   -0.11320E+00 11936   0.182E+00    0.147E+00
DAV:  11    -0.931389015195E+03   -0.49928E-03   -0.15127E-01 11472   0.727E-01    0.776E-01
DAV:  12    -0.931394028850E+03   -0.50137E-02   -0.40002E-02 10104   0.353E-01    0.281E-01
DAV:  13    -0.931395763528E+03   -0.17347E-02   -0.75986E-03 11744   0.195E-01    0.123E-01
DAV:  14    -0.931395977221E+03   -0.21369E-03   -0.33940E-03 11808   0.102E-01    0.838E-02
DAV:  15    -0.931395995828E+03   -0.18607E-04   -0.49026E-04 11032   0.371E-02    0.543E-02
DAV:  16    -0.931395987370E+03    0.84578E-05   -0.22967E-04 10048   0.381E-02    0.160E-02
DAV:  17    -0.931395990225E+03   -0.28554E-05   -0.92446E-05 11784   0.187E-02    0.123E-02
DAV:  18    -0.931395989362E+03    0.86366E-06   -0.25845E-05  9824   0.847E-03    0.706E-03
DAV:  19    -0.931395988559E+03    0.80265E-06   -0.34959E-06  8064   0.463E-03
   1 F= -.93139599E+03 E0= -.93139599E+03  d E =-.217238E-16
