 vasp.5.4.4.18Apr17-6-g9f103f2a35 (build Mar 16 2023 09:39:13) complex          
  
 executed on             LinuxIFC date 2024.04.29  19:04:57
 running on   48 total cores
 distrk:  each k-point on   48 cores,    1 groups
 distr:  one band on NCORES_PER_BAND=  12 cores,    4 groups


--------------------------------------------------------------------------------------------------------


 INCAR:
 POTCAR:    PAW_PBE Ca_sv 06Sep2000               
 POTCAR:    PAW_PBE Si 05Jan2001                  
 POTCAR:    PAW_PBE O 08Apr2002                   
 POTCAR:    PAW_PBE Ca_sv 06Sep2000               
   SHA256 =  a47365830e737f14e0e6c5cf1ed81b94e081eecf0a33df105380881bc9da05d5 Ca
   COPYR  = (c) Copyright 06Sep2000 Georg Kresse                                
   COPYR  = This file is part of the software VASP. Any use, copying, and all ot
   COPYR  = If you do not have a valid VASP license, you may not use, copy or di
   VRHFIN =Ca: 3s3p4s                                                           
   LEXCH  = PE                                                                  
   EATOM  =  1006.0909 eV,   73.9456 Ry                                         
                                                                                
   TITEL  = PAW_PBE Ca_sv 06Sep2000                                             
   LULTRA =        F    use ultrasoft PP ?                                      
   IUNSCR =        1    unscreen: 0-lin 1-nonlin 2-no                           
   RPACOR =    2.000    partial core radius                                     
   POMASS =   40.078; ZVAL   =   10.000    mass and valenz                      
   RCORE  =    2.300    outmost cutoff radius                                   
   RWIGS  =    2.500; RWIGS  =    1.323    wigner-seitz radius (au A)           
   ENMAX  =  266.622; ENMIN  =  199.967 eV                                      
   RCLOC  =    1.808    cutoff for local pot                                    
   LCOR   =        T    correct aug charges                                     
   LPAW   =        T    paw PP                                                  
   EAUG   =  420.852                                                            
   RMAX   =    2.359    core radius for proj-oper                               
   RAUG   =    1.300    factor for augmentation sphere                          
   RDEP   =    2.392    radius for radial grids                                 
   RDEPT  =    1.987    core radius for aug-charge                              
                                                                                
   Atomic configuration                                                         
    7 entries                                                                   
     n  l   j            E        occ.                                          
     1  0  0.50     -3949.1705   2.0000                                         
     2  0  0.50      -414.3434   2.0000                                         
     2  1  1.50      -334.7047   6.0000                                         
     3  0  0.50       -47.0896   2.0000                                         
     4  0  0.50        -3.7663   2.0000                                         
     3  1  1.50       -28.0061   6.0000                                         
     3  2  1.50        -4.0817   0.0000                                         
   Description                                                                  
     l       E           TYP  RCUT    TYP  RCUT                                 
     0    -47.0896403     23  2.300                                             
     0     -3.7663320     23  2.300                                             
     1    -28.0060855     23  2.300                                             
     1      6.8029130     23  2.300                                             
     2     -4.0817478     23  2.300                                             
     2      0.4464412     23  2.300                                             
  local pseudopotential read in
  partial core-charges read in
  partial kinetic energy density read in
  atomic valenz-charges read in
  non local Contribution for L=           0  read in
    real space projection operators read in
  non local Contribution for L=           0  read in
    real space projection operators read in
  non local Contribution for L=           1  read in
    real space projection operators read in
  non local Contribution for L=           1  read in
    real space projection operators read in
  non local Contribution for L=           2  read in
    real space projection operators read in
  non local Contribution for L=           2  read in
    real space projection operators read in
    PAW grid and wavefunctions read in
 
   number of l-projection  operators is LMAX  =           6
   number of lm-projection operators is LMMAX =          18
 
 POTCAR:    PAW_PBE Si 05Jan2001                  
   SHA256 =  79d9987ad8750f624c4d6acb2a16d13abf6a777132adc04dc6c8399be72b42bb Si
   COPYR  = (c) Copyright 05Jan2001 Georg Kresse                                
   COPYR  = This file is part of the software VASP. Any use, copying, and all ot
   COPYR  = If you do not have a valid VASP license, you may not use, copy or di
   VRHFIN =Si: s2p2                                                             
   LEXCH  = PE                                                                  
   EATOM  =   103.0669 eV,    7.5752 Ry                                         
                                                                                
   TITEL  = PAW_PBE Si 05Jan2001                                                
   LULTRA =        F    use ultrasoft PP ?                                      
   IUNSCR =        1    unscreen: 0-lin 1-nonlin 2-no                           
   RPACOR =    1.500    partial core radius                                     
   POMASS =   28.085; ZVAL   =    4.000    mass and valenz                      
   RCORE  =    1.900    outmost cutoff radius                                   
   RWIGS  =    2.480; RWIGS  =    1.312    wigner-seitz radius (au A)           
   ENMAX  =  245.345; ENMIN  =  184.009 eV                                      
   ICORE  =        2    local potential                                         
   LCOR   =        T    correct aug charges                                     
   LPAW   =        T    paw PP                                                  
   EAUG   =  322.069                                                            
   DEXC   =    0.000                                                            
   RMAX   =    1.950    core radius for proj-oper                               
   RAUG   =    1.300    factor for augmentation sphere                          
   RDEP   =    1.993    radius for radial grids                                 
   RDEPT  =    1.837    core radius for aug-charge                              
                                                                                
   Atomic configuration                                                         
    6 entries                                                                   
     n  l   j            E        occ.                                          
     1  0  0.50     -1785.8828   2.0000                                         
     2  0  0.50      -139.4969   2.0000                                         
     2  1  1.50       -95.5546   6.0000                                         
     3  0  0.50       -10.8127   2.0000                                         
     3  1  0.50        -4.0811   2.0000                                         
     3  2  1.50        -4.0817   0.0000                                         
   Description                                                                  
     l       E           TYP  RCUT    TYP  RCUT                                 
     0    -10.8127223     23  1.900                                             
     0     -7.6451159     23  1.900                                             
     1     -4.0811372     23  1.900                                             
     1      2.4879257     23  1.900                                             
     2     -4.0817478      7  1.900                                             
  local pseudopotential read in
  partial core-charges read in
  partial kinetic energy density read in
  atomic valenz-charges read in
  non local Contribution for L=           0  read in
    real space projection operators read in
  non local Contribution for L=           0  read in
    real space projection operators read in
  non local Contribution for L=           1  read in
    real space projection operators read in
  non local Contribution for L=           1  read in
    real space projection operators read in
    PAW grid and wavefunctions read in
 
   number of l-projection  operators is LMAX  =           4
   number of lm-projection operators is LMMAX =           8
 
 POTCAR:    PAW_PBE O 08Apr2002                   
   SHA256 =  818f92134a0a090dccd8ba1447fa70422a3b330e708bb4f08108d8ae51209ddf O/
   COPYR  = (c) Copyright 08Apr2002 Georg Kresse                                
   COPYR  = This file is part of the software VASP. Any use, copying, and all ot
   COPYR  = If you do not have a valid VASP license, you may not use, copy or di
   VRHFIN =O: s2p4                                                              
   LEXCH  = PE                                                                  
   EATOM  =   432.3788 eV,   31.7789 Ry                                         
                                                                                
   TITEL  = PAW_PBE O 08Apr2002                                                 
   LULTRA =        F    use ultrasoft PP ?                                      
   IUNSCR =        1    unscreen: 0-lin 1-nonlin 2-no                           
   RPACOR =    1.200    partial core radius                                     
   POMASS =   16.000; ZVAL   =    6.000    mass and valenz                      
   RCORE  =    1.520    outmost cutoff radius                                   
   RWIGS  =    1.550; RWIGS  =    0.820    wigner-seitz radius (au A)           
   ENMAX  =  400.000; ENMIN  =  300.000 eV                                      
   ICORE  =        2    local potential                                         
   LCOR   =        T    correct aug charges                                     
   LPAW   =        T    paw PP                                                  
   EAUG   =  605.392                                                            
   DEXC   =    0.000                                                            
   RMAX   =    1.553    core radius for proj-oper                               
   RAUG   =    1.300    factor for augmentation sphere                          
   RDEP   =    1.550    radius for radial grids                                 
   RDEPT  =    1.329    core radius for aug-charge                              
                                                                                
   Atomic configuration                                                         
    4 entries                                                                   
     n  l   j            E        occ.                                          
     1  0  0.50      -514.6923   2.0000                                         
     2  0  0.50       -23.9615   2.0000                                         
     2  1  0.50        -9.0305   4.0000                                         
     3  2  1.50        -9.5241   0.0000                                         
   Description                                                                  
     l       E           TYP  RCUT    TYP  RCUT                                 
     0    -23.9615318     23  1.200                                             
     0     -9.5240782     23  1.200                                             
     1     -9.0304911     23  1.520                                             
     1      8.1634956     23  1.520                                             
     2     -9.5240782      7  1.500                                             
  local pseudopotential read in
  partial core-charges read in
  partial kinetic energy density read in
  kinetic energy density of atom read in
  atomic valenz-charges read in
  non local Contribution for L=           0  read in
    real space projection operators read in
  non local Contribution for L=           0  read in
    real space projection operators read in
  non local Contribution for L=           1  read in
    real space projection operators read in
  non local Contribution for L=           1  read in
    real space projection operators read in
    PAW grid and wavefunctions read in
 
   number of l-projection  operators is LMAX  =           4
   number of lm-projection operators is LMMAX =           8
 
 Optimization of the real space projectors (new method)

 maximal supplied QI-value         = 16.25
 optimisation between [QCUT,QGAM] = [ 12.51, 25.03] = [ 43.85,175.40] Ry 
 Optimized for a Real-space Cutoff    1.47 Angstroem

   l    n(q)    QCUT    max X(q) W(low)/X(q) W(high)/X(q)  e(spline) 
   0     11    12.514    11.817    0.25E-04    0.32E-05    0.87E-07
   0     11    12.514     8.461    0.39E-04    0.59E-05    0.18E-06
   1     11    12.514     3.957    0.97E-05    0.57E-05    0.28E-07
   1     11    12.514     4.314    0.42E-04    0.14E-04    0.23E-06
   2     10    12.514    14.565    0.79E-04    0.50E-03    0.16E-05
   2     10    12.514    14.552    0.75E-04    0.48E-03    0.15E-05
 Optimization of the real space projectors (new method)

 maximal supplied QI-value         = 19.84
 optimisation between [QCUT,QGAM] = [ 12.50, 25.00] = [ 43.76,175.03] Ry 
 Optimized for a Real-space Cutoff    1.16 Angstroem

   l    n(q)    QCUT    max X(q) W(low)/X(q) W(high)/X(q)  e(spline) 
   0      9    12.501   159.560    0.10E-03    0.83E-04    0.71E-07
   0      9    12.501   115.863    0.99E-04    0.81E-04    0.70E-07
   1      8    12.501    88.339    0.20E-03    0.25E-03    0.76E-07
   1      8    12.501    48.592    0.20E-03    0.24E-03    0.75E-07
 Optimization of the real space projectors (new method)

 maximal supplied QI-value         = 24.76
 optimisation between [QCUT,QGAM] = [ 12.38, 25.00] = [ 42.90,175.06] Ry 
 Optimized for a Real-space Cutoff    1.16 Angstroem

   l    n(q)    QCUT    max X(q) W(low)/X(q) W(high)/X(q)  e(spline) 
   0      9    12.378    20.381    0.16E-03    0.67E-05    0.31E-06
   0      9    12.378    15.268    0.17E-03    0.81E-05    0.33E-06
   1      8    12.378     5.964    0.20E-03    0.16E-03    0.30E-06
   1      8    12.378     5.382    0.18E-03    0.14E-03    0.26E-06
  PAW_PBE Ca_sv 06Sep2000               :
 energy of atom  1       EATOM=-1006.0909
 kinetic energy error for atom=    0.0012 (will be added to EATOM!!)
  PAW_PBE Si 05Jan2001                  :
 energy of atom  2       EATOM= -103.0669
 kinetic energy error for atom=    0.0003 (will be added to EATOM!!)
  PAW_PBE O 08Apr2002                   :
 energy of atom  3       EATOM= -432.3788
 kinetic energy error for atom=    0.0168 (will be added to EATOM!!)
 
 
 POSCAR: Ca Si  O                                
  positions in direct lattice
  No initial velocities read in
 exchange correlation table for  LEXCH =        8
   RHO(1)=    0.500       N(1)  =     2000
   RHO(2)=  100.500       N(2)  =     4000
 


--------------------------------------------------------------------------------------------------------


 ion  position               nearest neighbor table
   1  0.907  0.358  0.587-  98 2.30 129 2.49 112 2.53 103 2.57  29 2.82  41 3.15
   2  0.924  0.087  0.744- 119 2.11  74 2.12 120 2.14  95 2.26
   3  0.655  0.433  0.063-  97 2.16  58 2.30 111 2.33 110 2.35  57 2.43 105 2.53  32 2.70  30 2.96

   4  0.360  0.964  0.399- 122 2.17 135 2.23  86 2.26  85 2.38 117 2.53  11 2.72  50 3.10
   5  0.643  0.185  0.815-  88 2.15  91 2.28  73 2.40  95 2.43  92 2.48  30 2.88  19 3.04  47 3.12

   6  0.998  0.922  0.253- 108 2.23 104 2.26  55 2.31 100 2.40  75 2.46  33 2.96
   7  0.274  0.713  0.683- 128 2.05  76 2.16 125 2.20  84 2.45  28 2.67  22 2.83  54 2.86  34 2.92

   8  0.582  0.745  0.581-  77 2.01  68 2.24  59 2.24 106 2.53  51 3.05  47 3.11
   9  0.203  0.762  0.099- 102 2.10 121 2.13 130 2.19  82 2.33 104 2.47  46 2.79
  10  0.834  0.794  0.041-  78 2.11  83 2.26 131 2.32  71 2.46 111 2.47  40 2.75  38 2.86  53 3.09
                            27 3.13
  11  0.416  0.949  0.172- 117 2.29 118 2.44 123 2.47  85 2.47 130 2.53   4 2.72  52 2.84
  12  0.167  0.971  0.657-  84 2.19  60 2.24  67 2.41 119 2.42  72 2.53
  13  0.997  0.776  0.753-  93 2.15  76 2.20  71 2.35  72 2.45  84 2.46 120 2.47  14 2.98  42 3.08
                            21 3.08  41 3.16
  14  0.874  0.880  0.554-  93 2.01  77 2.12  55 2.24  60 2.39  33 2.86  15 2.97  13 2.98  47 3.04

  15  0.884  0.653  0.436-  79 2.12  93 2.15 106 2.18 126 2.22 108 2.28  41 2.55  14 2.97  38 3.07

  16  0.344  0.334  0.031-  94 2.16  97 2.25 124 2.31  96 2.31  89 2.32 107 2.37  32 2.92  19 3.11

  17  0.332  0.633  0.316- 102 2.03  87 2.13 130 2.15 135 2.37 115 2.40 128 2.50  36 2.84  31 3.15

  18  0.674  0.995  0.355-  81 2.06  85 2.11  55 2.25  86 2.57  51 3.05  29 3.09
  19  0.405  0.111  0.895-  91 2.25  89 2.32  22 3.01   5 3.04  16 3.11  52 3.14
  20  0.484  0.232  0.557-  91 2.21  70 2.27  66 2.39  86 2.51  50 2.84  29 3.04
  21  0.954  0.558  0.897-  65 2.05 103 2.17 121 2.33  71 2.44  13 3.08  53 3.13
  22  0.374  0.858  0.851- 125 2.08 118 2.20  82 2.26 123 2.35  34 2.76   7 2.83  19 3.01
  23  0.142  0.227  0.255-  75 2.18 134 2.35  96 2.38  64 2.40 133 2.49  39 2.99  49 3.00  52 3.06
                            45 3.08
  24  0.621  0.519  0.389-  87 2.15 127 2.24  59 2.40 126 2.46 106 2.46  51 2.79  43 3.00
  25  0.070  0.282  0.970-  64 2.22  74 2.27  65 2.31  94 2.35  89 2.40  63 2.53  62 2.54  30 2.93
                            37 2.96
  26  0.644  0.444  0.669-  59 2.11  70 2.22  73 2.24 126 2.38  68 2.48  88 2.49  41 2.78  32 2.85

  27  0.899  0.054  0.032-  64 2.24 120 2.36  61 2.42 104 2.52  42 2.64  48 2.98  49 3.02  10 3.13

  28  0.163  0.512  0.684- 113 1.57 101 1.60  76 1.72  62 1.86   7 2.67  37 2.86  54 3.11
  29  0.737  0.212  0.494- 129 1.57  81 1.60  70 1.63  98 1.86   1 2.82  33 2.98  20 3.04  18 3.09

  30  0.827  0.318  0.915-  88 1.48  74 1.63  65 1.64  61 1.74   5 2.88  25 2.93   3 2.96
  31  0.112  0.506  0.411- 115 1.52 114 1.61 113 1.73  79 1.73  17 3.15
  32  0.516  0.434  0.878-  97 1.47 110 1.63 107 1.68  73 1.70  34 2.58   3 2.70  26 2.85  16 2.92

  33  0.953  0.085  0.443-  60 1.61  75 1.67 129 1.75  55 1.75 112 2.38  14 2.86   6 2.96  29 2.98

  34  0.401  0.624  0.880-  56 1.56 107 1.63 125 1.69  82 1.71  32 2.58  22 2.76   7 2.92  36 3.04

  35  0.497  0.226  0.247- 117 1.50  58 1.69  66 1.70 124 1.86  45 2.68  48 2.78
  36  0.484  0.654  0.126- 105 1.57 130 1.64 132 1.79  56 1.91  51 2.81  17 2.84  34 3.04
  37  0.209  0.281  0.756-  89 1.62  99 1.68  62 1.86 119 2.05  28 2.86  25 2.96  39 3.03
  38  0.862  0.593  0.180-  83 1.57 111 1.62 127 1.67 109 1.74  43 2.82  10 2.86  15 3.07
  39  0.191  0.208  0.507- 112 1.57 122 1.71 134 1.72  99 1.74  23 2.99  37 3.03  45 3.07
  40  0.638  0.917  0.992- 118 1.63  78 1.70 131 1.76  69 1.80  92 2.21  10 2.75  47 3.07
  41  0.816  0.608  0.640- 126 1.57  93 1.63 103 1.64  68 1.94  15 2.55  26 2.78  53 3.00   1 3.15
                            13 3.16
  42  0.077  0.950  0.935-  63 1.50  72 1.53 120 1.72 104 1.72  52 2.57  27 2.64  13 3.08
  43  0.833  0.392  0.313-  98 1.52 133 1.65  57 1.67 127 1.81  49 2.21  79 2.23  38 2.82  24 3.00

  44  0.133  0.776  0.446- 108 1.53 135 1.58  84 1.62 115 1.74
  45  0.346  0.361  0.358- 124 1.61 134 1.64  90 1.69 114 1.75  66 2.04  35 2.68  39 3.07  23 3.08

  46  0.119  0.538  0.113- 102 1.66  94 1.67 121 1.72 109 1.74   9 2.79
  47  0.693  0.934  0.735-  69 1.55  77 1.58  95 1.65  80 1.67  50 2.80  14 3.04  40 3.07   8 3.11
                             5 3.12
  48  0.678  0.162  0.104- 116 1.56  92 1.64  58 1.66  61 1.67  35 2.78  49 2.90  27 2.98
  49  0.888  0.242  0.212- 133 1.57  57 1.60  64 1.64 116 1.89  75 2.18  43 2.21  48 2.90  23 3.00
                            27 3.02
  50  0.486  0.999  0.631-  86 1.55  67 1.63  80 1.65  91 1.84  47 2.80  20 2.84   4 3.10
  51  0.597  0.747  0.318- 132 1.58  87 1.62 106 1.70  85 1.72  24 2.79  36 2.81  18 3.05   8 3.05

  52  0.215  0.049  0.076- 123 1.60  96 1.65 100 1.70  63 1.83  42 2.57  11 2.84  23 3.06  19 3.14

  53  0.700  0.642  0.868- 110 1.69  71 1.74  68 1.76 131 1.99  56 2.54  41 3.00  10 3.09  21 3.13

  54  0.402  0.539  0.565- 128 1.57  59 1.61  90 1.64 101 1.68   7 2.86  28 3.11
  55  0.863  0.977  0.388-  33 1.75  14 2.24  18 2.25   6 2.31
  56  0.504  0.649  0.963-  34 1.56  36 1.91  53 2.54
  57  0.798  0.341  0.184-  49 1.60  43 1.67   3 2.43
  58  0.606  0.270  0.163-  48 1.66  35 1.69   3 2.30
  59  0.539  0.558  0.575-  54 1.61  26 2.11   8 2.24  24 2.40
  60  0.017  0.028  0.551-  33 1.61  12 2.24  14 2.39
  61  0.775  0.220  0.017-  48 1.67  30 1.74  27 2.42
  62  0.123  0.408  0.799-  37 1.86  28 1.86  25 2.54
  63  0.121  0.071  0.953-  42 1.50  52 1.83  25 2.53
  64  0.988  0.201  0.121-  49 1.64  25 2.22  27 2.24  23 2.40
  65  0.916  0.407  0.979-  30 1.64  21 2.05  25 2.31
  66  0.514  0.307  0.368-  35 1.70  45 2.04  20 2.39
  67  0.367  0.924  0.628-  50 1.63  12 2.41
  68  0.675  0.649  0.719-  53 1.76  41 1.94   8 2.24  26 2.48
  69  0.722  0.946  0.865-  47 1.55  40 1.80
  70  0.670  0.266  0.605-  29 1.63  26 2.22  20 2.27
  71  0.828  0.716  0.844-  53 1.74  13 2.35  21 2.44  10 2.46
  72  0.151  0.879  0.854-  42 1.53  13 2.45  12 2.53
  73  0.515  0.340  0.765-  32 1.70  26 2.24   5 2.40
  74  0.917  0.224  0.864-  30 1.63   2 2.12  25 2.27
  75  0.996  0.126  0.312-  33 1.67  23 2.18  49 2.18   6 2.46
  76  0.123  0.634  0.756-  28 1.72   7 2.16  13 2.20
  77  0.709  0.853  0.627-  47 1.58   8 2.01  14 2.12
  78  0.722  0.917  0.112-  40 1.70  10 2.11
  79  0.964  0.491  0.413-  31 1.73  15 2.12  43 2.23
  80  0.551  0.916  0.728-  50 1.65  47 1.67
  81  0.644  0.161  0.407-  29 1.60  18 2.06
  82  0.286  0.702  0.927-  34 1.71  22 2.26   9 2.33
  83  0.906  0.718  0.204-  38 1.57  10 2.26
  84  0.116  0.807  0.580-  44 1.62  12 2.19   7 2.45  13 2.46
  85  0.535  0.880  0.335-  51 1.72  18 2.11   4 2.38  11 2.47
  86  0.512  0.025  0.503-  50 1.55   4 2.26  20 2.51  18 2.57
  87  0.504  0.661  0.374-  51 1.62  17 2.13  24 2.15
  88  0.759  0.329  0.807-  30 1.48   5 2.15  26 2.49
  89  0.252  0.237  0.882-  37 1.62  19 2.32  16 2.32  25 2.40
  90  0.363  0.430  0.485-  54 1.64  45 1.69
  91  0.481  0.130  0.718-  50 1.84  20 2.21  19 2.25   5 2.28
  92  0.597  0.102  0.006-  48 1.64  40 2.21   5 2.48
  93  0.897  0.718  0.609-  41 1.63  14 2.01  13 2.15  15 2.15
  94  0.182  0.416  0.070-  46 1.67  16 2.16  25 2.35
  95  0.742  0.057  0.682-  47 1.65   2 2.26   5 2.43
  96  0.282  0.166  0.119-  52 1.65  16 2.31  23 2.38
  97  0.525  0.343  0.965-  32 1.47   3 2.16  16 2.25
  98  0.791  0.347  0.428-  43 1.52  29 1.86   1 2.30
  99  0.268  0.240  0.631-  37 1.68  39 1.74
 100  0.188  0.991  0.208-  52 1.70   6 2.40
 101  0.294  0.490  0.649-  28 1.60  54 1.68
 102  0.202  0.612  0.201-  46 1.66  17 2.03   9 2.10
 103  0.871  0.518  0.735-  41 1.64  21 2.17   1 2.57
 104  0.038  0.891  0.065-  42 1.72   6 2.26   9 2.47  27 2.52
 105  0.468  0.520  0.132-  36 1.57   3 2.53
 106  0.708  0.712  0.407-  51 1.70  15 2.18  24 2.46   8 2.53
 107  0.383  0.486  0.902-  34 1.63  32 1.68  16 2.37
 108  0.015  0.790  0.390-  44 1.53   6 2.23  15 2.28
 109  0.977  0.503  0.146-  46 1.74  38 1.74
 110  0.630  0.515  0.880-  32 1.63  53 1.69   3 2.35
 111  0.781  0.589  0.067-  38 1.62   3 2.33  10 2.47
 112  0.065  0.251  0.483-  39 1.57  33 2.38   1 2.53
 113  0.122  0.486  0.557-  28 1.57  31 1.73
 114  0.216  0.436  0.352-  31 1.61  45 1.75
 115  0.156  0.629  0.423-  31 1.52  44 1.74  17 2.40
 116  0.762  0.139  0.206-  48 1.56  49 1.89
 117  0.479  0.102  0.278-  35 1.50  11 2.29   4 2.53
 118  0.499  0.914  0.982-  40 1.63  22 2.20  11 2.44
 119  0.095  0.147  0.740-  37 2.05   2 2.11  12 2.42
 120  0.947  0.950  0.865-  42 1.72   2 2.14  27 2.36  13 2.47
 121  0.088  0.646  0.016-  46 1.72   9 2.13  21 2.33
 122  0.221  0.071  0.463-  39 1.71   4 2.17
 123  0.286  0.956  0.004-  52 1.60  22 2.35  11 2.47
 124  0.377  0.331  0.226-  45 1.61  35 1.86  16 2.31
 125  0.441  0.712  0.771-  34 1.69  22 2.08   7 2.20
 126  0.772  0.534  0.536-  41 1.57  15 2.22  26 2.38  24 2.46
 127  0.767  0.524  0.264-  38 1.67  43 1.81  24 2.24
 128  0.339  0.653  0.530-  54 1.57   7 2.05  17 2.50
 129  0.855  0.159  0.530-  29 1.57  33 1.75   1 2.49
 130  0.376  0.735  0.168-  36 1.64  17 2.15   9 2.19  11 2.53
 131  0.649  0.768  0.971-  40 1.76  53 1.99  10 2.32
 132  0.613  0.711  0.188-  51 1.58  36 1.79
 133  0.957  0.327  0.290-  49 1.57  43 1.65  23 2.49
 134  0.285  0.240  0.397-  45 1.64  39 1.72  23 2.35
 135  0.263  0.800  0.410-  44 1.58   4 2.23  17 2.37
 

IMPORTANT INFORMATION: All symmetrisations will be switched off!
NOSYMM: (Re-)initialisation of all symmetry stuff for point group C_1.

 
 

Automatic generation of k-mesh.
 generate k-points for:    2    2    2
Space group operators:
 irot       det(A)        alpha          n_x          n_y          n_z        tau_x        tau_y        tau_z
    1     1.000000     0.000001     1.000000     0.000000     0.000000     0.000000     0.000000     0.000000
 
 Subroutine IBZKPT returns following result:
 ===========================================
 
 Found      8 irreducible k-points:
 
 Following reciprocal coordinates:
            Coordinates               Weight
  0.000000  0.000000  0.000000      1.000000
  0.500000  0.000000  0.000000      1.000000
  0.000000  0.500000  0.000000      1.000000
  0.500000  0.500000  0.000000      1.000000
  0.000000  0.000000  0.500000      1.000000
  0.500000  0.000000  0.500000      1.000000
  0.000000  0.500000  0.500000      1.000000
  0.500000  0.500000  0.500000      1.000000
 
 Following cartesian coordinates:
            Coordinates               Weight
  0.000000  0.000000  0.000000      1.000000
  0.042999  0.000000  0.000000      1.000000
  0.000000  0.042999  0.000000      1.000000
  0.042999  0.042999  0.000000      1.000000
  0.000000  0.000000  0.042999      1.000000
  0.042999  0.000000  0.042999      1.000000
  0.000000  0.042999  0.042999      1.000000
  0.042999  0.042999  0.042999      1.000000
 


--------------------------------------------------------------------------------------------------------




 Dimension of arrays:
   k-points           NKPTS =      8   k-points in BZ     NKDIM =      8   number of bands    NBANDS=    520
   number of dos      NEDOS =    301   number of ions     NIONS =    135
   non local maximal  LDIM  =      6   non local SUM 2l+1 LMDIM =     18
   total plane-waves  NPLWV = 884736
   max r-space proj   IRMAX =   7548   max aug-charges    IRDMAX= 214954
   dimension x,y,z NGX =    96 NGY =   96 NGZ =   96
   dimension x,y,z NGXF=   192 NGYF=  192 NGZF=  192
   support grid    NGXF=   384 NGYF=  384 NGZF=  384
   ions per type =              27  27  81
   NGX,Y,Z   is equivalent  to a cutoff of  13.72, 13.72, 13.72 a.u.
   NGXF,Y,Z  is equivalent  to a cutoff of  27.45, 27.45, 27.45 a.u.

 SYSTEM =  unknown system                          
 POSCAR =  Ca Si  O                                

 Startparameter for this run:
   NWRITE =      2    write-flag & timer
   PREC   = a         normal or accurate (medium, high low for compatibility)
   ISTART =      0    job   : 0-new  1-cont  2-samecut
   ICHARG =      2    charge: 1-file 2-atom 10-const
   ISPIN  =      1    spin polarized calculation?
   LNONCOLLINEAR =      F non collinear calculations
   LSORBIT =      F    spin-orbit coupling
   INIWAV =      1    electr: 0-lowe 1-rand  2-diag
   LASPH  =      F    aspherical Exc in radial PAW
   METAGGA=      F    non-selfconsistent MetaGGA calc.

 Electronic Relaxation 1
   ENCUT  =  600.0 eV  44.10 Ry    6.64 a.u.  23.22 23.22 23.22*2*pi/ulx,y,z
   ENINI  =  600.0     initial cutoff
   ENAUG  =  605.4 eV  augmentation charge cutoff
   NELM   =     60;   NELMIN=  2; NELMDL= -5     # of ELM steps 
   EDIFF  = 0.1E-05   stopping-criterion for ELM
   LREAL  =      T    real-space projection
   NLSPLINE    = F    spline interpolate recip. space projectors
   LCOMPAT=      F    compatible to vasp.4.4
   GGA_COMPAT  = T    GGA compatible to vasp.4.4-vasp.4.6
   LMAXPAW     = -100 max onsite density
   LMAXMIX     =    2 max onsite mixed and CHGCAR
   VOSKOWN=      0    Vosko Wilk Nusair interpolation
   ROPT   =   -0.00025  -0.00025  -0.00025
 Ionic relaxation
   EDIFFG = -.1E-01   stopping-criterion for IOM
   NSW    =      1    number of steps for IOM
   NBLOCK =      1;   KBLOCK =      1    inner block; outer block 
   IBRION =     -1    ionic relax: 0-MD 1-quasi-New 2-CG
   NFREE  =      0    steps in history (QN), initial steepest desc. (CG)
   ISIF   =      2    stress and relaxation
   IWAVPR =     10    prediction:  0-non 1-charg 2-wave 3-comb
   ISYM   =      0    0-nonsym 1-usesym 2-fastsym
   LCORR  =      T    Harris-Foulkes like correction to forces

   POTIM  = 1.0000    time-step for ionic-motion
   TEIN   =    0.0    initial temperature
   TEBEG  =    0.0;   TEEND  =   0.0 temperature during run
   SMASS  =  -3.00    Nose mass-parameter (am)
   estimated Nose-frequenzy (Omega)   =  0.10E-29 period in steps =****** mass=  -0.309E-26a.u.
   SCALEE = 1.0000    scale energy and forces
   NPACO  =    256;   APACO  = 16.0  distance and # of slots for P.C.
   PSTRESS=    0.0 pullay stress

  Mass of Ions in am
   POMASS =  40.08 28.09 16.00
  Ionic Valenz
   ZVAL   =  10.00  4.00  6.00
  Atomic Wigner-Seitz radii
   RWIGS  =  -1.00 -1.00 -1.00
  virtual crystal weights 
   VCA    =   1.00  1.00  1.00
   NELECT =     864.0000    total number of electrons
   NUPDOWN=      -1.0000    fix difference up-down

 DOS related values:
   EMIN   =  10.00;   EMAX   =-10.00  energy-range for DOS
   EFERMI =   0.00
   ISMEAR =     0;   SIGMA  =   0.05  broadening in eV -4-tet -1-fermi 0-gaus

 Electronic relaxation 2 (details)
   IALGO  =     38    algorithm
   LDIAG  =      T    sub-space diagonalisation (order eigenvalues)
   LSUBROT=      F    optimize rotation matrix (better conditioning)
   TURBO    =      0    0=normal 1=particle mesh
   IRESTART =      0    0=no restart 2=restart with 2 vectors
   NREBOOT  =      0    no. of reboots
   NMIN     =      0    reboot dimension
   EREF     =   0.00    reference energy to select bands
   IMIX   =      4    mixing-type and parameters
     AMIX     =   0.40;   BMIX     =  1.00
     AMIX_MAG =   1.60;   BMIX_MAG =  1.00
     AMIN     =   0.10
     WC   =   100.;   INIMIX=   1;  MIXPRE=   1;  MAXMIX= -45

 Intra band minimization:
   WEIMIN = 0.0000     energy-eigenvalue tresh-hold
   EBREAK =  0.48E-09  absolut break condition
   DEPER  =   0.30     relativ break condition  

   TIME   =   0.40     timestep for ELM

  volume/ion in A,a.u.               =      11.65        78.60
  Fermi-wavevector in a.u.,A,eV,Ry     =   1.340915  2.533962 24.463997  1.798053
  Thomas-Fermi vector in A             =   2.469190
 
 Write flags
   LWAVE        =      F    write WAVECAR
   LDOWNSAMPLE  =      F    k-point downsampling of WAVECAR
   LCHARG       =      F    write CHGCAR
   LVTOT        =      F    write LOCPOT, total local potential
   LVHAR        =      F    write LOCPOT, Hartree potential only
   LELF         =      F    write electronic localiz. function (ELF)
   LORBIT       =      0    0 simple, 1 ext, 2 COOP (PROOUT), +10 PAW based schemes


 Dipole corrections
   LMONO  =      F    monopole corrections only (constant potential shift)
   LDIPOL =      F    correct potential (dipole corrections)
   IDIPOL =      0    1-x, 2-y, 3-z, 4-all directions 
   EPSILON=  1.0000000 bulk dielectric constant

 Exchange correlation treatment:
   GGA     =    --    GGA type
   LEXCH   =     8    internal setting for exchange type
   VOSKOWN=      0    Vosko Wilk Nusair interpolation
   LHFCALC =     F    Hartree Fock is set to
   LHFONE  =     F    Hartree Fock one center treatment
   AEXX    =    0.0000 exact exchange contribution

 Linear response parameters
   LEPSILON=     F    determine dielectric tensor
   LRPA    =     F    only Hartree local field effects (RPA)
   LNABLA  =     F    use nabla operator in PAW spheres
   LVEL    =     F    velocity operator in full k-point grid
   LINTERFAST=   F  fast interpolation
   KINTER  =     0    interpolate to denser k-point grid
   CSHIFT  =0.1000    complex shift for real part using Kramers Kronig
   OMEGAMAX=  -1.0    maximum frequency
   DEG_THRESHOLD= 0.2000000E-02 threshold for treating states as degnerate
   RTIME   =   -0.100 relaxation time in fs
  (WPLASMAI=    0.000 imaginary part of plasma frequency in eV, 0.658/RTIME)
   DFIELD  = 0.0000000 0.0000000 0.0000000 field for delta impulse in time
 
 Orbital magnetization related:
   ORBITALMAG=     F  switch on orbital magnetization
   LCHIMAG   =     F  perturbation theory with respect to B field
   DQ        =  0.001000  dq finite difference perturbation B field
   LLRAUG    =     F  two centre corrections for induced B field



--------------------------------------------------------------------------------------------------------


 Static calculation
 charge density and potential will be updated during run
 non-spin polarized calculation
 Variant of blocked Davidson
 Davidson routine will perform the subspace rotation
 perform sub-space diagonalisation
    after iterative eigenvector-optimisation
 modified Broyden-mixing scheme, WC =      100.0
 initial mixing is a Kerker type mixing with AMIX =  0.4000 and BMIX =      1.0000
 Hartree-type preconditioning will be used
 using additional bands           88
 real space projection scheme for non local part
 use partial core corrections
 calculate Harris-corrections to forces 
   (improved forces if not selfconsistent)
 use gradient corrections 
 use of overlap-Matrix (Vanderbilt PP)
 Gauss-broadening in eV      SIGMA  =   0.05


--------------------------------------------------------------------------------------------------------


  energy-cutoff  :      600.00
  volume of cell :     1572.30
      direct lattice vectors                 reciprocal lattice vectors
    11.628173330  0.000000000  0.000000000     0.085998030  0.000000000  0.000000000
     0.000000000 11.628173330  0.000000000     0.000000000  0.085998030  0.000000000
     0.000000000  0.000000000 11.628173330     0.000000000  0.000000000  0.085998030

  length of vectors
    11.628173330 11.628173330 11.628173330     0.085998030  0.085998030  0.085998030


 
 k-points in units of 2pi/SCALE and weight: read from INCAR                         
   0.00000000  0.00000000  0.00000000       0.125
   0.04299902  0.00000000  0.00000000       0.125
   0.00000000  0.04299902  0.00000000       0.125
   0.04299902  0.04299902  0.00000000       0.125
   0.00000000  0.00000000  0.04299902       0.125
   0.04299902  0.00000000  0.04299902       0.125
   0.00000000  0.04299902  0.04299902       0.125
   0.04299902  0.04299902  0.04299902       0.125
 
 k-points in reciprocal lattice and weights: read from INCAR                         
   0.00000000  0.00000000  0.00000000       0.125
   0.50000000  0.00000000  0.00000000       0.125
   0.00000000  0.50000000  0.00000000       0.125
   0.50000000  0.50000000  0.00000000       0.125
   0.00000000  0.00000000  0.50000000       0.125
   0.50000000  0.00000000  0.50000000       0.125
   0.00000000  0.50000000  0.50000000       0.125
   0.50000000  0.50000000  0.50000000       0.125
 
 position of ions in fractional coordinates (direct lattice) 
   0.90729783  0.35797201  0.58745648
   0.92352315  0.08685078  0.74416879
   0.65507790  0.43343072  0.06276568
   0.36016671  0.96434199  0.39861949
   0.64269934  0.18514731  0.81474836
   0.99820703  0.92231566  0.25269927
   0.27368662  0.71277693  0.68261314
   0.58227950  0.74539337  0.58069574
   0.20271160  0.76156246  0.09941313
   0.83362602  0.79371326  0.04073078
   0.41642972  0.94856705  0.17210927
   0.16714273  0.97083737  0.65732928
   0.99733646  0.77608786  0.75250679
   0.87429304  0.87971862  0.55352913
   0.88350136  0.65293463  0.43616548
   0.34378888  0.33351078  0.03061709
   0.33225552  0.63304155  0.31645694
   0.67384958  0.99502523  0.35518763
   0.40502333  0.11112363  0.89487394
   0.48364001  0.23167085  0.55694266
   0.95414226  0.55800576  0.89650811
   0.37432678  0.85767091  0.85071402
   0.14242690  0.22727552  0.25488081
   0.62120444  0.51895099  0.38914162
   0.07045041  0.28221261  0.96959064
   0.64409117  0.44412188  0.66864127
   0.89909755  0.05422772  0.03225187
   0.16336444  0.51159895  0.68375422
   0.73671058  0.21247832  0.49428419
   0.82670021  0.31777071  0.91481574
   0.11189839  0.50614460  0.41062233
   0.51570252  0.43403834  0.87759079
   0.95269844  0.08496386  0.44266376
   0.40078663  0.62391135  0.88048178
   0.49654420  0.22606467  0.24722235
   0.48418421  0.65381583  0.12627497
   0.20932475  0.28072761  0.75642210
   0.86156132  0.59287864  0.18014247
   0.19113544  0.20822705  0.50702178
   0.63836519  0.91748949  0.99244370
   0.81620271  0.60788619  0.64032742
   0.07657795  0.95040831  0.93530848
   0.83309798  0.39225359  0.31318205
   0.13324727  0.77573102  0.44557701
   0.34643404  0.36085173  0.35820121
   0.11854939  0.53774721  0.11328923
   0.69347133  0.93432731  0.73452379
   0.67770331  0.16220636  0.10422840
   0.88833406  0.24154008  0.21172066
   0.48588523  0.99870765  0.63138727
   0.59728317  0.74716959  0.31843429
   0.21515351  0.04889707  0.07604844
   0.69972770  0.64220948  0.86775924
   0.40157129  0.53871195  0.56495100
   0.86346519  0.97734471  0.38780351
   0.50374856  0.64862870  0.96304140
   0.79788835  0.34134544  0.18395397
   0.60637636  0.27041582  0.16317903
   0.53862674  0.55798121  0.57453202
   0.01732733  0.02763458  0.55070335
   0.77532396  0.22037678  0.01658729
   0.12302180  0.40827849  0.79904484
   0.12056366  0.07080513  0.95273939
   0.98833156  0.20057879  0.12084288
   0.91581798  0.40675857  0.97906689
   0.51356347  0.30707025  0.36765935
   0.36695954  0.92449003  0.62827630
   0.67453783  0.64894757  0.71903229
   0.72168543  0.94555877  0.86454955
   0.66966950  0.26566371  0.60527973
   0.82758373  0.71644684  0.84410456
   0.15096440  0.87860932  0.85398085
   0.51481516  0.33971802  0.76537842
   0.91706884  0.22422043  0.86351570
   0.99600989  0.12569462  0.31204811
   0.12273959  0.63437836  0.75634216
   0.70940659  0.85313979  0.62710927
   0.72181909  0.91711050  0.11235081
   0.96368651  0.49116335  0.41340347
   0.55077384  0.91639335  0.72764134
   0.64355842  0.16146565  0.40683882
   0.28554966  0.70195574  0.92691052
   0.90643513  0.71776700  0.20368277
   0.11552009  0.80696602  0.57990263
   0.53502781  0.87994568  0.33473238
   0.51247189  0.02474015  0.50343484
   0.50364324  0.66095693  0.37427764
   0.75932070  0.32887905  0.80719207
   0.25150215  0.23728160  0.88224664
   0.36348243  0.42967427  0.48476106
   0.48081104  0.13040243  0.71819620
   0.59657523  0.10209115  0.00591109
   0.89731015  0.71771415  0.60892026
   0.18245312  0.41642105  0.07043562
   0.74153843  0.05742254  0.68170432
   0.28204942  0.16611728  0.11888992
   0.52548708  0.34278488  0.96490677
   0.79101406  0.34717608  0.42823954
   0.26816247  0.24032474  0.63119787
   0.18791442  0.99099690  0.20794212
   0.29438907  0.49014516  0.64927975
   0.20232459  0.61228304  0.20148578
   0.87094335  0.51842667  0.73457933
   0.03761677  0.89085478  0.06541513
   0.46788239  0.51980514  0.13156444
   0.70796539  0.71150629  0.40650500
   0.38328645  0.48647897  0.90192947
   0.01508577  0.79037600  0.39034914
   0.97673781  0.50308155  0.14615282
   0.63019709  0.51501822  0.87966356
   0.78106286  0.58929132  0.06685298
   0.06535771  0.25111157  0.48269869
   0.12215575  0.48570382  0.55737433
   0.21602127  0.43626048  0.35157068
   0.15570232  0.62911710  0.42304953
   0.76230590  0.13851907  0.20568055
   0.47863634  0.10177289  0.27828244
   0.49860182  0.91430369  0.98217160
   0.09488379  0.14743487  0.73986046
   0.94708153  0.94951907  0.86470935
   0.08824288  0.64569518  0.01632555
   0.22051056  0.07070062  0.46315800
   0.28623800  0.95573391  0.00440071
   0.37687583  0.33052336  0.22643705
   0.44100638  0.71175585  0.77148689
   0.77230415  0.53390864  0.53610163
   0.76696111  0.52414189  0.26387626
   0.33913965  0.65294036  0.53020114
   0.85540552  0.15856469  0.53019592
   0.37602734  0.73450330  0.16831643
   0.64891527  0.76847215  0.97084378
   0.61277157  0.71123156  0.18844798
   0.95681157  0.32742767  0.29035789
   0.28522662  0.23993086  0.39737164
   0.26251276  0.79992548  0.40996283
 
 position of ions in cartesian coordinates  (Angst):
  10.55021643  4.16256062  6.83104580
  10.73888728  1.00991587  8.65332362
   7.61735938  5.04000758  0.72985020
   4.18808096 11.21353581  4.63521649
   7.47341927  2.15292506  9.47403518
  11.60732436 10.72484635  2.93843087
   3.18247547  8.28829369  7.93754389
   6.77084697  8.66756330  6.75243074
   2.35716559  8.85558026  1.15599313
   9.69354781  9.22943536  0.47362453
   4.84231695 11.03010206  2.00131646
   1.94356467 11.28906525  7.64353876
  11.59720123  9.02448417  8.75027943
  10.16643105 10.22952056  6.43653265
  10.27350691  7.59243703  5.07180779
   3.99763663  3.87812115  0.35602083
   3.86352480  7.36111690  3.67981619
   7.83563974 11.57032587  4.13018327
   4.70968147  1.29216482 10.40574928
   5.62384992  2.69390880  6.47622580
  11.09493158  6.48858773 10.42475173
   4.35273667  9.97314597  9.89225012
   1.65616472  2.64279918  2.96379827
   7.22347288  6.03445206  4.52500626
   0.81920955  3.28161715 11.27456807
   7.48960375  5.16432617  7.77507661
  10.45486213  0.63056931  0.37503035
   1.89963002  5.94896128  7.95081254
   8.56659827  2.47073471  5.74762222
   9.61301331  3.69509284 10.63763603
   1.30117387  5.88553711  4.77478758
   5.99667833  5.04707301 10.20477787
  11.07814254  0.98797451  5.14737089
   4.66041646  7.25494929 10.23839478
   5.77390206  2.62871916  2.87474437
   5.63017792  7.60268381  1.46834729
   2.43406447  3.26434929  8.79580732
  10.01838431  6.89409555  2.09472789
   2.22255605  2.42130023  5.89573716
   7.42302102 10.66872679 11.54030734
   9.49094653  7.06860593  7.44583827
   0.89046163 11.05151259 10.87592918
   9.68740774  4.56119273  3.64173519
   1.54942231  9.02033476  5.18124675
   4.02839506  4.19604641  4.16522576
   1.37851287  6.25301780  1.31734684
   8.06380478 10.86451995  8.54116990
   7.88045155  1.88616370  1.21198588
  10.32970248  2.80866987  2.46192448
   5.64995764 11.61314563  7.34188063
   6.94531228  8.68821750  3.70280916
   2.50184236  0.56858356  0.88430440
   8.13655496  7.46772318 10.09045481
   4.66954057  6.26423589  6.56934820
  10.04052289 11.36473367  4.50944643
   5.85767561  7.54236696 11.19841232
   9.27798404  3.96922396  2.13904865
   7.05104939  3.14444206  1.89747406
   6.26324509  6.48830227  6.68075797
   0.20148524  0.32133963  6.40367404
   9.01560144  2.56257943  0.19287991
   1.43051882  4.74753306  9.29143193
   1.40193516  0.82333434 11.07861873
  11.49249069  2.33236491  1.40518191
  10.64929017  4.72985914 11.38475949
   5.97180499  3.57066613  4.27520662
   4.26706908 10.75013032  7.30570566
   7.84364284  7.54607479  8.36103208
   8.39188322 10.99512124 10.05313201
   7.78703301  3.08918367  7.03829763
   9.62328707  8.33096807  9.81539416
   1.75544022 10.21662145  9.93023729
   5.98635994  3.95030003  8.89995295
  10.66383538  2.60727401 10.04111024
  11.58177563  1.46159879  3.62854950
   1.42723722  7.37666153  8.79487772
   8.24910277  9.92045735  7.29213525
   8.39343750 10.66431988  1.30643467
  11.20591383  5.71133257  4.80712726
   6.40449371 10.65598066  8.46113966
   7.48340884  1.87755062  4.73079232
   3.32042097  8.16246307 10.77827613
  10.54018477  8.34631913  2.36845856
   1.34328758  9.38354072  6.74320824
   6.22139614 10.23216084  3.89232608
   5.95911202  0.28768277  5.85402763
   5.85645092  7.68572170  4.35216532
   8.82951267  3.82426260  9.38616926
   2.92451056  2.75915158 10.25891687
   4.22663674  4.99632683  5.63688568
   5.59095409  1.51634204  8.35130990
   6.93708021  1.18713364  0.06873517
  10.43407793  8.34570452  7.08063038
   2.12159653  4.84221615  0.81903754
   8.62273737  0.66771921  7.92697598
   3.27971954  1.93164049  1.38247264
   6.11045487  3.98596201 11.22010321
   9.19804855  4.03702364  4.97964360
   3.11823972  2.79453772  7.33967826
   2.18510143 11.52348373  2.41798696
   3.42320719  5.69949291  7.54993748
   2.35266540  7.11973333  2.34291161
  10.12748024  6.02835522  8.54181581
   0.43741427 10.35901382  0.76065847
   5.44061758  6.04438428  1.52985411
   8.23234422  8.27351852  4.72691061
   4.45692128  5.65686178 10.48779224
   0.17541992  9.19062918  4.53904748
  11.35767653  5.84991943  1.69949031
   7.32804096  5.98872112 10.22888036
   9.08233432  6.85238166  0.77737808
   0.75999081  2.91996890  5.61290399
   1.42044820  5.64784815  6.48124531
   2.51193275  5.07291245  4.08812480
   1.81053356  7.31548263  4.91929330
   8.86422519  1.61072371  2.39168904
   5.56566636  1.18343282  3.23591643
   5.79782837 10.63168175 11.42086160
   1.10332515  1.71439823  8.60322565
  11.01282823 11.04117229 10.05499016
   1.02610345  7.50825543  0.18983630
   2.56413496  0.82211912  5.38568146
   3.32842505 11.11343951  0.05117226
   4.38237745  3.84338294  2.63304926
   5.12809862  8.27642040  8.97098332
   8.98048654  6.20838222  6.23388271
   8.91835675  6.09481271  3.06839890
   3.94357463  7.59250370  6.16527073
   9.94680367  1.84381769  6.16521008
   4.37251111  8.54093168  1.95721259
   7.54569927  8.93592738 11.28913979
   7.12541401  8.27032390  2.19130580
  11.12597081  3.80738566  3.37633185
   3.31666456  2.78995763  4.62070634
   3.05254384  9.30167219  4.76711885
 


--------------------------------------------------------------------------------------------------------


 k-point  1 :   0.0000 0.0000 0.0000  plane waves:   52515
 k-point  2 :   0.5000 0.0000 0.0000  plane waves:   52518
 k-point  3 :   0.0000 0.5000 0.0000  plane waves:   52518
 k-point  4 :   0.5000 0.5000 0.0000  plane waves:   52456
 k-point  5 :   0.0000 0.0000 0.5000  plane waves:   52518
 k-point  6 :   0.5000 0.0000 0.5000  plane waves:   52456
 k-point  7 :   0.0000 0.5000 0.5000  plane waves:   52456
 k-point  8 :   0.5000 0.5000 0.5000  plane waves:   52568

 maximum and minimum number of plane-waves per node :      4420     4326

 maximum number of plane-waves:     52568
 maximum index in each direction: 
   IXMAX=   23   IYMAX=   23   IZMAX=   23
   IXMIN=  -23   IYMIN=  -23   IZMIN=  -23


 real space projection operators:
  total allocation   :      51760.25 KBytes
  max/ min on nodes  :       4408.58       4220.69


 parallel 3D FFT for wavefunctions:
    minimum data exchange during FFTs selected (reduces bandwidth)
 parallel 3D FFT for charge:
    minimum data exchange during FFTs selected (reduces bandwidth)


 total amount of memory used by VASP MPI-rank0   164644. kBytes
=======================================================================

   base      :      30000. kBytes
   nonlr-proj:      22533. kBytes
   fftplans  :      23775. kBytes
   grid      :      12472. kBytes
   one-center:        186. kBytes
   wavefun   :      75678. kBytes
 
     INWAV:  cpu time    0.0000: real time    0.0002
 Broyden mixing: mesh for mixing (old mesh)
   NGX = 47   NGY = 47   NGZ = 47
  (NGX  =192   NGY  =192   NGZ  =192)
  gives a total of 103823 points

 initial charge density was supplied:
 charge density of overlapping atoms calculated
 number of electron     864.0000000 magnetization 
 keeping initial charge density in first step


--------------------------------------------------------------------------------------------------------


 Maximum index for non-local projection operator          672
 Maximum index for augmentation-charges         4824 (set IRDMAX)


--------------------------------------------------------------------------------------------------------


 First call to EWALD:  gamma=   0.152
 Maximum number of real-space cells 3x 3x 3
 Maximum number of reciprocal cells 3x 3x 3

    FEWALD:  cpu time    0.0054: real time    0.0056


--------------------------------------- Iteration      1(   1)  ---------------------------------------


    POTLOK:  cpu time    0.1089: real time    0.1161
    SETDIJ:  cpu time    0.3048: real time    0.3056
     EDDAV:  cpu time   33.8105: real time   33.9564
       DOS:  cpu time    0.0024: real time    0.0024
    --------------------------------------------
      LOOP:  cpu time   34.2266: real time   34.3806

 eigenvalue-minimisations  :  8320
 total energy-change (2. order) : 0.9714930E+04  (-0.4840616E+05)
 number of electron     864.0000000 magnetization 
 augmentation part      864.0000000 magnetization 

 Free energy of the ion-electron system (eV)
  ---------------------------------------------------
  alpha Z        PSCENC =      3039.22321400
  Ewald energy   TEWEN  =    -49182.33575756
  -Hartree energ DENC   =    -15516.03014521
  -exchange      EXHF   =         0.00000000
  -V(xc)+E(xc)   XCENC  =      3191.89486526
  PAW double counting   =     50594.51003143   -49994.65612350
  entropy T*S    EENTRO =        -0.03555667
  eigenvalues    EBANDS =      2613.81936064
  atomic energy  EATOM  =     64968.54023382
  Solvation  Ediel_sol  =         0.00000000
  ---------------------------------------------------
  free energy    TOTEN  =      9714.93012223 eV

  energy without entropy =     9714.96567890  energy(sigma->0) =     9714.94790057


--------------------------------------------------------------------------------------------------------




--------------------------------------- Iteration      1(   2)  ---------------------------------------


     EDDAV:  cpu time   38.2890: real time   38.4836
       DOS:  cpu time    0.0010: real time    0.0010
    --------------------------------------------
      LOOP:  cpu time   38.2900: real time   38.4846

 eigenvalue-minimisations  :  9728
 total energy-change (2. order) :-0.9687626E+04  (-0.9374646E+04)
 number of electron     864.0000000 magnetization 
 augmentation part      864.0000000 magnetization 

 Free energy of the ion-electron system (eV)
  ---------------------------------------------------
  alpha Z        PSCENC =      3039.22321400
  Ewald energy   TEWEN  =    -49182.33575756
  -Hartree energ DENC   =    -15516.03014521
  -exchange      EXHF   =         0.00000000
  -V(xc)+E(xc)   XCENC  =      3191.89486526
  PAW double counting   =     50594.51003143   -49994.65612350
  entropy T*S    EENTRO =        -0.00000000
  eigenvalues    EBANDS =     -7073.84255486
  atomic energy  EATOM  =     64968.54023382
  Solvation  Ediel_sol  =         0.00000000
  ---------------------------------------------------
  free energy    TOTEN  =        27.30376340 eV

  energy without entropy =       27.30376340  energy(sigma->0) =       27.30376340


--------------------------------------------------------------------------------------------------------




--------------------------------------- Iteration      1(   3)  ---------------------------------------


     EDDAV:  cpu time   39.7549: real time   39.9466
       DOS:  cpu time    0.0010: real time    0.0010
    --------------------------------------------
      LOOP:  cpu time   39.7559: real time   39.9476

 eigenvalue-minimisations  : 10248
 total energy-change (2. order) :-0.1045189E+04  (-0.1038054E+04)
 number of electron     864.0000000 magnetization 
 augmentation part      864.0000000 magnetization 

 Free energy of the ion-electron system (eV)
  ---------------------------------------------------
  alpha Z        PSCENC =      3039.22321400
  Ewald energy   TEWEN  =    -49182.33575756
  -Hartree energ DENC   =    -15516.03014521
  -exchange      EXHF   =         0.00000000
  -V(xc)+E(xc)   XCENC  =      3191.89486526
  PAW double counting   =     50594.51003143   -49994.65612350
  entropy T*S    EENTRO =        -0.00000000
  eigenvalues    EBANDS =     -8119.03111408
  atomic energy  EATOM  =     64968.54023382
  Solvation  Ediel_sol  =         0.00000000
  ---------------------------------------------------
  free energy    TOTEN  =     -1017.88479582 eV

  energy without entropy =    -1017.88479582  energy(sigma->0) =    -1017.88479582


--------------------------------------------------------------------------------------------------------




--------------------------------------- Iteration      1(   4)  ---------------------------------------


     EDDAV:  cpu time   43.2894: real time   43.5587
       DOS:  cpu time    0.0010: real time    0.0010
    --------------------------------------------
      LOOP:  cpu time   43.2904: real time   43.5598

 eigenvalue-minimisations  : 11464
 total energy-change (2. order) :-0.5008898E+02  (-0.4991917E+02)
 number of electron     864.0000000 magnetization 
 augmentation part      864.0000000 magnetization 

 Free energy of the ion-electron system (eV)
  ---------------------------------------------------
  alpha Z        PSCENC =      3039.22321400
  Ewald energy   TEWEN  =    -49182.33575756
  -Hartree energ DENC   =    -15516.03014521
  -exchange      EXHF   =         0.00000000
  -V(xc)+E(xc)   XCENC  =      3191.89486526
  PAW double counting   =     50594.51003143   -49994.65612350
  entropy T*S    EENTRO =        -0.00000000
  eigenvalues    EBANDS =     -8169.12009101
  atomic energy  EATOM  =     64968.54023382
  Solvation  Ediel_sol  =         0.00000000
  ---------------------------------------------------
  free energy    TOTEN  =     -1067.97377275 eV

  energy without entropy =    -1067.97377275  energy(sigma->0) =    -1067.97377275


--------------------------------------------------------------------------------------------------------




--------------------------------------- Iteration      1(   5)  ---------------------------------------


     EDDAV:  cpu time   51.8050: real time   52.0822
       DOS:  cpu time    0.0013: real time    0.0013
    CHARGE:  cpu time    1.2546: real time    1.2591
    MIXING:  cpu time    0.0058: real time    0.0059
    --------------------------------------------
      LOOP:  cpu time   53.0668: real time   53.3485

 eigenvalue-minimisations  : 14232
 total energy-change (2. order) :-0.4826920E+01  (-0.4824512E+01)
 number of electron     864.0000007 magnetization 
 augmentation part      133.5352460 magnetization 

 Broyden mixing:
  rms(total) = 0.85842E+01    rms(broyden)= 0.85836E+01
  rms(prec ) = 0.10169E+02
  weight for this iteration     100.00

 Free energy of the ion-electron system (eV)
  ---------------------------------------------------
  alpha Z        PSCENC =      3039.22321400
  Ewald energy   TEWEN  =    -49182.33575756
  -Hartree energ DENC   =    -15516.03014521
  -exchange      EXHF   =         0.00000000
  -V(xc)+E(xc)   XCENC  =      3191.89486526
  PAW double counting   =     50594.51003143   -49994.65612350
  entropy T*S    EENTRO =        -0.00000000
  eigenvalues    EBANDS =     -8173.94701130
  atomic energy  EATOM  =     64968.54023382
  Solvation  Ediel_sol  =         0.00000000
  ---------------------------------------------------
  free energy    TOTEN  =     -1072.80069304 eV

  energy without entropy =    -1072.80069304  energy(sigma->0) =    -1072.80069304


--------------------------------------------------------------------------------------------------------




--------------------------------------- Iteration      1(   6)  ---------------------------------------


    POTLOK:  cpu time    0.1039: real time    0.1115
    SETDIJ:  cpu time    0.3211: real time    0.3329
     EDDAV:  cpu time   38.3343: real time   38.5385
       DOS:  cpu time    0.0010: real time    0.0010
    CHARGE:  cpu time    1.2507: real time    1.2551
    MIXING:  cpu time    0.0058: real time    0.0058
    --------------------------------------------
      LOOP:  cpu time   40.0167: real time   40.2448

 eigenvalue-minimisations  :  9784
 total energy-change (2. order) : 0.1423820E+03  (-0.6482310E+02)
 number of electron     864.0000006 magnetization 
 augmentation part      120.7058568 magnetization 

 Broyden mixing:
  rms(total) = 0.36819E+01    rms(broyden)= 0.36809E+01
  rms(prec ) = 0.38827E+01
  weight for this iteration     100.00

 eigenvalues of (default mixing * dielectric matrix)
  average eigenvalue GAMMA=   1.0511
  1.0511

 Free energy of the ion-electron system (eV)
  ---------------------------------------------------
  alpha Z        PSCENC =      3039.22321400
  Ewald energy   TEWEN  =    -49182.33575756
  -Hartree energ DENC   =    -16823.36232360
  -exchange      EXHF   =         0.00000000
  -V(xc)+E(xc)   XCENC  =      3280.87422469
  PAW double counting   =     66522.92149275   -66063.85193375
  entropy T*S    EENTRO =        -0.00000000
  eigenvalues    EBANDS =     -6672.42782348
  atomic energy  EATOM  =     64968.54023382
  Solvation  Ediel_sol  =         0.00000000
  ---------------------------------------------------
  free energy    TOTEN  =      -930.41867312 eV

  energy without entropy =     -930.41867312  energy(sigma->0) =     -930.41867312


--------------------------------------------------------------------------------------------------------




--------------------------------------- Iteration      1(   7)  ---------------------------------------


    POTLOK:  cpu time    0.1048: real time    0.1118
    SETDIJ:  cpu time    0.2991: real time    0.3018
     EDDAV:  cpu time   42.6767: real time   42.9011
       DOS:  cpu time    0.0009: real time    0.0009
    CHARGE:  cpu time    1.3082: real time    1.3136
    MIXING:  cpu time    0.0060: real time    0.0060
    --------------------------------------------
      LOOP:  cpu time   44.3957: real time   44.6352

 eigenvalue-minimisations  : 11216
 total energy-change (2. order) :-0.2249032E+01  (-0.6725477E+01)
 number of electron     864.0000006 magnetization 
 augmentation part      119.3619808 magnetization 

 Broyden mixing:
  rms(total) = 0.17792E+01    rms(broyden)= 0.17791E+01
  rms(prec ) = 0.19385E+01
  weight for this iteration     100.00

 eigenvalues of (default mixing * dielectric matrix)
  average eigenvalue GAMMA=   1.2491
  1.2491  1.2491

 Free energy of the ion-electron system (eV)
  ---------------------------------------------------
  alpha Z        PSCENC =      3039.22321400
  Ewald energy   TEWEN  =    -49182.33575756
  -Hartree energ DENC   =    -16897.87966047
  -exchange      EXHF   =         0.00000000
  -V(xc)+E(xc)   XCENC  =      3285.20412924
  PAW double counting   =     81029.45860454   -80628.57056463
  entropy T*S    EENTRO =        -0.00000000
  eigenvalues    EBANDS =     -6546.30790440
  atomic energy  EATOM  =     64968.54023382
  Solvation  Ediel_sol  =         0.00000000
  ---------------------------------------------------
  free energy    TOTEN  =      -932.66770545 eV

  energy without entropy =     -932.66770545  energy(sigma->0) =     -932.66770545


--------------------------------------------------------------------------------------------------------




--------------------------------------- Iteration      1(   8)  ---------------------------------------


    POTLOK:  cpu time    0.1092: real time    0.1231
    SETDIJ:  cpu time    0.2981: real time    0.3050
     EDDAV:  cpu time   40.3312: real time   40.5156
       DOS:  cpu time    0.0011: real time    0.0011
    CHARGE:  cpu time    1.2494: real time    1.2537
    MIXING:  cpu time    0.0044: real time    0.0045
    --------------------------------------------
      LOOP:  cpu time   41.9934: real time   42.2029

 eigenvalue-minimisations  : 10520
 total energy-change (2. order) : 0.1075869E+01  (-0.1096788E+01)
 number of electron     864.0000006 magnetization 
 augmentation part      119.7538272 magnetization 

 Broyden mixing:
  rms(total) = 0.72971E+00    rms(broyden)= 0.72962E+00
  rms(prec ) = 0.84568E+00
  weight for this iteration     100.00

 eigenvalues of (default mixing * dielectric matrix)
  average eigenvalue GAMMA=   1.3600
  2.1525  0.9637  0.9637

 Free energy of the ion-electron system (eV)
  ---------------------------------------------------
  alpha Z        PSCENC =      3039.22321400
  Ewald energy   TEWEN  =    -49182.33575756
  -Hartree energ DENC   =    -16879.25213745
  -exchange      EXHF   =         0.00000000
  -V(xc)+E(xc)   XCENC  =      3283.42965715
  PAW double counting   =     89669.81257523   -89306.65177829
  entropy T*S    EENTRO =        -0.00000000
  eigenvalues    EBANDS =     -6524.35784312
  atomic energy  EATOM  =     64968.54023382
  Solvation  Ediel_sol  =         0.00000000
  ---------------------------------------------------
  free energy    TOTEN  =      -931.59183621 eV

  energy without entropy =     -931.59183621  energy(sigma->0) =     -931.59183621


--------------------------------------------------------------------------------------------------------




--------------------------------------- Iteration      1(   9)  ---------------------------------------


    POTLOK:  cpu time    0.1099: real time    0.1116
    SETDIJ:  cpu time    0.3001: real time    0.3009
     EDDAV:  cpu time   39.6908: real time   39.8799
       DOS:  cpu time    0.0011: real time    0.0011
    CHARGE:  cpu time    1.2523: real time    1.2569
    MIXING:  cpu time    0.0042: real time    0.0042
    --------------------------------------------
      LOOP:  cpu time   41.3584: real time   41.5545

 eigenvalue-minimisations  : 10248
 total energy-change (2. order) : 0.2978064E+00  (-0.2216255E+00)
 number of electron     864.0000006 magnetization 
 augmentation part      119.1328657 magnetization 

 Broyden mixing:
  rms(total) = 0.20794E+00    rms(broyden)= 0.20792E+00
  rms(prec ) = 0.24863E+00
  weight for this iteration     100.00

 eigenvalues of (default mixing * dielectric matrix)
  average eigenvalue GAMMA=   1.3725
  2.3511  1.2451  0.9469  0.9469

 Free energy of the ion-electron system (eV)
  ---------------------------------------------------
  alpha Z        PSCENC =      3039.22321400
  Ewald energy   TEWEN  =    -49182.33575756
  -Hartree energ DENC   =    -16955.89475833
  -exchange      EXHF   =         0.00000000
  -V(xc)+E(xc)   XCENC  =      3288.64536890
  PAW double counting   =     96231.18061223   -95891.71028037
  entropy T*S    EENTRO =        -0.00000000
  eigenvalues    EBANDS =     -6428.94266248
  atomic energy  EATOM  =     64968.54023382
  Solvation  Ediel_sol  =         0.00000000
  ---------------------------------------------------
  free energy    TOTEN  =      -931.29402978 eV

  energy without entropy =     -931.29402978  energy(sigma->0) =     -931.29402978


--------------------------------------------------------------------------------------------------------




--------------------------------------- Iteration      1(  10)  ---------------------------------------


    POTLOK:  cpu time    0.1048: real time    0.1132
    SETDIJ:  cpu time    0.3022: real time    0.3030
     EDDAV:  cpu time   44.8505: real time   45.0723
       DOS:  cpu time    0.0010: real time    0.0010
    CHARGE:  cpu time    1.2520: real time    1.2565
    MIXING:  cpu time    0.0046: real time    0.0046
    --------------------------------------------
      LOOP:  cpu time   46.5152: real time   46.7506

 eigenvalue-minimisations  : 11936
 total energy-change (2. order) :-0.9448614E-01  (-0.1131957E+00)
 number of electron     864.0000006 magnetization 
 augmentation part      118.9625455 magnetization 

 Broyden mixing:
  rms(total) = 0.14745E+00    rms(broyden)= 0.14742E+00
  rms(prec ) = 0.16922E+00
  weight for this iteration     100.00

 eigenvalues of (default mixing * dielectric matrix)
  average eigenvalue GAMMA=   1.3014
  2.4666  1.1778  1.1778  0.8424  0.8424

 Free energy of the ion-electron system (eV)
  ---------------------------------------------------
  alpha Z        PSCENC =      3039.22321400
  Ewald energy   TEWEN  =    -49182.33575756
  -Hartree energ DENC   =    -16969.11816316
  -exchange      EXHF   =         0.00000000
  -V(xc)+E(xc)   XCENC  =      3289.50327829
  PAW double counting   =     97353.70963054   -97016.69028988
  entropy T*S    EENTRO =        -0.00000000
  eigenvalues    EBANDS =     -6414.22066198
  atomic energy  EATOM  =     64968.54023382
  Solvation  Ediel_sol  =         0.00000000
  ---------------------------------------------------
  free energy    TOTEN  =      -931.38851591 eV

  energy without entropy =     -931.38851591  energy(sigma->0) =     -931.38851591


--------------------------------------------------------------------------------------------------------




--------------------------------------- Iteration      1(  11)  ---------------------------------------


    POTLOK:  cpu time    0.1009: real time    0.1114
    SETDIJ:  cpu time    0.2963: real time    0.3014
     EDDAV:  cpu time   42.5431: real time   43.6710
       DOS:  cpu time    0.0010: real time    0.0010
    CHARGE:  cpu time    1.2248: real time    1.2544
    MIXING:  cpu time    0.0046: real time    0.0047
    --------------------------------------------
      LOOP:  cpu time   44.1708: real time   45.3439

 eigenvalue-minimisations  : 11472
 total energy-change (2. order) :-0.4992810E-03  (-0.1512743E-01)
 number of electron     864.0000006 magnetization 
 augmentation part      118.9490169 magnetization 

 Broyden mixing:
  rms(total) = 0.77627E-01    rms(broyden)= 0.77621E-01
  rms(prec ) = 0.87570E-01
  weight for this iteration     100.00

 eigenvalues of (default mixing * dielectric matrix)
  average eigenvalue GAMMA=   1.3534
  2.4918  1.8088  0.9919  0.9919  0.9179  0.9179

 Free energy of the ion-electron system (eV)
  ---------------------------------------------------
  alpha Z        PSCENC =      3039.22321400
  Ewald energy   TEWEN  =    -49182.33575756
  -Hartree energ DENC   =    -16976.43973450
  -exchange      EXHF   =         0.00000000
  -V(xc)+E(xc)   XCENC  =      3289.95901988
  PAW double counting   =     97399.53190063   -97061.96761198
  entropy T*S    EENTRO =        -0.00000000
  eigenvalues    EBANDS =     -6407.90027949
  atomic energy  EATOM  =     64968.54023382
  Solvation  Ediel_sol  =         0.00000000
  ---------------------------------------------------
  free energy    TOTEN  =      -931.38901519 eV

  energy without entropy =     -931.38901519  energy(sigma->0) =     -931.38901519


--------------------------------------------------------------------------------------------------------




--------------------------------------- Iteration      1(  12)  ---------------------------------------


    POTLOK:  cpu time    0.1012: real time    0.1123
    SETDIJ:  cpu time    0.2942: real time    0.3014
     EDDAV:  cpu time   38.4208: real time   39.4213
       DOS:  cpu time    0.0010: real time    0.0010
    CHARGE:  cpu time    1.2469: real time    1.2769
    MIXING:  cpu time    0.0047: real time    0.0048
    --------------------------------------------
      LOOP:  cpu time   40.0689: real time   41.1177

 eigenvalue-minimisations  : 10104
 total energy-change (2. order) :-0.5013655E-02  (-0.4000201E-02)
 number of electron     864.0000006 magnetization 
 augmentation part      118.9522186 magnetization 

 Broyden mixing:
  rms(total) = 0.28120E-01    rms(broyden)= 0.28113E-01
  rms(prec ) = 0.33806E-01
  weight for this iteration     100.00

 eigenvalues of (default mixing * dielectric matrix)
  average eigenvalue GAMMA=   1.3859
  2.5232  2.5232  0.8859  0.8859  1.0264  1.0264  0.8305

 Free energy of the ion-electron system (eV)
  ---------------------------------------------------
  alpha Z        PSCENC =      3039.22321400
  Ewald energy   TEWEN  =    -49182.33575756
  -Hartree energ DENC   =    -16978.27545774
  -exchange      EXHF   =         0.00000000
  -V(xc)+E(xc)   XCENC  =      3290.01903419
  PAW double counting   =     97188.57881625   -96849.29417889
  entropy T*S    EENTRO =        -0.00000000
  eigenvalues    EBANDS =     -6407.84993292
  atomic energy  EATOM  =     64968.54023382
  Solvation  Ediel_sol  =         0.00000000
  ---------------------------------------------------
  free energy    TOTEN  =      -931.39402885 eV

  energy without entropy =     -931.39402885  energy(sigma->0) =     -931.39402885


--------------------------------------------------------------------------------------------------------




--------------------------------------- Iteration      1(  13)  ---------------------------------------


    POTLOK:  cpu time    0.1039: real time    0.1120
    SETDIJ:  cpu time    0.2977: real time    0.3008
     EDDAV:  cpu time   44.2460: real time   44.4711
       DOS:  cpu time    0.0010: real time    0.0010
    CHARGE:  cpu time    1.2499: real time    1.2543
    MIXING:  cpu time    0.0046: real time    0.0047
    --------------------------------------------
      LOOP:  cpu time   45.9031: real time   46.1439

 eigenvalue-minimisations  : 11744
 total energy-change (2. order) :-0.1734678E-02  (-0.7598604E-03)
 number of electron     864.0000006 magnetization 
 augmentation part      118.9687557 magnetization 

 Broyden mixing:
  rms(total) = 0.12281E-01    rms(broyden)= 0.12279E-01
  rms(prec ) = 0.15642E-01
  weight for this iteration     100.00

 eigenvalues of (default mixing * dielectric matrix)
  average eigenvalue GAMMA=   1.3598
  2.6934  2.4806  0.9121  0.9121  1.1110  0.8877  0.9408  0.9408

 Free energy of the ion-electron system (eV)
  ---------------------------------------------------
  alpha Z        PSCENC =      3039.22321400
  Ewald energy   TEWEN  =    -49182.33575756
  -Hartree energ DENC   =    -16979.17038714
  -exchange      EXHF   =         0.00000000
  -V(xc)+E(xc)   XCENC  =      3290.02895167
  PAW double counting   =     97012.05664722   -96671.54146870
  entropy T*S    EENTRO =        -0.00000000
  eigenvalues    EBANDS =     -6408.19719686
  atomic energy  EATOM  =     64968.54023382
  Solvation  Ediel_sol  =         0.00000000
  ---------------------------------------------------
  free energy    TOTEN  =      -931.39576353 eV

  energy without entropy =     -931.39576353  energy(sigma->0) =     -931.39576353


--------------------------------------------------------------------------------------------------------




--------------------------------------- Iteration      1(  14)  ---------------------------------------


    POTLOK:  cpu time    0.1035: real time    0.1119
    SETDIJ:  cpu time    0.2984: real time    0.3014
     EDDAV:  cpu time   44.4465: real time   44.6649
       DOS:  cpu time    0.0010: real time    0.0010
    CHARGE:  cpu time    1.2473: real time    1.2543
    MIXING:  cpu time    0.0062: real time    0.0062
    --------------------------------------------
      LOOP:  cpu time   46.1028: real time   46.3395

 eigenvalue-minimisations  : 11808
 total energy-change (2. order) :-0.2136934E-03  (-0.3394042E-03)
 number of electron     864.0000006 magnetization 
 augmentation part      118.9649185 magnetization 

 Broyden mixing:
  rms(total) = 0.83781E-02    rms(broyden)= 0.83772E-02
  rms(prec ) = 0.98486E-02
  weight for this iteration     100.00

 eigenvalues of (default mixing * dielectric matrix)
  average eigenvalue GAMMA=   1.2914
  2.7559  2.4880  0.9198  0.9198  1.0809  1.0000  0.9392  0.7596  0.7596

 Free energy of the ion-electron system (eV)
  ---------------------------------------------------
  alpha Z        PSCENC =      3039.22321400
  Ewald energy   TEWEN  =    -49182.33575756
  -Hartree energ DENC   =    -16980.36860994
  -exchange      EXHF   =         0.00000000
  -V(xc)+E(xc)   XCENC  =      3290.09535548
  PAW double counting   =     97007.96116213   -96667.32947249
  entropy T*S    EENTRO =        -0.00000000
  eigenvalues    EBANDS =     -6407.18210268
  atomic energy  EATOM  =     64968.54023382
  Solvation  Ediel_sol  =         0.00000000
  ---------------------------------------------------
  free energy    TOTEN  =      -931.39597722 eV

  energy without entropy =     -931.39597722  energy(sigma->0) =     -931.39597722


--------------------------------------------------------------------------------------------------------




--------------------------------------- Iteration      1(  15)  ---------------------------------------


    POTLOK:  cpu time    0.1039: real time    0.1133
    SETDIJ:  cpu time    0.3012: real time    0.3021
     EDDAV:  cpu time   42.2370: real time   42.4217
       DOS:  cpu time    0.0009: real time    0.0009
    CHARGE:  cpu time    1.2580: real time    1.2650
    MIXING:  cpu time    0.0051: real time    0.0052
    --------------------------------------------
      LOOP:  cpu time   43.9063: real time   44.1083

 eigenvalue-minimisations  : 11032
 total energy-change (2. order) :-0.1860665E-04  (-0.4902606E-04)
 number of electron     864.0000006 magnetization 
 augmentation part      118.9685717 magnetization 

 Broyden mixing:
  rms(total) = 0.54332E-02    rms(broyden)= 0.54328E-02
  rms(prec ) = 0.65157E-02
  weight for this iteration     100.00

 eigenvalues of (default mixing * dielectric matrix)
  average eigenvalue GAMMA=   1.3725
  2.9402  2.2053  2.2053  0.9940  0.9940  0.8347  0.8975  0.8975  0.8781  0.8781

 Free energy of the ion-electron system (eV)
  ---------------------------------------------------
  alpha Z        PSCENC =      3039.22321400
  Ewald energy   TEWEN  =    -49182.33575756
  -Hartree energ DENC   =    -16980.45050612
  -exchange      EXHF   =         0.00000000
  -V(xc)+E(xc)   XCENC  =      3290.09575074
  PAW double counting   =     97007.83503593   -96667.18193864
  entropy T*S    EENTRO =        -0.00000000
  eigenvalues    EBANDS =     -6407.12202801
  atomic energy  EATOM  =     64968.54023382
  Solvation  Ediel_sol  =         0.00000000
  ---------------------------------------------------
  free energy    TOTEN  =      -931.39599583 eV

  energy without entropy =     -931.39599583  energy(sigma->0) =     -931.39599583


--------------------------------------------------------------------------------------------------------




--------------------------------------- Iteration      1(  16)  ---------------------------------------


    POTLOK:  cpu time    0.1052: real time    0.1129
    SETDIJ:  cpu time    0.3020: real time    0.3036
     EDDAV:  cpu time   38.5586: real time   39.3900
       DOS:  cpu time    0.0009: real time    0.0009
    CHARGE:  cpu time    1.2189: real time    1.2525
    MIXING:  cpu time    0.0050: real time    0.0052
    --------------------------------------------
      LOOP:  cpu time   40.1905: real time   41.0651

 eigenvalue-minimisations  : 10048
 total energy-change (2. order) : 0.8457835E-05  (-0.2296719E-04)
 number of electron     864.0000006 magnetization 
 augmentation part      118.9648972 magnetization 

 Broyden mixing:
  rms(total) = 0.16034E-02    rms(broyden)= 0.16023E-02
  rms(prec ) = 0.21906E-02
  weight for this iteration     100.00

 eigenvalues of (default mixing * dielectric matrix)
  average eigenvalue GAMMA=   1.3802
  2.9861  2.4382  2.4382  1.0834  0.8416  0.9457  0.9457  0.9066  0.9066  0.8451
  0.8451

 Free energy of the ion-electron system (eV)
  ---------------------------------------------------
  alpha Z        PSCENC =      3039.22321400
  Ewald energy   TEWEN  =    -49182.33575756
  -Hartree energ DENC   =    -16981.12358168
  -exchange      EXHF   =         0.00000000
  -V(xc)+E(xc)   XCENC  =      3290.13456871
  PAW double counting   =     97029.62738200   -96689.05504784
  entropy T*S    EENTRO =        -0.00000000
  eigenvalues    EBANDS =     -6406.40699883
  atomic energy  EATOM  =     64968.54023382
  Solvation  Ediel_sol  =         0.00000000
  ---------------------------------------------------
  free energy    TOTEN  =      -931.39598737 eV

  energy without entropy =     -931.39598737  energy(sigma->0) =     -931.39598737


--------------------------------------------------------------------------------------------------------




--------------------------------------- Iteration      1(  17)  ---------------------------------------


    POTLOK:  cpu time    0.1005: real time    0.1115
    SETDIJ:  cpu time    0.2969: real time    0.3022
     EDDAV:  cpu time   43.4383: real time   44.6249
       DOS:  cpu time    0.0009: real time    0.0009
    CHARGE:  cpu time    1.2254: real time    1.2563
    MIXING:  cpu time    0.0057: real time    0.0058
    --------------------------------------------
      LOOP:  cpu time   45.0677: real time   46.3016

 eigenvalue-minimisations  : 11784
 total energy-change (2. order) :-0.2855435E-05  (-0.9244612E-05)
 number of electron     864.0000006 magnetization 
 augmentation part      118.9663862 magnetization 

 Broyden mixing:
  rms(total) = 0.12254E-02    rms(broyden)= 0.12246E-02
  rms(prec ) = 0.14995E-02
  weight for this iteration     100.00

 eigenvalues of (default mixing * dielectric matrix)
  average eigenvalue GAMMA=   1.3371
  3.1364  2.4290  2.4290  1.1078  0.9589  0.9589  0.9511  0.9511  0.8192  0.8192
  0.7836  0.7012

 Free energy of the ion-electron system (eV)
  ---------------------------------------------------
  alpha Z        PSCENC =      3039.22321400
  Ewald energy   TEWEN  =    -49182.33575756
  -Hartree energ DENC   =    -16981.01035430
  -exchange      EXHF   =         0.00000000
  -V(xc)+E(xc)   XCENC  =      3290.12582536
  PAW double counting   =     97030.55995739   -96690.00154005
  entropy T*S    EENTRO =        -0.00000000
  eigenvalues    EBANDS =     -6406.49756890
  atomic energy  EATOM  =     64968.54023382
  Solvation  Ediel_sol  =         0.00000000
  ---------------------------------------------------
  free energy    TOTEN  =      -931.39599023 eV

  energy without entropy =     -931.39599023  energy(sigma->0) =     -931.39599023


--------------------------------------------------------------------------------------------------------




--------------------------------------- Iteration      1(  18)  ---------------------------------------


    POTLOK:  cpu time    0.1040: real time    0.1121
    SETDIJ:  cpu time    0.3012: real time    0.3019
     EDDAV:  cpu time   38.6304: real time   38.8072
       DOS:  cpu time    0.0011: real time    0.0011
    CHARGE:  cpu time    1.2508: real time    1.2552
    MIXING:  cpu time    0.0057: real time    0.0057
    --------------------------------------------
      LOOP:  cpu time   40.2932: real time   40.4831

 eigenvalue-minimisations  :  9824
 total energy-change (2. order) : 0.8636562E-06  (-0.2584456E-05)
 number of electron     864.0000006 magnetization 
 augmentation part      118.9667965 magnetization 

 Broyden mixing:
  rms(total) = 0.70592E-03    rms(broyden)= 0.70445E-03
  rms(prec ) = 0.86295E-03
  weight for this iteration     100.00

 eigenvalues of (default mixing * dielectric matrix)
  average eigenvalue GAMMA=   1.3505
  3.2585  2.5081  2.3793  1.2748  1.0274  1.0274  0.8575  0.8434  0.8434  0.9245
  0.9245  0.8438  0.8438

 Free energy of the ion-electron system (eV)
  ---------------------------------------------------
  alpha Z        PSCENC =      3039.22321400
  Ewald energy   TEWEN  =    -49182.33575756
[...]
   -.457E+02 -.507E+02 0.687E+02   0.331E+02 0.560E+02 -.101E+03   0.794E+01 -.291E+01 0.287E+02   -.454E-03 -.258E-02 0.765E-03
   -.397E+02 -.107E+02 0.656E+02   0.419E+02 0.376E+00 -.442E+02   -.384E-01 0.111E+02 -.223E+02   0.122E-03 -.951E-03 0.151E-03
   -.223E+02 0.641E+02 -.252E+02   0.106E+02 -.734E+02 0.335E+02   0.145E+02 0.830E+01 -.104E+02   0.129E-02 -.180E-02 -.277E-03
   0.114E+03 0.876E+01 -.424E+01   -.116E+03 0.573E+01 0.104E+02   0.172E+01 -.177E+02 -.703E+01   0.111E-02 0.261E-03 -.780E-03
   0.820E+02 0.457E+02 -.261E+02   -.983E+02 -.529E+02 0.104E+02   0.165E+02 0.619E+01 0.167E+02   0.284E-03 0.139E-02 -.302E-03
   -.617E+02 0.392E+02 -.318E+02   0.774E+02 -.249E+02 0.291E+02   -.165E+02 -.175E+02 0.319E+01   -.142E-02 0.149E-02 -.809E-03
   -.189E+02 -.545E+02 -.978E+00   0.292E+02 0.399E+02 -.418E+01   -.120E+02 0.153E+02 0.574E+01   0.220E-03 -.234E-02 0.147E-03
   0.166E+02 -.324E+02 0.650E+02   -.105E+02 0.536E+02 -.800E+02   -.664E+01 -.221E+02 0.160E+02   -.132E-03 0.927E-03 -.241E-03
   -.678E+02 -.106E+01 -.199E+02   0.811E+02 0.195E+02 0.318E+02   -.138E+02 -.191E+02 -.139E+02   0.251E-03 -.176E-03 0.817E-03
   0.540E+02 0.120E+03 -.442E+02   -.515E+02 -.150E+03 0.668E+02   -.151E+01 0.246E+02 -.169E+02   0.780E-03 -.214E-03 -.261E-03
   0.607E+02 0.348E+02 -.471E+01   -.673E+02 -.337E+02 0.276E+02   0.342E+01 -.368E+01 -.196E+02   -.743E-03 -.167E-02 -.183E-03
   -.284E+02 -.930E+01 -.478E+02   0.498E+02 0.381E+01 0.443E+02   -.215E+02 0.678E+01 0.334E+01   0.112E-02 -.185E-02 -.748E-03
   -.196E+02 0.370E+02 -.110E+03   0.160E+02 -.446E+02 0.132E+03   0.412E+01 0.798E+01 -.237E+02   0.246E-03 0.209E-02 -.728E-04
   -.331E+02 0.129E+03 -.140E+03   0.415E+02 -.145E+03 0.139E+03   -.594E+01 0.164E+02 0.505E+01   0.381E-03 -.731E-03 -.136E-02
   0.639E+02 0.661E+02 0.968E+01   -.528E+02 -.584E+02 0.471E+01   -.141E+02 -.101E+02 -.157E+02   0.998E-03 -.294E-03 -.142E-03
   -.997E+02 0.895E+02 -.176E+02   0.108E+03 -.107E+03 0.345E+02   -.868E+01 0.168E+02 -.191E+02   -.150E-02 -.950E-03 -.226E-03
   0.110E+02 0.818E+02 -.452E+02   -.130E+02 -.946E+02 0.607E+02   0.122E+01 0.142E+02 -.172E+02   -.384E-03 0.261E-02 0.222E-03
   0.535E+02 0.632E+02 -.606E+02   -.617E+02 -.946E+02 0.606E+02   0.920E+01 0.303E+02 0.175E+01   0.120E-02 -.773E-03 0.405E-03
   -.321E+02 -.126E+03 0.686E+02   0.475E+02 0.122E+03 -.570E+02   -.167E+02 0.663E+01 -.126E+02   -.752E-03 0.403E-04 0.311E-03
   0.176E+03 0.231E+02 0.478E+02   -.203E+03 -.382E+02 -.388E+02   0.271E+02 0.146E+02 -.112E+02   0.157E-02 -.154E-02 0.776E-03
   -.185E+01 -.255E+02 0.951E+02   -.254E+02 0.266E+02 -.109E+03   0.243E+02 0.577E+00 0.124E+02   -.342E-03 0.165E-02 0.109E-02
   -.770E+02 -.212E+01 -.394E+02   0.723E+02 -.191E+02 0.346E+02   0.506E+01 0.227E+02 0.713E+01   -.863E-03 -.197E-02 -.587E-03
   -.314E+02 -.305E+02 0.256E+01   0.413E+02 0.259E+02 -.214E+01   -.797E+01 0.498E+01 -.683E+00   0.182E-03 -.231E-02 0.185E-05
   0.266E+02 -.335E+02 0.419E+02   -.418E+02 0.330E+02 -.585E+02   0.147E+02 0.811E+00 0.142E+02   -.347E-03 -.111E-02 0.841E-03
   0.645E-01 -.491E+02 -.647E+02   -.274E+02 0.603E+02 0.575E+02   0.266E+02 -.103E+02 0.784E+01   0.571E-04 -.190E-02 -.247E-03
   0.591E+02 0.883E+02 -.563E+02   -.635E+02 -.949E+02 0.470E+02   0.161E+01 0.488E+01 0.918E+01   0.676E-03 -.106E-02 -.526E-05
   0.398E+02 0.282E+02 0.811E+02   -.354E+02 -.317E+02 -.927E+02   -.501E+01 0.250E+01 0.964E+01   0.871E-03 -.212E-02 0.383E-03
   0.520E+02 -.177E+02 0.254E+02   -.357E+02 0.306E+02 -.231E+02   -.171E+02 -.911E+01 -.274E+01   0.328E-03 -.646E-03 -.215E-04
   0.386E+01 0.129E+03 -.960E+02   0.301E+01 -.142E+03 0.122E+03   -.309E+01 0.102E+02 -.240E+02   -.108E-02 0.216E-03 0.311E-03
   0.331E+02 0.287E+02 0.343E+02   -.356E+02 -.581E+02 -.197E+02   0.146E+01 0.253E+02 -.158E+02   0.572E-03 0.572E-03 0.812E-03
   0.301E+01 -.113E+02 -.502E+02   -.261E+02 0.691E+01 0.489E+02   0.233E+02 0.575E+01 0.221E+01   0.225E-03 0.210E-02 -.362E-03
   -.936E+02 -.853E+02 0.381E+02   0.890E+02 0.803E+02 -.372E+02   0.770E+01 0.787E+01 -.134E+01   -.101E-02 -.789E-03 -.540E-03
   0.546E+02 0.657E+02 0.136E+02   -.739E+02 -.701E+02 -.218E+02   0.202E+02 0.411E+01 0.961E+01   -.410E-03 0.256E-02 -.174E-03
   0.166E+02 0.163E+01 0.650E+02   -.195E+02 0.141E+02 -.806E+02   0.188E+01 -.183E+02 0.158E+02   -.348E-03 -.764E-03 0.113E-02
   0.169E+02 0.461E+02 0.477E+01   -.159E+02 -.643E+02 -.138E+02   -.215E+01 0.190E+02 0.116E+02   0.989E-03 0.107E-02 -.466E-04
   -.370E+02 0.963E+01 0.628E+01   0.482E+02 -.304E+02 -.214E+02   -.956E+01 0.211E+02 0.157E+02   0.298E-03 0.222E-02 0.567E-03
   0.580E+01 -.484E+02 0.602E+02   -.113E+02 0.547E+02 -.862E+02   0.613E+01 -.754E+01 0.238E+02   0.694E-03 -.143E-02 0.681E-03
   -.857E+02 0.524E+02 0.540E+02   0.101E+03 -.410E+02 -.692E+02   -.147E+02 -.149E+02 0.141E+02   -.370E-03 0.184E-02 0.112E-03
   0.322E+01 0.640E+02 0.279E+02   -.127E+02 -.818E+02 -.508E+02   0.879E+01 0.171E+02 0.224E+02   -.645E-03 -.689E-03 0.488E-03
   0.487E+02 -.477E+02 0.180E+02   -.708E+02 0.528E+02 -.166E+02   0.237E+02 -.656E+01 0.150E+01   -.124E-02 -.149E-02 0.363E-03
   -.231E+02 -.638E+02 0.369E+02   0.918E+01 0.905E+02 -.513E+02   0.154E+02 -.261E+02 0.142E+02   0.130E-02 -.982E-03 0.109E-02
   -.310E+02 0.115E+02 -.281E+02   0.443E+02 -.196E+02 0.501E+02   -.112E+02 0.848E+01 -.229E+02   -.169E-02 -.262E-03 0.174E-03
   -.304E+02 -.675E+02 0.328E+02   0.127E+02 0.805E+02 -.279E+02   0.205E+02 -.117E+02 -.591E+01   0.870E-03 0.171E-03 0.765E-03
   0.415E+02 0.171E+02 -.727E+01   -.531E+02 -.289E+02 0.156E+02   0.143E+02 0.109E+02 -.103E+02   0.350E-03 0.130E-02 0.398E-03
   -.562E+02 -.370E+02 0.542E+02   0.792E+02 0.366E+02 -.785E+02   -.245E+02 -.772E+00 0.216E+02   -.208E-03 0.595E-03 0.146E-02
   -.140E+03 -.552E+02 -.521E+02   0.177E+03 0.650E+02 0.665E+02   -.352E+02 -.890E+01 -.121E+02   -.205E-02 -.239E-02 -.772E-03
   -.295E+02 0.636E+02 -.200E+02   0.342E+02 -.862E+02 0.118E+02   -.441E+01 0.237E+02 0.919E+01   0.884E-03 -.115E-02 -.591E-03
   -.240E+02 -.101E+03 0.528E+02   0.508E+02 0.101E+03 -.552E+02   -.266E+02 0.229E+01 0.420E+00   0.326E-04 0.173E-02 0.640E-03
 -----------------------------------------------------------------------------------------------
   0.229E+02 -.119E+03 -.339E+02   -.703E-12 0.327E-12 -.135E-12   -.229E+02 0.119E+03 0.339E+02   -.856E-03 0.289E-02 0.107E-03
 
 
 POSITION                                       TOTAL-FORCE (eV/Angst)
 -----------------------------------------------------------------------------------
     10.55022      4.16256      6.83105         1.912745      0.828121      0.370161
     10.73889      1.00992      8.65332         0.141736      1.336084     -1.318157
      7.61736      5.04001      0.72985         0.808117      1.235405      2.557484
      4.18808     11.21354      4.63522        -1.034045      0.087622      1.839645
      7.47342      2.15293      9.47404         0.185550      0.003284     -1.067443
     11.60732     10.72485      2.93843         0.462007     -0.678407      0.661577
      3.18248      8.28829      7.93754        -0.485129      2.471645     -0.514906
      6.77085      8.66756      6.75243        -2.878726     -0.856496     -0.417903
      2.35717      8.85558      1.15599        -0.314811      1.457880     -1.775983
      9.69355      9.22944      0.47362         1.234692     -2.217605     -0.892102
      4.84232     11.03010      2.00132         0.769544     -1.224971     -1.873759
      1.94356     11.28907      7.64354         0.979200      1.998272     -0.985347
     11.59720      9.02448      8.75028         1.224218     -0.089855      1.703032
     10.16643     10.22952      6.43653         0.795110      3.053931     -2.312575
     10.27351      7.59244      5.07181         1.091982      1.052578     -4.114648
      3.99764      3.87812      0.35602        -0.570043      1.642729      1.342732
      3.86352      7.36112      3.67982        -1.076606     -0.086466      2.750971
      7.83564     11.57033      4.13018         0.548004      0.214801     -0.525765
      4.70968      1.29216     10.40575        -0.072394     -0.110538      0.472995
      5.62385      2.69391      6.47623        -0.436511      0.449787     -0.739699
     11.09493      6.48859     10.42475         1.668510      1.211973      0.738318
      4.35274      9.97315      9.89225        -0.469687      0.887565      1.311838
      1.65616      2.64280      2.96380         0.520291      0.454850      0.253127
      7.22347      6.03445      4.52501        -0.568115     -0.832508      0.740821
      0.81921      3.28162     11.27457         0.037353      0.291508     -0.722092
      7.48960      5.16433      7.77508         1.191546     -0.883716      1.522725
     10.45486      0.63057      0.37503        -0.764088      1.048543     -0.780327
      1.89963      5.94896      7.95081        -2.623717      0.134959      3.576101
      8.56660      2.47073      5.74762        -4.266074      1.481255     -1.135739
      9.61301      3.69509     10.63764         6.625919     -2.357143      3.618188
      1.30117      5.88554      4.77479        -2.393013     -2.334646      2.599728
      5.99668      5.04707     10.20478        -2.568412     -0.198945     -6.374884
     11.07814      0.98797      5.14737        -0.381753     -0.149490     -0.118826
      4.66042      7.25495     10.23839        -4.095265      4.905757      1.371955
      5.77390      2.62872      2.87474         0.300215      7.302586      2.317811
      5.63018      7.60268      1.46835         1.336126      1.613374     -3.419935
      2.43406      3.26435      8.79581        -4.592740     -3.485746      0.250108
     10.01838      6.89410      2.09473         2.038286     -1.662646     -3.192630
      2.22256      2.42130      5.89574         2.406302     -3.898417     -0.737088
      7.42302     10.66873     11.54031        -0.217334     -2.651969     -1.318190
      9.49095      7.06861      7.44584        -1.001789      0.743231      6.139830
      0.89046     11.05151     10.87593        -4.148007     -6.260203     -0.541811
      9.68741      4.56119      3.64174         3.174777      5.968762     -2.798793
      1.54942      9.02033      5.18125         3.450288     -2.748024      1.598510
      4.02840      4.19605      4.16523         0.119181      0.004235      2.434154
      1.37851      6.25302      1.31735        -0.735562      1.529011     -1.113809
      8.06380     10.86452      8.54117        -1.354503      2.138689     -2.724793
      7.88045      1.88616      1.21199        -1.211066      2.292379     -3.046362
     10.32970      2.80867      2.46192         1.888548     -6.271333     -3.570354
      5.64996     11.61315      7.34188        -2.402593      0.775907      3.690279
      6.94531      8.68822      3.70281        -1.122902      1.617092      2.708385
      2.50184      0.56858      0.88430        -0.638518     -0.021005      1.787915
      8.13655      7.46772     10.09045        -0.283522      5.781567     -0.125991
      4.66954      6.26424      6.56935        -1.513457     -0.307715     -0.775118
     10.04052     11.36473      4.50945         0.128458      0.840165      0.894079
      5.85768      7.54237     11.19841         0.719942      0.608983      4.804403
      9.27798      3.96922      2.13905        -1.814885      1.255095      0.282552
      7.05105      3.14444      1.89747        -3.161048     -1.416999      0.496448
      6.26325      6.48830      6.68076        -1.301137     -1.749056     -0.346548
      0.20149      0.32134      6.40367        -0.983085     -1.200285      0.247565
      9.01560      2.56258      0.19288        -1.181971      0.788502     -1.306494
      1.43052      4.74753      9.29143         2.453426     -0.922288     -3.999282
      1.40194      0.82333     11.07862         1.403370      6.108790      4.137872
     11.49249      2.33236      1.40518        -0.752724     -0.563460     -0.667239
     10.64929      4.72986     11.38476        -2.628868     -1.809363     -0.956016
      5.97180      3.57067      4.27521        -1.597830      1.699872      0.414431
      4.26707     10.75013      7.30571        -1.608304     -0.150376      1.110558
      7.84364      7.54607      8.36103         2.125547     -1.339297      0.269105
      8.39188     10.99512     10.05313        -0.365057      0.672993      4.916859
      7.78703      3.08918      7.03830         0.997687      0.426876     -0.895822
      9.62329      8.33097      9.81539        -0.038365     -1.882244      1.798467
      1.75544     10.21662      9.93024         2.068461     -2.089890     -3.933985
      5.98636      3.95030      8.89995        -0.399297      2.867474     -0.510122
     10.66384      2.60727     10.04111         1.228093     -1.668525      0.846285
     11.58178      1.46160      3.62855        -1.669982     -1.320752      1.244876
      1.42724      7.37666      8.79488         0.002535     -3.508199     -1.818124
      8.24910      9.92046      7.29214         2.876191     -0.511709     -0.535576
      8.39344     10.66432      1.30643        -0.986262      2.829540     -1.215956
     11.20591      5.71133      4.80713         1.804255     -0.641958     -1.055280
      6.40449     10.65598      8.46114        -0.103798      0.551251      0.634356
      7.48341      1.87755      4.73079         2.863371      0.961510      1.385266
      3.32042      8.16246     10.77828         2.495022     -1.413786     -1.438853
     10.54018      8.34632      2.36846        -0.352849      1.065710      1.252683
      1.34329      9.38354      6.74321        -0.048996     -0.074946      1.992361
      6.22140     10.23216      3.89233         0.606169     -2.657425     -1.238671
      5.95911      0.28768      5.85403         1.051444      0.730762     -0.319473
      5.85645      7.68572      4.35217         0.559770     -0.440341     -0.064947
      8.82951      3.82426      9.38617        -4.689964      2.397099     -3.880473
      2.92451      2.75915     10.25892         2.119776      0.759820     -0.874462
      4.22664      4.99633      5.63689         2.808394     -0.967538     -2.043701
      5.59095      1.51634      8.35131        -0.529329     -3.252186     -0.902087
      6.93708      1.18713      0.06874         0.228993     -0.944339      0.867307
     10.43408      8.34570      7.08063        -0.820620     -3.194900      0.440432
      2.12160      4.84222      0.81904        -1.631380      0.691525      0.582387
      8.62274      0.66772      7.92698        -0.622807     -0.841463      1.064088
      3.27972      1.93164      1.38247        -0.413825     -0.687124     -1.986692
      6.11045      3.98596     11.22010         1.028775     -5.232766      5.665978
      9.19805      4.03702      4.97964        -3.210851     -2.567753      3.326207
      3.11824      2.79454      7.33968        -0.106804      1.287890     -0.195348
      2.18510     11.52348      2.41799         0.435726      0.392333     -1.451813
      3.42321      5.69949      7.54994         2.438775      0.331601      4.622092
      2.35267      7.11973      2.34291        -2.980470     -2.398634     -1.339201
     10.12748      6.02836      8.54182        -0.259111     -0.221785     -2.206709
      0.43741     10.35901      0.76066        -0.863620      1.403820     -1.737482
      5.44062      6.04438      1.52985         0.959407     -1.003451      1.759241
      8.23234      8.27352      4.72691        -1.333209      2.101091     -1.006445
      4.45692      5.65686     10.48779         0.364879     -0.498129     -2.280542
      0.17542      9.19063      4.53905        -2.927885      1.590883     -1.620280
     11.35768      5.84992      1.69949         0.341448      1.497628      2.316690
      7.32804      5.98872     10.22888         1.900575      0.328870     -0.255627
      9.08233      6.85238      0.77738        -0.413033      0.286629     -2.380260
      0.75999      2.91997      5.61290        -0.751585      0.838568      0.633648
      1.42045      5.64785      6.48125        -2.815641     -1.766901     -0.104944
      2.51193      5.07291      4.08812        -0.597408     -0.949647     -1.988701
      1.81053      7.31548      4.91929        -0.761487      3.779980     -0.468585
      8.86423      1.61072      2.39169         3.783567     -2.359381      2.210935
      5.56567      1.18343      3.23592        -1.027628     -4.183909     -1.228315
      5.79783     10.63168     11.42086         0.194634      1.408275      0.873695
      1.10333      1.71440      8.60323         3.101882      2.871690     -0.456465
     11.01283     11.04117     10.05499         0.863798     -0.287950      1.355381
      1.02610      7.50826      0.18984        -1.063304     -2.577314      0.309475
      2.56413      0.82212      5.38568        -1.090924      0.824316      2.561053
      3.32843     11.11344      0.05117         1.662608      0.370683      0.640886
      4.38238      3.84338      2.63305         0.589855     -1.213726     -2.275265
      5.12810      8.27642      8.97098         0.341632     -3.446723     -1.137709
      8.98049      6.20838      6.23388        -0.707624     -0.651506     -0.475194
      8.91836      6.09481      3.06840         1.536333     -1.450737      2.878365
      3.94357      7.59250      6.16527         1.501200      0.573017     -0.322231
      9.94680      1.84382      6.16521         2.097632      0.378236     -0.869596
      4.37251      8.54093      1.95721         2.901295      1.288159     -0.970804
      7.54570      8.93593     11.28914         2.681310     -0.821137     -1.937340
      7.12541      8.27032      2.19131        -1.426922     -1.241220     -2.662088
     11.12597      3.80739      3.37633         1.534723      0.858525      2.271036
      3.31666      2.78996      4.62071         0.302421      1.078718      0.983882
      3.05254      9.30167      4.76712         0.246643      2.686703     -2.053552
 -----------------------------------------------------------------------------------
    total drift:                                0.008411      0.010537     -0.009306


--------------------------------------------------------------------------------------------------------



  FREE ENERGIE OF THE ION-ELECTRON SYSTEM (eV)
  ---------------------------------------------------
  free  energy   TOTEN  =      -931.39598856 eV

  energy  without entropy=     -931.39598856  energy(sigma->0) =     -931.39598856
 


--------------------------------------------------------------------------------------------------------


    POTLOK:  cpu time    0.4020: real time    0.4048


--------------------------------------------------------------------------------------------------------


     LOOP+:  cpu time  842.9819: real time  850.7616
    4ORBIT:  cpu time    0.0000: real time    0.0000

 total amount of memory used by VASP MPI-rank0   164644. kBytes
=======================================================================

   base      :      30000. kBytes
   nonlr-proj:      22533. kBytes
   fftplans  :      23775. kBytes
   grid      :      12472. kBytes
   one-center:        186. kBytes
   wavefun   :      75678. kBytes
 
  
  
 General timing and accounting informations for this job:
 ========================================================
  
                  Total CPU time used (sec):      861.896
                            User time (sec):      857.939
                          System time (sec):        3.957
                         Elapsed time (sec):      869.929
  
                   Maximum memory used (kb):      299424.
                   Average memory used (kb):           0.
  
                          Minor page faults:       111401
                          Major page faults:            0
                 Voluntary context switches:          379
