<?xml version="1.0" encoding="ISO-8859-1"?>
<modeling>
 <generator>
  <i name="program" type="string">vasp </i>
  <i name="version" type="string">5.4.4.18Apr17-6-g9f103f2a35  </i>
  <i name="subversion" type="string">(build Mar 16 2023 09:39:13) complex            parallel </i>
  <i name="platform" type="string">LinuxIFC </i>
  <i name="date" type="string">2024 04 29 </i>
  <i name="time" type="string">19:04:57 </i>
 </generator>
 <incar>
  <i type="int" name="ISTART">     0</i>
  <i type="string" name="PREC">a</i>
  <i type="logical" name="ADDGRID"> T  </i>
  <i type="int" name="IBRION">    -1</i>
  <i name="EDIFF">      0.00000100</i>
  <i name="EDIFFG">     -0.01000000</i>
  <i type="int" name="NSW">     1</i>
  <i type="int" name="ISIF">     2</i>
  <i type="int" name="ISYM">     0</i>
  <i name="ENCUT">    600.00000000</i>
  <i name="POTIM">      1.00000000</i>
  <i type="string" name="LREAL">  A</i>
  <i type="int" name="ISMEAR">     0</i>
  <i name="SIGMA">      0.05000000</i>
  <i name="KSPACING">      0.30000000</i>
  <i type="logical" name="KGAMMA"> T  </i>
  <i type="logical" name="LWAVE"> F  </i>
  <i type="logical" name="LCHARG"> F  </i>
  <i type="logical" name="LSCALAPACK"> F  </i>
  <v type="int" name="KPOINT_BSE">    -1     0     0     0</v>
 </incar>
 <structure name="primitive_cell" >
  <crystal>
   <varray name="basis" >
    <v>      11.62817333       0.00000000       0.00000000 </v>
    <v>       0.00000000      11.62817333       0.00000000 </v>
    <v>       0.00000000       0.00000000      11.62817333 </v>
   </varray>
   <i name="volume">   1572.29665425 </i>
   <varray name="rec_basis" >
    <v>       0.08599803       0.00000000       0.00000000 </v>
    <v>       0.00000000       0.08599803       0.00000000 </v>
    <v>       0.00000000       0.00000000       0.08599803 </v>
   </varray>
  </crystal>
  <varray name="positions" >
   <v>      -0.09270217       0.35797201      -0.41254352 </v>
   <v>      -0.20898594       0.34717608       0.42823954 </v>
   <v>      -0.14459448       0.15856469      -0.46980408 </v>
   <v>       0.06535771       0.25111157       0.48269869 </v>
   <v>      -0.12905665      -0.48157333      -0.26542067 </v>
   <v>      -0.03631349       0.49116335       0.41340347 </v>
   <v>      -0.22769585      -0.46609136      -0.46389837 </v>
   <v>      -0.26328942       0.21247832       0.49428419 </v>
   <v>       0.12215575       0.48570382      -0.44262567 </v>
   <v>      -0.33033050       0.26566371      -0.39472027 </v>
   <v>      -0.24067930       0.32887905      -0.19280793 </v>
   <v>      -0.18379729      -0.39211381      -0.35967258 </v>
   <v>      -0.16690202       0.39225359       0.31318205 </v>
   <v>      -0.35590883       0.44412188      -0.33135873 </v>
   <v>      -0.04318843       0.32742767       0.29035789 </v>
   <v>       0.12302180       0.40827849      -0.20095516 </v>
   <v>      -0.08293116       0.22422043      -0.13648430 </v>
   <v>       0.11189839      -0.49385540       0.41062233 </v>
   <v>      -0.04730156       0.08496386       0.44266376 </v>
   <v>      -0.07647685       0.08685078      -0.25583121 </v>
   <v>       0.16336444      -0.48840105      -0.31624578 </v>
   <v>       0.09488379       0.14743487      -0.26013954 </v>
   <v>       0.19113544       0.20822705      -0.49297822 </v>
   <v>      -0.11649864      -0.34706537       0.43616548 </v>
   <v>      -0.17329979       0.31777071      -0.08518426 </v>
   <v>       0.01732733       0.02763458      -0.44929665 </v>
   <v>       0.20932475       0.28072761      -0.24357790 </v>
   <v>      -0.25846157       0.05742254      -0.31829568 </v>
   <v>      -0.10268985      -0.28228585      -0.39107974 </v>
   <v>      -0.00399011       0.12569462       0.31204811 </v>
   <v>      -0.04585774      -0.44199424      -0.10349189 </v>
   <v>      -0.35644158       0.16146565       0.40683882 </v>
   <v>       0.26816247       0.24032474      -0.36880213 </v>
   <v>      -0.37879556      -0.48104901       0.38914162 </v>
   <v>       0.12273959      -0.36562164      -0.24365784 </v>
   <v>      -0.35730066       0.18514731      -0.18525164 </v>
   <v>      -0.23303889      -0.47585811       0.26387626 </v>
   <v>      -0.11166594       0.24154008       0.21172066 </v>
   <v>      -0.08418202       0.40675857      -0.02093311 </v>
   <v>      -0.32546217      -0.35105243      -0.28096771 </v>
   <v>       0.21602127       0.43626048       0.35157068 </v>
   <v>       0.15570232      -0.37088290       0.42304953 </v>
   <v>       0.29438907       0.49014516      -0.35072025 </v>
   <v>      -0.20211165       0.34134544       0.18395397 </v>
   <v>      -0.46137326      -0.44201879      -0.42546798 </v>
   <v>       0.07045041       0.28221261      -0.03040936 </v>
   <v>       0.14242690       0.22727552       0.25488081 </v>
   <v>      -0.48518484       0.33971802      -0.23462158 </v>
   <v>      -0.13653481      -0.02265529       0.38780351 </v>
   <v>      -0.36980291      -0.48498178      -0.12033644 </v>
   <v>       0.28522662       0.23993086       0.39737164 </v>
   <v>       0.22051056       0.07070062       0.46315800 </v>
   <v>       0.48364001       0.23167085      -0.44305734 </v>
   <v>      -0.29203461      -0.28849371       0.40650500 </v>
   <v>      -0.17241627      -0.28355316      -0.15589544 </v>
   <v>      -0.30027230      -0.35779052      -0.13224076 </v>
   <v>      -0.48643653       0.30707025       0.36765935 </v>
   <v>      -0.00266354      -0.22391214      -0.24749321 </v>
   <v>      -0.23769410       0.13851907       0.20568055 </v>
   <v>       0.25150215       0.23728160      -0.11775336 </v>
   <v>      -0.22467604       0.22037678       0.01658729 </v>
   <v>      -0.02326219      -0.49691845       0.14615282 </v>
   <v>       0.16714273      -0.02916263      -0.34267072 </v>
   <v>      -0.13843868      -0.40712136       0.18014247 </v>
   <v>       0.36348243       0.42967427       0.48476106 </v>
   <v>      -0.12570696      -0.12028138      -0.44647087 </v>
   <v>       0.01508577      -0.20962400       0.39034914 </v>
   <v>      -0.32615042      -0.00497477       0.35518763 </v>
   <v>      -0.48429748       0.43403834      -0.12240921 </v>
   <v>       0.11552009      -0.19303398      -0.42009737 </v>
   <v>      -0.05291847      -0.05048093      -0.13529065 </v>
   <v>       0.34643404       0.36085173       0.35820121 </v>
   <v>       0.13324727      -0.22426898       0.44557701 </v>
   <v>      -0.30652867      -0.06567269      -0.26547621 </v>
   <v>      -0.01166844       0.20057879       0.12084288 </v>
   <v>       0.48081104       0.13040243      -0.28180380 </v>
   <v>      -0.41772050      -0.25460663      -0.41930426 </v>
   <v>       0.12056366       0.07080513      -0.04726061 </v>
   <v>       0.27368662      -0.28722307      -0.31738686 </v>
   <v>      -0.48752811       0.02474015      -0.49656516 </v>
   <v>      -0.09356487      -0.28223300       0.20368277 </v>
   <v>       0.33913965      -0.34705964      -0.46979886 </v>
   <v>       0.40157129      -0.46128805      -0.43504900 </v>
   <v>      -0.39362364       0.27041582       0.16317903 </v>
   <v>      -0.27831457      -0.05444123      -0.13545045 </v>
   <v>      -0.29059341      -0.14686021      -0.37289073 </v>
   <v>      -0.47451292       0.34278488      -0.03509323 </v>
   <v>      -0.10090245       0.05422772       0.03225187 </v>
   <v>      -0.34492210       0.43343072       0.06276568 </v>
   <v>      -0.21893714      -0.41070868       0.06685298 </v>
   <v>       0.08824288      -0.35430482       0.01632555 </v>
   <v>      -0.49635676      -0.33904307       0.37427764 </v>
   <v>       0.20232459      -0.38771696       0.20148578 </v>
   <v>       0.11854939      -0.46225279       0.11328923 </v>
   <v>       0.49654420       0.22606467       0.24722235 </v>
   <v>       0.48588523      -0.00129235      -0.36861273 </v>
   <v>      -0.00179297      -0.07768434       0.25269927 </v>
   <v>       0.18245312       0.41642105       0.07043562 </v>
   <v>       0.07657795      -0.04959169      -0.06469152 </v>
   <v>      -0.40271683      -0.25283041       0.31843429 </v>
   <v>      -0.32229669       0.16220636       0.10422840 </v>
   <v>       0.33225552      -0.36695845       0.31645694 </v>
   <v>      -0.40342477       0.10209115       0.00591109 </v>
   <v>      -0.44922616      -0.08360665      -0.27235866 </v>
   <v>       0.38328645       0.48647897      -0.09807053 </v>
   <v>       0.47863634       0.10177289       0.27828244 </v>
   <v>       0.37687583       0.33052336       0.22643705 </v>
   <v>       0.26251276      -0.20007452       0.40996283 </v>
   <v>       0.18791442      -0.00900310       0.20794212 </v>
   <v>       0.15096440      -0.12139068      -0.14601915 </v>
   <v>      -0.38722843      -0.28876844       0.18844798 </v>
   <v>       0.44100638      -0.28824415      -0.22851311 </v>
   <v>       0.28554966      -0.29804426      -0.07308948 </v>
   <v>      -0.35108473      -0.23152785      -0.02915622 </v>
   <v>       0.34378888       0.33351078       0.03061709 </v>
   <v>      -0.49625144      -0.35137130      -0.03695860 </v>
   <v>       0.36016671      -0.03565801       0.39861949 </v>
   <v>       0.28204942       0.16611728       0.11888992 </v>
   <v>       0.40078663      -0.37608865      -0.11951822 </v>
   <v>      -0.16637398      -0.20628674       0.04073078 </v>
   <v>       0.36695954      -0.07550997      -0.37172370 </v>
   <v>       0.40502333       0.11112363      -0.10512606 </v>
   <v>       0.46788239      -0.48019486       0.13156444 </v>
   <v>       0.21515351       0.04889707       0.07604844 </v>
   <v>      -0.36163481      -0.08251051      -0.00755630 </v>
   <v>      -0.46497219      -0.12005432       0.33473238 </v>
   <v>      -0.27818091      -0.08288950       0.11235081 </v>
   <v>       0.03761677      -0.10914522       0.06541513 </v>
   <v>       0.28623800      -0.04426609       0.00440071 </v>
   <v>       0.48418421      -0.34618417       0.12627497 </v>
   <v>       0.20271160      -0.23843754       0.09941313 </v>
   <v>       0.49860182      -0.08569631      -0.01782840 </v>
   <v>       0.37432678      -0.14232909      -0.14928598 </v>
   <v>       0.37602734      -0.26549670       0.16831643 </v>
   <v>       0.41642972      -0.05143295       0.17210927 </v>
  </varray>
 </structure>
 <varray name="primitive_index" >
  <v type="int" >        1 </v>
  <v type="int" >       98 </v>
  <v type="int" >      129 </v>
  <v type="int" >      112 </v>
  <v type="int" >      103 </v>
  <v type="int" >       79 </v>
  <v type="int" >      126 </v>
  <v type="int" >       29 </v>
  <v type="int" >      113 </v>
  <v type="int" >       70 </v>
  <v type="int" >       88 </v>
  <v type="int" >       41 </v>
  <v type="int" >       43 </v>
  <v type="int" >       26 </v>
  <v type="int" >      133 </v>
  <v type="int" >       62 </v>
  <v type="int" >       74 </v>
  <v type="int" >       31 </v>
  <v type="int" >       33 </v>
  <v type="int" >        2 </v>
  <v type="int" >       28 </v>
  <v type="int" >      119 </v>
  <v type="int" >       39 </v>
  <v type="int" >       15 </v>
  <v type="int" >       30 </v>
  <v type="int" >       60 </v>
  <v type="int" >       37 </v>
  <v type="int" >       95 </v>
  <v type="int" >       93 </v>
  <v type="int" >       75 </v>
  <v type="int" >       21 </v>
  <v type="int" >       81 </v>
  <v type="int" >       99 </v>
  <v type="int" >       24 </v>
  <v type="int" >       76 </v>
  <v type="int" >        5 </v>
  <v type="int" >      127 </v>
  <v type="int" >       49 </v>
  <v type="int" >       65 </v>
  <v type="int" >       68 </v>
  <v type="int" >      114 </v>
  <v type="int" >      115 </v>
  <v type="int" >      101 </v>
  <v type="int" >       57 </v>
  <v type="int" >       59 </v>
  <v type="int" >       25 </v>
  <v type="int" >       23 </v>
  <v type="int" >       73 </v>
  <v type="int" >       55 </v>
  <v type="int" >      110 </v>
  <v type="int" >      134 </v>
  <v type="int" >      122 </v>
  <v type="int" >       20 </v>
  <v type="int" >      106 </v>
  <v type="int" >       71 </v>
  <v type="int" >       53 </v>
  <v type="int" >       66 </v>
  <v type="int" >       13 </v>
  <v type="int" >      116 </v>
  <v type="int" >       89 </v>
  <v type="int" >       61 </v>
  <v type="int" >      109 </v>
  <v type="int" >       12 </v>
  <v type="int" >       38 </v>
  <v type="int" >       90 </v>
  <v type="int" >       14 </v>
  <v type="int" >      108 </v>
  <v type="int" >       18 </v>
  <v type="int" >       32 </v>
  <v type="int" >       84 </v>
  <v type="int" >      120 </v>
  <v type="int" >       45 </v>
  <v type="int" >       44 </v>
  <v type="int" >       47 </v>
  <v type="int" >       64 </v>
  <v type="int" >       91 </v>
  <v type="int" >        8 </v>
  <v type="int" >       63 </v>
  <v type="int" >        7 </v>
  <v type="int" >       86 </v>
  <v type="int" >       83 </v>
  <v type="int" >      128 </v>
  <v type="int" >       54 </v>
  <v type="int" >       58 </v>
  <v type="int" >       69 </v>
  <v type="int" >       77 </v>
  <v type="int" >       97 </v>
  <v type="int" >       27 </v>
  <v type="int" >        3 </v>
  <v type="int" >      111 </v>
  <v type="int" >      121 </v>
  <v type="int" >       87 </v>
  <v type="int" >      102 </v>
  <v type="int" >       46 </v>
  <v type="int" >       35 </v>
  <v type="int" >       50 </v>
  <v type="int" >        6 </v>
  <v type="int" >       94 </v>
  <v type="int" >       42 </v>
  <v type="int" >       51 </v>
  <v type="int" >       48 </v>
  <v type="int" >       17 </v>
  <v type="int" >       92 </v>
  <v type="int" >       80 </v>
  <v type="int" >      107 </v>
  <v type="int" >      117 </v>
  <v type="int" >      124 </v>
  <v type="int" >      135 </v>
  <v type="int" >      100 </v>
  <v type="int" >       72 </v>
  <v type="int" >      132 </v>
  <v type="int" >      125 </v>
  <v type="int" >       82 </v>
  <v type="int" >      131 </v>
  <v type="int" >       16 </v>
  <v type="int" >       56 </v>
  <v type="int" >        4 </v>
  <v type="int" >       96 </v>
  <v type="int" >       34 </v>
  <v type="int" >       10 </v>
  <v type="int" >       67 </v>
  <v type="int" >       19 </v>
  <v type="int" >      105 </v>
  <v type="int" >       52 </v>
  <v type="int" >       40 </v>
  <v type="int" >       85 </v>
  <v type="int" >       78 </v>
  <v type="int" >      104 </v>
  <v type="int" >      123 </v>
  <v type="int" >       36 </v>
  <v type="int" >        9 </v>
  <v type="int" >      118 </v>
  <v type="int" >       22 </v>
  <v type="int" >      130 </v>
  <v type="int" >       11 </v>
 </varray>
 <kpoints>
  <generation param="Gamma">
   <v type="int" name="divisions">       2        2        2 </v>
   <v name="usershift">      0.00000000       0.00000000       0.00000000 </v>
   <v name="genvec1">      0.50000000       0.00000000       0.00000000 </v>
   <v name="genvec2">      0.00000000       0.50000000       0.00000000 </v>
   <v name="genvec3">      0.00000000       0.00000000       0.50000000 </v>
   <v name="shift">      0.00000000       0.00000000       0.00000000 </v>
  </generation>
  <varray name="kpointlist" >
   <v>       0.00000000       0.00000000       0.00000000 </v>
   <v>       0.50000000       0.00000000       0.00000000 </v>
   <v>       0.00000000       0.50000000       0.00000000 </v>
   <v>       0.50000000       0.50000000       0.00000000 </v>
   <v>       0.00000000       0.00000000       0.50000000 </v>
   <v>       0.50000000       0.00000000       0.50000000 </v>
   <v>       0.00000000       0.50000000       0.50000000 </v>
   <v>       0.50000000       0.50000000       0.50000000 </v>
  </varray>
  <varray name="weights" >
   <v>       0.12500000 </v>
   <v>       0.12500000 </v>
   <v>       0.12500000 </v>
   <v>       0.12500000 </v>
   <v>       0.12500000 </v>
   <v>       0.12500000 </v>
   <v>       0.12500000 </v>
   <v>       0.12500000 </v>
  </varray>
 </kpoints>
 <parameters>
  <separator name="general" >
   <i type="string" name="SYSTEM">unknown system</i>
   <i type="logical" name="LCOMPAT"> F  </i>
  </separator>
  <separator name="electronic" >
   <i type="string" name="PREC">a</i>
   <i name="ENMAX">    600.00000000</i>
   <i name="ENAUG">    605.39200000</i>
   <i name="EDIFF">      0.00000100</i>
   <i type="int" name="IALGO">    38</i>
   <i type="int" name="IWAVPR">    10</i>
   <i type="int" name="NBANDS">   520</i>
   <i name="NELECT">    864.00000000</i>
   <i type="int" name="TURBO">     0</i>
   <i type="int" name="IRESTART">     0</i>
   <i type="int" name="NREBOOT">     0</i>
   <i type="int" name="NMIN">     0</i>
   <i name="EREF">      0.00000000</i>
   <separator name="electronic smearing" >
    <i type="int" name="ISMEAR">     0</i>
    <i name="SIGMA">      0.05000000</i>
    <i name="KSPACING">      0.30000000</i>
    <i type="logical" name="KGAMMA"> T  </i>
   </separator>
   <separator name="electronic projectors" >
    <i type="logical" name="LREAL"> T  </i>
    <v name="ROPT">     -0.00025000     -0.00025000     -0.00025000</v>
    <i type="int" name="LMAXPAW">  -100</i>
    <i type="int" name="LMAXMIX">     2</i>
    <i type="logical" name="NLSPLINE"> F  </i>
   </separator>
   <separator name="electronic startup" >
    <i type="int" name="ISTART">     0</i>
    <i type="int" name="ICHARG">     2</i>
    <i type="int" name="INIWAV">     1</i>
   </separator>
   <separator name="electronic spin" >
    <i type="int" name="ISPIN">     1</i>
    <i type="logical" name="LNONCOLLINEAR"> F  </i>
    <v name="MAGMOM">      1.00000000      1.00000000      1.00000000      1.00000000      1.00000000      1.00000000      1.00000000      1.00000000      1.00000000      1.00000000      1.00000000      1.00000000      1.00000000      1.00000000      1.00000000      1.00000000      1.00000000      1.00000000      1.00000000      1.00000000
      1.00000000      1.00000000      1.00000000      1.00000000      1.00000000      1.00000000      1.00000000      1.00000000      1.00000000      1.00000000      1.00000000      1.00000000      1.00000000      1.00000000      1.00000000      1.00000000      1.00000000      1.00000000      1.00000000      1.00000000
      1.00000000      1.00000000      1.00000000      1.00000000      1.00000000      1.00000000      1.00000000      1.00000000      1.00000000      1.00000000      1.00000000      1.00000000      1.00000000      1.00000000      1.00000000      1.00000000      1.00000000      1.00000000      1.00000000      1.00000000
      1.00000000      1.00000000      1.00000000      1.00000000      1.00000000      1.00000000      1.00000000      1.00000000      1.00000000      1.00000000      1.00000000      1.00000000      1.00000000      1.00000000      1.00000000      1.00000000      1.00000000      1.00000000      1.00000000      1.00000000
      1.00000000      1.00000000      1.00000000      1.00000000      1.00000000      1.00000000      1.00000000      1.00000000      1.00000000      1.00000000      1.00000000      1.00000000      1.00000000      1.00000000      1.00000000      1.00000000      1.00000000      1.00000000      1.00000000      1.00000000
      1.00000000      1.00000000      1.00000000      1.00000000      1.00000000      1.00000000      1.00000000      1.00000000      1.00000000      1.00000000      1.00000000      1.00000000      1.00000000      1.00000000      1.00000000      1.00000000      1.00000000      1.00000000      1.00000000      1.00000000
      1.00000000      1.00000000      1.00000000      1.00000000      1.00000000      1.00000000      1.00000000      1.00000000      1.00000000      1.00000000      1.00000000      1.00000000      1.00000000      1.00000000      1.00000000</v>
    <i name="NUPDOWN">     -1.00000000</i>
    <i type="logical" name="LSORBIT"> F  </i>
    <v name="SAXIS">      0.00000000      0.00000000      1.00000000</v>
    <i type="logical" name="LSPIRAL"> F  </i>
    <v name="QSPIRAL">      0.00000000      0.00000000      0.00000000</v>
    <i type="logical" name="LZEROZ"> F  </i>
   </separator>
   <separator name="electronic exchange-correlation" >
    <i type="logical" name="LASPH"> F  </i>
    <i type="logical" name="LMETAGGA"> F  </i>
   </separator>
   <separator name="electronic convergence" >
    <i type="int" name="NELM">    60</i>
    <i type="int" name="NELMDL">    -5</i>
    <i type="int" name="NELMIN">     2</i>
    <i name="ENINI">    600.00000000</i>
    <separator name="electronic convergence detail" >
     <i type="logical" name="LDIAG"> T  </i>
     <i type="logical" name="LSUBROT"> F  </i>
     <i name="WEIMIN">      0.00000000</i>
     <i name="EBREAK">      0.00000000</i>
     <i name="DEPER">      0.30000000</i>
     <i type="int" name="NRMM">     4</i>
     <i name="TIME">      0.40000000</i>
    </separator>
   </separator>
   <separator name="electronic mixer" >
    <i name="AMIX">      0.40000000</i>
    <i name="BMIX">      1.00000000</i>
    <i name="AMIN">      0.10000000</i>
    <i name="AMIX_MAG">      1.60000000</i>
    <i name="BMIX_MAG">      1.00000000</i>
    <separator name="electronic mixer details" >
     <i type="int" name="IMIX">     4</i>
     <i type="logical" name="MIXFIRST"> F  </i>
     <i type="int" name="MAXMIX">   -45</i>
     <i name="WC">    100.00000000</i>
     <i type="int" name="INIMIX">     1</i>
     <i type="int" name="MIXPRE">     1</i>
     <i type="int" name="MREMOVE">     5</i>
    </separator>
   </separator>
   <separator name="electronic dipolcorrection" >
    <i type="logical" name="LDIPOL"> F  </i>
    <i type="logical" name="LMONO"> F  </i>
    <i type="int" name="IDIPOL">     0</i>
    <i name="EPSILON">      1.00000000</i>
    <v name="DIPOL">   -100.00000000   -100.00000000   -100.00000000</v>
    <i name="EFIELD">      0.00000000</i>
   </separator>
  </separator>
  <separator name="grids" >
   <i type="int" name="NGX">    96</i>
   <i type="int" name="NGY">    96</i>
   <i type="int" name="NGZ">    96</i>
   <i type="int" name="NGXF">   192</i>
   <i type="int" name="NGYF">   192</i>
   <i type="int" name="NGZF">   192</i>
   <i type="logical" name="ADDGRID"> T  </i>
  </separator>
  <separator name="ionic" >
   <i type="int" name="NSW">     1</i>
   <i type="int" name="IBRION">    -1</i>
   <i type="int" name="MDALGO">     0</i>
   <i type="int" name="ISIF">     2</i>
   <i name="PSTRESS">      0.00000000</i>
   <i name="EDIFFG">     -0.01000000</i>
   <i type="int" name="NFREE">     0</i>
   <i name="POTIM">      1.00000000</i>
   <i name="SMASS">     -3.00000000</i>
   <i name="SCALEE">      1.00000000</i>
  </separator>
  <separator name="ionic md" >
   <i name="TEBEG">      0.00010000</i>
   <i name="TEEND">      0.00010000</i>
   <i type="int" name="NBLOCK">     1</i>
   <i type="int" name="KBLOCK">     1</i>
   <i type="int" name="NPACO">   256</i>
   <i name="APACO">     16.00000000</i>
  </separator>
  <separator name="symmetry" >
   <i type="int" name="ISYM">     0</i>
   <i name="SYMPREC">      0.00001000</i>
  </separator>
  <separator name="dos" >
   <i type="int" name="LORBIT">     0</i>
   <v name="RWIGS">     -1.00000000     -1.00000000     -1.00000000</v>
   <i type="int" name="NEDOS">   301</i>
   <i name="EMIN">     10.00000000</i>
   <i name="EMAX">    -10.00000000</i>
   <i name="EFERMI">      0.00000000</i>
  </separator>
  <separator name="writing" >
   <i type="int" name="NWRITE">     2</i>
   <i type="logical" name="LWAVE"> F  </i>
   <i type="logical" name="LDOWNSAMPLE"> F  </i>
   <i type="logical" name="LCHARG"> F  </i>
   <i type="logical" name="LPARD"> F  </i>
   <i type="logical" name="LVTOT"> F  </i>
   <i type="logical" name="LVHAR"> F  </i>
   <i type="logical" name="LELF"> F  </i>
   <i type="logical" name="LOPTICS"> F  </i>
   <v name="STM">      0.00000000      0.00000000      0.00000000      0.00000000      0.00000000      0.00000000      0.00000000</v>
  </separator>
  <separator name="performance" >
   <i type="int" name="NPAR">     4</i>
   <i type="int" name="NSIM">     4</i>
   <i type="int" name="NBLK">    -1</i>
   <i type="logical" name="LPLANE"> T  </i>
   <i type="logical" name="LSCALAPACK"> F  </i>
   <i type="logical" name="LSCAAWARE"> F  </i>
   <i type="logical" name="LSCALU"> F  </i>
   <i type="logical" name="LASYNC"> F  </i>
   <i type="logical" name="LORBITALREAL"> F  </i>
  </separator>
  <separator name="miscellaneous" >
   <i type="int" name="IDIOT">     3</i>
   <i type="int" name="ISPECIAL">     0</i>
   <i type="logical" name="LMUSIC"> F  </i>
   <v name="POMASS">     40.07800000     28.08500000     16.00000000</v>
   <v name="DARWINR">      0.00000000      0.00000000      0.00000000</v>
   <v name="DARWINV">      1.00000000      1.00000000      1.00000000</v>
   <i type="logical" name="LCORR"> T  </i>
  </separator>
  <i type="logical" name="GGA_COMPAT"> T  </i>
  <i type="logical" name="LBERRY"> F  </i>
  <i type="int" name="ICORELEVEL">     0</i>
  <i type="logical" name="LDAU"> F  </i>
  <i type="int" name="I_CONSTRAINED_M">     0</i>
  <separator name="electronic exchange-correlation" >
   <i type="string" name="GGA">--</i>
   <i type="int" name="VOSKOWN">     0</i>
   <i type="logical" name="LHFCALC"> F  </i>
   <i type="string" name="PRECFOCK"></i>
   <i type="logical" name="LSYMGRAD"> F  </i>
   <i type="logical" name="LHFONE"> F  </i>
   <i type="logical" name="LRHFCALC"> F  </i>
   <i type="logical" name="LTHOMAS"> F  </i>
   <i type="logical" name="LMODELHF"> F  </i>
   <i name="ENCUT4O">     -1.00000000</i>
   <i type="int" name="EXXOEP">     0</i>
   <i type="int" name="FOURORBIT">     0</i>
   <i name="AEXX">      0.00000000</i>
   <i name="HFALPHA">      0.00000000</i>
   <i name="MCALPHA">      0.00000000</i>
   <i name="ALDAX">      1.00000000</i>
   <i name="AGGAX">      1.00000000</i>
   <i name="ALDAC">      1.00000000</i>
   <i name="AGGAC">      1.00000000</i>
   <i type="int" name="NKREDX">     1</i>
   <i type="int" name="NKREDY">     1</i>
   <i type="int" name="NKREDZ">     1</i>
   <i type="logical" name="SHIFTRED"> F  </i>
   <i type="logical" name="ODDONLY"> F  </i>
   <i type="logical" name="EVENONLY"> F  </i>
   <i type="int" name="LMAXFOCK">     0</i>
   <i type="int" name="NMAXFOCKAE">     0</i>
   <i type="logical" name="LFOCKAEDFT"> F  </i>
   <i name="HFSCREEN">      0.00000000</i>
   <i name="HFSCREENC">      0.00000000</i>
   <i type="int" name="NBANDSGWLOW">     0</i>
  </separator>
  <separator name="vdW DFT" >
   <i type="logical" name="LUSE_VDW"> F  </i>
   <i name="Zab_VDW">     -0.84910000</i>
   <i name="PARAM1">      0.12340000</i>
   <i name="PARAM2">      1.00000000</i>
   <i name="PARAM3">      0.00000000</i>
  </separator>
  <separator name="model GW" >
   <i type="int" name="MODEL_GW">     0</i>
   <i name="MODEL_EPS0">      6.98798513</i>
   <i name="MODEL_ALPHA">      1.00000000</i>
  </separator>
  <separator name="linear response parameters" >
   <i type="logical" name="LEPSILON"> F  </i>
   <i type="logical" name="LRPA"> F  </i>
   <i type="logical" name="LNABLA"> F  </i>
   <i type="logical" name="LVEL"> F  </i>
   <i type="int" name="KINTER">     0</i>
   <i name="CSHIFT">      0.10000000</i>
   <i name="OMEGAMAX">     -1.00000000</i>
   <i name="DEG_THRESHOLD">      0.00200000</i>
   <i name="RTIME">     -0.10000000</i>
   <i name="WPLASMAI">      0.00000000</i>
   <v name="DFIELD">      0.00000000      0.00000000      0.00000000</v>
   <v name="WPLASMA">      0.00000000      0.00000000      0.00000000      0.00000000      0.00000000      0.00000000      0.00000000      0.00000000      0.00000000</v>
  </separator>
  <separator name="orbital magnetization" >
   <i type="logical" name="NUCIND"> F  </i>
   <v name="MAGPOS">      0.00000000      0.00000000      0.00000000</v>
   <i type="logical" name="LNICSALL"> T  </i>
   <i type="logical" name="ORBITALMAG"> F  </i>
   <i type="logical" name="LMAGBLOCH"> F  </i>
   <i type="logical" name="LCHIMAG"> F  </i>
   <i type="logical" name="LGAUGE"> T  </i>
   <i type="int" name="MAGATOM">     0</i>
   <v name="MAGDIPOL">      0.00000000      0.00000000      0.00000000</v>
   <v name="AVECCONST">      0.00000000      0.00000000      0.00000000</v>
  </separator>
  <separator name="response functions" >
   <i type="logical" name="LADDER"> F  </i>
   <i type="logical" name="LRPAFORCE"> F  </i>
   <i type="logical" name="LFXC"> F  </i>
   <i type="logical" name="LHARTREE"> T  </i>
   <i type="int" name="IBSE">     0</i>
   <v type="int" name="KPOINT">    -1     0     0     0</v>
   <i type="logical" name="LTCTE"> F  </i>
   <i type="logical" name="LTETE"> F  </i>
   <i type="logical" name="LTRIPLET"> F  </i>
   <i type="logical" name="LFXCEPS"> F  </i>
   <i type="logical" name="LFXHEG"> F  </i>
   <i type="int" name="NATURALO">     2</i>
   <i type="logical" name="L2ORDER"> F  </i>
   <i type="logical" name="LMP2LT"> F  </i>
   <i type="logical" name="LUSEW"> F  </i>
   <i name="ENCUTGW">     -2.00000000</i>
   <i name="ENCUTGWSOFT">     -2.00000000</i>
   <i name="ENCUTLF">     -1.00000000</i>
   <i type="int" name="LMAXMP2">    -1</i>
   <i name="SCISSOR">      0.00000000</i>
   <i type="int" name="NOMEGA">     0</i>
   <i type="int" name="NOMEGAR">     0</i>
   <i type="int" name="NBANDSGW">    -1</i>
   <i type="int" name="NBANDSO">    -1</i>
   <i type="int" name="NBANDSV">    -1</i>
   <i type="int" name="NELM">     1</i>
   <i type="int" name="NELMHF">     1</i>
   <i type="int" name="DIM">     3</i>
   <i type="int" name="ANTIRES">     0</i>
   <i name="OMEGAMAX">    -30.00000000</i>
   <i name="OMEGAMIN">    -30.00000000</i>
   <i name="OMEGATL">   -200.00000000</i>
   <i type="int" name="OMEGAGRID">   140</i>
   <i name="CSHIFT">     -0.10000000</i>
   <i type="logical" name="SELFENERGY"> F  </i>
   <i type="logical" name="LSPECTRAL"> F  </i>
   <i type="logical" name="LSPECTRALGW"> F  </i>
   <i type="logical" name="LSINGLES"> F  </i>
   <i type="logical" name="LFERMIGW"> F  </i>
   <i type="logical" name="ODDONLYGW"> F  </i>
   <i type="logical" name="EVENONLYGW"> F  </i>
   <i type="int" name="NKREDLFX">     1</i>
   <i type="int" name="NKREDLFY">     1</i>
   <i type="int" name="NKREDLFZ">     1</i>
   <i type="int" name="MAXMEM">  2800</i>
   <i type="int" name="TELESCOPE">     0</i>
   <i type="int" name="TAUPAR">     1</i>
   <i type="int" name="OMEGAPAR">    -1</i>
   <i name="LAMBDA">      1.00000000</i>
  </separator>
  <separator name="External order field" >
   <i name="OFIELD_KAPPA">      0.00000000</i>
   <v name="OFIELD_K">      0.00000000      0.00000000      0.00000000</v>
   <i name="OFIELD_Q6_NEAR">      0.00000000</i>
   <i name="OFIELD_Q6_FAR">      0.00000000</i>
   <i name="OFIELD_A">      0.00000000</i>
  </separator>
 </parameters>
 <atominfo>
  <atoms>     135 </atoms>
  <types>       3 </types>
  <array name="atoms" >
   <dimension dim="1">ion</dimension>
   <field type="string">element</field>
   <field type="int">atomtype</field>
   <set>
    <rc><c>Ca</c><c>   1</c></rc>
    <rc><c>Ca</c><c>   1</c></rc>
    <rc><c>Ca</c><c>   1</c></rc>
    <rc><c>Ca</c><c>   1</c></rc>
    <rc><c>Ca</c><c>   1</c></rc>
    <rc><c>Ca</c><c>   1</c></rc>
    <rc><c>Ca</c><c>   1</c></rc>
    <rc><c>Ca</c><c>   1</c></rc>
    <rc><c>Ca</c><c>   1</c></rc>
    <rc><c>Ca</c><c>   1</c></rc>
    <rc><c>Ca</c><c>   1</c></rc>
    <rc><c>Ca</c><c>   1</c></rc>
    <rc><c>Ca</c><c>   1</c></rc>
    <rc><c>Ca</c><c>   1</c></rc>
    <rc><c>Ca</c><c>   1</c></rc>
    <rc><c>Ca</c><c>   1</c></rc>
    <rc><c>Ca</c><c>   1</c></rc>
    <rc><c>Ca</c><c>   1</c></rc>
    <rc><c>Ca</c><c>   1</c></rc>
    <rc><c>Ca</c><c>   1</c></rc>
    <rc><c>Ca</c><c>   1</c></rc>
    <rc><c>Ca</c><c>   1</c></rc>
    <rc><c>Ca</c><c>   1</c></rc>
    <rc><c>Ca</c><c>   1</c></rc>
    <rc><c>Ca</c><c>   1</c></rc>
    <rc><c>Ca</c><c>   1</c></rc>
    <rc><c>Ca</c><c>   1</c></rc>
    <rc><c>Si</c><c>   2</c></rc>
    <rc><c>Si</c><c>   2</c></rc>
    <rc><c>Si</c><c>   2</c></rc>
    <rc><c>Si</c><c>   2</c></rc>
    <rc><c>Si</c><c>   2</c></rc>
    <rc><c>Si</c><c>   2</c></rc>
    <rc><c>Si</c><c>   2</c></rc>
    <rc><c>Si</c><c>   2</c></rc>
    <rc><c>Si</c><c>   2</c></rc>
    <rc><c>Si</c><c>   2</c></rc>
    <rc><c>Si</c><c>   2</c></rc>
    <rc><c>Si</c><c>   2</c></rc>
    <rc><c>Si</c><c>   2</c></rc>
    <rc><c>Si</c><c>   2</c></rc>
    <rc><c>Si</c><c>   2</c></rc>
    <rc><c>Si</c><c>   2</c></rc>
    <rc><c>Si</c><c>   2</c></rc>
    <rc><c>Si</c><c>   2</c></rc>
    <rc><c>Si</c><c>   2</c></rc>
    <rc><c>Si</c><c>   2</c></rc>
    <rc><c>Si</c><c>   2</c></rc>
    <rc><c>Si</c><c>   2</c></rc>
    <rc><c>Si</c><c>   2</c></rc>
    <rc><c>Si</c><c>   2</c></rc>
    <rc><c>Si</c><c>   2</c></rc>
    <rc><c>Si</c><c>   2</c></rc>
    <rc><c>Si</c><c>   2</c></rc>
    <rc><c>O </c><c>   3</c></rc>
    <rc><c>O </c><c>   3</c></rc>
    <rc><c>O </c><c>   3</c></rc>
    <rc><c>O </c><c>   3</c></rc>
    <rc><c>O </c><c>   3</c></rc>
    <rc><c>O </c><c>   3</c></rc>
    <rc><c>O </c><c>   3</c></rc>
    <rc><c>O </c><c>   3</c></rc>
    <rc><c>O </c><c>   3</c></rc>
    <rc><c>O </c><c>   3</c></rc>
    <rc><c>O </c><c>   3</c></rc>
    <rc><c>O </c><c>   3</c></rc>
    <rc><c>O </c><c>   3</c></rc>
    <rc><c>O </c><c>   3</c></rc>
    <rc><c>O </c><c>   3</c></rc>
    <rc><c>O </c><c>   3</c></rc>
    <rc><c>O </c><c>   3</c></rc>
    <rc><c>O </c><c>   3</c></rc>
    <rc><c>O </c><c>   3</c></rc>
    <rc><c>O </c><c>   3</c></rc>
    <rc><c>O </c><c>   3</c></rc>
    <rc><c>O </c><c>   3</c></rc>
    <rc><c>O </c><c>   3</c></rc>
    <rc><c>O </c><c>   3</c></rc>
    <rc><c>O </c><c>   3</c></rc>
    <rc><c>O </c><c>   3</c></rc>
    <rc><c>O </c><c>   3</c></rc>
    <rc><c>O </c><c>   3</c></rc>
    <rc><c>O </c><c>   3</c></rc>
    <rc><c>O </c><c>   3</c></rc>
    <rc><c>O </c><c>   3</c></rc>
    <rc><c>O </c><c>   3</c></rc>
    <rc><c>O </c><c>   3</c></rc>
    <rc><c>O </c><c>   3</c></rc>
    <rc><c>O </c><c>   3</c></rc>
    <rc><c>O </c><c>   3</c></rc>
    <rc><c>O </c><c>   3</c></rc>
    <rc><c>O </c><c>   3</c></rc>
    <rc><c>O </c><c>   3</c></rc>
    <rc><c>O </c><c>   3</c></rc>
    <rc><c>O </c><c>   3</c></rc>
    <rc><c>O </c><c>   3</c></rc>
    <rc><c>O </c><c>   3</c></rc>
    <rc><c>O </c><c>   3</c></rc>
    <rc><c>O </c><c>   3</c></rc>
    <rc><c>O </c><c>   3</c></rc>
    <rc><c>O </c><c>   3</c></rc>
    <rc><c>O </c><c>   3</c></rc>
    <rc><c>O </c><c>   3</c></rc>
    <rc><c>O </c><c>   3</c></rc>
    <rc><c>O </c><c>   3</c></rc>
    <rc><c>O </c><c>   3</c></rc>
    <rc><c>O </c><c>   3</c></rc>
    <rc><c>O </c><c>   3</c></rc>
    <rc><c>O </c><c>   3</c></rc>
    <rc><c>O </c><c>   3</c></rc>
    <rc><c>O </c><c>   3</c></rc>
    <rc><c>O </c><c>   3</c></rc>
    <rc><c>O </c><c>   3</c></rc>
    <rc><c>O </c><c>   3</c></rc>
    <rc><c>O </c><c>   3</c></rc>
    <rc><c>O </c><c>   3</c></rc>
    <rc><c>O </c><c>   3</c></rc>
    <rc><c>O </c><c>   3</c></rc>
    <rc><c>O </c><c>   3</c></rc>
    <rc><c>O </c><c>   3</c></rc>
    <rc><c>O </c><c>   3</c></rc>
    <rc><c>O </c><c>   3</c></rc>
    <rc><c>O </c><c>   3</c></rc>
    <rc><c>O </c><c>   3</c></rc>
    <rc><c>O </c><c>   3</c></rc>
    <rc><c>O </c><c>   3</c></rc>
    <rc><c>O </c><c>   3</c></rc>
    <rc><c>O </c><c>   3</c></rc>
    <rc><c>O </c><c>   3</c></rc>
    <rc><c>O </c><c>   3</c></rc>
    <rc><c>O </c><c>   3</c></rc>
    <rc><c>O </c><c>   3</c></rc>
    <rc><c>O </c><c>   3</c></rc>
    <rc><c>O </c><c>   3</c></rc>
    <rc><c>O </c><c>   3</c></rc>
   </set>
  </array>
  <array name="atomtypes" >
   <dimension dim="1">type</dimension>
   <field type="int">atomspertype</field>
   <field type="string">element</field>
   <field>mass</field>
   <field>valence</field>
   <field type="string">pseudopotential</field>
   <set>
    <rc><c>  27</c><c>Ca</c><c>     40.07800000</c><c>     10.00000000</c><c>  PAW_PBE Ca_sv 06Sep2000               </c></rc>
    <rc><c>  27</c><c>Si</c><c>     28.08500000</c><c>      4.00000000</c><c>  PAW_PBE Si 05Jan2001                  </c></rc>
    <rc><c>  81</c><c>O </c><c>     16.00000000</c><c>      6.00000000</c><c>  PAW_PBE O 08Apr2002                   </c></rc>
   </set>
  </array>
 </atominfo>
 <structure name="initialpos" >
  <crystal>
   <varray name="basis" >
    <v>      11.62817333       0.00000000       0.00000000 </v>
    <v>       0.00000000      11.62817333       0.00000000 </v>
    <v>       0.00000000       0.00000000      11.62817333 </v>
   </varray>
   <i name="volume">   1572.29665425 </i>
   <varray name="rec_basis" >
    <v>       0.08599803       0.00000000       0.00000000 </v>
    <v>       0.00000000       0.08599803       0.00000000 </v>
    <v>       0.00000000       0.00000000       0.08599803 </v>
   </varray>
  </crystal>
  <varray name="positions" >
   <v>       0.90729783       0.35797201       0.58745648 </v>
   <v>       0.92352315       0.08685078       0.74416879 </v>
   <v>       0.65507790       0.43343072       0.06276568 </v>
   <v>       0.36016671       0.96434199       0.39861949 </v>
   <v>       0.64269934       0.18514731       0.81474836 </v>
   <v>       0.99820703       0.92231566       0.25269927 </v>
   <v>       0.27368662       0.71277693       0.68261314 </v>
   <v>       0.58227950       0.74539337       0.58069574 </v>
   <v>       0.20271160       0.76156246       0.09941313 </v>
   <v>       0.83362602       0.79371326       0.04073078 </v>
   <v>       0.41642972       0.94856705       0.17210927 </v>
   <v>       0.16714273       0.97083737       0.65732928 </v>
   <v>       0.99733646       0.77608786       0.75250679 </v>
   <v>       0.87429304       0.87971862       0.55352913 </v>
   <v>       0.88350136       0.65293463       0.43616548 </v>
   <v>       0.34378888       0.33351078       0.03061709 </v>
   <v>       0.33225552       0.63304155       0.31645694 </v>
   <v>       0.67384958       0.99502523       0.35518763 </v>
   <v>       0.40502333       0.11112363       0.89487394 </v>
   <v>       0.48364001       0.23167085       0.55694266 </v>
   <v>       0.95414226       0.55800576       0.89650811 </v>
   <v>       0.37432678       0.85767091       0.85071402 </v>
   <v>       0.14242690       0.22727552       0.25488081 </v>
   <v>       0.62120444       0.51895099       0.38914162 </v>
   <v>       0.07045041       0.28221261       0.96959064 </v>
   <v>       0.64409117       0.44412188       0.66864127 </v>
   <v>       0.89909755       0.05422772       0.03225187 </v>
   <v>       0.16336444       0.51159895       0.68375422 </v>
   <v>       0.73671058       0.21247832       0.49428419 </v>
   <v>       0.82670021       0.31777071       0.91481574 </v>
   <v>       0.11189839       0.50614460       0.41062233 </v>
   <v>       0.51570252       0.43403834       0.87759079 </v>
   <v>       0.95269844       0.08496386       0.44266376 </v>
   <v>       0.40078663       0.62391135       0.88048178 </v>
   <v>       0.49654420       0.22606467       0.24722235 </v>
   <v>       0.48418421       0.65381583       0.12627497 </v>
   <v>       0.20932475       0.28072761       0.75642210 </v>
   <v>       0.86156132       0.59287864       0.18014247 </v>
   <v>       0.19113544       0.20822705       0.50702178 </v>
   <v>       0.63836519       0.91748949       0.99244370 </v>
   <v>       0.81620271       0.60788619       0.64032742 </v>
   <v>       0.07657795       0.95040831       0.93530848 </v>
   <v>       0.83309798       0.39225359       0.31318205 </v>
   <v>       0.13324727       0.77573102       0.44557701 </v>
   <v>       0.34643404       0.36085173       0.35820121 </v>
   <v>       0.11854939       0.53774721       0.11328923 </v>
   <v>       0.69347133       0.93432731       0.73452379 </v>
   <v>       0.67770331       0.16220636       0.10422840 </v>
   <v>       0.88833406       0.24154008       0.21172066 </v>
   <v>       0.48588523       0.99870765       0.63138727 </v>
   <v>       0.59728317       0.74716959       0.31843429 </v>
   <v>       0.21515351       0.04889707       0.07604844 </v>
   <v>       0.69972770       0.64220948       0.86775924 </v>
   <v>       0.40157129       0.53871195       0.56495100 </v>
   <v>       0.86346519       0.97734471       0.38780351 </v>
   <v>       0.50374856       0.64862870       0.96304140 </v>
   <v>       0.79788835       0.34134544       0.18395397 </v>
   <v>       0.60637636       0.27041582       0.16317903 </v>
   <v>       0.53862674       0.55798121       0.57453202 </v>
   <v>       0.01732733       0.02763458       0.55070335 </v>
   <v>       0.77532396       0.22037678       0.01658729 </v>
   <v>       0.12302180       0.40827849       0.79904484 </v>
   <v>       0.12056366       0.07080513       0.95273939 </v>
   <v>       0.98833156       0.20057879       0.12084288 </v>
   <v>       0.91581798       0.40675857       0.97906689 </v>
   <v>       0.51356347       0.30707025       0.36765935 </v>
   <v>       0.36695954       0.92449003       0.62827630 </v>
   <v>       0.67453783       0.64894757       0.71903229 </v>
   <v>       0.72168543       0.94555877       0.86454955 </v>
   <v>       0.66966950       0.26566371       0.60527973 </v>
   <v>       0.82758373       0.71644684       0.84410456 </v>
   <v>       0.15096440       0.87860932       0.85398085 </v>
   <v>       0.51481516       0.33971802       0.76537842 </v>
   <v>       0.91706884       0.22422043       0.86351570 </v>
   <v>       0.99600989       0.12569462       0.31204811 </v>
   <v>       0.12273959       0.63437836       0.75634216 </v>
   <v>       0.70940659       0.85313979       0.62710927 </v>
   <v>       0.72181909       0.91711050       0.11235081 </v>
   <v>       0.96368651       0.49116335       0.41340347 </v>
   <v>       0.55077384       0.91639335       0.72764134 </v>
   <v>       0.64355842       0.16146565       0.40683882 </v>
   <v>       0.28554966       0.70195574       0.92691052 </v>
   <v>       0.90643513       0.71776700       0.20368277 </v>
   <v>       0.11552009       0.80696602       0.57990263 </v>
   <v>       0.53502781       0.87994568       0.33473238 </v>
   <v>       0.51247189       0.02474015       0.50343484 </v>
   <v>       0.50364324       0.66095693       0.37427764 </v>
   <v>       0.75932070       0.32887905       0.80719207 </v>
   <v>       0.25150215       0.23728160       0.88224664 </v>
   <v>       0.36348243       0.42967427       0.48476106 </v>
   <v>       0.48081104       0.13040243       0.71819620 </v>
   <v>       0.59657523       0.10209115       0.00591109 </v>
   <v>       0.89731015       0.71771415       0.60892026 </v>
   <v>       0.18245312       0.41642105       0.07043562 </v>
   <v>       0.74153843       0.05742254       0.68170432 </v>
   <v>       0.28204942       0.16611728       0.11888992 </v>
   <v>       0.52548708       0.34278488       0.96490677 </v>
   <v>       0.79101406       0.34717608       0.42823954 </v>
   <v>       0.26816247       0.24032474       0.63119787 </v>
   <v>       0.18791442       0.99099690       0.20794212 </v>
   <v>       0.29438907       0.49014516       0.64927975 </v>
   <v>       0.20232459       0.61228304       0.20148578 </v>
   <v>       0.87094335       0.51842667       0.73457933 </v>
   <v>       0.03761677       0.89085478       0.06541513 </v>
   <v>       0.46788239       0.51980514       0.13156444 </v>
   <v>       0.70796539       0.71150629       0.40650500 </v>
   <v>       0.38328645       0.48647897       0.90192947 </v>
   <v>       0.01508577       0.79037600       0.39034914 </v>
   <v>       0.97673781       0.50308155       0.14615282 </v>
   <v>       0.63019709       0.51501822       0.87966356 </v>
   <v>       0.78106286       0.58929132       0.06685298 </v>
   <v>       0.06535771       0.25111157       0.48269869 </v>
   <v>       0.12215575       0.48570382       0.55737433 </v>
   <v>       0.21602127       0.43626048       0.35157068 </v>
   <v>       0.15570232       0.62911710       0.42304953 </v>
   <v>       0.76230590       0.13851907       0.20568055 </v>
   <v>       0.47863634       0.10177289       0.27828244 </v>
   <v>       0.49860182       0.91430369       0.98217160 </v>
   <v>       0.09488379       0.14743487       0.73986046 </v>
   <v>       0.94708153       0.94951907       0.86470935 </v>
   <v>       0.08824288       0.64569518       0.01632555 </v>
   <v>       0.22051056       0.07070062       0.46315800 </v>
   <v>       0.28623800       0.95573391       0.00440071 </v>
   <v>       0.37687583       0.33052336       0.22643705 </v>
   <v>       0.44100638       0.71175585       0.77148689 </v>
   <v>       0.77230415       0.53390864       0.53610163 </v>
   <v>       0.76696111       0.52414189       0.26387626 </v>
   <v>       0.33913965       0.65294036       0.53020114 </v>
   <v>       0.85540552       0.15856469       0.53019592 </v>
   <v>       0.37602734       0.73450330       0.16831643 </v>
   <v>       0.64891527       0.76847215       0.97084378 </v>
   <v>       0.61277157       0.71123156       0.18844798 </v>
   <v>       0.95681157       0.32742767       0.29035789 </v>
   <v>       0.28522662       0.23993086       0.39737164 </v>
   <v>       0.26251276       0.79992548       0.40996283 </v>
  </varray>
  <varray name="velocities" >
   <v>       0.00000000       0.00000000       0.00000000 </v>
   <v>       0.00000000       0.00000000       0.00000000 </v>
   <v>       0.00000000       0.00000000       0.00000000 </v>
   <v>       0.00000000       0.00000000       0.00000000 </v>
   <v>       0.00000000       0.00000000       0.00000000 </v>
   <v>       0.00000000       0.00000000       0.00000000 </v>
   <v>       0.00000000       0.00000000       0.00000000 </v>
   <v>       0.00000000       0.00000000       0.00000000 </v>
   <v>       0.00000000       0.00000000       0.00000000 </v>
   <v>       0.00000000       0.00000000       0.00000000 </v>
   <v>       0.00000000       0.00000000       0.00000000 </v>
   <v>       0.00000000       0.00000000       0.00000000 </v>
   <v>       0.00000000       0.00000000       0.00000000 </v>
   <v>       0.00000000       0.00000000       0.00000000 </v>
   <v>       0.00000000       0.00000000       0.00000000 </v>
   <v>       0.00000000       0.00000000       0.00000000 </v>
   <v>       0.00000000       0.00000000       0.00000000 </v>
   <v>       0.00000000       0.00000000       0.00000000 </v>
   <v>       0.00000000       0.00000000       0.00000000 </v>
   <v>       0.00000000       0.00000000       0.00000000 </v>
   <v>       0.00000000       0.00000000       0.00000000 </v>
   <v>       0.00000000       0.00000000       0.00000000 </v>
   <v>       0.00000000       0.00000000       0.00000000 </v>
   <v>       0.00000000       0.00000000       0.00000000 </v>
   <v>       0.00000000       0.00000000       0.00000000 </v>
   <v>       0.00000000       0.00000000       0.00000000 </v>
   <v>       0.00000000       0.00000000       0.00000000 </v>
   <v>       0.00000000       0.00000000       0.00000000 </v>
   <v>       0.00000000       0.00000000       0.00000000 </v>
   <v>       0.00000000       0.00000000       0.00000000 </v>
   <v>       0.00000000       0.00000000       0.00000000 </v>
   <v>       0.00000000       0.00000000       0.00000000 </v>
   <v>       0.00000000       0.00000000       0.00000000 </v>
   <v>       0.00000000       0.00000000       0.00000000 </v>
   <v>       0.00000000       0.00000000       0.00000000 </v>
   <v>       0.00000000       0.00000000       0.00000000 </v>
   <v>       0.00000000       0.00000000       0.00000000 </v>
   <v>       0.00000000       0.00000000       0.00000000 </v>
   <v>       0.00000000       0.00000000       0.00000000 </v>
   <v>       0.00000000       0.00000000       0.00000000 </v>
   <v>       0.00000000       0.00000000       0.00000000 </v>
   <v>       0.00000000       0.00000000       0.00000000 </v>
   <v>       0.00000000       0.00000000       0.00000000 </v>
   <v>       0.00000000       0.00000000       0.00000000 </v>
   <v>       0.00000000       0.00000000       0.00000000 </v>
   <v>       0.00000000       0.00000000       0.00000000 </v>
   <v>       0.00000000       0.00000000       0.00000000 </v>
   <v>       0.00000000       0.00000000       0.00000000 </v>
   <v>       0.00000000       0.00000000       0.00000000 </v>
   <v>       0.00000000       0.00000000       0.00000000 </v>
   <v>       0.00000000       0.00000000       0.00000000 </v>
   <v>       0.00000000       0.00000000       0.00000000 </v>
   <v>       0.00000000       0.00000000       0.00000000 </v>
   <v>       0.00000000       0.00000000       0.00000000 </v>
   <v>       0.00000000       0.00000000       0.00000000 </v>
   <v>       0.00000000       0.00000000       0.00000000 </v>
   <v>       0.00000000       0.00000000       0.00000000 </v>
   <v>       0.00000000       0.00000000       0.00000000 </v>
   <v>       0.00000000       0.00000000       0.00000000 </v>
   <v>       0.00000000       0.00000000       0.00000000 </v>
   <v>       0.00000000       0.00000000       0.00000000 </v>
   <v>       0.00000000       0.00000000       0.00000000 </v>
   <v>       0.00000000       0.00000000       0.00000000 </v>
   <v>       0.00000000       0.00000000       0.00000000 </v>
   <v>       0.00000000       0.00000000       0.00000000 </v>
   <v>       0.00000000       0.00000000       0.00000000 </v>
   <v>       0.00000000       0.00000000       0.00000000 </v>
   <v>       0.00000000       0.00000000       0.00000000 </v>
   <v>       0.00000000       0.00000000       0.00000000 </v>
   <v>       0.00000000       0.00000000       0.00000000 </v>
   <v>       0.00000000       0.00000000       0.00000000 </v>
   <v>       0.00000000       0.00000000       0.00000000 </v>
   <v>       0.00000000       0.00000000       0.00000000 </v>
   <v>       0.00000000       0.00000000       0.00000000 </v>
   <v>       0.00000000       0.00000000       0.00000000 </v>
   <v>       0.00000000       0.00000000       0.00000000 </v>
   <v>       0.00000000       0.00000000       0.00000000 </v>
   <v>       0.00000000       0.00000000       0.00000000 </v>
   <v>       0.00000000       0.00000000       0.00000000 </v>
   <v>       0.00000000       0.00000000       0.00000000 </v>
   <v>       0.00000000       0.00000000       0.00000000 </v>
   <v>       0.00000000       0.00000000       0.00000000 </v>
   <v>       0.00000000       0.00000000       0.00000000 </v>
   <v>       0.00000000       0.00000000       0.00000000 </v>
   <v>       0.00000000       0.00000000       0.00000000 </v>
   <v>       0.00000000       0.00000000       0.00000000 </v>
   <v>       0.00000000       0.00000000       0.00000000 </v>
   <v>       0.00000000       0.00000000       0.00000000 </v>
   <v>       0.00000000       0.00000000       0.00000000 </v>
   <v>       0.00000000       0.00000000       0.00000000 </v>
   <v>       0.00000000       0.00000000       0.00000000 </v>
   <v>       0.00000000       0.00000000       0.00000000 </v>
   <v>       0.00000000       0.00000000       0.00000000 </v>
   <v>       0.00000000       0.00000000       0.00000000 </v>
   <v>       0.00000000       0.00000000       0.00000000 </v>
   <v>       0.00000000       0.00000000       0.00000000 </v>
   <v>       0.00000000       0.00000000       0.00000000 </v>
   <v>       0.00000000       0.00000000       0.00000000 </v>
   <v>       0.00000000       0.00000000       0.00000000 </v>
   <v>       0.00000000       0.00000000       0.00000000 </v>
   <v>       0.00000000       0.00000000       0.00000000 </v>
   <v>       0.00000000       0.00000000       0.00000000 </v>
   <v>       0.00000000       0.00000000       0.00000000 </v>
   <v>       0.00000000       0.00000000       0.00000000 </v>
   <v>       0.00000000       0.00000000       0.00000000 </v>
   <v>       0.00000000       0.00000000       0.00000000 </v>
   <v>       0.00000000       0.00000000       0.00000000 </v>
   <v>       0.00000000       0.00000000       0.00000000 </v>
   <v>       0.00000000       0.00000000       0.00000000 </v>
   <v>       0.00000000       0.00000000       0.00000000 </v>
   <v>       0.00000000       0.00000000       0.00000000 </v>
   <v>       0.00000000       0.00000000       0.00000000 </v>
   <v>       0.00000000       0.00000000       0.00000000 </v>
   <v>       0.00000000       0.00000000       0.00000000 </v>
   <v>       0.00000000       0.00000000       0.00000000 </v>
   <v>       0.00000000       0.00000000       0.00000000 </v>
   <v>       0.00000000       0.00000000       0.00000000 </v>
   <v>       0.00000000       0.00000000       0.00000000 </v>
   <v>       0.00000000       0.00000000       0.00000000 </v>
   <v>       0.00000000       0.00000000       0.00000000 </v>
   <v>       0.00000000       0.00000000       0.00000000 </v>
   <v>       0.00000000       0.00000000       0.00000000 </v>
   <v>       0.00000000       0.00000000       0.00000000 </v>
   <v>       0.00000000       0.00000000       0.00000000 </v>
   <v>       0.00000000       0.00000000       0.00000000 </v>
   <v>       0.00000000       0.00000000       0.00000000 </v>
   <v>       0.00000000       0.00000000       0.00000000 </v>
   <v>       0.00000000       0.00000000       0.00000000 </v>
   <v>       0.00000000       0.00000000       0.00000000 </v>
   <v>       0.00000000       0.00000000       0.00000000 </v>
   <v>       0.00000000       0.00000000       0.00000000 </v>
   <v>       0.00000000       0.00000000       0.00000000 </v>
   <v>       0.00000000       0.00000000       0.00000000 </v>
   <v>       0.00000000       0.00000000       0.00000000 </v>
   <v>       0.00000000       0.00000000       0.00000000 </v>
  </varray>
 </structure>
 <calculation>
  <scstep>
   <time name="dav">   33.81   33.96</time>
   <time name="total">   34.23   34.38</time>
   <energy>
    <i name="alphaZ">   3039.22321400 </i>
    <i name="ewald"> -49182.33575756 </i>
    <i name="hartreedc"> -15516.03014521 </i>
    <i name="XCdc">   3191.89486526 </i>
    <i name="pawpsdc">  50594.51003143 </i>
    <i name="pawaedc"> -49994.65612350 </i>
    <i name="eentropy">     -0.03555667 </i>
    <i name="bandstr">   2613.81936064 </i>
    <i name="atom">  64968.54023382 </i>
    <i name="e_fr_energy">   9714.93012223 </i>
    <i name="e_wo_entrp">   9714.96567890 </i>
    <i name="e_0_energy">   9714.94790057 </i>
   </energy>
  </scstep>
  <scstep>
   <time name="dav">   38.29   38.48</time>
   <time name="total">   38.29   38.48</time>
   <energy>
    <i name="e_fr_energy">     27.30376340 </i>
    <i name="e_wo_entrp">     27.30376340 </i>
    <i name="e_0_energy">     27.30376340 </i>
   </energy>
  </scstep>
  <scstep>
   <time name="dav">   39.75   39.95</time>
   <time name="total">   39.76   39.95</time>
   <energy>
    <i name="e_fr_energy">  -1017.88479582 </i>
    <i name="e_wo_entrp">  -1017.88479582 </i>
    <i name="e_0_energy">  -1017.88479582 </i>
   </energy>
  </scstep>
  <scstep>
   <time name="dav">   43.29   43.56</time>
   <time name="total">   43.29   43.56</time>
   <energy>
    <i name="e_fr_energy">  -1067.97377275 </i>
    <i name="e_wo_entrp">  -1067.97377275 </i>
    <i name="e_0_energy">  -1067.97377275 </i>
   </energy>
  </scstep>
  <scstep>
   <time name="dav">   51.81   52.08</time>
   <time name="total">   53.07   53.35</time>
   <energy>
    <i name="e_fr_energy">  -1072.80069304 </i>
    <i name="e_wo_entrp">  -1072.80069304 </i>
    <i name="e_0_energy">  -1072.80069304 </i>
   </energy>
  </scstep>
  <scstep>
   <time name="dav">   38.33   38.54</time>
   <time name="total">   40.02   40.24</time>
   <energy>
    <i name="e_fr_energy">   -930.41867312 </i>
    <i name="e_wo_entrp">   -930.41867312 </i>
    <i name="e_0_energy">   -930.41867312 </i>
   </energy>
  </scstep>
  <scstep>
   <time name="dav">   42.68   42.90</time>
   <time name="total">   44.40   44.64</time>
   <energy>
    <i name="e_fr_energy">   -932.66770545 </i>
    <i name="e_wo_entrp">   -932.66770545 </i>
    <i name="e_0_energy">   -932.66770545 </i>
   </energy>
  </scstep>
  <scstep>
   <time name="dav">   40.33   40.52</time>
   <time name="total">   41.99   42.20</time>
   <energy>
    <i name="e_fr_energy">   -931.59183621 </i>
    <i name="e_wo_entrp">   -931.59183621 </i>
    <i name="e_0_energy">   -931.59183621 </i>
   </energy>
  </scstep>
  <scstep>
   <time name="dav">   39.69   39.88</time>
   <time name="total">   41.36   41.55</time>
   <energy>
    <i name="e_fr_energy">   -931.29402978 </i>
    <i name="e_wo_entrp">   -931.29402978 </i>
    <i name="e_0_energy">   -931.29402978 </i>
   </energy>
  </scstep>
  <scstep>
   <time name="dav">   44.85   45.07</time>
   <time name="total">   46.52   46.75</time>
   <energy>
    <i name="e_fr_energy">   -931.38851591 </i>
    <i name="e_wo_entrp">   -931.38851591 </i>
    <i name="e_0_energy">   -931.38851591 </i>
   </energy>
  </scstep>
  <scstep>
   <time name="dav">   42.54   43.67</time>
   <time name="total">   44.17   45.34</time>
   <energy>
    <i name="e_fr_energy">   -931.38901519 </i>
    <i name="e_wo_entrp">   -931.38901519 </i>
    <i name="e_0_energy">   -931.38901519 </i>
   </energy>
  </scstep>
  <scstep>
   <time name="dav">   38.42   39.42</time>
   <time name="total">   40.07   41.12</time>
   <energy>
    <i name="e_fr_energy">   -931.39402885 </i>
    <i name="e_wo_entrp">   -931.39402885 </i>
    <i name="e_0_energy">   -931.39402885 </i>
   </energy>
  </scstep>
  <scstep>
   <time name="dav">   44.25   44.47</time>
   <time name="total">   45.90   46.14</time>
   <energy>
    <i name="e_fr_energy">   -931.39576353 </i>
    <i name="e_wo_entrp">   -931.39576353 </i>
    <i name="e_0_energy">   -931.39576353 </i>
   </energy>
  </scstep>
  <scstep>
   <time name="dav">   44.45   44.66</time>
   <time name="total">   46.10   46.34</time>
   <energy>
    <i name="e_fr_energy">   -931.39597722 </i>
    <i name="e_wo_entrp">   -931.39597722 </i>
    <i name="e_0_energy">   -931.39597722 </i>
   </energy>
  </scstep>
  <scstep>
   <time name="dav">   42.24   42.42</time>
   <time name="total">   43.91   44.11</time>
   <energy>
    <i name="e_fr_energy">   -931.39599583 </i>
    <i name="e_wo_entrp">   -931.39599583 </i>
    <i name="e_0_energy">   -931.39599583 </i>
   </energy>
  </scstep>
  <scstep>
   <time name="dav">   38.56   39.39</time>
   <time name="total">   40.19   41.07</time>
   <energy>
    <i name="e_fr_energy">   -931.39598737 </i>
    <i name="e_wo_entrp">   -931.39598737 </i>
    <i name="e_0_energy">   -931.39598737 </i>
   </energy>
  </scstep>
  <scstep>
   <time name="dav">   43.44   44.62</time>
   <time name="total">   45.07   46.30</time>
   <energy>
    <i name="e_fr_energy">   -931.39599023 </i>
    <i name="e_wo_entrp">   -931.39599023 </i>
    <i name="e_0_energy">   -931.39599023 </i>
   </energy>
  </scstep>
  <scstep>
   <time name="dav">   38.63   38.81</time>
   <time name="total">   40.29   40.48</time>
   <energy>
    <i name="e_fr_energy">   -931.39598936 </i>
    <i name="e_wo_entrp">   -931.39598936 </i>
    <i name="e_0_energy">   -931.39598936 </i>
   </energy>
  </scstep>
  <scstep>
   <time name="dav">   33.07   33.21</time>
   <time name="total">   33.47   33.63</time>
   <energy>
    <i name="alphaZ">   3039.22321400 </i>
    <i name="ewald"> -49182.33575756 </i>
    <i name="hartreedc"> -16980.95664081 </i>
    <i name="XCdc">   3290.12225640 </i>
    <i name="pawpsdc">  97030.94414901 </i>
    <i name="pawaedc"> -96690.40026901 </i>
    <i name="eentropy">     -0.00000000 </i>
    <i name="bandstr">  -6406.53317442 </i>
    <i name="atom">  64968.54023382 </i>
    <i name="e_fr_energy">   -931.39598856 </i>
    <i name="e_wo_entrp">   -931.39598856 </i>
    <i name="e_0_energy">   -931.39598856 </i>
   </energy>
  </scstep>
  <structure>
   <crystal>
    <varray name="basis" >
     <v>      11.62817333       0.00000000       0.00000000 </v>
     <v>       0.00000000      11.62817333       0.00000000 </v>
     <v>       0.00000000       0.00000000      11.62817333 </v>
    </varray>
    <i name="volume">   1572.29665425 </i>
    <varray name="rec_basis" >
     <v>       0.08599803       0.00000000       0.00000000 </v>
     <v>       0.00000000       0.08599803       0.00000000 </v>
     <v>       0.00000000       0.00000000       0.08599803 </v>
    </varray>
   </crystal>
   <varray name="positions" >
    <v>       0.90729783       0.35797201       0.58745648 </v>
    <v>       0.92352315       0.08685078       0.74416879 </v>
    <v>       0.65507790       0.43343072       0.06276568 </v>
    <v>       0.36016671       0.96434199       0.39861949 </v>
    <v>       0.64269934       0.18514731       0.81474836 </v>
    <v>       0.99820703       0.92231566       0.25269927 </v>
    <v>       0.27368662       0.71277693       0.68261314 </v>
    <v>       0.58227950       0.74539337       0.58069574 </v>
    <v>       0.20271160       0.76156246       0.09941313 </v>
    <v>       0.83362602       0.79371326       0.04073078 </v>
    <v>       0.41642972       0.94856705       0.17210927 </v>
    <v>       0.16714273       0.97083737       0.65732928 </v>
    <v>       0.99733646       0.77608786       0.75250679 </v>
    <v>       0.87429304       0.87971862       0.55352913 </v>
    <v>       0.88350136       0.65293463       0.43616548 </v>
    <v>       0.34378888       0.33351078       0.03061709 </v>
    <v>       0.33225552       0.63304155       0.31645694 </v>
    <v>       0.67384958       0.99502523       0.35518763 </v>
    <v>       0.40502333       0.11112363       0.89487394 </v>
    <v>       0.48364001       0.23167085       0.55694266 </v>
    <v>       0.95414226       0.55800576       0.89650811 </v>
    <v>       0.37432678       0.85767091       0.85071402 </v>
    <v>       0.14242690       0.22727552       0.25488081 </v>
    <v>       0.62120444       0.51895099       0.38914162 </v>
    <v>       0.07045041       0.28221261       0.96959064 </v>
    <v>       0.64409117       0.44412188       0.66864127 </v>
    <v>       0.89909755       0.05422772       0.03225187 </v>
    <v>       0.16336444       0.51159895       0.68375422 </v>
    <v>       0.73671058       0.21247832       0.49428419 </v>
    <v>       0.82670021       0.31777071       0.91481574 </v>
    <v>       0.11189839       0.50614460       0.41062233 </v>
    <v>       0.51570252       0.43403834       0.87759079 </v>
    <v>       0.95269844       0.08496386       0.44266376 </v>
    <v>       0.40078663       0.62391135       0.88048178 </v>
    <v>       0.49654420       0.22606467       0.24722235 </v>
    <v>       0.48418421       0.65381583       0.12627497 </v>
    <v>       0.20932475       0.28072761       0.75642210 </v>
    <v>       0.86156132       0.59287864       0.18014247 </v>
    <v>       0.19113544       0.20822705       0.50702178 </v>
    <v>       0.63836519       0.91748949       0.99244370 </v>
    <v>       0.81620271       0.60788619       0.64032742 </v>
    <v>       0.07657795       0.95040831       0.93530848 </v>
    <v>       0.83309798       0.39225359       0.31318205 </v>
    <v>       0.13324727       0.77573102       0.44557701 </v>
    <v>       0.34643404       0.36085173       0.35820121 </v>
    <v>       0.11854939       0.53774721       0.11328923 </v>
    <v>       0.69347133       0.93432731       0.73452379 </v>
    <v>       0.67770331       0.16220636       0.10422840 </v>
    <v>       0.88833406       0.24154008       0.21172066 </v>
    <v>       0.48588523       0.99870765       0.63138727 </v>
    <v>       0.59728317       0.74716959       0.31843429 </v>
    <v>       0.21515351       0.04889707       0.07604844 </v>
    <v>       0.69972770       0.64220948       0.86775924 </v>
    <v>       0.40157129       0.53871195       0.56495100 </v>
    <v>       0.86346519       0.97734471       0.38780351 </v>
    <v>       0.50374856       0.64862870       0.96304140 </v>
    <v>       0.79788835       0.34134544       0.18395397 </v>
    <v>       0.60637636       0.27041582       0.16317903 </v>
    <v>       0.53862674       0.55798121       0.57453202 </v>
    <v>       0.01732733       0.02763458       0.55070335 </v>
    <v>       0.77532396       0.22037678       0.01658729 </v>
    <v>       0.12302180       0.40827849       0.79904484 </v>
    <v>       0.12056366       0.07080513       0.95273939 </v>
    <v>       0.98833156       0.20057879       0.12084288 </v>
    <v>       0.91581798       0.40675857       0.97906689 </v>
    <v>       0.51356347       0.30707025       0.36765935 </v>
    <v>       0.36695954       0.92449003       0.62827630 </v>
    <v>       0.67453783       0.64894757       0.71903229 </v>
    <v>       0.72168543       0.94555877       0.86454955 </v>
    <v>       0.66966950       0.26566371       0.60527973 </v>
    <v>       0.82758373       0.71644684       0.84410456 </v>
    <v>       0.15096440       0.87860932       0.85398085 </v>
    <v>       0.51481516       0.33971802       0.76537842 </v>
    <v>       0.91706884       0.22422043       0.86351570 </v>
    <v>       0.99600989       0.12569462       0.31204811 </v>
    <v>       0.12273959       0.63437836       0.75634216 </v>
    <v>       0.70940659       0.85313979       0.62710927 </v>
    <v>       0.72181909       0.91711050       0.11235081 </v>
    <v>       0.96368651       0.49116335       0.41340347 </v>
    <v>       0.55077384       0.91639335       0.72764134 </v>
    <v>       0.64355842       0.16146565       0.40683882 </v>
    <v>       0.28554966       0.70195574       0.92691052 </v>
    <v>       0.90643513       0.71776700       0.20368277 </v>
    <v>       0.11552009       0.80696602       0.57990263 </v>
    <v>       0.53502781       0.87994568       0.33473238 </v>
    <v>       0.51247189       0.02474015       0.50343484 </v>
    <v>       0.50364324       0.66095693       0.37427764 </v>
    <v>       0.75932070       0.32887905       0.80719207 </v>
    <v>       0.25150215       0.23728160       0.88224664 </v>
    <v>       0.36348243       0.42967427       0.48476106 </v>
    <v>       0.48081104       0.13040243       0.71819620 </v>
    <v>       0.59657523       0.10209115       0.00591109 </v>
    <v>       0.89731015       0.71771415       0.60892026 </v>
    <v>       0.18245312       0.41642105       0.07043562 </v>
    <v>       0.74153843       0.05742254       0.68170432 </v>
    <v>       0.28204942       0.16611728       0.11888992 </v>
    <v>       0.52548708       0.34278488       0.96490677 </v>
    <v>       0.79101406       0.34717608       0.42823954 </v>
    <v>       0.26816247       0.24032474       0.63119787 </v>
    <v>       0.18791442       0.99099690       0.20794212 </v>
    <v>       0.29438907       0.49014516       0.64927975 </v>
    <v>       0.20232459       0.61228304       0.20148578 </v>
    <v>       0.87094335       0.51842667       0.73457933 </v>
    <v>       0.03761677       0.89085478       0.06541513 </v>
    <v>       0.46788239       0.51980514       0.13156444 </v>
    <v>       0.70796539       0.71150629       0.40650500 </v>
    <v>       0.38328645       0.48647897       0.90192947 </v>
    <v>       0.01508577       0.79037600       0.39034914 </v>
    <v>       0.97673781       0.50308155       0.14615282 </v>
    <v>       0.63019709       0.51501822       0.87966356 </v>
    <v>       0.78106286       0.58929132       0.06685298 </v>
    <v>       0.06535771       0.25111157       0.48269869 </v>
    <v>       0.12215575       0.48570382       0.55737433 </v>
    <v>       0.21602127       0.43626048       0.35157068 </v>
    <v>       0.15570232       0.62911710       0.42304953 </v>
    <v>       0.76230590       0.13851907       0.20568055 </v>
    <v>       0.47863634       0.10177289       0.27828244 </v>
    <v>       0.49860182       0.91430369       0.98217160 </v>
    <v>       0.09488379       0.14743487       0.73986046 </v>
    <v>       0.94708153       0.94951907       0.86470935 </v>
    <v>       0.08824288       0.64569518       0.01632555 </v>
    <v>       0.22051056       0.07070062       0.46315800 </v>
    <v>       0.28623800       0.95573391       0.00440071 </v>
    <v>       0.37687583       0.33052336       0.22643705 </v>
    <v>       0.44100638       0.71175585       0.77148689 </v>
    <v>       0.77230415       0.53390864       0.53610163 </v>
    <v>       0.76696111       0.52414189       0.26387626 </v>
    <v>       0.33913965       0.65294036       0.53020114 </v>
    <v>       0.85540552       0.15856469       0.53019592 </v>
    <v>       0.37602734       0.73450330       0.16831643 </v>
    <v>       0.64891527       0.76847215       0.97084378 </v>
    <v>       0.61277157       0.71123156       0.18844798 </v>
    <v>       0.95681157       0.32742767       0.29035789 </v>
    <v>       0.28522662       0.23993086       0.39737164 </v>
    <v>       0.26251276       0.79992548       0.40996283 </v>
   </varray>
  </structure>
  <varray name="forces" >
   <v>       1.91274535       0.82812093       0.37016053 </v>
   <v>       0.14173618       1.33608384      -1.31815739 </v>
   <v>       0.80811699       1.23540471       2.55748446 </v>
   <v>      -1.03404522       0.08762157       1.83964542 </v>
   <v>       0.18554990       0.00328408      -1.06744292 </v>
   <v>       0.46200684      -0.67840668       0.66157655 </v>
   <v>      -0.48512866       2.47164473      -0.51490621 </v>
   <v>      -2.87872588      -0.85649637      -0.41790297 </v>
   <v>      -0.31481053       1.45787985      -1.77598306 </v>
   <v>       1.23469182      -2.21760502      -0.89210212 </v>
   <v>       0.76954447      -1.22497066      -1.87375946 </v>
   <v>       0.97919990       1.99827234      -0.98534666 </v>
   <v>       1.22421771      -0.08985532       1.70303193 </v>
   <v>       0.79511004       3.05393090      -2.31257529 </v>
   <v>       1.09198167       1.05257836      -4.11464776 </v>
   <v>      -0.57004308       1.64272856       1.34273181 </v>
   <v>      -1.07660634      -0.08646581       2.75097069 </v>
   <v>       0.54800361       0.21480114      -0.52576453 </v>
   <v>      -0.07239436      -0.11053793       0.47299503 </v>
   <v>      -0.43651060       0.44978744      -0.73969915 </v>
   <v>       1.66850967       1.21197254       0.73831790 </v>
   <v>      -0.46968737       0.88756500       1.31183823 </v>
   <v>       0.52029108       0.45484994       0.25312719 </v>
   <v>      -0.56811465      -0.83250782       0.74082079 </v>
   <v>       0.03735255       0.29150835      -0.72209202 </v>
   <v>       1.19154641      -0.88371563       1.52272468 </v>
   <v>      -0.76408775       1.04854253      -0.78032657 </v>
   <v>      -2.62371681       0.13495851       3.57610090 </v>
   <v>      -4.26607414       1.48125521      -1.13573878 </v>
   <v>       6.62591868      -2.35714340       3.61818814 </v>
   <v>      -2.39301347      -2.33464641       2.59972762 </v>
   <v>      -2.56841169      -0.19894488      -6.37488417 </v>
   <v>      -0.38175296      -0.14948966      -0.11882561 </v>
   <v>      -4.09526469       4.90575659       1.37195481 </v>
   <v>       0.30021492       7.30258642       2.31781059 </v>
   <v>       1.33612571       1.61337372      -3.41993541 </v>
   <v>      -4.59274020      -3.48574609       0.25010823 </v>
   <v>       2.03828629      -1.66264575      -3.19262958 </v>
   <v>       2.40630174      -3.89841653      -0.73708811 </v>
   <v>      -0.21733395      -2.65196895      -1.31818984 </v>
   <v>      -1.00178902       0.74323066       6.13983004 </v>
   <v>      -4.14800702      -6.26020313      -0.54181073 </v>
   <v>       3.17477669       5.96876209      -2.79879326 </v>
   <v>       3.45028784      -2.74802444       1.59851022 </v>
   <v>       0.11918142       0.00423543       2.43415404 </v>
   <v>      -0.73556151       1.52901146      -1.11380864 </v>
   <v>      -1.35450257       2.13868857      -2.72479336 </v>
   <v>      -1.21106592       2.29237949      -3.04636195 </v>
   <v>       1.88854815      -6.27133276      -3.57035365 </v>
   <v>      -2.40259300       0.77590682       3.69027941 </v>
   <v>      -1.12290153       1.61709190       2.70838472 </v>
   <v>      -0.63851761      -0.02100464       1.78791476 </v>
   <v>      -0.28352166       5.78156714      -0.12599060 </v>
   <v>      -1.51345693      -0.30771516      -0.77511828 </v>
   <v>       0.12845833       0.84016498       0.89407936 </v>
   <v>       0.71994154       0.60898327       4.80440279 </v>
   <v>      -1.81488499       1.25509476       0.28255161 </v>
   <v>      -3.16104760      -1.41699902       0.49644750 </v>
   <v>      -1.30113717      -1.74905647      -0.34654847 </v>
   <v>      -0.98308486      -1.20028489       0.24756539 </v>
   <v>      -1.18197050       0.78850238      -1.30649430 </v>
   <v>       2.45342570      -0.92228798      -3.99928190 </v>
   <v>       1.40336955       6.10878986       4.13787179 </v>
   <v>      -0.75272392      -0.56345971      -0.66723947 </v>
   <v>      -2.62886767      -1.80936303      -0.95601611 </v>
   <v>      -1.59782969       1.69987188       0.41443073 </v>
   <v>      -1.60830441      -0.15037614       1.11055779 </v>
   <v>       2.12554689      -1.33929708       0.26910452 </v>
   <v>      -0.36505671       0.67299317       4.91685856 </v>
   <v>       0.99768748       0.42687576      -0.89582171 </v>
   <v>      -0.03836537      -1.88224355       1.79846670 </v>
   <v>       2.06846071      -2.08989035      -3.93398453 </v>
   <v>      -0.39929743       2.86747408      -0.51012209 </v>
   <v>       1.22809277      -1.66852508       0.84628502 </v>
   <v>      -1.66998177      -1.32075168       1.24487618 </v>
   <v>       0.00253488      -3.50819939      -1.81812416 </v>
   <v>       2.87619133      -0.51170941      -0.53557633 </v>
   <v>      -0.98626158       2.82953989      -1.21595632 </v>
   <v>       1.80425472      -0.64195836      -1.05528016 </v>
   <v>      -0.10379755       0.55125084       0.63435641 </v>
   <v>       2.86337081       0.96151014       1.38526587 </v>
   <v>       2.49502208      -1.41378576      -1.43885258 </v>
   <v>      -0.35284864       1.06571030       1.25268345 </v>
   <v>      -0.04899629      -0.07494581       1.99236129 </v>
   <v>       0.60616876      -2.65742501      -1.23867095 </v>
   <v>       1.05144423       0.73076185      -0.31947260 </v>
   <v>       0.55976993      -0.44034112      -0.06494712 </v>
   <v>      -4.68996412       2.39709875      -3.88047345 </v>
   <v>       2.11977582       0.75982031      -0.87446222 </v>
   <v>       2.80839437      -0.96753819      -2.04370066 </v>
   <v>      -0.52932914      -3.25218575      -0.90208694 </v>
   <v>       0.22899285      -0.94433884       0.86730676 </v>
   <v>      -0.82062038      -3.19489982       0.44043174 </v>
   <v>      -1.63137998       0.69152521       0.58238703 </v>
   <v>      -0.62280673      -0.84146254       1.06408793 </v>
   <v>      -0.41382498      -0.68712366      -1.98669201 </v>
   <v>       1.02877485      -5.23276636       5.66597790 </v>
   <v>      -3.21085095      -2.56775339       3.32620669 </v>
   <v>      -0.10680440       1.28789036      -0.19534811 </v>
   <v>       0.43572606       0.39233282      -1.45181328 </v>
   <v>       2.43877510       0.33160071       4.62209223 </v>
   <v>      -2.98046960      -2.39863444      -1.33920083 </v>
   <v>      -0.25911057      -0.22178504      -2.20670919 </v>
   <v>      -0.86362017       1.40381964      -1.73748199 </v>
   <v>       0.95940739      -1.00345122       1.75924079 </v>
   <v>      -1.33320938       2.10109065      -1.00644504 </v>
   <v>       0.36487908      -0.49812858      -2.28054236 </v>
   <v>      -2.92788490       1.59088289      -1.62028021 </v>
   <v>       0.34144821       1.49762809       2.31668970 </v>
   <v>       1.90057521       0.32886968      -0.25562723 </v>
   <v>      -0.41303316       0.28662924      -2.38026006 </v>
   <v>      -0.75158514       0.83856804       0.63364823 </v>
   <v>      -2.81564073      -1.76690124      -0.10494353 </v>
   <v>      -0.59740814      -0.94964657      -1.98870125 </v>
   <v>      -0.76148659       3.77998010      -0.46858489 </v>
   <v>       3.78356673      -2.35938082       2.21093493 </v>
   <v>      -1.02762839      -4.18390864      -1.22831454 </v>
   <v>       0.19463387       1.40827461       0.87369481 </v>
   <v>       3.10188169       2.87169025      -0.45646528 </v>
   <v>       0.86379810      -0.28794955       1.35538079 </v>
   <v>      -1.06330396      -2.57731450       0.30947489 </v>
   <v>      -1.09092413       0.82431581       2.56105269 </v>
   <v>       1.66260777       0.37068282       0.64088584 </v>
   <v>       0.58985488      -1.21372583      -2.27526502 </v>
   <v>       0.34163216      -3.44672295      -1.13770916 </v>
   <v>      -0.70762405      -0.65150599      -0.47519434 </v>
   <v>       1.53633291      -1.45073729       2.87836478 </v>
   <v>       1.50120011       0.57301657      -0.32223085 </v>
   <v>       2.09763228       0.37823648      -0.86959611 </v>
   <v>       2.90129547       1.28815864      -0.97080381 </v>
   <v>       2.68130950      -0.82113715      -1.93734026 </v>
   <v>      -1.42692211      -1.24121996      -2.66208843 </v>
   <v>       1.53472271       0.85852524       2.27103626 </v>
   <v>       0.30242111       1.07871764       0.98388216 </v>
   <v>       0.24664339       2.68670264      -2.05355177 </v>
  </varray>
  <varray name="stress" >
   <v>     112.99971480       4.86028999      32.78776705 </v>
   <v>       4.86029004     158.83048304     -14.98340421 </v>
   <v>      32.78776705     -14.98340422     121.05548705 </v>
  </varray>
  <energy>
   <i name="e_fr_energy">   -931.39598856 </i>
   <i name="e_wo_entrp">   -931.39598856 </i>
   <i name="e_0_energy">     -0.00000000 </i>
  </energy>
  <time name="totalsc">  842.98  850.76</time>
  <eigenvalues>
   <array>
    <dimension dim="1">band</dimension>
    <dimension dim="2">kpoint</dimension>
    <dimension dim="3">spin</dimension>
    <field>eigene</field>
    <field>occ</field>
    <set>
     <set comment="spin 1">
      <set comment="kpoint 1">
       <r>  -36.4411    1.0000 </r>
       <r>  -36.0845    1.0000 </r>
       <r>  -35.8706    1.0000 </r>
       <r>  -35.7100    1.0000 </r>
       <r>  -35.2113    1.0000 </r>
       <r>  -34.9618    1.0000 </r>
       <r>  -34.8720    1.0000 </r>
       <r>  -34.7696    1.0000 </r>
       <r>  -34.7419    1.0000 </r>
       <r>  -34.6821    1.0000 </r>
       <r>  -34.5883    1.0000 </r>
       <r>  -34.5782    1.0000 </r>
       <r>  -34.4017    1.0000 </r>
       <r>  -34.2566    1.0000 </r>
       <r>  -34.1559    1.0000 </r>
       <r>  -34.1000    1.0000 </r>
       <r>  -34.0875    1.0000 </r>
       <r>  -34.0604    1.0000 </r>
       <r>  -34.0589    1.0000 </r>
       <r>  -34.0518    1.0000 </r>
       <r>  -34.0048    1.0000 </r>
       <r>  -33.9120    1.0000 </r>
       <r>  -33.8691    1.0000 </r>
       <r>  -33.7063    1.0000 </r>
       <r>  -33.3169    1.0000 </r>
       <r>  -32.9397    1.0000 </r>
       <r>  -32.8988    1.0000 </r>
       <r>  -18.1256    1.0000 </r>
       <r>  -17.7188    1.0000 </r>
       <r>  -17.6549    1.0000 </r>
       <r>  -17.6335    1.0000 </r>
       <r>  -17.5807    1.0000 </r>
       <r>  -17.4888    1.0000 </r>
       <r>  -17.4713    1.0000 </r>
       <r>  -17.4265    1.0000 </r>
[...]
       <r>     5.7410     0.0000   864.0000 </r>
       <r>     5.9151     0.0000   864.0000 </r>
       <r>     6.0891     0.0000   864.0000 </r>
       <r>     6.2632     0.0000   864.0000 </r>
       <r>     6.4372     0.0000   864.0000 </r>
       <r>     6.6113     0.8704   864.1515 </r>
       <r>     6.7853     0.7642   864.2845 </r>
       <r>     6.9593     5.3882   865.2223 </r>
       <r>     7.1334    11.9213   867.2971 </r>
       <r>     7.3074    11.9849   869.3830 </r>
       <r>     7.4815    25.2262   873.7735 </r>
       <r>     7.6555     7.4910   875.0773 </r>
       <r>     7.8296    16.3051   877.9151 </r>
       <r>     8.0036    14.4167   880.4243 </r>
       <r>     8.1777    19.9908   883.9035 </r>
       <r>     8.3517    21.6765   887.6762 </r>
       <r>     8.5258    23.7413   891.8083 </r>
       <r>     8.6998    46.4418   899.8912 </r>
       <r>     8.8738    48.4366   908.3214 </r>
       <r>     9.0479    49.9734   917.0190 </r>
       <r>     9.2219    50.2758   925.7692 </r>
       <r>     9.3960    54.1361   935.1913 </r>
       <r>     9.5700    52.6164   944.3489 </r>
       <r>     9.7441    61.1971   955.0000 </r>
       <r>     9.9181    62.5701   965.8900 </r>
       <r>    10.0922    62.5050   976.7686 </r>
       <r>    10.2662    64.8007   988.0469 </r>
       <r>    10.4402    66.1242   999.5554 </r>
       <r>    10.6143    70.8868  1011.8929 </r>
       <r>    10.7883    77.7763  1025.4295 </r>
       <r>    10.9624    68.8352  1037.4099 </r>
       <r>    11.1364    14.8803  1039.9997 </r>
       <r>    11.3105     0.0015  1040.0000 </r>
       <r>    11.4845     0.0000  1040.0000 </r>
       <r>    11.6586     0.0000  1040.0000 </r>
       <r>    11.8326     0.0000  1040.0000 </r>
       <r>    12.0066     0.0000  1040.0000 </r>
       <r>    12.1807     0.0000  1040.0000 </r>
       <r>    12.3547     0.0000  1040.0000 </r>
       <r>    12.5288     0.0000  1040.0000 </r>
       <r>    12.7028     0.0000  1040.0000 </r>
       <r>    12.8769     0.0000  1040.0000 </r>
       <r>    13.0509     0.0000  1040.0000 </r>
       <r>    13.2250     0.0000  1040.0000 </r>
       <r>    13.3990     0.0000  1040.0000 </r>
      </set>
     </set>
    </array>
   </total>
  </dos>
 </calculation>
 <structure name="finalpos" >
  <crystal>
   <varray name="basis" >
    <v>      11.62817333       0.00000000       0.00000000 </v>
    <v>       0.00000000      11.62817333       0.00000000 </v>
    <v>       0.00000000       0.00000000      11.62817333 </v>
   </varray>
   <i name="volume">   1572.29665425 </i>
   <varray name="rec_basis" >
    <v>       0.08599803       0.00000000       0.00000000 </v>
    <v>       0.00000000       0.08599803       0.00000000 </v>
    <v>       0.00000000       0.00000000       0.08599803 </v>
   </varray>
  </crystal>
  <varray name="positions" >
   <v>       0.90729783       0.35797201       0.58745648 </v>
   <v>       0.92352315       0.08685078       0.74416879 </v>
   <v>       0.65507790       0.43343072       0.06276568 </v>
   <v>       0.36016671       0.96434199       0.39861949 </v>
   <v>       0.64269934       0.18514731       0.81474836 </v>
   <v>       0.99820703       0.92231566       0.25269927 </v>
   <v>       0.27368662       0.71277693       0.68261314 </v>
   <v>       0.58227950       0.74539337       0.58069574 </v>
   <v>       0.20271160       0.76156246       0.09941313 </v>
   <v>       0.83362602       0.79371326       0.04073078 </v>
   <v>       0.41642972       0.94856705       0.17210927 </v>
   <v>       0.16714273       0.97083737       0.65732928 </v>
   <v>       0.99733646       0.77608786       0.75250679 </v>
   <v>       0.87429304       0.87971862       0.55352913 </v>
   <v>       0.88350136       0.65293463       0.43616548 </v>
   <v>       0.34378888       0.33351078       0.03061709 </v>
   <v>       0.33225552       0.63304155       0.31645694 </v>
   <v>       0.67384958       0.99502523       0.35518763 </v>
   <v>       0.40502333       0.11112363       0.89487394 </v>
   <v>       0.48364001       0.23167085       0.55694266 </v>
   <v>       0.95414226       0.55800576       0.89650811 </v>
   <v>       0.37432678       0.85767091       0.85071402 </v>
   <v>       0.14242690       0.22727552       0.25488081 </v>
   <v>       0.62120444       0.51895099       0.38914162 </v>
   <v>       0.07045041       0.28221261       0.96959064 </v>
   <v>       0.64409117       0.44412188       0.66864127 </v>
   <v>       0.89909755       0.05422772       0.03225187 </v>
   <v>       0.16336444       0.51159895       0.68375422 </v>
   <v>       0.73671058       0.21247832       0.49428419 </v>
   <v>       0.82670021       0.31777071       0.91481574 </v>
   <v>       0.11189839       0.50614460       0.41062233 </v>
   <v>       0.51570252       0.43403834       0.87759079 </v>
   <v>       0.95269844       0.08496386       0.44266376 </v>
   <v>       0.40078663       0.62391135       0.88048178 </v>
   <v>       0.49654420       0.22606467       0.24722235 </v>
   <v>       0.48418421       0.65381583       0.12627497 </v>
   <v>       0.20932475       0.28072761       0.75642210 </v>
   <v>       0.86156132       0.59287864       0.18014247 </v>
   <v>       0.19113544       0.20822705       0.50702178 </v>
   <v>       0.63836519       0.91748949       0.99244370 </v>
   <v>       0.81620271       0.60788619       0.64032742 </v>
   <v>       0.07657795       0.95040831       0.93530848 </v>
   <v>       0.83309798       0.39225359       0.31318205 </v>
   <v>       0.13324727       0.77573102       0.44557701 </v>
   <v>       0.34643404       0.36085173       0.35820121 </v>
   <v>       0.11854939       0.53774721       0.11328923 </v>
   <v>       0.69347133       0.93432731       0.73452379 </v>
   <v>       0.67770331       0.16220636       0.10422840 </v>
   <v>       0.88833406       0.24154008       0.21172066 </v>
   <v>       0.48588523       0.99870765       0.63138727 </v>
   <v>       0.59728317       0.74716959       0.31843429 </v>
   <v>       0.21515351       0.04889707       0.07604844 </v>
   <v>       0.69972770       0.64220948       0.86775924 </v>
   <v>       0.40157129       0.53871195       0.56495100 </v>
   <v>       0.86346519       0.97734471       0.38780351 </v>
   <v>       0.50374856       0.64862870       0.96304140 </v>
   <v>       0.79788835       0.34134544       0.18395397 </v>
   <v>       0.60637636       0.27041582       0.16317903 </v>
   <v>       0.53862674       0.55798121       0.57453202 </v>
   <v>       0.01732733       0.02763458       0.55070335 </v>
   <v>       0.77532396       0.22037678       0.01658729 </v>
   <v>       0.12302180       0.40827849       0.79904484 </v>
   <v>       0.12056366       0.07080513       0.95273939 </v>
   <v>       0.98833156       0.20057879       0.12084288 </v>
   <v>       0.91581798       0.40675857       0.97906689 </v>
   <v>       0.51356347       0.30707025       0.36765935 </v>
   <v>       0.36695954       0.92449003       0.62827630 </v>
   <v>       0.67453783       0.64894757       0.71903229 </v>
   <v>       0.72168543       0.94555877       0.86454955 </v>
   <v>       0.66966950       0.26566371       0.60527973 </v>
   <v>       0.82758373       0.71644684       0.84410456 </v>
   <v>       0.15096440       0.87860932       0.85398085 </v>
   <v>       0.51481516       0.33971802       0.76537842 </v>
   <v>       0.91706884       0.22422043       0.86351570 </v>
   <v>       0.99600989       0.12569462       0.31204811 </v>
   <v>       0.12273959       0.63437836       0.75634216 </v>
   <v>       0.70940659       0.85313979       0.62710927 </v>
   <v>       0.72181909       0.91711050       0.11235081 </v>
   <v>       0.96368651       0.49116335       0.41340347 </v>
   <v>       0.55077384       0.91639335       0.72764134 </v>
   <v>       0.64355842       0.16146565       0.40683882 </v>
   <v>       0.28554966       0.70195574       0.92691052 </v>
   <v>       0.90643513       0.71776700       0.20368277 </v>
   <v>       0.11552009       0.80696602       0.57990263 </v>
   <v>       0.53502781       0.87994568       0.33473238 </v>
   <v>       0.51247189       0.02474015       0.50343484 </v>
   <v>       0.50364324       0.66095693       0.37427764 </v>
   <v>       0.75932070       0.32887905       0.80719207 </v>
   <v>       0.25150215       0.23728160       0.88224664 </v>
   <v>       0.36348243       0.42967427       0.48476106 </v>
   <v>       0.48081104       0.13040243       0.71819620 </v>
   <v>       0.59657523       0.10209115       0.00591109 </v>
   <v>       0.89731015       0.71771415       0.60892026 </v>
   <v>       0.18245312       0.41642105       0.07043562 </v>
   <v>       0.74153843       0.05742254       0.68170432 </v>
   <v>       0.28204942       0.16611728       0.11888992 </v>
   <v>       0.52548708       0.34278488       0.96490677 </v>
   <v>       0.79101406       0.34717608       0.42823954 </v>
   <v>       0.26816247       0.24032474       0.63119787 </v>
   <v>       0.18791442       0.99099690       0.20794212 </v>
   <v>       0.29438907       0.49014516       0.64927975 </v>
   <v>       0.20232459       0.61228304       0.20148578 </v>
   <v>       0.87094335       0.51842667       0.73457933 </v>
   <v>       0.03761677       0.89085478       0.06541513 </v>
   <v>       0.46788239       0.51980514       0.13156444 </v>
   <v>       0.70796539       0.71150629       0.40650500 </v>
   <v>       0.38328645       0.48647897       0.90192947 </v>
   <v>       0.01508577       0.79037600       0.39034914 </v>
   <v>       0.97673781       0.50308155       0.14615282 </v>
   <v>       0.63019709       0.51501822       0.87966356 </v>
   <v>       0.78106286       0.58929132       0.06685298 </v>
   <v>       0.06535771       0.25111157       0.48269869 </v>
   <v>       0.12215575       0.48570382       0.55737433 </v>
   <v>       0.21602127       0.43626048       0.35157068 </v>
   <v>       0.15570232       0.62911710       0.42304953 </v>
   <v>       0.76230590       0.13851907       0.20568055 </v>
   <v>       0.47863634       0.10177289       0.27828244 </v>
   <v>       0.49860182       0.91430369       0.98217160 </v>
   <v>       0.09488379       0.14743487       0.73986046 </v>
   <v>       0.94708153       0.94951907       0.86470935 </v>
   <v>       0.08824288       0.64569518       0.01632555 </v>
   <v>       0.22051056       0.07070062       0.46315800 </v>
   <v>       0.28623800       0.95573391       0.00440071 </v>
   <v>       0.37687583       0.33052336       0.22643705 </v>
   <v>       0.44100638       0.71175585       0.77148689 </v>
   <v>       0.77230415       0.53390864       0.53610163 </v>
   <v>       0.76696111       0.52414189       0.26387626 </v>
   <v>       0.33913965       0.65294036       0.53020114 </v>
   <v>       0.85540552       0.15856469       0.53019592 </v>
   <v>       0.37602734       0.73450330       0.16831643 </v>
   <v>       0.64891527       0.76847215       0.97084378 </v>
   <v>       0.61277157       0.71123156       0.18844798 </v>
   <v>       0.95681157       0.32742767       0.29035789 </v>
   <v>       0.28522662       0.23993086       0.39737164 </v>
   <v>       0.26251276       0.79992548       0.40996283 </v>
  </varray>
  <varray name="velocities" >
   <v>       0.00000000       0.00000000       0.00000000 </v>
   <v>       0.00000000       0.00000000       0.00000000 </v>
   <v>       0.00000000       0.00000000       0.00000000 </v>
   <v>       0.00000000       0.00000000       0.00000000 </v>
   <v>       0.00000000       0.00000000       0.00000000 </v>
   <v>       0.00000000       0.00000000       0.00000000 </v>
   <v>       0.00000000       0.00000000       0.00000000 </v>
   <v>       0.00000000       0.00000000       0.00000000 </v>
   <v>       0.00000000       0.00000000       0.00000000 </v>
   <v>       0.00000000       0.00000000       0.00000000 </v>
   <v>       0.00000000       0.00000000       0.00000000 </v>
   <v>       0.00000000       0.00000000       0.00000000 </v>
   <v>       0.00000000       0.00000000       0.00000000 </v>
   <v>       0.00000000       0.00000000       0.00000000 </v>
   <v>       0.00000000       0.00000000       0.00000000 </v>
   <v>       0.00000000       0.00000000       0.00000000 </v>
   <v>       0.00000000       0.00000000       0.00000000 </v>
   <v>       0.00000000       0.00000000       0.00000000 </v>
   <v>       0.00000000       0.00000000       0.00000000 </v>
   <v>       0.00000000       0.00000000       0.00000000 </v>
   <v>       0.00000000       0.00000000       0.00000000 </v>
   <v>       0.00000000       0.00000000       0.00000000 </v>
   <v>       0.00000000       0.00000000       0.00000000 </v>
   <v>       0.00000000       0.00000000       0.00000000 </v>
   <v>       0.00000000       0.00000000       0.00000000 </v>
   <v>       0.00000000       0.00000000       0.00000000 </v>
   <v>       0.00000000       0.00000000       0.00000000 </v>
   <v>       0.00000000       0.00000000       0.00000000 </v>
   <v>       0.00000000       0.00000000       0.00000000 </v>
   <v>       0.00000000       0.00000000       0.00000000 </v>
   <v>       0.00000000       0.00000000       0.00000000 </v>
   <v>       0.00000000       0.00000000       0.00000000 </v>
   <v>       0.00000000       0.00000000       0.00000000 </v>
   <v>       0.00000000       0.00000000       0.00000000 </v>
   <v>       0.00000000       0.00000000       0.00000000 </v>
   <v>       0.00000000       0.00000000       0.00000000 </v>
   <v>       0.00000000       0.00000000       0.00000000 </v>
   <v>       0.00000000       0.00000000       0.00000000 </v>
   <v>       0.00000000       0.00000000       0.00000000 </v>
   <v>       0.00000000       0.00000000       0.00000000 </v>
   <v>       0.00000000       0.00000000       0.00000000 </v>
   <v>       0.00000000       0.00000000       0.00000000 </v>
   <v>       0.00000000       0.00000000       0.00000000 </v>
   <v>       0.00000000       0.00000000       0.00000000 </v>
   <v>       0.00000000       0.00000000       0.00000000 </v>
   <v>       0.00000000       0.00000000       0.00000000 </v>
   <v>       0.00000000       0.00000000       0.00000000 </v>
   <v>       0.00000000       0.00000000       0.00000000 </v>
   <v>       0.00000000       0.00000000       0.00000000 </v>
   <v>       0.00000000       0.00000000       0.00000000 </v>
   <v>       0.00000000       0.00000000       0.00000000 </v>
   <v>       0.00000000       0.00000000       0.00000000 </v>
   <v>       0.00000000       0.00000000       0.00000000 </v>
   <v>       0.00000000       0.00000000       0.00000000 </v>
   <v>       0.00000000       0.00000000       0.00000000 </v>
   <v>       0.00000000       0.00000000       0.00000000 </v>
   <v>       0.00000000       0.00000000       0.00000000 </v>
   <v>       0.00000000       0.00000000       0.00000000 </v>
   <v>       0.00000000       0.00000000       0.00000000 </v>
   <v>       0.00000000       0.00000000       0.00000000 </v>
   <v>       0.00000000       0.00000000       0.00000000 </v>
   <v>       0.00000000       0.00000000       0.00000000 </v>
   <v>       0.00000000       0.00000000       0.00000000 </v>
   <v>       0.00000000       0.00000000       0.00000000 </v>
   <v>       0.00000000       0.00000000       0.00000000 </v>
   <v>       0.00000000       0.00000000       0.00000000 </v>
   <v>       0.00000000       0.00000000       0.00000000 </v>
   <v>       0.00000000       0.00000000       0.00000000 </v>
   <v>       0.00000000       0.00000000       0.00000000 </v>
   <v>       0.00000000       0.00000000       0.00000000 </v>
   <v>       0.00000000       0.00000000       0.00000000 </v>
   <v>       0.00000000       0.00000000       0.00000000 </v>
   <v>       0.00000000       0.00000000       0.00000000 </v>
   <v>       0.00000000       0.00000000       0.00000000 </v>
   <v>       0.00000000       0.00000000       0.00000000 </v>
   <v>       0.00000000       0.00000000       0.00000000 </v>
   <v>       0.00000000       0.00000000       0.00000000 </v>
   <v>       0.00000000       0.00000000       0.00000000 </v>
   <v>       0.00000000       0.00000000       0.00000000 </v>
   <v>       0.00000000       0.00000000       0.00000000 </v>
   <v>       0.00000000       0.00000000       0.00000000 </v>
   <v>       0.00000000       0.00000000       0.00000000 </v>
   <v>       0.00000000       0.00000000       0.00000000 </v>
   <v>       0.00000000       0.00000000       0.00000000 </v>
   <v>       0.00000000       0.00000000       0.00000000 </v>
   <v>       0.00000000       0.00000000       0.00000000 </v>
   <v>       0.00000000       0.00000000       0.00000000 </v>
   <v>       0.00000000       0.00000000       0.00000000 </v>
   <v>       0.00000000       0.00000000       0.00000000 </v>
   <v>       0.00000000       0.00000000       0.00000000 </v>
   <v>       0.00000000       0.00000000       0.00000000 </v>
   <v>       0.00000000       0.00000000       0.00000000 </v>
   <v>       0.00000000       0.00000000       0.00000000 </v>
   <v>       0.00000000       0.00000000       0.00000000 </v>
   <v>       0.00000000       0.00000000       0.00000000 </v>
   <v>       0.00000000       0.00000000       0.00000000 </v>
   <v>       0.00000000       0.00000000       0.00000000 </v>
   <v>       0.00000000       0.00000000       0.00000000 </v>
   <v>       0.00000000       0.00000000       0.00000000 </v>
   <v>       0.00000000       0.00000000       0.00000000 </v>
   <v>       0.00000000       0.00000000       0.00000000 </v>
   <v>       0.00000000       0.00000000       0.00000000 </v>
   <v>       0.00000000       0.00000000       0.00000000 </v>
   <v>       0.00000000       0.00000000       0.00000000 </v>
   <v>       0.00000000       0.00000000       0.00000000 </v>
   <v>       0.00000000       0.00000000       0.00000000 </v>
   <v>       0.00000000       0.00000000       0.00000000 </v>
   <v>       0.00000000       0.00000000       0.00000000 </v>
   <v>       0.00000000       0.00000000       0.00000000 </v>
   <v>       0.00000000       0.00000000       0.00000000 </v>
   <v>       0.00000000       0.00000000       0.00000000 </v>
   <v>       0.00000000       0.00000000       0.00000000 </v>
   <v>       0.00000000       0.00000000       0.00000000 </v>
   <v>       0.00000000       0.00000000       0.00000000 </v>
   <v>       0.00000000       0.00000000       0.00000000 </v>
   <v>       0.00000000       0.00000000       0.00000000 </v>
   <v>       0.00000000       0.00000000       0.00000000 </v>
   <v>       0.00000000       0.00000000       0.00000000 </v>
   <v>       0.00000000       0.00000000       0.00000000 </v>
   <v>       0.00000000       0.00000000       0.00000000 </v>
   <v>       0.00000000       0.00000000       0.00000000 </v>
   <v>       0.00000000       0.00000000       0.00000000 </v>
   <v>       0.00000000       0.00000000       0.00000000 </v>
   <v>       0.00000000       0.00000000       0.00000000 </v>
   <v>       0.00000000       0.00000000       0.00000000 </v>
   <v>       0.00000000       0.00000000       0.00000000 </v>
   <v>       0.00000000       0.00000000       0.00000000 </v>
   <v>       0.00000000       0.00000000       0.00000000 </v>
   <v>       0.00000000       0.00000000       0.00000000 </v>
   <v>       0.00000000       0.00000000       0.00000000 </v>
   <v>       0.00000000       0.00000000       0.00000000 </v>
   <v>       0.00000000       0.00000000       0.00000000 </v>
   <v>       0.00000000       0.00000000       0.00000000 </v>
   <v>       0.00000000       0.00000000       0.00000000 </v>
   <v>       0.00000000       0.00000000       0.00000000 </v>
  </varray>
 </structure>
</modeling>
