<?xml version="1.0" encoding="ISO-8859-1"?>
<modeling>
 <generator>
  <i name="program" type="string">vasp </i>
  <i name="version" type="string">5.4.4.18Apr17-6-g9f103f2a35  </i>
  <i name="subversion" type="string">(build Oct 31 2019 15:01:46) complex            parallel </i>
  <i name="platform" type="string">LinuxIFC </i>
  <i name="date" type="string">2024 04 29 </i>
  <i name="time" type="string">22:09:12 </i>
 </generator>
 <incar>
  <i type="int" name="ISTART">     0</i>
  <i type="string" name="PREC">a</i>
  <i type="logical" name="ADDGRID"> T  </i>
  <i type="int" name="IBRION">    -1</i>
  <i name="EDIFF">      0.00000100</i>
  <i name="EDIFFG">     -0.01000000</i>
  <i type="int" name="NSW">     1</i>
  <i type="int" name="ISIF">     2</i>
  <i type="int" name="ISYM">     0</i>
  <i name="ENCUT">    600.00000000</i>
  <i name="POTIM">      1.00000000</i>
  <i type="string" name="LREAL">  Auto</i>
  <i type="int" name="ISMEAR">     0</i>
  <i name="SIGMA">      0.05000000</i>
  <i name="KSPACING">      0.30000000</i>
  <i type="logical" name="KGAMMA"> T  </i>
  <i type="logical" name="LWAVE"> F  </i>
  <i type="logical" name="LCHARG"> F  </i>
  <i type="logical" name="LSCALAPACK"> F  </i>
  <v type="int" name="KPOINT_BSE">    -1     0     0     0</v>
 </incar>
 <structure name="primitive_cell" >
  <crystal>
   <varray name="basis" >
    <v>      10.26287559       0.00000000       0.00000000 </v>
    <v>       0.00000000      10.26287559       0.00000000 </v>
    <v>       0.00000000       0.00000000      10.26287559 </v>
   </varray>
   <i name="volume">   1080.95394992 </i>
   <varray name="rec_basis" >
    <v>       0.09743858       0.00000000       0.00000000 </v>
    <v>       0.00000000       0.09743858       0.00000000 </v>
    <v>       0.00000000       0.00000000       0.09743858 </v>
   </varray>
  </crystal>
  <varray name="positions" >
   <v>       0.06233101      -0.05543951      -0.03401945 </v>
   <v>      -0.10309678       0.06852388      -0.05126212 </v>
   <v>       0.10031541       0.00609252       0.17167151 </v>
   <v>       0.23492923      -0.19284589       0.00960144 </v>
   <v>       0.00670400      -0.25765732      -0.13154620 </v>
   <v>       0.28314511       0.02769027      -0.03227121 </v>
   <v>       0.23709313      -0.14004470      -0.18199408 </v>
   <v>       0.02511961      -0.23689197       0.12864686 </v>
   <v>       0.09013773       0.19733920      -0.01934620 </v>
   <v>       0.00142247      -0.10154653      -0.27771731 </v>
   <v>       0.20511775       0.11837639       0.09119662 </v>
   <v>      -0.18413959      -0.10160997      -0.09848590 </v>
   <v>      -0.13628789      -0.06194059       0.13733352 </v>
   <v>       0.05361758       0.13395693      -0.21819555 </v>
   <v>       0.06523664      -0.31982333       0.00707923 </v>
   <v>      -0.01540585      -0.09883541       0.22422985 </v>
   <v>       0.10782394       0.00352320      -0.31463922 </v>
   <v>      -0.12762797      -0.20708151      -0.21203522 </v>
   <v>       0.36216669      -0.11393510      -0.07005507 </v>
   <v>      -0.15655804       0.04109105      -0.22845822 </v>
   <v>      -0.24339454       0.00934354       0.02481031 </v>
   <v>      -0.02650852       0.24415303      -0.09565485 </v>
   <v>      -0.02110957       0.19348524       0.15272257 </v>
   <v>       0.27154987      -0.17412440       0.18535389 </v>
   <v>      -0.15737292      -0.27610441       0.07515152 </v>
   <v>       0.13551572      -0.28780581      -0.30140792 </v>
   <v>       0.25188771       0.21989339      -0.18334545 </v>
   <v>       0.17267367       0.21981312       0.19035012 </v>
   <v>       0.33246904       0.03575547       0.22031642 </v>
   <v>      -0.09194129       0.03077436       0.30626525 </v>
   <v>       0.22870810       0.10565066      -0.35100355 </v>
   <v>       0.22914624      -0.38130534       0.12262832 </v>
   <v>       0.08289807      -0.11492091       0.35917902 </v>
   <v>       0.15302380      -0.44086223      -0.08364590 </v>
   <v>      -0.21043438      -0.32835258      -0.15183183 </v>
   <v>       0.33183534       0.22559164       0.08636823 </v>
   <v>      -0.06905993      -0.31288006      -0.32503908 </v>
   <v>      -0.03983538      -0.43895210       0.07062860 </v>
   <v>       0.13846893      -0.11021597      -0.43366725 </v>
   <v>       0.43961479      -0.03599850      -0.20635191 </v>
   <v>      -0.33489191      -0.11741490       0.07403318 </v>
   <v>       0.47421246      -0.00366985       0.03321138 </v>
   <v>      -0.26654030       0.12021979       0.16145545 </v>
   <v>       0.45434513      -0.21315796      -0.04037514 </v>
   <v>      -0.23164776      -0.15163762      -0.32659934 </v>
   <v>      -0.34358141       0.06736049      -0.08003563 </v>
   <v>      -0.14191287       0.27163583      -0.21738120 </v>
   <v>       0.00746585       0.05374939      -0.44361866 </v>
   <v>      -0.13681061      -0.20160595       0.31715415 </v>
   <v>       0.35472245      -0.07847005      -0.34906640 </v>
   <v>       0.06733736       0.36325118      -0.17161291 </v>
   <v>      -0.10509489       0.35985623      -0.00429805 </v>
   <v>       0.45251183       0.09014751       0.13874504 </v>
   <v>       0.15754009       0.04882483       0.39487880 </v>
   <v>      -0.36838745      -0.17062029      -0.14962089 </v>
   <v>      -0.08890761      -0.46656525      -0.17963507 </v>
   <v>      -0.27673138       0.25909482      -0.01731195 </v>
   <v>       0.46829801       0.16540997      -0.06531556 </v>
   <v>       0.02573437      -0.38088671       0.30000105 </v>
   <v>       0.39302019      -0.39357841      -0.05122850 </v>
   <v>      -0.07216624      -0.13692264      -0.49168699 </v>
   <v>      -0.30845939      -0.07110494       0.27958455 </v>
   <v>       0.02908988       0.29128322      -0.38157622 </v>
   <v>       0.15157085       0.42092135       0.06048317 </v>
   <v>      -0.14975623      -0.40267076       0.24915989 </v>
   <v>       0.30840478       0.37019761      -0.09745326 </v>
   <v>       0.43664233      -0.33653743       0.14596395 </v>
   <v>      -0.17500189       0.18789140      -0.40721046 </v>
   <v>       0.28133635      -0.29843132       0.35494155 </v>
   <v>      -0.35046218       0.04552468      -0.31861213 </v>
   <v>       0.09549467      -0.47052576      -0.33210424 </v>
   <v>       0.47872376      -0.14074580       0.25344478 </v>
   <v>       0.31033610      -0.09566113       0.42064598 </v>
   <v>       0.26623665      -0.29010727      -0.45243455 </v>
   <v>      -0.37271021      -0.33716177       0.02574531 </v>
   <v>       0.18415277      -0.19104592       0.45793215 </v>
   <v>       0.43857907      -0.02242292       0.33412946 </v>
   <v>       0.32380307      -0.41939451       0.24425499 </v>
   <v>       0.00644488       0.40053869       0.22571848 </v>
   <v>       0.06397385      -0.29526709       0.49487171 </v>
   <v>      -0.00253094       0.22678384       0.41231634 </v>
   <v>       0.43701292      -0.30233309      -0.32158065 </v>
   <v>       0.23352485       0.32361598      -0.37061241 </v>
   <v>      -0.35098627      -0.28134214       0.22002633 </v>
   <v>       0.43040583       0.33033547       0.02061896 </v>
   <v>      -0.12131818       0.11314357       0.44124708 </v>
   <v>      -0.23858247       0.17811748       0.34800184 </v>
   <v>       0.43949394       0.16995847      -0.34717641 </v>
   <v>      -0.24434476      -0.31256261       0.33091974 </v>
   <v>       0.20928388       0.43630266      -0.21020009 </v>
   <v>      -0.44277045       0.11646837      -0.18187158 </v>
   <v>      -0.44289465      -0.22267843       0.12545555 </v>
   <v>      -0.13474452       0.46995557       0.15129224 </v>
   <v>       0.31671350       0.20859290      -0.43906506 </v>
   <v>      -0.24139526       0.49034316       0.01398793 </v>
   <v>       0.33400439      -0.47744107      -0.25846406 </v>
   <v>      -0.33323959      -0.08888478      -0.42793351 </v>
   <v>      -0.36870035       0.25112942      -0.22140127 </v>
   <v>      -0.34213977       0.26020200       0.21004410 </v>
   <v>      -0.26359782       0.29765635      -0.34101517 </v>
   <v>       0.10931266       0.35662384       0.35989959 </v>
   <v>       0.19962362       0.48909149       0.28867426 </v>
   <v>      -0.03958542      -0.42804639      -0.46164470 </v>
   <v>      -0.48430378       0.25956042       0.14233792 </v>
   <v>       0.20647433       0.26839072       0.42532123 </v>
   <v>      -0.24006201       0.00848461       0.47446160 </v>
   <v>      -0.46159366       0.09540945       0.26248971 </v>
   <v>      -0.28582500      -0.35787360      -0.38829328 </v>
   <v>       0.37990718       0.28279763       0.31710605 </v>
   <v>      -0.24690885       0.37757776       0.20440012 </v>
   <v>       0.38218067       0.11944843       0.42429626 </v>
   <v>      -0.37293705      -0.46412476      -0.08584942 </v>
   <v>      -0.43130332      -0.18853773      -0.37332242 </v>
   <v>       0.41254155       0.46161414       0.11025580 </v>
   <v>      -0.14396936      -0.39474367       0.44192610 </v>
   <v>      -0.43861158      -0.38235183      -0.21594833 </v>
   <v>      -0.29410715      -0.22543024       0.47278294 </v>
   <v>      -0.13629957       0.42640188      -0.40464421 </v>
   <v>      -0.32910073       0.47695115      -0.23029044 </v>
   <v>       0.25217389      -0.47676900      -0.47774505 </v>
   <v>       0.49714345      -0.24471381       0.41008521 </v>
   <v>      -0.49925810       0.35928422      -0.27827124 </v>
   <v>      -0.39480379      -0.47379833       0.17265662 </v>
   <v>      -0.45666658      -0.06363383       0.41203746 </v>
   <v>      -0.44100778       0.37861520      -0.04959826 </v>
   <v>      -0.18725553       0.36246315       0.41879878 </v>
   <v>       0.42986719       0.49251100       0.30485285 </v>
   <v>      -0.31351075      -0.46300334       0.35116706 </v>
   <v>       0.03185500       0.45108618       0.44264740 </v>
   <v>       0.41945386       0.36075404      -0.47184680 </v>
   <v>      -0.41222031       0.15112348       0.48828084 </v>
   <v>       0.47999504      -0.43640622      -0.47922823 </v>
   <v>      -0.41749109       0.34280002       0.34007840 </v>
   <v>      -0.35634962       0.40241379      -0.44102724 </v>
   <v>      -0.46475141       0.46430387       0.42355493 </v>
  </varray>
 </structure>
 <varray name="primitive_index" >
  <v type="int" >        1 </v>
  <v type="int" >      123 </v>
  <v type="int" >       82 </v>
  <v type="int" >      105 </v>
  <v type="int" >      127 </v>
  <v type="int" >       68 </v>
  <v type="int" >       64 </v>
  <v type="int" >      107 </v>
  <v type="int" >       97 </v>
  <v type="int" >      133 </v>
  <v type="int" >       34 </v>
  <v type="int" >       70 </v>
  <v type="int" >       75 </v>
  <v type="int" >       85 </v>
  <v type="int" >       54 </v>
  <v type="int" >       39 </v>
  <v type="int" >       43 </v>
  <v type="int" >       29 </v>
  <v type="int" >       30 </v>
  <v type="int" >       17 </v>
  <v type="int" >       47 </v>
  <v type="int" >       49 </v>
  <v type="int" >       18 </v>
  <v type="int" >        5 </v>
  <v type="int" >        7 </v>
  <v type="int" >       10 </v>
  <v type="int" >       19 </v>
  <v type="int" >       78 </v>
  <v type="int" >       93 </v>
  <v type="int" >      135 </v>
  <v type="int" >      110 </v>
  <v type="int" >      109 </v>
  <v type="int" >       77 </v>
  <v type="int" >      113 </v>
  <v type="int" >       79 </v>
  <v type="int" >      102 </v>
  <v type="int" >       76 </v>
  <v type="int" >       73 </v>
  <v type="int" >       60 </v>
  <v type="int" >       62 </v>
  <v type="int" >      116 </v>
  <v type="int" >      100 </v>
  <v type="int" >       95 </v>
  <v type="int" >       69 </v>
  <v type="int" >       74 </v>
  <v type="int" >       87 </v>
  <v type="int" >      115 </v>
  <v type="int" >       56 </v>
  <v type="int" >       66 </v>
  <v type="int" >       16 </v>
  <v type="int" >      122 </v>
  <v type="int" >      106 </v>
  <v type="int" >       36 </v>
  <v type="int" >       27 </v>
  <v type="int" >       25 </v>
  <v type="int" >       14 </v>
  <v type="int" >        6 </v>
  <v type="int" >       80 </v>
  <v type="int" >        4 </v>
  <v type="int" >       26 </v>
  <v type="int" >       11 </v>
  <v type="int" >       21 </v>
  <v type="int" >       20 </v>
  <v type="int" >        2 </v>
  <v type="int" >       88 </v>
  <v type="int" >       72 </v>
  <v type="int" >       58 </v>
  <v type="int" >      118 </v>
  <v type="int" >       96 </v>
  <v type="int" >       63 </v>
  <v type="int" >      112 </v>
  <v type="int" >       90 </v>
  <v type="int" >       81 </v>
  <v type="int" >       59 </v>
  <v type="int" >       83 </v>
  <v type="int" >       33 </v>
  <v type="int" >       53 </v>
  <v type="int" >       46 </v>
  <v type="int" >       98 </v>
  <v type="int" >       86 </v>
  <v type="int" >      114 </v>
  <v type="int" >       24 </v>
  <v type="int" >      104 </v>
  <v type="int" >       65 </v>
  <v type="int" >       51 </v>
  <v type="int" >       40 </v>
  <v type="int" >       91 </v>
  <v type="int" >       99 </v>
  <v type="int" >       48 </v>
  <v type="int" >       35 </v>
  <v type="int" >       31 </v>
  <v type="int" >       42 </v>
  <v type="int" >       38 </v>
  <v type="int" >       32 </v>
  <v type="int" >      108 </v>
  <v type="int" >      103 </v>
  <v type="int" >       28 </v>
  <v type="int" >      128 </v>
  <v type="int" >       52 </v>
  <v type="int" >       44 </v>
  <v type="int" >       45 </v>
  <v type="int" >      119 </v>
  <v type="int" >       50 </v>
  <v type="int" >       92 </v>
  <v type="int" >      124 </v>
  <v type="int" >       94 </v>
  <v type="int" >      126 </v>
  <v type="int" >        8 </v>
  <v type="int" >       22 </v>
  <v type="int" >       84 </v>
  <v type="int" >      101 </v>
  <v type="int" >       41 </v>
  <v type="int" >      121 </v>
  <v type="int" >       71 </v>
  <v type="int" >      130 </v>
  <v type="int" >       61 </v>
  <v type="int" >      134 </v>
  <v type="int" >       67 </v>
  <v type="int" >       89 </v>
  <v type="int" >        3 </v>
  <v type="int" >       13 </v>
  <v type="int" >       15 </v>
  <v type="int" >       23 </v>
  <v type="int" >      129 </v>
  <v type="int" >      125 </v>
  <v type="int" >        9 </v>
  <v type="int" >       55 </v>
  <v type="int" >      131 </v>
  <v type="int" >      111 </v>
  <v type="int" >      120 </v>
  <v type="int" >       12 </v>
  <v type="int" >       57 </v>
  <v type="int" >      132 </v>
  <v type="int" >      117 </v>
  <v type="int" >       37 </v>
 </varray>
 <kpoints>
  <generation param="Gamma">
   <v type="int" name="divisions">       3        3        3 </v>
   <v name="usershift">      0.00000000       0.00000000       0.00000000 </v>
   <v name="genvec1">      0.33333333       0.00000000       0.00000000 </v>
   <v name="genvec2">      0.00000000       0.33333333       0.00000000 </v>
   <v name="genvec3">      0.00000000       0.00000000       0.33333333 </v>
   <v name="shift">      0.00000000       0.00000000       0.00000000 </v>
  </generation>
  <varray name="kpointlist" >
   <v>       0.00000000       0.00000000       0.00000000 </v>
   <v>       0.33333333       0.00000000       0.00000000 </v>
   <v>       0.00000000       0.33333333       0.00000000 </v>
   <v>       0.33333333       0.33333333       0.00000000 </v>
   <v>      -0.33333333       0.33333333       0.00000000 </v>
   <v>       0.00000000       0.00000000       0.33333333 </v>
   <v>       0.33333333       0.00000000       0.33333333 </v>
   <v>      -0.33333333       0.00000000       0.33333333 </v>
   <v>       0.00000000       0.33333333       0.33333333 </v>
   <v>       0.33333333       0.33333333       0.33333333 </v>
   <v>      -0.33333333       0.33333333       0.33333333 </v>
   <v>       0.00000000      -0.33333333       0.33333333 </v>
   <v>       0.33333333      -0.33333333       0.33333333 </v>
   <v>      -0.33333333      -0.33333333       0.33333333 </v>
  </varray>
  <varray name="weights" >
   <v>       0.03703704 </v>
   <v>       0.07407407 </v>
   <v>       0.07407407 </v>
   <v>       0.07407407 </v>
   <v>       0.07407407 </v>
   <v>       0.07407407 </v>
   <v>       0.07407407 </v>
   <v>       0.07407407 </v>
   <v>       0.07407407 </v>
   <v>       0.07407407 </v>
   <v>       0.07407407 </v>
   <v>       0.07407407 </v>
   <v>       0.07407407 </v>
   <v>       0.07407407 </v>
  </varray>
 </kpoints>
 <parameters>
  <separator name="general" >
   <i type="string" name="SYSTEM">unknown system</i>
   <i type="logical" name="LCOMPAT"> F  </i>
  </separator>
  <separator name="electronic" >
   <i type="string" name="PREC">a</i>
   <i name="ENMAX">    600.00000000</i>
   <i name="ENAUG">    605.39200000</i>
   <i name="EDIFF">      0.00000100</i>
   <i type="int" name="IALGO">    38</i>
   <i type="int" name="IWAVPR">    10</i>
   <i type="int" name="NBANDS">   520</i>
   <i name="NELECT">    864.00000000</i>
   <i type="int" name="TURBO">     0</i>
   <i type="int" name="IRESTART">     0</i>
   <i type="int" name="NREBOOT">     0</i>
   <i type="int" name="NMIN">     0</i>
   <i name="EREF">      0.00000000</i>
   <separator name="electronic smearing" >
    <i type="int" name="ISMEAR">     0</i>
    <i name="SIGMA">      0.05000000</i>
    <i name="KSPACING">      0.30000000</i>
    <i type="logical" name="KGAMMA"> T  </i>
   </separator>
   <separator name="electronic projectors" >
    <i type="logical" name="LREAL"> T  </i>
    <v name="ROPT">     -0.00025000     -0.00025000     -0.00025000</v>
    <i type="int" name="LMAXPAW">  -100</i>
    <i type="int" name="LMAXMIX">     2</i>
    <i type="logical" name="NLSPLINE"> F  </i>
   </separator>
   <separator name="electronic startup" >
    <i type="int" name="ISTART">     0</i>
    <i type="int" name="ICHARG">     2</i>
    <i type="int" name="INIWAV">     1</i>
   </separator>
   <separator name="electronic spin" >
    <i type="int" name="ISPIN">     1</i>
    <i type="logical" name="LNONCOLLINEAR"> F  </i>
    <v name="MAGMOM">      1.00000000      1.00000000      1.00000000      1.00000000      1.00000000      1.00000000      1.00000000      1.00000000      1.00000000      1.00000000      1.00000000      1.00000000      1.00000000      1.00000000      1.00000000      1.00000000      1.00000000      1.00000000      1.00000000      1.00000000
      1.00000000      1.00000000      1.00000000      1.00000000      1.00000000      1.00000000      1.00000000      1.00000000      1.00000000      1.00000000      1.00000000      1.00000000      1.00000000      1.00000000      1.00000000      1.00000000      1.00000000      1.00000000      1.00000000      1.00000000
      1.00000000      1.00000000      1.00000000      1.00000000      1.00000000      1.00000000      1.00000000      1.00000000      1.00000000      1.00000000      1.00000000      1.00000000      1.00000000      1.00000000      1.00000000      1.00000000      1.00000000      1.00000000      1.00000000      1.00000000
      1.00000000      1.00000000      1.00000000      1.00000000      1.00000000      1.00000000      1.00000000      1.00000000      1.00000000      1.00000000      1.00000000      1.00000000      1.00000000      1.00000000      1.00000000      1.00000000      1.00000000      1.00000000      1.00000000      1.00000000
      1.00000000      1.00000000      1.00000000      1.00000000      1.00000000      1.00000000      1.00000000      1.00000000      1.00000000      1.00000000      1.00000000      1.00000000      1.00000000      1.00000000      1.00000000      1.00000000      1.00000000      1.00000000      1.00000000      1.00000000
      1.00000000      1.00000000      1.00000000      1.00000000      1.00000000      1.00000000      1.00000000      1.00000000      1.00000000      1.00000000      1.00000000      1.00000000      1.00000000      1.00000000      1.00000000      1.00000000      1.00000000      1.00000000      1.00000000      1.00000000
      1.00000000      1.00000000      1.00000000      1.00000000      1.00000000      1.00000000      1.00000000      1.00000000      1.00000000      1.00000000      1.00000000      1.00000000      1.00000000      1.00000000      1.00000000</v>
    <i name="NUPDOWN">     -1.00000000</i>
    <i type="logical" name="LSORBIT"> F  </i>
    <v name="SAXIS">      0.00000000      0.00000000      1.00000000</v>
    <i type="logical" name="LSPIRAL"> F  </i>
    <v name="QSPIRAL">      0.00000000      0.00000000      0.00000000</v>
    <i type="logical" name="LZEROZ"> F  </i>
   </separator>
   <separator name="electronic exchange-correlation" >
    <i type="logical" name="LASPH"> F  </i>
    <i type="logical" name="LMETAGGA"> F  </i>
   </separator>
   <separator name="electronic convergence" >
    <i type="int" name="NELM">    60</i>
    <i type="int" name="NELMDL">    -5</i>
    <i type="int" name="NELMIN">     2</i>
    <i name="ENINI">    600.00000000</i>
    <separator name="electronic convergence detail" >
     <i type="logical" name="LDIAG"> T  </i>
     <i type="logical" name="LSUBROT"> F  </i>
     <i name="WEIMIN">      0.00000000</i>
     <i name="EBREAK">      0.00000000</i>
     <i name="DEPER">      0.30000000</i>
     <i type="int" name="NRMM">     4</i>
     <i name="TIME">      0.40000000</i>
    </separator>
   </separator>
   <separator name="electronic mixer" >
    <i name="AMIX">      0.40000000</i>
    <i name="BMIX">      1.00000000</i>
    <i name="AMIN">      0.10000000</i>
    <i name="AMIX_MAG">      1.60000000</i>
    <i name="BMIX_MAG">      1.00000000</i>
    <separator name="electronic mixer details" >
     <i type="int" name="IMIX">     4</i>
     <i type="logical" name="MIXFIRST"> F  </i>
     <i type="int" name="MAXMIX">   -45</i>
     <i name="WC">    100.00000000</i>
     <i type="int" name="INIMIX">     1</i>
     <i type="int" name="MIXPRE">     1</i>
     <i type="int" name="MREMOVE">     5</i>
    </separator>
   </separator>
   <separator name="electronic dipolcorrection" >
    <i type="logical" name="LDIPOL"> F  </i>
    <i type="logical" name="LMONO"> F  </i>
    <i type="int" name="IDIPOL">     0</i>
    <i name="EPSILON">      1.00000000</i>
    <v name="DIPOL">   -100.00000000   -100.00000000   -100.00000000</v>
    <i name="EFIELD">      0.00000000</i>
   </separator>
  </separator>
  <separator name="grids" >
   <i type="int" name="NGX">    84</i>
   <i type="int" name="NGY">    84</i>
   <i type="int" name="NGZ">    84</i>
   <i type="int" name="NGXF">   168</i>
   <i type="int" name="NGYF">   168</i>
   <i type="int" name="NGZF">   168</i>
   <i type="logical" name="ADDGRID"> T  </i>
  </separator>
  <separator name="ionic" >
   <i type="int" name="NSW">     1</i>
   <i type="int" name="IBRION">    -1</i>
   <i type="int" name="MDALGO">     0</i>
   <i type="int" name="ISIF">     2</i>
   <i name="PSTRESS">      0.00000000</i>
   <i name="EDIFFG">     -0.01000000</i>
   <i type="int" name="NFREE">     0</i>
   <i name="POTIM">      1.00000000</i>
   <i name="SMASS">     -3.00000000</i>
   <i name="SCALEE">      1.00000000</i>
  </separator>
  <separator name="ionic md" >
   <i name="TEBEG">      0.00010000</i>
   <i name="TEEND">      0.00010000</i>
   <i type="int" name="NBLOCK">     1</i>
   <i type="int" name="KBLOCK">     1</i>
   <i type="int" name="NPACO">   256</i>
   <i name="APACO">     16.00000000</i>
  </separator>
  <separator name="symmetry" >
   <i type="int" name="ISYM">     0</i>
   <i name="SYMPREC">      0.00001000</i>
  </separator>
  <separator name="dos" >
   <i type="int" name="LORBIT">     0</i>
   <v name="RWIGS">     -1.00000000     -1.00000000     -1.00000000</v>
   <i type="int" name="NEDOS">   301</i>
   <i name="EMIN">     10.00000000</i>
   <i name="EMAX">    -10.00000000</i>
   <i name="EFERMI">      0.00000000</i>
  </separator>
  <separator name="writing" >
   <i type="int" name="NWRITE">     2</i>
   <i type="logical" name="LWAVE"> F  </i>
   <i type="logical" name="LDOWNSAMPLE"> F  </i>
   <i type="logical" name="LCHARG"> F  </i>
   <i type="logical" name="LPARD"> F  </i>
   <i type="logical" name="LVTOT"> F  </i>
   <i type="logical" name="LVHAR"> F  </i>
   <i type="logical" name="LELF"> F  </i>
   <i type="logical" name="LOPTICS"> F  </i>
   <v name="STM">      0.00000000      0.00000000      0.00000000      0.00000000      0.00000000      0.00000000      0.00000000</v>
  </separator>
  <separator name="performance" >
   <i type="int" name="NPAR">     4</i>
   <i type="int" name="NSIM">     4</i>
   <i type="int" name="NBLK">    -1</i>
   <i type="logical" name="LPLANE"> T  </i>
   <i type="logical" name="LSCALAPACK"> F  </i>
   <i type="logical" name="LSCAAWARE"> F  </i>
   <i type="logical" name="LSCALU"> F  </i>
   <i type="logical" name="LASYNC"> F  </i>
   <i type="logical" name="LORBITALREAL"> F  </i>
  </separator>
  <separator name="miscellaneous" >
   <i type="int" name="IDIOT">     3</i>
   <i type="int" name="ISPECIAL">     0</i>
   <i type="logical" name="LMUSIC"> F  </i>
   <v name="POMASS">     40.07800000     28.08500000     16.00000000</v>
   <v name="DARWINR">      0.00000000      0.00000000      0.00000000</v>
   <v name="DARWINV">      1.00000000      1.00000000      1.00000000</v>
   <i type="logical" name="LCORR"> T  </i>
  </separator>
  <i type="logical" name="GGA_COMPAT"> T  </i>
  <i type="logical" name="LBERRY"> F  </i>
  <i type="int" name="ICORELEVEL">     0</i>
  <i type="logical" name="LDAU"> F  </i>
  <i type="int" name="I_CONSTRAINED_M">     0</i>
  <separator name="electronic exchange-correlation" >
   <i type="string" name="GGA">--</i>
   <i type="int" name="VOSKOWN">     0</i>
   <i type="logical" name="LHFCALC"> F  </i>
   <i type="string" name="PRECFOCK"></i>
   <i type="logical" name="LSYMGRAD"> F  </i>
   <i type="logical" name="LHFONE"> F  </i>
   <i type="logical" name="LRHFCALC"> F  </i>
   <i type="logical" name="LTHOMAS"> F  </i>
   <i type="logical" name="LMODELHF"> F  </i>
   <i name="ENCUT4O">     -1.00000000</i>
   <i type="int" name="EXXOEP">     0</i>
   <i type="int" name="FOURORBIT">     0</i>
   <i name="AEXX">      0.00000000</i>
   <i name="HFALPHA">      0.00000000</i>
   <i name="MCALPHA">      0.00000000</i>
   <i name="ALDAX">      1.00000000</i>
   <i name="AGGAX">      1.00000000</i>
   <i name="ALDAC">      1.00000000</i>
   <i name="AGGAC">      1.00000000</i>
   <i type="int" name="NKREDX">     1</i>
   <i type="int" name="NKREDY">     1</i>
   <i type="int" name="NKREDZ">     1</i>
   <i type="logical" name="SHIFTRED"> F  </i>
   <i type="logical" name="ODDONLY"> F  </i>
   <i type="logical" name="EVENONLY"> F  </i>
   <i type="int" name="LMAXFOCK">     0</i>
   <i type="int" name="NMAXFOCKAE">     0</i>
   <i type="logical" name="LFOCKAEDFT"> F  </i>
   <i name="HFSCREEN">      0.00000000</i>
   <i name="HFSCREENC">      0.00000000</i>
   <i type="int" name="NBANDSGWLOW">     0</i>
  </separator>
  <separator name="vdW DFT" >
   <i type="logical" name="LUSE_VDW"> F  </i>
   <i name="Zab_VDW">     -0.84910000</i>
   <i name="PARAM1">      0.12340000</i>
   <i name="PARAM2">      1.00000000</i>
   <i name="PARAM3">      0.00000000</i>
  </separator>
  <separator name="model GW" >
   <i type="int" name="MODEL_GW">     0</i>
   <i name="MODEL_EPS0">      4.80423978</i>
   <i name="MODEL_ALPHA">      1.00000000</i>
  </separator>
  <separator name="linear response parameters" >
   <i type="logical" name="LEPSILON"> F  </i>
   <i type="logical" name="LRPA"> F  </i>
   <i type="logical" name="LNABLA"> F  </i>
   <i type="logical" name="LVEL"> F  </i>
   <i type="int" name="KINTER">     0</i>
   <i name="CSHIFT">      0.10000000</i>
   <i name="OMEGAMAX">     -1.00000000</i>
   <i name="DEG_THRESHOLD">      0.00200000</i>
   <i name="RTIME">     -0.10000000</i>
   <i name="WPLASMAI">      0.00000000</i>
   <v name="DFIELD">      0.00000000      0.00000000      0.00000000</v>
   <v name="WPLASMA">      0.00000000      0.00000000      0.00000000      0.00000000      0.00000000      0.00000000      0.00000000      0.00000000      0.00000000</v>
  </separator>
  <separator name="orbital magnetization" >
   <i type="logical" name="NUCIND"> F  </i>
   <v name="MAGPOS">      0.00000000      0.00000000      0.00000000</v>
   <i type="logical" name="LNICSALL"> T  </i>
   <i type="logical" name="ORBITALMAG"> F  </i>
   <i type="logical" name="LMAGBLOCH"> F  </i>
   <i type="logical" name="LCHIMAG"> F  </i>
   <i type="logical" name="LGAUGE"> T  </i>
   <i type="int" name="MAGATOM">     0</i>
   <v name="MAGDIPOL">      0.00000000      0.00000000      0.00000000</v>
   <v name="AVECCONST">      0.00000000      0.00000000      0.00000000</v>
  </separator>
  <separator name="response functions" >
   <i type="logical" name="LADDER"> F  </i>
   <i type="logical" name="LRPAFORCE"> F  </i>
   <i type="logical" name="LFXC"> F  </i>
   <i type="logical" name="LHARTREE"> T  </i>
   <i type="int" name="IBSE">     0</i>
   <v type="int" name="KPOINT">    -1     0     0     0</v>
   <i type="logical" name="LTCTE"> F  </i>
   <i type="logical" name="LTETE"> F  </i>
   <i type="logical" name="LTRIPLET"> F  </i>
   <i type="logical" name="LFXCEPS"> F  </i>
   <i type="logical" name="LFXHEG"> F  </i>
   <i type="int" name="NATURALO">     2</i>
   <i type="logical" name="L2ORDER"> F  </i>
   <i type="logical" name="LMP2LT"> F  </i>
   <i type="logical" name="LUSEW"> F  </i>
   <i name="ENCUTGW">     -2.00000000</i>
   <i name="ENCUTGWSOFT">     -2.00000000</i>
   <i name="ENCUTLF">     -1.00000000</i>
   <i type="int" name="LMAXMP2">    -1</i>
   <i name="SCISSOR">      0.00000000</i>
   <i type="int" name="NOMEGA">     0</i>
   <i type="int" name="NOMEGAR">     0</i>
   <i type="int" name="NBANDSGW">    -1</i>
   <i type="int" name="NBANDSO">    -1</i>
   <i type="int" name="NBANDSV">    -1</i>
   <i type="int" name="NELM">     1</i>
   <i type="int" name="NELMHF">     1</i>
   <i type="int" name="DIM">     3</i>
   <i type="int" name="ANTIRES">     0</i>
   <i name="OMEGAMAX">    -30.00000000</i>
   <i name="OMEGAMIN">    -30.00000000</i>
   <i name="OMEGATL">   -200.00000000</i>
   <i type="int" name="OMEGAGRID">   140</i>
   <i name="CSHIFT">     -0.10000000</i>
   <i type="logical" name="SELFENERGY"> F  </i>
   <i type="logical" name="LSPECTRAL"> F  </i>
   <i type="logical" name="LSPECTRALGW"> F  </i>
   <i type="logical" name="LSINGLES"> F  </i>
   <i type="logical" name="LFERMIGW"> F  </i>
   <i type="logical" name="ODDONLYGW"> F  </i>
   <i type="logical" name="EVENONLYGW"> F  </i>
   <i type="int" name="NKREDLFX">     1</i>
   <i type="int" name="NKREDLFY">     1</i>
   <i type="int" name="NKREDLFZ">     1</i>
   <i type="int" name="MAXMEM">  2800</i>
   <i type="int" name="TELESCOPE">     0</i>
   <i type="int" name="TAUPAR">     1</i>
   <i type="int" name="OMEGAPAR">    -1</i>
   <i name="LAMBDA">      1.00000000</i>
  </separator>
  <separator name="External order field" >
   <i name="OFIELD_KAPPA">      0.00000000</i>
   <v name="OFIELD_K">      0.00000000      0.00000000      0.00000000</v>
   <i name="OFIELD_Q6_NEAR">      0.00000000</i>
   <i name="OFIELD_Q6_FAR">      0.00000000</i>
   <i name="OFIELD_A">      0.00000000</i>
  </separator>
 </parameters>
 <atominfo>
  <atoms>     135 </atoms>
  <types>       3 </types>
  <array name="atoms" >
   <dimension dim="1">ion</dimension>
   <field type="string">element</field>
   <field type="int">atomtype</field>
   <set>
    <rc><c>Ca</c><c>   1</c></rc>
    <rc><c>Ca</c><c>   1</c></rc>
    <rc><c>Ca</c><c>   1</c></rc>
    <rc><c>Ca</c><c>   1</c></rc>
    <rc><c>Ca</c><c>   1</c></rc>
    <rc><c>Ca</c><c>   1</c></rc>
    <rc><c>Ca</c><c>   1</c></rc>
    <rc><c>Ca</c><c>   1</c></rc>
    <rc><c>Ca</c><c>   1</c></rc>
    <rc><c>Ca</c><c>   1</c></rc>
    <rc><c>Ca</c><c>   1</c></rc>
    <rc><c>Ca</c><c>   1</c></rc>
    <rc><c>Ca</c><c>   1</c></rc>
    <rc><c>Ca</c><c>   1</c></rc>
    <rc><c>Ca</c><c>   1</c></rc>
    <rc><c>Ca</c><c>   1</c></rc>
    <rc><c>Ca</c><c>   1</c></rc>
    <rc><c>Ca</c><c>   1</c></rc>
    <rc><c>Ca</c><c>   1</c></rc>
    <rc><c>Ca</c><c>   1</c></rc>
    <rc><c>Ca</c><c>   1</c></rc>
    <rc><c>Ca</c><c>   1</c></rc>
    <rc><c>Ca</c><c>   1</c></rc>
    <rc><c>Ca</c><c>   1</c></rc>
    <rc><c>Ca</c><c>   1</c></rc>
    <rc><c>Ca</c><c>   1</c></rc>
    <rc><c>Ca</c><c>   1</c></rc>
    <rc><c>Si</c><c>   2</c></rc>
    <rc><c>Si</c><c>   2</c></rc>
    <rc><c>Si</c><c>   2</c></rc>
    <rc><c>Si</c><c>   2</c></rc>
    <rc><c>Si</c><c>   2</c></rc>
    <rc><c>Si</c><c>   2</c></rc>
    <rc><c>Si</c><c>   2</c></rc>
    <rc><c>Si</c><c>   2</c></rc>
    <rc><c>Si</c><c>   2</c></rc>
    <rc><c>Si</c><c>   2</c></rc>
    <rc><c>Si</c><c>   2</c></rc>
    <rc><c>Si</c><c>   2</c></rc>
    <rc><c>Si</c><c>   2</c></rc>
    <rc><c>Si</c><c>   2</c></rc>
    <rc><c>Si</c><c>   2</c></rc>
    <rc><c>Si</c><c>   2</c></rc>
    <rc><c>Si</c><c>   2</c></rc>
    <rc><c>Si</c><c>   2</c></rc>
    <rc><c>Si</c><c>   2</c></rc>
    <rc><c>Si</c><c>   2</c></rc>
    <rc><c>Si</c><c>   2</c></rc>
    <rc><c>Si</c><c>   2</c></rc>
    <rc><c>Si</c><c>   2</c></rc>
    <rc><c>Si</c><c>   2</c></rc>
    <rc><c>Si</c><c>   2</c></rc>
    <rc><c>Si</c><c>   2</c></rc>
    <rc><c>Si</c><c>   2</c></rc>
    <rc><c>O </c><c>   3</c></rc>
    <rc><c>O </c><c>   3</c></rc>
    <rc><c>O </c><c>   3</c></rc>
    <rc><c>O </c><c>   3</c></rc>
    <rc><c>O </c><c>   3</c></rc>
    <rc><c>O </c><c>   3</c></rc>
    <rc><c>O </c><c>   3</c></rc>
    <rc><c>O </c><c>   3</c></rc>
    <rc><c>O </c><c>   3</c></rc>
    <rc><c>O </c><c>   3</c></rc>
    <rc><c>O </c><c>   3</c></rc>
    <rc><c>O </c><c>   3</c></rc>
    <rc><c>O </c><c>   3</c></rc>
    <rc><c>O </c><c>   3</c></rc>
    <rc><c>O </c><c>   3</c></rc>
    <rc><c>O </c><c>   3</c></rc>
    <rc><c>O </c><c>   3</c></rc>
    <rc><c>O </c><c>   3</c></rc>
    <rc><c>O </c><c>   3</c></rc>
    <rc><c>O </c><c>   3</c></rc>
    <rc><c>O </c><c>   3</c></rc>
    <rc><c>O </c><c>   3</c></rc>
    <rc><c>O </c><c>   3</c></rc>
    <rc><c>O </c><c>   3</c></rc>
    <rc><c>O </c><c>   3</c></rc>
    <rc><c>O </c><c>   3</c></rc>
    <rc><c>O </c><c>   3</c></rc>
    <rc><c>O </c><c>   3</c></rc>
    <rc><c>O </c><c>   3</c></rc>
    <rc><c>O </c><c>   3</c></rc>
    <rc><c>O </c><c>   3</c></rc>
    <rc><c>O </c><c>   3</c></rc>
    <rc><c>O </c><c>   3</c></rc>
    <rc><c>O </c><c>   3</c></rc>
    <rc><c>O </c><c>   3</c></rc>
    <rc><c>O </c><c>   3</c></rc>
    <rc><c>O </c><c>   3</c></rc>
    <rc><c>O </c><c>   3</c></rc>
    <rc><c>O </c><c>   3</c></rc>
    <rc><c>O </c><c>   3</c></rc>
    <rc><c>O </c><c>   3</c></rc>
    <rc><c>O </c><c>   3</c></rc>
    <rc><c>O </c><c>   3</c></rc>
    <rc><c>O </c><c>   3</c></rc>
    <rc><c>O </c><c>   3</c></rc>
    <rc><c>O </c><c>   3</c></rc>
    <rc><c>O </c><c>   3</c></rc>
    <rc><c>O </c><c>   3</c></rc>
    <rc><c>O </c><c>   3</c></rc>
    <rc><c>O </c><c>   3</c></rc>
    <rc><c>O </c><c>   3</c></rc>
    <rc><c>O </c><c>   3</c></rc>
    <rc><c>O </c><c>   3</c></rc>
    <rc><c>O </c><c>   3</c></rc>
    <rc><c>O </c><c>   3</c></rc>
    <rc><c>O </c><c>   3</c></rc>
    <rc><c>O </c><c>   3</c></rc>
    <rc><c>O </c><c>   3</c></rc>
    <rc><c>O </c><c>   3</c></rc>
    <rc><c>O </c><c>   3</c></rc>
    <rc><c>O </c><c>   3</c></rc>
    <rc><c>O </c><c>   3</c></rc>
    <rc><c>O </c><c>   3</c></rc>
    <rc><c>O </c><c>   3</c></rc>
    <rc><c>O </c><c>   3</c></rc>
    <rc><c>O </c><c>   3</c></rc>
    <rc><c>O </c><c>   3</c></rc>
    <rc><c>O </c><c>   3</c></rc>
    <rc><c>O </c><c>   3</c></rc>
    <rc><c>O </c><c>   3</c></rc>
    <rc><c>O </c><c>   3</c></rc>
    <rc><c>O </c><c>   3</c></rc>
    <rc><c>O </c><c>   3</c></rc>
    <rc><c>O </c><c>   3</c></rc>
    <rc><c>O </c><c>   3</c></rc>
    <rc><c>O </c><c>   3</c></rc>
    <rc><c>O </c><c>   3</c></rc>
    <rc><c>O </c><c>   3</c></rc>
    <rc><c>O </c><c>   3</c></rc>
    <rc><c>O </c><c>   3</c></rc>
    <rc><c>O </c><c>   3</c></rc>
   </set>
  </array>
  <array name="atomtypes" >
   <dimension dim="1">type</dimension>
   <field type="int">atomspertype</field>
   <field type="string">element</field>
   <field>mass</field>
   <field>valence</field>
   <field type="string">pseudopotential</field>
   <set>
    <rc><c>  27</c><c>Ca</c><c>     40.07800000</c><c>     10.00000000</c><c>  PAW_PBE Ca_sv 06Sep2000               </c></rc>
    <rc><c>  27</c><c>Si</c><c>     28.08500000</c><c>      4.00000000</c><c>  PAW_PBE Si 05Jan2001                  </c></rc>
    <rc><c>  81</c><c>O </c><c>     16.00000000</c><c>      6.00000000</c><c>  PAW_PBE O 08Apr2002                   </c></rc>
   </set>
  </array>
 </atominfo>
 <structure name="initialpos" >
  <crystal>
   <varray name="basis" >
    <v>      10.26287559       0.00000000       0.00000000 </v>
    <v>       0.00000000      10.26287559       0.00000000 </v>
    <v>       0.00000000       0.00000000      10.26287559 </v>
   </varray>
   <i name="volume">   1080.95394992 </i>
   <varray name="rec_basis" >
    <v>       0.09743858       0.00000000       0.00000000 </v>
    <v>       0.00000000       0.09743858       0.00000000 </v>
    <v>       0.00000000       0.00000000       0.09743858 </v>
   </varray>
  </crystal>
  <varray name="positions" >
   <v>       0.06233101       0.94456049       0.96598055 </v>
   <v>       0.15157085       0.42092135       0.06048317 </v>
   <v>       0.25217389       0.52323100       0.52225495 </v>
   <v>       0.02573437       0.61911329       0.30000105 </v>
   <v>       0.27154987       0.82587560       0.18535389 </v>
   <v>       0.72326862       0.25909482       0.98268805 </v>
   <v>       0.84262708       0.72389559       0.07515152 </v>
   <v>       0.71417500       0.64212640       0.61170672 </v>
   <v>       0.81274447       0.36246315       0.41879878 </v>
   <v>       0.13551572       0.71219419       0.69859208 </v>
   <v>       0.92783376       0.86307736       0.50831301 </v>
   <v>       0.58777969       0.15112348       0.48828084 </v>
   <v>       0.49714345       0.75528619       0.41008521 </v>
   <v>       0.91109239       0.53343475       0.82036493 </v>
   <v>       0.50074190       0.35928422       0.72172876 </v>
   <v>       0.35472245       0.92152995       0.65093360 </v>
   <v>       0.84344196       0.04109105       0.77154178 </v>
   <v>       0.97889043       0.19348524       0.15272257 </v>
   <v>       0.25188771       0.21989339       0.81665455 </v>
   <v>       0.02908988       0.29128322       0.61842378 </v>
   <v>       0.69154061       0.92889506       0.27958455 </v>
   <v>       0.37990718       0.28279763       0.31710605 </v>
   <v>       0.60519621       0.52620167       0.17265662 </v>
   <v>       0.43701292       0.69766691       0.67841935 </v>
   <v>       0.63161255       0.82937971       0.85037911 </v>
   <v>       0.39302019       0.60642159       0.94877150 </v>
   <v>       0.15754009       0.04882483       0.39487880 </v>
   <v>       0.66676041       0.91111522       0.57206649 </v>
   <v>       0.87237203       0.79291849       0.78796478 </v>
   <v>       0.36216669       0.88606490       0.92994493 </v>
   <v>       0.55722955       0.11646837       0.81812842 </v>
   <v>       0.31671350       0.20859290       0.56093494 </v>
   <v>       0.18415277       0.80895408       0.45793215 </v>
   <v>       0.20511775       0.11837639       0.09119662 </v>
   <v>       0.20928388       0.43630266       0.78979991 </v>
   <v>       0.45251183       0.09014751       0.13874504 </v>
   <v>       0.53524859       0.46430387       0.42355493 </v>
   <v>       0.86525548       0.46995557       0.15129224 </v>
   <v>       0.98459415       0.90116459       0.22422985 </v>
   <v>       0.87868182       0.11314357       0.44124708 </v>
   <v>       0.62706295       0.53587524       0.91415058 </v>
   <v>       0.55710535       0.77732157       0.12545555 </v>
   <v>       0.10782394       0.00352320       0.68536078 </v>
   <v>       0.73640218       0.29765635       0.65898483 </v>
   <v>       0.10931266       0.35662384       0.35989959 </v>
   <v>       0.32380307       0.58060549       0.24425499 </v>
   <v>       0.75660546       0.00934354       0.02481031 </v>
   <v>       0.75565524       0.68743739       0.33091974 </v>
   <v>       0.97349148       0.24415303       0.90434515 </v>
   <v>       0.96041458       0.57195361       0.53835530 </v>
   <v>       0.43040583       0.33033547       0.02061896 </v>
   <v>       0.65786023       0.26020200       0.21004410 </v>
   <v>       0.43857907       0.97757708       0.33412946 </v>
   <v>       0.06523664       0.68017667       0.00707923 </v>
   <v>       0.42986719       0.49251100       0.30485285 </v>
   <v>       0.00746585       0.05374939       0.55638134 </v>
   <v>       0.47999504       0.56359378       0.52077177 </v>
   <v>       0.43664233       0.66346257       0.14596395 </v>
   <v>       0.26623665       0.70989273       0.54756545 </v>
   <v>       0.13846893       0.88978403       0.56633275 </v>
   <v>       0.56138842       0.61764817       0.78405167 </v>
   <v>       0.43961479       0.96400150       0.79364809 </v>
   <v>       0.64953782       0.04552468       0.68138787 </v>
   <v>       0.23709313       0.85995530       0.81800592 </v>
   <v>       0.64901373       0.71865786       0.22002633 </v>
   <v>       0.86318939       0.79839405       0.31715415 </v>
   <v>       0.86370043       0.42640188       0.59535579 </v>
   <v>       0.28314511       0.02769027       0.96772879 </v>
   <v>       0.45434513       0.78684204       0.95962486 </v>
   <v>       0.81586041       0.89839003       0.90151410 </v>
   <v>       0.41254155       0.46161414       0.11025580 </v>
   <v>       0.30840478       0.37019761       0.90254674 </v>
   <v>       0.96016462       0.56104790       0.07062860 </v>
   <v>       0.76835224       0.84836238       0.67340066 </v>
   <v>       0.86371211       0.93805941       0.13733352 </v>
   <v>       0.93094007       0.68711994       0.67496092 </v>
   <v>       0.08289807       0.88507909       0.35917902 </v>
   <v>       0.17267367       0.21981312       0.19035012 </v>
   <v>       0.78956562       0.67164742       0.84816817 </v>
   <v>       0.46829801       0.16540997       0.93468444 </v>
   <v>       0.31033610       0.90433887       0.42064598 </v>
   <v>       0.10031541       0.00609252       0.17167151 </v>
   <v>       0.62728979       0.66283823       0.02574531 </v>
   <v>       0.75309115       0.37757776       0.20440012 </v>
   <v>       0.05361758       0.13395693       0.78180445 </v>
   <v>       0.06397385       0.70473291       0.49487171 </v>
   <v>       0.65641859       0.06736049       0.91996437 </v>
   <v>       0.85024377       0.59732924       0.24915989 </v>
   <v>       0.67089927       0.47695115       0.76970956 </v>
   <v>       0.47872376       0.85925420       0.25344478 </v>
   <v>       0.76141753       0.17811748       0.34800184 </v>
   <v>       0.51569622       0.25956042       0.14233792 </v>
   <v>       0.33246904       0.03575547       0.22031642 </v>
   <v>       0.75993799       0.00848461       0.47446160 </v>
   <v>       0.73345970       0.12021979       0.16145545 </v>
   <v>       0.28133635       0.70156868       0.35494155 </v>
   <v>       0.09013773       0.19733920       0.98065380 </v>
   <v>       0.00644488       0.40053869       0.22571848 </v>
   <v>       0.43949394       0.16995847       0.65282359 </v>
   <v>       0.47421246       0.99633015       0.03321138 </v>
   <v>       0.38218067       0.11944843       0.42429626 </v>
   <v>       0.33183534       0.22559164       0.08636823 </v>
   <v>       0.33400439       0.52255893       0.74153594 </v>
   <v>       0.23352485       0.32361598       0.62938759 </v>
   <v>       0.23492923       0.80715411       0.00960144 </v>
   <v>       0.89490511       0.35985623       0.99570195 </v>
   <v>       0.02511961       0.76310803       0.12864686 </v>
   <v>       0.75860474       0.49034316       0.01398793 </v>
   <v>       0.22914624       0.61869466       0.12262832 </v>
   <v>       0.22870810       0.10565066       0.64899645 </v>
   <v>       0.03185500       0.45108618       0.44264740 </v>
   <v>       0.09549467       0.52947424       0.66789576 </v>
   <v>       0.15302380       0.55913777       0.91635410 </v>
   <v>       0.99746906       0.22678384       0.41231634 </v>
   <v>       0.85808713       0.27163583       0.78261880 </v>
   <v>       0.66510809       0.88258510       0.07403318 </v>
   <v>       0.64365038       0.40241379       0.55897276 </v>
   <v>       0.82499811       0.18789140       0.59278954 </v>
   <v>       0.19962362       0.48909149       0.28867426 </v>
   <v>       0.41945386       0.36075404       0.52815320 </v>
   <v>       0.56869668       0.81146227       0.62667758 </v>
   <v>       0.06733736       0.36325118       0.82838709 </v>
   <v>       0.89690322       0.06852388       0.94873788 </v>
   <v>       0.20647433       0.26839072       0.42532123 </v>
   <v>       0.55899222       0.37861520       0.95040174 </v>
   <v>       0.53840634       0.09540945       0.26248971 </v>
   <v>       0.00670400       0.74234268       0.86845380 </v>
   <v>       0.63129965       0.25112942       0.77859873 </v>
   <v>       0.54333342       0.93636617       0.41203746 </v>
   <v>       0.85603064       0.60525633       0.44192610 </v>
   <v>       0.68648925       0.53699666       0.35116706 </v>
   <v>       0.58250891       0.34280002       0.34007840 </v>
   <v>       0.00142247       0.89845347       0.72228269 </v>
   <v>       0.70589285       0.77456976       0.47278294 </v>
   <v>       0.90805871       0.03077436       0.30626525 </v>
  </varray>
  <varray name="velocities" >
   <v>       0.00000000       0.00000000       0.00000000 </v>
   <v>       0.00000000       0.00000000       0.00000000 </v>
   <v>       0.00000000       0.00000000       0.00000000 </v>
   <v>       0.00000000       0.00000000       0.00000000 </v>
   <v>       0.00000000       0.00000000       0.00000000 </v>
   <v>       0.00000000       0.00000000       0.00000000 </v>
   <v>       0.00000000       0.00000000       0.00000000 </v>
   <v>       0.00000000       0.00000000       0.00000000 </v>
   <v>       0.00000000       0.00000000       0.00000000 </v>
   <v>       0.00000000       0.00000000       0.00000000 </v>
   <v>       0.00000000       0.00000000       0.00000000 </v>
   <v>       0.00000000       0.00000000       0.00000000 </v>
   <v>       0.00000000       0.00000000       0.00000000 </v>
   <v>       0.00000000       0.00000000       0.00000000 </v>
   <v>       0.00000000       0.00000000       0.00000000 </v>
   <v>       0.00000000       0.00000000       0.00000000 </v>
   <v>       0.00000000       0.00000000       0.00000000 </v>
   <v>       0.00000000       0.00000000       0.00000000 </v>
   <v>       0.00000000       0.00000000       0.00000000 </v>
   <v>       0.00000000       0.00000000       0.00000000 </v>
   <v>       0.00000000       0.00000000       0.00000000 </v>
   <v>       0.00000000       0.00000000       0.00000000 </v>
   <v>       0.00000000       0.00000000       0.00000000 </v>
   <v>       0.00000000       0.00000000       0.00000000 </v>
   <v>       0.00000000       0.00000000       0.00000000 </v>
   <v>       0.00000000       0.00000000       0.00000000 </v>
   <v>       0.00000000       0.00000000       0.00000000 </v>
   <v>       0.00000000       0.00000000       0.00000000 </v>
   <v>       0.00000000       0.00000000       0.00000000 </v>
   <v>       0.00000000       0.00000000       0.00000000 </v>
   <v>       0.00000000       0.00000000       0.00000000 </v>
   <v>       0.00000000       0.00000000       0.00000000 </v>
   <v>       0.00000000       0.00000000       0.00000000 </v>
   <v>       0.00000000       0.00000000       0.00000000 </v>
   <v>       0.00000000       0.00000000       0.00000000 </v>
   <v>       0.00000000       0.00000000       0.00000000 </v>
   <v>       0.00000000       0.00000000       0.00000000 </v>
   <v>       0.00000000       0.00000000       0.00000000 </v>
   <v>       0.00000000       0.00000000       0.00000000 </v>
   <v>       0.00000000       0.00000000       0.00000000 </v>
   <v>       0.00000000       0.00000000       0.00000000 </v>
   <v>       0.00000000       0.00000000       0.00000000 </v>
   <v>       0.00000000       0.00000000       0.00000000 </v>
   <v>       0.00000000       0.00000000       0.00000000 </v>
   <v>       0.00000000       0.00000000       0.00000000 </v>
   <v>       0.00000000       0.00000000       0.00000000 </v>
   <v>       0.00000000       0.00000000       0.00000000 </v>
   <v>       0.00000000       0.00000000       0.00000000 </v>
   <v>       0.00000000       0.00000000       0.00000000 </v>
   <v>       0.00000000       0.00000000       0.00000000 </v>
   <v>       0.00000000       0.00000000       0.00000000 </v>
   <v>       0.00000000       0.00000000       0.00000000 </v>
   <v>       0.00000000       0.00000000       0.00000000 </v>
   <v>       0.00000000       0.00000000       0.00000000 </v>
   <v>       0.00000000       0.00000000       0.00000000 </v>
   <v>       0.00000000       0.00000000       0.00000000 </v>
   <v>       0.00000000       0.00000000       0.00000000 </v>
   <v>       0.00000000       0.00000000       0.00000000 </v>
   <v>       0.00000000       0.00000000       0.00000000 </v>
   <v>       0.00000000       0.00000000       0.00000000 </v>
   <v>       0.00000000       0.00000000       0.00000000 </v>
   <v>       0.00000000       0.00000000       0.00000000 </v>
   <v>       0.00000000       0.00000000       0.00000000 </v>
   <v>       0.00000000       0.00000000       0.00000000 </v>
   <v>       0.00000000       0.00000000       0.00000000 </v>
   <v>       0.00000000       0.00000000       0.00000000 </v>
   <v>       0.00000000       0.00000000       0.00000000 </v>
   <v>       0.00000000       0.00000000       0.00000000 </v>
   <v>       0.00000000       0.00000000       0.00000000 </v>
   <v>       0.00000000       0.00000000       0.00000000 </v>
   <v>       0.00000000       0.00000000       0.00000000 </v>
   <v>       0.00000000       0.00000000       0.00000000 </v>
   <v>       0.00000000       0.00000000       0.00000000 </v>
   <v>       0.00000000       0.00000000       0.00000000 </v>
   <v>       0.00000000       0.00000000       0.00000000 </v>
   <v>       0.00000000       0.00000000       0.00000000 </v>
   <v>       0.00000000       0.00000000       0.00000000 </v>
   <v>       0.00000000       0.00000000       0.00000000 </v>
   <v>       0.00000000       0.00000000       0.00000000 </v>
   <v>       0.00000000       0.00000000       0.00000000 </v>
   <v>       0.00000000       0.00000000       0.00000000 </v>
   <v>       0.00000000       0.00000000       0.00000000 </v>
   <v>       0.00000000       0.00000000       0.00000000 </v>
   <v>       0.00000000       0.00000000       0.00000000 </v>
   <v>       0.00000000       0.00000000       0.00000000 </v>
   <v>       0.00000000       0.00000000       0.00000000 </v>
   <v>       0.00000000       0.00000000       0.00000000 </v>
   <v>       0.00000000       0.00000000       0.00000000 </v>
   <v>       0.00000000       0.00000000       0.00000000 </v>
   <v>       0.00000000       0.00000000       0.00000000 </v>
   <v>       0.00000000       0.00000000       0.00000000 </v>
   <v>       0.00000000       0.00000000       0.00000000 </v>
   <v>       0.00000000       0.00000000       0.00000000 </v>
   <v>       0.00000000       0.00000000       0.00000000 </v>
   <v>       0.00000000       0.00000000       0.00000000 </v>
   <v>       0.00000000       0.00000000       0.00000000 </v>
   <v>       0.00000000       0.00000000       0.00000000 </v>
   <v>       0.00000000       0.00000000       0.00000000 </v>
   <v>       0.00000000       0.00000000       0.00000000 </v>
   <v>       0.00000000       0.00000000       0.00000000 </v>
   <v>       0.00000000       0.00000000       0.00000000 </v>
   <v>       0.00000000       0.00000000       0.00000000 </v>
   <v>       0.00000000       0.00000000       0.00000000 </v>
   <v>       0.00000000       0.00000000       0.00000000 </v>
   <v>       0.00000000       0.00000000       0.00000000 </v>
   <v>       0.00000000       0.00000000       0.00000000 </v>
   <v>       0.00000000       0.00000000       0.00000000 </v>
   <v>       0.00000000       0.00000000       0.00000000 </v>
   <v>       0.00000000       0.00000000       0.00000000 </v>
   <v>       0.00000000       0.00000000       0.00000000 </v>
   <v>       0.00000000       0.00000000       0.00000000 </v>
   <v>       0.00000000       0.00000000       0.00000000 </v>
   <v>       0.00000000       0.00000000       0.00000000 </v>
   <v>       0.00000000       0.00000000       0.00000000 </v>
   <v>       0.00000000       0.00000000       0.00000000 </v>
   <v>       0.00000000       0.00000000       0.00000000 </v>
   <v>       0.00000000       0.00000000       0.00000000 </v>
   <v>       0.00000000       0.00000000       0.00000000 </v>
   <v>       0.00000000       0.00000000       0.00000000 </v>
   <v>       0.00000000       0.00000000       0.00000000 </v>
   <v>       0.00000000       0.00000000       0.00000000 </v>
   <v>       0.00000000       0.00000000       0.00000000 </v>
   <v>       0.00000000       0.00000000       0.00000000 </v>
   <v>       0.00000000       0.00000000       0.00000000 </v>
   <v>       0.00000000       0.00000000       0.00000000 </v>
   <v>       0.00000000       0.00000000       0.00000000 </v>
   <v>       0.00000000       0.00000000       0.00000000 </v>
   <v>       0.00000000       0.00000000       0.00000000 </v>
   <v>       0.00000000       0.00000000       0.00000000 </v>
   <v>       0.00000000       0.00000000       0.00000000 </v>
   <v>       0.00000000       0.00000000       0.00000000 </v>
   <v>       0.00000000       0.00000000       0.00000000 </v>
   <v>       0.00000000       0.00000000       0.00000000 </v>
   <v>       0.00000000       0.00000000       0.00000000 </v>
   <v>       0.00000000       0.00000000       0.00000000 </v>
  </varray>
 </structure>
 <calculation>
  <scstep>
   <time name="dav">   42.78   42.79</time>
   <time name="total">   43.20   43.20</time>
   <energy>
    <i name="alphaZ">   4420.68831078 </i>
    <i name="ewald"> -58210.58593286 </i>
    <i name="hartreedc"> -11297.36272314 </i>
    <i name="XCdc">   3305.39596148 </i>
    <i name="pawpsdc">  50594.51003143 </i>
    <i name="pawaedc"> -49994.65612350 </i>
    <i name="eentropy">     -0.03518372 </i>
    <i name="bandstr">   6839.35407715 </i>
    <i name="atom">  64968.54023382 </i>
    <i name="e_fr_energy">  10625.84865145 </i>
    <i name="e_wo_entrp">  10625.88383516 </i>
    <i name="e_0_energy">  10625.86624330 </i>
   </energy>
  </scstep>
  <scstep>
   <time name="dav">   46.52   46.54</time>
   <time name="total">   46.52   46.54</time>
   <energy>
    <i name="e_fr_energy">    272.85737467 </i>
    <i name="e_wo_entrp">    272.85737467 </i>
    <i name="e_0_energy">    272.85737467 </i>
   </energy>
  </scstep>
  <scstep>
   <time name="dav">   50.68   50.69</time>
   <time name="total">   50.69   50.69</time>
   <energy>
    <i name="e_fr_energy">   -905.48372056 </i>
    <i name="e_wo_entrp">   -905.48372056 </i>
    <i name="e_0_energy">   -905.48372056 </i>
   </energy>
  </scstep>
  <scstep>
   <time name="dav">   59.55   59.58</time>
   <time name="total">   59.55   59.58</time>
   <energy>
    <i name="e_fr_energy">   -969.14935505 </i>
    <i name="e_wo_entrp">   -969.14935505 </i>
    <i name="e_0_energy">   -969.14935505 </i>
   </energy>
  </scstep>
  <scstep>
   <time name="dav">   63.28   63.29</time>
   <time name="total">   64.45   64.46</time>
   <energy>
    <i name="e_fr_energy">   -973.28002630 </i>
    <i name="e_wo_entrp">   -973.28002630 </i>
    <i name="e_0_energy">   -973.28002630 </i>
   </energy>
  </scstep>
  <scstep>
   <time name="dav">   51.29   51.29</time>
   <time name="total">   52.86   52.88</time>
   <energy>
    <i name="e_fr_energy">   -843.45079978 </i>
    <i name="e_wo_entrp">   -843.45079978 </i>
    <i name="e_0_energy">   -843.45079978 </i>
   </energy>
  </scstep>
  <scstep>
   <time name="dav">   50.65   50.65</time>
   <time name="total">   52.25   52.26</time>
   <energy>
    <i name="e_fr_energy">   -844.77627962 </i>
    <i name="e_wo_entrp">   -844.77627962 </i>
    <i name="e_0_energy">   -844.77627962 </i>
   </energy>
  </scstep>
  <scstep>
   <time name="dav">   55.61   55.61</time>
   <time name="total">   57.19   57.21</time>
   <energy>
    <i name="e_fr_energy">   -844.35519077 </i>
    <i name="e_wo_entrp">   -844.35519077 </i>
    <i name="e_0_energy">   -844.35519077 </i>
   </energy>
  </scstep>
  <scstep>
   <time name="dav">   54.98   54.98</time>
   <time name="total">   56.54   56.55</time>
   <energy>
    <i name="e_fr_energy">   -844.24212049 </i>
    <i name="e_wo_entrp">   -844.24212049 </i>
    <i name="e_0_energy">   -844.24212049 </i>
   </energy>
  </scstep>
  <scstep>
   <time name="dav">   60.81   60.81</time>
   <time name="total">   62.38   62.40</time>
   <energy>
    <i name="e_fr_energy">   -844.28285673 </i>
    <i name="e_wo_entrp">   -844.28285673 </i>
    <i name="e_0_energy">   -844.28285673 </i>
   </energy>
  </scstep>
  <scstep>
   <time name="dav">   55.75   55.75</time>
   <time name="total">   57.33   57.35</time>
   <energy>
    <i name="e_fr_energy">   -844.28788355 </i>
    <i name="e_wo_entrp">   -844.28788355 </i>
    <i name="e_0_energy">   -844.28788355 </i>
   </energy>
  </scstep>
  <scstep>
   <time name="dav">   53.79   53.79</time>
   <time name="total">   55.40   55.42</time>
   <energy>
    <i name="e_fr_energy">   -844.28771908 </i>
    <i name="e_wo_entrp">   -844.28771908 </i>
    <i name="e_0_energy">   -844.28771908 </i>
   </energy>
  </scstep>
  <scstep>
   <time name="dav">   60.26   60.26</time>
   <time name="total">   61.87   61.89</time>
   <energy>
    <i name="e_fr_energy">   -844.28811904 </i>
    <i name="e_wo_entrp">   -844.28811904 </i>
    <i name="e_0_energy">   -844.28811904 </i>
   </energy>
  </scstep>
  <scstep>
   <time name="dav">   57.18   57.19</time>
   <time name="total">   58.76   58.78</time>
   <energy>
    <i name="e_fr_energy">   -844.28819625 </i>
    <i name="e_wo_entrp">   -844.28819625 </i>
    <i name="e_0_energy">   -844.28819625 </i>
   </energy>
  </scstep>
  <scstep>
   <time name="dav">   48.56   48.56</time>
   <time name="total">   50.26   50.27</time>
   <energy>
    <i name="e_fr_energy">   -844.28818219 </i>
    <i name="e_wo_entrp">   -844.28818219 </i>
    <i name="e_0_energy">   -844.28818219 </i>
   </energy>
  </scstep>
  <scstep>
   <time name="dav">   64.73   64.73</time>
   <time name="total">   66.59   66.62</time>
   <energy>
    <i name="e_fr_energy">   -844.28818283 </i>
    <i name="e_wo_entrp">   -844.28818283 </i>
    <i name="e_0_energy">   -844.28818283 </i>
   </energy>
  </scstep>
  <scstep>
   <time name="dav">   47.85   47.86</time>
   <time name="total">   49.44   49.46</time>
   <energy>
    <i name="e_fr_energy">   -844.28818164 </i>
    <i name="e_wo_entrp">   -844.28818164 </i>
    <i name="e_0_energy">   -844.28818164 </i>
   </energy>
  </scstep>
  <scstep>
   <time name="dav">   38.80   38.80</time>
   <time name="total">   39.51   39.52</time>
   <energy>
    <i name="alphaZ">   4420.68831078 </i>
    <i name="ewald"> -58210.58593286 </i>
    <i name="hartreedc"> -12523.49879022 </i>
    <i name="XCdc">   3397.88937037 </i>
    <i name="pawpsdc"> 112624.11836437 </i>
    <i name="pawaedc">-112269.85597053 </i>
    <i name="eentropy">     -0.00000000 </i>
    <i name="bandstr">  -3251.58376651 </i>
    <i name="atom">  64968.54023382 </i>
    <i name="e_fr_energy">   -844.28818077 </i>
    <i name="e_wo_entrp">   -844.28818077 </i>
    <i name="e_0_energy">   -844.28818077 </i>
   </energy>
  </scstep>
  <structure>
   <crystal>
    <varray name="basis" >
     <v>      10.26287559       0.00000000       0.00000000 </v>
     <v>       0.00000000      10.26287559       0.00000000 </v>
     <v>       0.00000000       0.00000000      10.26287559 </v>
    </varray>
    <i name="volume">   1080.95394992 </i>
    <varray name="rec_basis" >
     <v>       0.09743858       0.00000000       0.00000000 </v>
     <v>       0.00000000       0.09743858       0.00000000 </v>
     <v>       0.00000000       0.00000000       0.09743858 </v>
    </varray>
   </crystal>
   <varray name="positions" >
    <v>       0.06233101       0.94456049       0.96598055 </v>
    <v>       0.15157085       0.42092135       0.06048317 </v>
    <v>       0.25217389       0.52323100       0.52225495 </v>
    <v>       0.02573437       0.61911329       0.30000105 </v>
    <v>       0.27154987       0.82587560       0.18535389 </v>
    <v>       0.72326862       0.25909482       0.98268805 </v>
    <v>       0.84262708       0.72389559       0.07515152 </v>
    <v>       0.71417500       0.64212640       0.61170672 </v>
    <v>       0.81274447       0.36246315       0.41879878 </v>
    <v>       0.13551572       0.71219419       0.69859208 </v>
    <v>       0.92783376       0.86307736       0.50831301 </v>
    <v>       0.58777969       0.15112348       0.48828084 </v>
    <v>       0.49714345       0.75528619       0.41008521 </v>
    <v>       0.91109239       0.53343475       0.82036493 </v>
    <v>       0.50074190       0.35928422       0.72172876 </v>
    <v>       0.35472245       0.92152995       0.65093360 </v>
    <v>       0.84344196       0.04109105       0.77154178 </v>
    <v>       0.97889043       0.19348524       0.15272257 </v>
    <v>       0.25188771       0.21989339       0.81665455 </v>
    <v>       0.02908988       0.29128322       0.61842378 </v>
    <v>       0.69154061       0.92889506       0.27958455 </v>
    <v>       0.37990718       0.28279763       0.31710605 </v>
    <v>       0.60519621       0.52620167       0.17265662 </v>
    <v>       0.43701292       0.69766691       0.67841935 </v>
    <v>       0.63161255       0.82937971       0.85037911 </v>
    <v>       0.39302019       0.60642159       0.94877150 </v>
    <v>       0.15754009       0.04882483       0.39487880 </v>
    <v>       0.66676041       0.91111522       0.57206649 </v>
    <v>       0.87237203       0.79291849       0.78796478 </v>
    <v>       0.36216669       0.88606490       0.92994493 </v>
    <v>       0.55722955       0.11646837       0.81812842 </v>
    <v>       0.31671350       0.20859290       0.56093494 </v>
    <v>       0.18415277       0.80895408       0.45793215 </v>
    <v>       0.20511775       0.11837639       0.09119662 </v>
    <v>       0.20928388       0.43630266       0.78979991 </v>
    <v>       0.45251183       0.09014751       0.13874504 </v>
    <v>       0.53524859       0.46430387       0.42355493 </v>
    <v>       0.86525548       0.46995557       0.15129224 </v>
    <v>       0.98459415       0.90116459       0.22422985 </v>
    <v>       0.87868182       0.11314357       0.44124708 </v>
    <v>       0.62706295       0.53587524       0.91415058 </v>
    <v>       0.55710535       0.77732157       0.12545555 </v>
    <v>       0.10782394       0.00352320       0.68536078 </v>
    <v>       0.73640218       0.29765635       0.65898483 </v>
    <v>       0.10931266       0.35662384       0.35989959 </v>
    <v>       0.32380307       0.58060549       0.24425499 </v>
    <v>       0.75660546       0.00934354       0.02481031 </v>
    <v>       0.75565524       0.68743739       0.33091974 </v>
    <v>       0.97349148       0.24415303       0.90434515 </v>
    <v>       0.96041458       0.57195361       0.53835530 </v>
    <v>       0.43040583       0.33033547       0.02061896 </v>
    <v>       0.65786023       0.26020200       0.21004410 </v>
    <v>       0.43857907       0.97757708       0.33412946 </v>
    <v>       0.06523664       0.68017667       0.00707923 </v>
    <v>       0.42986719       0.49251100       0.30485285 </v>
    <v>       0.00746585       0.05374939       0.55638134 </v>
    <v>       0.47999504       0.56359378       0.52077177 </v>
    <v>       0.43664233       0.66346257       0.14596395 </v>
    <v>       0.26623665       0.70989273       0.54756545 </v>
    <v>       0.13846893       0.88978403       0.56633275 </v>
    <v>       0.56138842       0.61764817       0.78405167 </v>
    <v>       0.43961479       0.96400150       0.79364809 </v>
    <v>       0.64953782       0.04552468       0.68138787 </v>
    <v>       0.23709313       0.85995530       0.81800592 </v>
    <v>       0.64901373       0.71865786       0.22002633 </v>
    <v>       0.86318939       0.79839405       0.31715415 </v>
    <v>       0.86370043       0.42640188       0.59535579 </v>
    <v>       0.28314511       0.02769027       0.96772879 </v>
    <v>       0.45434513       0.78684204       0.95962486 </v>
    <v>       0.81586041       0.89839003       0.90151410 </v>
    <v>       0.41254155       0.46161414       0.11025580 </v>
    <v>       0.30840478       0.37019761       0.90254674 </v>
    <v>       0.96016462       0.56104790       0.07062860 </v>
    <v>       0.76835224       0.84836238       0.67340066 </v>
    <v>       0.86371211       0.93805941       0.13733352 </v>
    <v>       0.93094007       0.68711994       0.67496092 </v>
    <v>       0.08289807       0.88507909       0.35917902 </v>
    <v>       0.17267367       0.21981312       0.19035012 </v>
    <v>       0.78956562       0.67164742       0.84816817 </v>
    <v>       0.46829801       0.16540997       0.93468444 </v>
    <v>       0.31033610       0.90433887       0.42064598 </v>
    <v>       0.10031541       0.00609252       0.17167151 </v>
    <v>       0.62728979       0.66283823       0.02574531 </v>
    <v>       0.75309115       0.37757776       0.20440012 </v>
    <v>       0.05361758       0.13395693       0.78180445 </v>
    <v>       0.06397385       0.70473291       0.49487171 </v>
    <v>       0.65641859       0.06736049       0.91996437 </v>
    <v>       0.85024377       0.59732924       0.24915989 </v>
    <v>       0.67089927       0.47695115       0.76970956 </v>
    <v>       0.47872376       0.85925420       0.25344478 </v>
    <v>       0.76141753       0.17811748       0.34800184 </v>
    <v>       0.51569622       0.25956042       0.14233792 </v>
    <v>       0.33246904       0.03575547       0.22031642 </v>
    <v>       0.75993799       0.00848461       0.47446160 </v>
    <v>       0.73345970       0.12021979       0.16145545 </v>
    <v>       0.28133635       0.70156868       0.35494155 </v>
    <v>       0.09013773       0.19733920       0.98065380 </v>
    <v>       0.00644488       0.40053869       0.22571848 </v>
    <v>       0.43949394       0.16995847       0.65282359 </v>
    <v>       0.47421246       0.99633015       0.03321138 </v>
    <v>       0.38218067       0.11944843       0.42429626 </v>
    <v>       0.33183534       0.22559164       0.08636823 </v>
    <v>       0.33400439       0.52255893       0.74153594 </v>
    <v>       0.23352485       0.32361598       0.62938759 </v>
    <v>       0.23492923       0.80715411       0.00960144 </v>
    <v>       0.89490511       0.35985623       0.99570195 </v>
    <v>       0.02511961       0.76310803       0.12864686 </v>
    <v>       0.75860474       0.49034316       0.01398793 </v>
    <v>       0.22914624       0.61869466       0.12262832 </v>
    <v>       0.22870810       0.10565066       0.64899645 </v>
    <v>       0.03185500       0.45108618       0.44264740 </v>
    <v>       0.09549467       0.52947424       0.66789576 </v>
    <v>       0.15302380       0.55913777       0.91635410 </v>
    <v>       0.99746906       0.22678384       0.41231634 </v>
    <v>       0.85808713       0.27163583       0.78261880 </v>
    <v>       0.66510809       0.88258510       0.07403318 </v>
    <v>       0.64365038       0.40241379       0.55897276 </v>
    <v>       0.82499811       0.18789140       0.59278954 </v>
    <v>       0.19962362       0.48909149       0.28867426 </v>
    <v>       0.41945386       0.36075404       0.52815320 </v>
    <v>       0.56869668       0.81146227       0.62667758 </v>
    <v>       0.06733736       0.36325118       0.82838709 </v>
    <v>       0.89690322       0.06852388       0.94873788 </v>
    <v>       0.20647433       0.26839072       0.42532123 </v>
    <v>       0.55899222       0.37861520       0.95040174 </v>
    <v>       0.53840634       0.09540945       0.26248971 </v>
    <v>       0.00670400       0.74234268       0.86845380 </v>
    <v>       0.63129965       0.25112942       0.77859873 </v>
    <v>       0.54333342       0.93636617       0.41203746 </v>
    <v>       0.85603064       0.60525633       0.44192610 </v>
    <v>       0.68648925       0.53699666       0.35116706 </v>
    <v>       0.58250891       0.34280002       0.34007840 </v>
    <v>       0.00142247       0.89845347       0.72228269 </v>
    <v>       0.70589285       0.77456976       0.47278294 </v>
    <v>       0.90805871       0.03077436       0.30626525 </v>
   </varray>
  </structure>
  <varray name="forces" >
   <v>       1.25660092      -0.90011391      -2.77163609 </v>
   <v>       0.62345130      -0.87834504       2.04780879 </v>
   <v>       1.92851584      -3.26896602      -1.23154680 </v>
   <v>       5.96453483       1.44774297      -0.07342629 </v>
   <v>      -0.18613872       0.67148805       3.20798564 </v>
   <v>      -0.35049987       2.02861378      -3.39151124 </v>
   <v>      -7.60984742       1.77565976      -2.52540717 </v>
   <v>      -1.36745567      -5.18021802       3.29286709 </v>
   <v>      -0.22807625       2.16341418      -2.13041362 </v>
   <v>       1.21041678       2.63781841       3.69906324 </v>
   <v>      -1.19908828      -0.81371551       1.13631394 </v>
   <v>       0.17718220       1.47725980      -0.01851086 </v>
   <v>      -2.39180500      -8.19642666       3.71896854 </v>
   <v>       1.53099045      -5.98817469      -0.08552575 </v>
   <v>      -6.43684107       7.46161868      -1.52055397 </v>
   <v>      -2.43369447       0.14506866      -7.81335197 </v>
   <v>      -0.44671156       3.72056837      -6.88100819 </v>
   <v>      -5.12450978      -0.61029270       3.74053224 </v>
   <v>       0.20328340     -10.21702209       1.15361420 </v>
   <v>      -1.27166968      -0.69389573       0.62618479 </v>
   <v>       3.88008409       3.62115542       0.22898876 </v>
   <v>      -1.15552968       2.19178186      -3.28497933 </v>
   <v>      -2.60516286      -2.64583363      -1.06881887 </v>
   <v>      -6.25193276      -3.14635463      -0.09863991 </v>
   <v>      -2.87508091      -0.57766889      -0.33120747 </v>
   <v>      -4.46928502      -2.60144452      -0.34830740 </v>
   <v>       1.28255953       7.19008788       0.11798172 </v>
   <v>       1.48230336       3.52200594      -1.66540345 </v>
   <v>       2.08310432      -0.63153391      -1.01652282 </v>
   <v>      -9.12615119      11.32863804      -3.18152606 </v>
   <v>      -4.43662925      -3.36285137      -5.72862192 </v>
   <v>       2.93190167       2.40270838      -2.88497135 </v>
   <v>       5.23582695      -7.60986106      -5.34408385 </v>
   <v>       3.78712533      -3.68084887      -4.47248114 </v>
   <v>      -2.36858086       7.28669761      -2.40251662 </v>
   <v>      -1.18945283       6.13475954      -4.37448026 </v>
   <v>       1.65234706      -1.63003480       3.35247614 </v>
   <v>       1.60589374      -2.03965286      -3.92253786 </v>
   <v>      -1.54024148       1.38937229       4.34037918 </v>
   <v>       1.06220020       1.12779507       0.74932018 </v>
   <v>       5.84823556      -0.34344697      -3.20072829 </v>
   <v>      -8.24373630       1.53166937      -7.24454650 </v>
   <v>      -1.68936391       2.49072208      -2.08172607 </v>
   <v>       2.95214958       6.61140158       4.10499735 </v>
   <v>      -2.68514141      -0.71770030      -7.07690911 </v>
   <v>      -1.91138114       1.98063037      -2.78324463 </v>
   <v>       2.91788358      -2.51940961       2.21358209 </v>
   <v>       0.01706078      -2.90493986       6.79122244 </v>
   <v>      -4.06785953       1.74288856      -7.42135208 </v>
   <v>       4.81389176      -2.30118023       7.15167069 </v>
   <v>      -1.80978792      -0.74273379      -1.35533110 </v>
   <v>      -0.12472884      -5.25114736       9.31578115 </v>
   <v>     -13.18635147       8.91449372      -0.50067279 </v>
   <v>       8.91491243      -5.50886686      -3.21567064 </v>
   <v>       2.33207867       0.26813702       4.96974005 </v>
   <v>      -2.13407566       1.99003692      -1.31811733 </v>
   <v>       0.73880392       5.67717711       2.22741301 </v>
   <v>       1.02748301       3.29883633       2.90476533 </v>
   <v>       5.27216972       2.46289784       5.86087426 </v>
   <v>       0.73781446       6.47190816       7.35002293 </v>
   <v>      -2.78245452       3.90254010       6.07710602 </v>
   <v>       5.89772071       2.41337698       7.82164836 </v>
   <v>      -2.47819549      -1.18157613      -0.76896215 </v>
   <v>      -0.23952529       0.97687612      -4.44307743 </v>
   <v>       5.35930750      -0.51955207       7.98565041 </v>
   <v>       3.08109966       2.62082322      -2.36718046 </v>
   <v>       1.81024721       2.74442949       3.63644753 </v>
   <v>      -6.37187263       3.34717480       1.52849323 </v>
   <v>       8.13130679      -4.72636608       1.80975943 </v>
   <v>       0.66756830      -4.62534206       0.87532530 </v>
   <v>      -2.69051812      -2.94948414      -3.82754551 </v>
   <v>       1.67685844       3.17710275       2.77546760 </v>
   <v>       6.12655274       2.35554923      -4.38274633 </v>
   <v>       3.98519379       0.34099702       2.32539745 </v>
   <v>      -0.56887430      -1.09441793      -5.80752261 </v>
   <v>      -2.14106874      -1.95442391      -3.87510406 </v>
   <v>      -1.96361822      -5.51295890      -4.91911223 </v>
   <v>      -4.49573871       4.91717743       8.67894989 </v>
   <v>      -3.43411244       3.00298517       1.33449138 </v>
   <v>      -1.84973727       6.57633252      -3.24458697 </v>
   <v>       2.36875264       1.61323854      -0.67244828 </v>
   <v>       1.16760397      -0.24503667      -2.75163802 </v>
   <v>      -1.12456383      -0.54107910      -3.98489409 </v>
   <v>       1.69739414      -1.69715163      -1.04082062 </v>
   <v>      -0.17927878      -2.62304408      -0.89321199 </v>
   <v>      -2.75291278      -4.51338163      -2.39249032 </v>
   <v>       4.24061751      -2.12099630       1.19098673 </v>
   <v>      -2.02648955      -3.85392316      -8.23072249 </v>
   <v>       7.01331887      -5.94638741      -0.12739870 </v>
   <v>      -0.00041597      -2.92093059     -10.43378999 </v>
   <v>      -2.39395276       3.93236189       1.17913694 </v>
   <v>       4.16270259       0.08270992      -1.59347468 </v>
   <v>      -3.52446645      -0.21700696      -0.06164543 </v>
   <v>      -1.53480955      -3.97133672       2.48484789 </v>
   <v>       0.20559228       0.70938852      -6.83454113 </v>
   <v>       0.01056601      -2.86763422      -5.25174540 </v>
   <v>       7.09693100      -2.52779978       5.41347531 </v>
   <v>      -2.75915837      -1.10432014      -0.57115930 </v>
   <v>       1.67440324      -1.57354456       2.47580181 </v>
   <v>       1.86137644      -7.09297814      -0.11849714 </v>
   <v>      -0.64755700      -1.06182069       3.56227897 </v>
   <v>      -0.04212321      -1.70634448      -0.92757103 </v>
   <v>      -1.16309988       0.72737831      -0.28736666 </v>
   <v>      -1.58003256       3.23326013       5.63944454 </v>
   <v>      -2.76941006      -1.63745745      -1.71382800 </v>
   <v>       5.45190559      -5.05818640       1.62487716 </v>
   <v>       2.16554413       4.84510116       3.53095688 </v>
   <v>      -3.46298149       2.32113771       0.14723823 </v>
   <v>      -3.79855524       0.19523779      -1.35420523 </v>
   <v>      -0.66525096      -4.05307062      -2.46619640 </v>
   <v>      -1.29834199       4.31618857       4.49371072 </v>
   <v>      -1.22588520      -4.24891774      -0.80725552 </v>
   <v>      -0.38870682       2.41120345      -1.82768284 </v>
   <v>      -1.35289458       0.87555382      -2.10512759 </v>
   <v>       0.26773282      -0.06458980       2.89482534 </v>
   <v>      -0.72493613       0.56961118      -0.67514140 </v>
   <v>       1.06946079      -3.64942185      -0.00558675 </v>
   <v>      -0.88022136      -0.12418034      -3.72826376 </v>
   <v>      -0.52492778      -5.08248041       2.62993088 </v>
   <v>      -0.86728127      -2.52529835      -4.28262731 </v>
   <v>      -3.49659451       1.84793016       0.15584086 </v>
   <v>       1.68285773      -0.39865837       0.20077282 </v>
   <v>       0.57314409       7.93723630       5.56289492 </v>
   <v>       3.91549220      -2.37171808       2.71579059 </v>
   <v>       0.50882335       5.08232641      -1.28592195 </v>
   <v>       2.18022068      -0.94819977       3.26340052 </v>
   <v>       1.00576386      -0.58612132       6.37104158 </v>
   <v>       4.84413351      -3.99579670      -0.18922661 </v>
   <v>      11.06330911       1.80687195      15.71452057 </v>
   <v>      -1.17113804       1.70303074       1.97938142 </v>
   <v>      -5.83312027       0.74582430       4.28710957 </v>
   <v>       1.64559468      -5.15338316      -1.74237636 </v>
   <v>      -3.54754594      -0.80898644       3.82286372 </v>
   <v>      -0.06953229       0.97532156      -5.69504096 </v>
   <v>       3.65880928      -0.65334688       1.96160416 </v>
  </varray>
  <varray name="stress" >
   <v>     796.81556259     -30.94256703      33.50739218 </v>
   <v>     -30.94256704     799.46765878     -15.07416573 </v>
   <v>      33.50739217     -15.07416576     788.32386663 </v>
  </varray>
  <energy>
   <i name="e_fr_energy">   -844.28818077 </i>
   <i name="e_wo_entrp">   -844.28818077 </i>
   <i name="e_0_energy">     -0.00000000 </i>
  </energy>
  <time name="totalsc"> 1033.79 1034.10</time>
  <eigenvalues>
   <array>
    <dimension dim="1">band</dimension>
    <dimension dim="2">kpoint</dimension>
    <dimension dim="3">spin</dimension>
    <field>eigene</field>
    <field>occ</field>
    <set>
     <set comment="spin 1">
      <set comment="kpoint 1">
       <r>  -30.6388    1.0000 </r>
       <r>  -30.5262    1.0000 </r>
       <r>  -30.4622    1.0000 </r>
       <r>  -30.3319    1.0000 </r>
       <r>  -30.2353    1.0000 </r>
       <r>  -30.1015    1.0000 </r>
       <r>  -30.0476    1.0000 </r>
       <r>  -30.0067    1.0000 </r>
       <r>  -29.9331    1.0000 </r>
       <r>  -29.9220    1.0000 </r>
       <r>  -29.8932    1.0000 </r>
       <r>  -29.7871    1.0000 </r>
       <r>  -29.6533    1.0000 </r>
       <r>  -29.5981    1.0000 </r>
       <r>  -29.5921    1.0000 </r>
       <r>  -29.4627    1.0000 </r>
       <r>  -29.4568    1.0000 </r>
       <r>  -29.3516    1.0000 </r>
       <r>  -29.3272    1.0000 </r>
       <r>  -29.2834    1.0000 </r>
       <r>  -29.2788    1.0000 </r>
       <r>  -29.2625    1.0000 </r>
       <r>  -29.2510    1.0000 </r>
       <r>  -28.8781    1.0000 </r>
       <r>  -28.6621    1.0000 </r>
       <r>  -28.5653    1.0000 </r>
       <r>  -28.2683    1.0000 </r>
[...]
       <r>    11.2106     0.0000   864.0000 </r>
       <r>    11.3833     0.0000   864.0000 </r>
       <r>    11.5560     0.0000   864.0000 </r>
       <r>    11.7286     0.0000   864.0000 </r>
       <r>    11.9013     0.0000   864.0000 </r>
       <r>    12.0740     0.0705   864.0122 </r>
       <r>    12.2467    11.8834   866.0641 </r>
       <r>    12.4193    14.5832   868.5822 </r>
       <r>    12.5920     8.2101   869.9999 </r>
       <r>    12.7647     0.8780   870.1515 </r>
       <r>    12.9373    13.3314   872.4534 </r>
       <r>    13.1100    17.0358   875.3950 </r>
       <r>    13.2827     9.6600   877.0630 </r>
       <r>    13.4554    23.5276   881.1256 </r>
       <r>    13.6280    31.0290   886.4834 </r>
       <r>    13.8007    27.5025   891.2323 </r>
       <r>    13.9734    29.1117   896.2591 </r>
       <r>    14.1460    35.6742   902.4190 </r>
       <r>    14.3187    46.6424   910.4729 </r>
       <r>    14.4914    45.8899   918.3968 </r>
       <r>    14.6641    50.1608   927.0582 </r>
       <r>    14.8367    48.4480   935.4238 </r>
       <r>    15.0094    47.2448   943.5816 </r>
       <r>    15.1821    63.2208   954.4981 </r>
       <r>    15.3547    63.9063   965.5329 </r>
       <r>    15.5274    65.6441   976.8678 </r>
       <r>    15.7001    69.0194   988.7855 </r>
       <r>    15.8728    74.8213  1001.7051 </r>
       <r>    16.0454    73.9742  1014.4784 </r>
       <r>    16.2181    72.0724  1026.9232 </r>
       <r>    16.3908    61.3433  1037.5155 </r>
       <r>    16.5635    14.3866  1039.9997 </r>
       <r>    16.7361     0.0019  1040.0000 </r>
       <r>    16.9088     0.0000  1040.0000 </r>
       <r>    17.0815     0.0000  1040.0000 </r>
       <r>    17.2541     0.0000  1040.0000 </r>
       <r>    17.4268     0.0000  1040.0000 </r>
       <r>    17.5995     0.0000  1040.0000 </r>
       <r>    17.7722     0.0000  1040.0000 </r>
       <r>    17.9448     0.0000  1040.0000 </r>
       <r>    18.1175     0.0000  1040.0000 </r>
       <r>    18.2902     0.0000  1040.0000 </r>
       <r>    18.4628     0.0000  1040.0000 </r>
       <r>    18.6355     0.0000  1040.0000 </r>
       <r>    18.8082     0.0000  1040.0000 </r>
      </set>
     </set>
    </array>
   </total>
  </dos>
 </calculation>
 <structure name="finalpos" >
  <crystal>
   <varray name="basis" >
    <v>      10.26287559       0.00000000       0.00000000 </v>
    <v>       0.00000000      10.26287559       0.00000000 </v>
    <v>       0.00000000       0.00000000      10.26287559 </v>
   </varray>
   <i name="volume">   1080.95394992 </i>
   <varray name="rec_basis" >
    <v>       0.09743858       0.00000000       0.00000000 </v>
    <v>       0.00000000       0.09743858       0.00000000 </v>
    <v>       0.00000000       0.00000000       0.09743858 </v>
   </varray>
  </crystal>
  <varray name="positions" >
   <v>       0.06233101       0.94456049       0.96598055 </v>
   <v>       0.15157085       0.42092135       0.06048317 </v>
   <v>       0.25217389       0.52323100       0.52225495 </v>
   <v>       0.02573437       0.61911329       0.30000105 </v>
   <v>       0.27154987       0.82587560       0.18535389 </v>
   <v>       0.72326862       0.25909482       0.98268805 </v>
   <v>       0.84262708       0.72389559       0.07515152 </v>
   <v>       0.71417500       0.64212640       0.61170672 </v>
   <v>       0.81274447       0.36246315       0.41879878 </v>
   <v>       0.13551572       0.71219419       0.69859208 </v>
   <v>       0.92783376       0.86307736       0.50831301 </v>
   <v>       0.58777969       0.15112348       0.48828084 </v>
   <v>       0.49714345       0.75528619       0.41008521 </v>
   <v>       0.91109239       0.53343475       0.82036493 </v>
   <v>       0.50074190       0.35928422       0.72172876 </v>
   <v>       0.35472245       0.92152995       0.65093360 </v>
   <v>       0.84344196       0.04109105       0.77154178 </v>
   <v>       0.97889043       0.19348524       0.15272257 </v>
   <v>       0.25188771       0.21989339       0.81665455 </v>
   <v>       0.02908988       0.29128322       0.61842378 </v>
   <v>       0.69154061       0.92889506       0.27958455 </v>
   <v>       0.37990718       0.28279763       0.31710605 </v>
   <v>       0.60519621       0.52620167       0.17265662 </v>
   <v>       0.43701292       0.69766691       0.67841935 </v>
   <v>       0.63161255       0.82937971       0.85037911 </v>
   <v>       0.39302019       0.60642159       0.94877150 </v>
   <v>       0.15754009       0.04882483       0.39487880 </v>
   <v>       0.66676041       0.91111522       0.57206649 </v>
   <v>       0.87237203       0.79291849       0.78796478 </v>
   <v>       0.36216669       0.88606490       0.92994493 </v>
   <v>       0.55722955       0.11646837       0.81812842 </v>
   <v>       0.31671350       0.20859290       0.56093494 </v>
   <v>       0.18415277       0.80895408       0.45793215 </v>
   <v>       0.20511775       0.11837639       0.09119662 </v>
   <v>       0.20928388       0.43630266       0.78979991 </v>
   <v>       0.45251183       0.09014751       0.13874504 </v>
   <v>       0.53524859       0.46430387       0.42355493 </v>
   <v>       0.86525548       0.46995557       0.15129224 </v>
   <v>       0.98459415       0.90116459       0.22422985 </v>
   <v>       0.87868182       0.11314357       0.44124708 </v>
   <v>       0.62706295       0.53587524       0.91415058 </v>
   <v>       0.55710535       0.77732157       0.12545555 </v>
   <v>       0.10782394       0.00352320       0.68536078 </v>
   <v>       0.73640218       0.29765635       0.65898483 </v>
   <v>       0.10931266       0.35662384       0.35989959 </v>
   <v>       0.32380307       0.58060549       0.24425499 </v>
   <v>       0.75660546       0.00934354       0.02481031 </v>
   <v>       0.75565524       0.68743739       0.33091974 </v>
   <v>       0.97349148       0.24415303       0.90434515 </v>
   <v>       0.96041458       0.57195361       0.53835530 </v>
   <v>       0.43040583       0.33033547       0.02061896 </v>
   <v>       0.65786023       0.26020200       0.21004410 </v>
   <v>       0.43857907       0.97757708       0.33412946 </v>
   <v>       0.06523664       0.68017667       0.00707923 </v>
   <v>       0.42986719       0.49251100       0.30485285 </v>
   <v>       0.00746585       0.05374939       0.55638134 </v>
   <v>       0.47999504       0.56359378       0.52077177 </v>
   <v>       0.43664233       0.66346257       0.14596395 </v>
   <v>       0.26623665       0.70989273       0.54756545 </v>
   <v>       0.13846893       0.88978403       0.56633275 </v>
   <v>       0.56138842       0.61764817       0.78405167 </v>
   <v>       0.43961479       0.96400150       0.79364809 </v>
   <v>       0.64953782       0.04552468       0.68138787 </v>
   <v>       0.23709313       0.85995530       0.81800592 </v>
   <v>       0.64901373       0.71865786       0.22002633 </v>
   <v>       0.86318939       0.79839405       0.31715415 </v>
   <v>       0.86370043       0.42640188       0.59535579 </v>
   <v>       0.28314511       0.02769027       0.96772879 </v>
   <v>       0.45434513       0.78684204       0.95962486 </v>
   <v>       0.81586041       0.89839003       0.90151410 </v>
   <v>       0.41254155       0.46161414       0.11025580 </v>
   <v>       0.30840478       0.37019761       0.90254674 </v>
   <v>       0.96016462       0.56104790       0.07062860 </v>
   <v>       0.76835224       0.84836238       0.67340066 </v>
   <v>       0.86371211       0.93805941       0.13733352 </v>
   <v>       0.93094007       0.68711994       0.67496092 </v>
   <v>       0.08289807       0.88507909       0.35917902 </v>
   <v>       0.17267367       0.21981312       0.19035012 </v>
   <v>       0.78956562       0.67164742       0.84816817 </v>
   <v>       0.46829801       0.16540997       0.93468444 </v>
   <v>       0.31033610       0.90433887       0.42064598 </v>
   <v>       0.10031541       0.00609252       0.17167151 </v>
   <v>       0.62728979       0.66283823       0.02574531 </v>
   <v>       0.75309115       0.37757776       0.20440012 </v>
   <v>       0.05361758       0.13395693       0.78180445 </v>
   <v>       0.06397385       0.70473291       0.49487171 </v>
   <v>       0.65641859       0.06736049       0.91996437 </v>
   <v>       0.85024377       0.59732924       0.24915989 </v>
   <v>       0.67089927       0.47695115       0.76970956 </v>
   <v>       0.47872376       0.85925420       0.25344478 </v>
   <v>       0.76141753       0.17811748       0.34800184 </v>
   <v>       0.51569622       0.25956042       0.14233792 </v>
   <v>       0.33246904       0.03575547       0.22031642 </v>
   <v>       0.75993799       0.00848461       0.47446160 </v>
   <v>       0.73345970       0.12021979       0.16145545 </v>
   <v>       0.28133635       0.70156868       0.35494155 </v>
   <v>       0.09013773       0.19733920       0.98065380 </v>
   <v>       0.00644488       0.40053869       0.22571848 </v>
   <v>       0.43949394       0.16995847       0.65282359 </v>
   <v>       0.47421246       0.99633015       0.03321138 </v>
   <v>       0.38218067       0.11944843       0.42429626 </v>
   <v>       0.33183534       0.22559164       0.08636823 </v>
   <v>       0.33400439       0.52255893       0.74153594 </v>
   <v>       0.23352485       0.32361598       0.62938759 </v>
   <v>       0.23492923       0.80715411       0.00960144 </v>
   <v>       0.89490511       0.35985623       0.99570195 </v>
   <v>       0.02511961       0.76310803       0.12864686 </v>
   <v>       0.75860474       0.49034316       0.01398793 </v>
   <v>       0.22914624       0.61869466       0.12262832 </v>
   <v>       0.22870810       0.10565066       0.64899645 </v>
   <v>       0.03185500       0.45108618       0.44264740 </v>
   <v>       0.09549467       0.52947424       0.66789576 </v>
   <v>       0.15302380       0.55913777       0.91635410 </v>
   <v>       0.99746906       0.22678384       0.41231634 </v>
   <v>       0.85808713       0.27163583       0.78261880 </v>
   <v>       0.66510809       0.88258510       0.07403318 </v>
   <v>       0.64365038       0.40241379       0.55897276 </v>
   <v>       0.82499811       0.18789140       0.59278954 </v>
   <v>       0.19962362       0.48909149       0.28867426 </v>
   <v>       0.41945386       0.36075404       0.52815320 </v>
   <v>       0.56869668       0.81146227       0.62667758 </v>
   <v>       0.06733736       0.36325118       0.82838709 </v>
   <v>       0.89690322       0.06852388       0.94873788 </v>
   <v>       0.20647433       0.26839072       0.42532123 </v>
   <v>       0.55899222       0.37861520       0.95040174 </v>
   <v>       0.53840634       0.09540945       0.26248971 </v>
   <v>       0.00670400       0.74234268       0.86845380 </v>
   <v>       0.63129965       0.25112942       0.77859873 </v>
   <v>       0.54333342       0.93636617       0.41203746 </v>
   <v>       0.85603064       0.60525633       0.44192610 </v>
   <v>       0.68648925       0.53699666       0.35116706 </v>
   <v>       0.58250891       0.34280002       0.34007840 </v>
   <v>       0.00142247       0.89845347       0.72228269 </v>
   <v>       0.70589285       0.77456976       0.47278294 </v>
   <v>       0.90805871       0.03077436       0.30626525 </v>
  </varray>
  <varray name="velocities" >
   <v>       0.00000000       0.00000000       0.00000000 </v>
   <v>       0.00000000       0.00000000       0.00000000 </v>
   <v>       0.00000000       0.00000000       0.00000000 </v>
   <v>       0.00000000       0.00000000       0.00000000 </v>
   <v>       0.00000000       0.00000000       0.00000000 </v>
   <v>       0.00000000       0.00000000       0.00000000 </v>
   <v>       0.00000000       0.00000000       0.00000000 </v>
   <v>       0.00000000       0.00000000       0.00000000 </v>
   <v>       0.00000000       0.00000000       0.00000000 </v>
   <v>       0.00000000       0.00000000       0.00000000 </v>
   <v>       0.00000000       0.00000000       0.00000000 </v>
   <v>       0.00000000       0.00000000       0.00000000 </v>
   <v>       0.00000000       0.00000000       0.00000000 </v>
   <v>       0.00000000       0.00000000       0.00000000 </v>
   <v>       0.00000000       0.00000000       0.00000000 </v>
   <v>       0.00000000       0.00000000       0.00000000 </v>
   <v>       0.00000000       0.00000000       0.00000000 </v>
   <v>       0.00000000       0.00000000       0.00000000 </v>
   <v>       0.00000000       0.00000000       0.00000000 </v>
   <v>       0.00000000       0.00000000       0.00000000 </v>
   <v>       0.00000000       0.00000000       0.00000000 </v>
   <v>       0.00000000       0.00000000       0.00000000 </v>
   <v>       0.00000000       0.00000000       0.00000000 </v>
   <v>       0.00000000       0.00000000       0.00000000 </v>
   <v>       0.00000000       0.00000000       0.00000000 </v>
   <v>       0.00000000       0.00000000       0.00000000 </v>
   <v>       0.00000000       0.00000000       0.00000000 </v>
   <v>       0.00000000       0.00000000       0.00000000 </v>
   <v>       0.00000000       0.00000000       0.00000000 </v>
   <v>       0.00000000       0.00000000       0.00000000 </v>
   <v>       0.00000000       0.00000000       0.00000000 </v>
   <v>       0.00000000       0.00000000       0.00000000 </v>
   <v>       0.00000000       0.00000000       0.00000000 </v>
   <v>       0.00000000       0.00000000       0.00000000 </v>
   <v>       0.00000000       0.00000000       0.00000000 </v>
   <v>       0.00000000       0.00000000       0.00000000 </v>
   <v>       0.00000000       0.00000000       0.00000000 </v>
   <v>       0.00000000       0.00000000       0.00000000 </v>
   <v>       0.00000000       0.00000000       0.00000000 </v>
   <v>       0.00000000       0.00000000       0.00000000 </v>
   <v>       0.00000000       0.00000000       0.00000000 </v>
   <v>       0.00000000       0.00000000       0.00000000 </v>
   <v>       0.00000000       0.00000000       0.00000000 </v>
   <v>       0.00000000       0.00000000       0.00000000 </v>
   <v>       0.00000000       0.00000000       0.00000000 </v>
   <v>       0.00000000       0.00000000       0.00000000 </v>
   <v>       0.00000000       0.00000000       0.00000000 </v>
   <v>       0.00000000       0.00000000       0.00000000 </v>
   <v>       0.00000000       0.00000000       0.00000000 </v>
   <v>       0.00000000       0.00000000       0.00000000 </v>
   <v>       0.00000000       0.00000000       0.00000000 </v>
   <v>       0.00000000       0.00000000       0.00000000 </v>
   <v>       0.00000000       0.00000000       0.00000000 </v>
   <v>       0.00000000       0.00000000       0.00000000 </v>
   <v>       0.00000000       0.00000000       0.00000000 </v>
   <v>       0.00000000       0.00000000       0.00000000 </v>
   <v>       0.00000000       0.00000000       0.00000000 </v>
   <v>       0.00000000       0.00000000       0.00000000 </v>
   <v>       0.00000000       0.00000000       0.00000000 </v>
   <v>       0.00000000       0.00000000       0.00000000 </v>
   <v>       0.00000000       0.00000000       0.00000000 </v>
   <v>       0.00000000       0.00000000       0.00000000 </v>
   <v>       0.00000000       0.00000000       0.00000000 </v>
   <v>       0.00000000       0.00000000       0.00000000 </v>
   <v>       0.00000000       0.00000000       0.00000000 </v>
   <v>       0.00000000       0.00000000       0.00000000 </v>
   <v>       0.00000000       0.00000000       0.00000000 </v>
   <v>       0.00000000       0.00000000       0.00000000 </v>
   <v>       0.00000000       0.00000000       0.00000000 </v>
   <v>       0.00000000       0.00000000       0.00000000 </v>
   <v>       0.00000000       0.00000000       0.00000000 </v>
   <v>       0.00000000       0.00000000       0.00000000 </v>
   <v>       0.00000000       0.00000000       0.00000000 </v>
   <v>       0.00000000       0.00000000       0.00000000 </v>
   <v>       0.00000000       0.00000000       0.00000000 </v>
   <v>       0.00000000       0.00000000       0.00000000 </v>
   <v>       0.00000000       0.00000000       0.00000000 </v>
   <v>       0.00000000       0.00000000       0.00000000 </v>
   <v>       0.00000000       0.00000000       0.00000000 </v>
   <v>       0.00000000       0.00000000       0.00000000 </v>
   <v>       0.00000000       0.00000000       0.00000000 </v>
   <v>       0.00000000       0.00000000       0.00000000 </v>
   <v>       0.00000000       0.00000000       0.00000000 </v>
   <v>       0.00000000       0.00000000       0.00000000 </v>
   <v>       0.00000000       0.00000000       0.00000000 </v>
   <v>       0.00000000       0.00000000       0.00000000 </v>
   <v>       0.00000000       0.00000000       0.00000000 </v>
   <v>       0.00000000       0.00000000       0.00000000 </v>
   <v>       0.00000000       0.00000000       0.00000000 </v>
   <v>       0.00000000       0.00000000       0.00000000 </v>
   <v>       0.00000000       0.00000000       0.00000000 </v>
   <v>       0.00000000       0.00000000       0.00000000 </v>
   <v>       0.00000000       0.00000000       0.00000000 </v>
   <v>       0.00000000       0.00000000       0.00000000 </v>
   <v>       0.00000000       0.00000000       0.00000000 </v>
   <v>       0.00000000       0.00000000       0.00000000 </v>
   <v>       0.00000000       0.00000000       0.00000000 </v>
   <v>       0.00000000       0.00000000       0.00000000 </v>
   <v>       0.00000000       0.00000000       0.00000000 </v>
   <v>       0.00000000       0.00000000       0.00000000 </v>
   <v>       0.00000000       0.00000000       0.00000000 </v>
   <v>       0.00000000       0.00000000       0.00000000 </v>
   <v>       0.00000000       0.00000000       0.00000000 </v>
   <v>       0.00000000       0.00000000       0.00000000 </v>
   <v>       0.00000000       0.00000000       0.00000000 </v>
   <v>       0.00000000       0.00000000       0.00000000 </v>
   <v>       0.00000000       0.00000000       0.00000000 </v>
   <v>       0.00000000       0.00000000       0.00000000 </v>
   <v>       0.00000000       0.00000000       0.00000000 </v>
   <v>       0.00000000       0.00000000       0.00000000 </v>
   <v>       0.00000000       0.00000000       0.00000000 </v>
   <v>       0.00000000       0.00000000       0.00000000 </v>
   <v>       0.00000000       0.00000000       0.00000000 </v>
   <v>       0.00000000       0.00000000       0.00000000 </v>
   <v>       0.00000000       0.00000000       0.00000000 </v>
   <v>       0.00000000       0.00000000       0.00000000 </v>
   <v>       0.00000000       0.00000000       0.00000000 </v>
   <v>       0.00000000       0.00000000       0.00000000 </v>
   <v>       0.00000000       0.00000000       0.00000000 </v>
   <v>       0.00000000       0.00000000       0.00000000 </v>
   <v>       0.00000000       0.00000000       0.00000000 </v>
   <v>       0.00000000       0.00000000       0.00000000 </v>
   <v>       0.00000000       0.00000000       0.00000000 </v>
   <v>       0.00000000       0.00000000       0.00000000 </v>
   <v>       0.00000000       0.00000000       0.00000000 </v>
   <v>       0.00000000       0.00000000       0.00000000 </v>
   <v>       0.00000000       0.00000000       0.00000000 </v>
   <v>       0.00000000       0.00000000       0.00000000 </v>
   <v>       0.00000000       0.00000000       0.00000000 </v>
   <v>       0.00000000       0.00000000       0.00000000 </v>
   <v>       0.00000000       0.00000000       0.00000000 </v>
   <v>       0.00000000       0.00000000       0.00000000 </v>
   <v>       0.00000000       0.00000000       0.00000000 </v>
   <v>       0.00000000       0.00000000       0.00000000 </v>
   <v>       0.00000000       0.00000000       0.00000000 </v>
  </varray>
 </structure>
</modeling>
