 vasp.5.4.4.18Apr17-6-g9f103f2a35 (build Oct 31 2019 15:01:46) complex          
  
 executed on             LinuxIFC date 2024.04.19  21:43:31
 running on   52 total cores
 distrk:  each k-point on   52 cores,    1 groups
 distr:  one band on NCORES_PER_BAND=  13 cores,    4 groups


--------------------------------------------------------------------------------------------------------


 INCAR:
 POTCAR:    PAW_PBE Sc_sv 07Sep2000               
 POTCAR:    PAW_PBE F 08Apr2002                   
 POTCAR:    PAW_PBE C 08Apr2002                   
 POTCAR:    PAW_PBE Sc_sv 07Sep2000               
   VRHFIN =Sc: 3p4s3d                                                           
   LEXCH  = PE                                                                  
   EATOM  =  1273.2868 eV,   93.5839 Ry                                         
                                                                                
   TITEL  = PAW_PBE Sc_sv 07Sep2000                                             
   LULTRA =        F    use ultrasoft PP ?                                      
   IUNSCR =        1    unscreen: 0-lin 1-nonlin 2-no                           
   RPACOR =    2.200    partial core radius                                     
   POMASS =   44.956; ZVAL   =   11.000    mass and valenz                      
   RCORE  =    2.500    outmost cutoff radius                                   
   RWIGS  =    2.700; RWIGS  =    1.429    wigner-seitz radius (au A)           
   ENMAX  =  222.660; ENMIN  =  166.995 eV                                      
   RCLOC  =    1.805    cutoff for local pot                                    
   LCOR   =        T    correct aug charges                                     
   LPAW   =        T    paw PP                                                  
   EAUG   =  443.063                                                            
   RMAX   =    2.551    core radius for proj-oper                               
   RAUG   =    1.300    factor for augmentation sphere                          
   RDEP   =    2.650    radius for radial grids                                 
   RDEPT  =    2.038    core radius for aug-charge                              
                                                                                
   Atomic configuration                                                         
    8 entries                                                                   
     n  l   j            E        occ.                                          
     1  0  0.50     -4394.2533   2.0000                                         
     2  0  0.50      -471.0040   2.0000                                         
     2  1  1.50      -384.9788   6.0000                                         
     3  0  0.50       -52.1410   2.0000                                         
     4  0  0.50        -3.5584   1.0000                                         
     3  1  1.50       -30.8841   6.0000                                         
     3  2  2.50        -1.3655   2.0000                                         
     4  3  2.50        -1.3606   0.0000                                         
   Description                                                                  
     l       E           TYP  RCUT    TYP  RCUT                                 
     0    -52.1409870     23  1.800                                             
     0     -3.5583698     23  2.500                                             
     1    -30.8840697     23  2.300                                             
     1      4.0817478     23  2.300                                             
     2     -1.3655397     23  2.500                                             
     2      0.3564476     23  2.500                                             
  local pseudopotential read in
  partial core-charges read in
  partial kinetic energy density read in
  atomic valenz-charges read in
  non local Contribution for L=           0  read in
    real space projection operators read in
  non local Contribution for L=           0  read in
    real space projection operators read in
  non local Contribution for L=           1  read in
    real space projection operators read in
  non local Contribution for L=           1  read in
    real space projection operators read in
  non local Contribution for L=           2  read in
    real space projection operators read in
  non local Contribution for L=           2  read in
    real space projection operators read in
    PAW grid and wavefunctions read in
 
   number of l-projection  operators is LMAX  =           6
   number of lm-projection operators is LMMAX =          18
 
 POTCAR:    PAW_PBE F 08Apr2002                   
   VRHFIN =F: s2p5                                                              
   LEXCH  = PE                                                                  
   EATOM  =   659.6475 eV,   48.4827 Ry                                         
                                                                                
   TITEL  = PAW_PBE F 08Apr2002                                                 
   LULTRA =        F    use ultrasoft PP ?                                      
   IUNSCR =        1    unscreen: 0-lin 1-nonlin 2-no                           
   RPACOR =    1.200    partial core radius                                     
   POMASS =   18.998; ZVAL   =    7.000    mass and valenz                      
   RCORE  =    1.520    outmost cutoff radius                                   
   RWIGS  =    1.500; RWIGS  =    0.794    wigner-seitz radius (au A)           
   ENMAX  =  400.000; ENMIN  =  300.000 eV                                      
   ICORE  =        2    local potential                                         
   LCOR   =        T    correct aug charges                                     
   LPAW   =        T    paw PP                                                  
   EAUG   =  613.614                                                            
   RMAX   =    1.555    core radius for proj-oper                               
   RAUG   =    1.300    factor for augmentation sphere                          
   RDEP   =    1.539    radius for radial grids                                 
   RDEPT  =    1.299    core radius for aug-charge                              
                                                                                
   Atomic configuration                                                         
    4 entries                                                                   
     n  l   j            E        occ.                                          
     1  0  0.50      -663.3661   2.0000                                         
     2  0  0.50       -29.8995   2.0000                                         
     2  1  0.50       -11.1114   5.0000                                         
     3  2  1.50       -10.8847   0.0000                                         
   Description                                                                  
     l       E           TYP  RCUT    TYP  RCUT                                 
     0    -29.8995018     23  1.200                                             
     0     -9.5240782     23  1.200                                             
     1    -11.1113914     23  1.520                                             
     1      1.3605826     23  1.520                                             
     2    -10.8846608      7  1.500                                             
  local pseudopotential read in
  partial core-charges read in
  partial kinetic energy density read in
  atomic valenz-charges read in
  non local Contribution for L=           0  read in
    real space projection operators read in
  non local Contribution for L=           0  read in
    real space projection operators read in
  non local Contribution for L=           1  read in
    real space projection operators read in
  non local Contribution for L=           1  read in
    real space projection operators read in
    PAW grid and wavefunctions read in
 
   number of l-projection  operators is LMAX  =           4
   number of lm-projection operators is LMMAX =           8
 
 POTCAR:    PAW_PBE C 08Apr2002                   
   VRHFIN =C: s2p2                                                              
   LEXCH  = PE                                                                  
   EATOM  =   147.1560 eV,   10.8157 Ry                                         
                                                                                
   TITEL  = PAW_PBE C 08Apr2002                                                 
   LULTRA =        F    use ultrasoft PP ?                                      
   IUNSCR =        1    unscreen: 0-lin 1-nonlin 2-no                           
   RPACOR =    1.200    partial core radius                                     
   POMASS =   12.011; ZVAL   =    4.000    mass and valenz                      
   RCORE  =    1.500    outmost cutoff radius                                   
   RWIGS  =    1.630; RWIGS  =    0.863    wigner-seitz radius (au A)           
   ENMAX  =  400.000; ENMIN  =  300.000 eV                                      
   ICORE  =        2    local potential                                         
   LCOR   =        T    correct aug charges                                     
   LPAW   =        T    paw PP                                                  
   EAUG   =  644.873                                                            
   DEXC   =    0.000                                                            
   RMAX   =    1.529    core radius for proj-oper                               
   RAUG   =    1.300    factor for augmentation sphere                          
   RDEP   =    1.501    radius for radial grids                                 
   RDEPT  =    1.300    core radius for aug-charge                              
                                                                                
   Atomic configuration                                                         
    4 entries                                                                   
     n  l   j            E        occ.                                          
     1  0  0.50      -273.3789   2.0000                                         
     2  0  0.50       -13.7508   2.0000                                         
     2  1  0.50        -5.2854   2.0000                                         
     3  2  1.50        -5.4423   0.0000                                         
   Description                                                                  
     l       E           TYP  RCUT    TYP  RCUT                                 
     0    -13.7508458     23  1.200                                             
     0     -8.2022199     23  1.200                                             
     1     -5.2854383     23  1.500                                             
     1     34.0145650     23  1.500                                             
     2     -5.4423304      7  1.500                                             
  local pseudopotential read in
  partial core-charges read in
  partial kinetic energy density read in
  atomic valenz-charges read in
  non local Contribution for L=           0  read in
    real space projection operators read in
  non local Contribution for L=           0  read in
    real space projection operators read in
  non local Contribution for L=           1  read in
    real space projection operators read in
  non local Contribution for L=           1  read in
    real space projection operators read in
    PAW grid and wavefunctions read in
 
   number of l-projection  operators is LMAX  =           4
   number of lm-projection operators is LMMAX =           8
 
 Optimization of the real space projectors (new method)

 maximal supplied QI-value         = 15.12
 optimisation between [QCUT,QGAM] = [ 12.55, 25.10] = [ 44.09,176.36] Ry 
 Optimized for a Real-space Cutoff    1.56 Angstroem

   l    n(q)    QCUT    max X(q) W(low)/X(q) W(high)/X(q)  e(spline) 
   0     12    12.548     2.962    0.12E-05    0.11E-06    0.46E-07
   0     12    12.548    26.414    0.30E-04    0.15E-05    0.76E-07
   1     11    12.548     3.969    0.45E-05    0.12E-05    0.60E-07
   1     11    12.548     5.137    0.15E-04    0.18E-04    0.36E-06
   2     11    12.548   143.970    0.20E-03    0.19E-03    0.76E-06
   2     11    12.548   121.201    0.20E-03    0.19E-03    0.76E-06
 Optimization of the real space projectors (new method)

 maximal supplied QI-value         = 24.76
 optimisation between [QCUT,QGAM] = [ 12.38, 25.00] = [ 42.90,175.06] Ry 
 Optimized for a Real-space Cutoff    1.16 Angstroem

   l    n(q)    QCUT    max X(q) W(low)/X(q) W(high)/X(q)  e(spline) 
   0      9    12.378    14.049    0.11E-03    0.38E-05    0.23E-06
   0      9    12.378     8.945    0.15E-03    0.56E-05    0.30E-06
   1      8    12.378     7.086    0.18E-03    0.14E-03    0.29E-06
   1      8    12.378     6.747    0.16E-03    0.13E-03    0.26E-06
 Optimization of the real space projectors (new method)

 maximal supplied QI-value         = 25.13
 optimisation between [QCUT,QGAM] = [ 12.32, 24.88] = [ 42.47,173.37] Ry 
 Optimized for a Real-space Cutoff    1.16 Angstroem

   l    n(q)    QCUT    max X(q) W(low)/X(q) W(high)/X(q)  e(spline) 
   0      9    12.315   115.676    0.19E-03    0.80E-05    0.34E-06
   0      9    12.315    87.132    0.19E-03    0.82E-05    0.34E-06
   1      8    12.315     4.429    0.18E-03    0.13E-03    0.22E-06
   1      8    12.315     2.733    0.14E-03    0.10E-03    0.18E-06
  PAW_PBE Sc_sv 07Sep2000               :
 energy of atom  1       EATOM=-1273.2868
 kinetic energy error for atom=    0.0014 (will be added to EATOM!!)
  PAW_PBE F 08Apr2002                   :
 energy of atom  2       EATOM= -659.6475
 kinetic energy error for atom=    0.0256 (will be added to EATOM!!)
  PAW_PBE C 08Apr2002                   :
 energy of atom  3       EATOM= -147.1560
 kinetic energy error for atom=    0.0057 (will be added to EATOM!!)
 
 
 POSCAR: Sc  F  C                                
  positions in cartesian coordinates
  No initial velocities read in
 exchange correlation table for  LEXCH =        8
   RHO(1)=    0.500       N(1)  =     2000
   RHO(2)=  100.500       N(2)  =     4000
 


--------------------------------------------------------------------------------------------------------


 ion  position               nearest neighbor table
   1  0.075  0.160  0.450-  49 2.09  61 2.11  65 2.14  66 2.23  50 2.37  70 2.40  29 3.00  17 3.15
                             4 3.20  18 3.24  16 3.29  13 3.34   2 3.39   6 3.42
   2  0.079  0.420  0.448-  62 2.16  50 2.20  66 2.23  67 2.29  51 2.37  71 2.51  30 3.11  14 3.15
                             3 3.22  19 3.27  18 3.32   7 3.35   1 3.39  13 3.42
   3  0.084  0.667  0.456-  67 2.14  51 2.17  68 2.34  72 2.37  52 2.39  63 2.43  31 3.12  19 3.14
                             2 3.22  15 3.22  20 3.23  14 3.26   8 3.30   4 3.33
   4  0.090  0.924  0.453-  69 2.14  68 2.21  52 2.21  65 2.24  64 2.32  49 2.46  17 3.03  20 3.17
                            32 3.17   1 3.20   5 3.30  15 3.33   8 3.33   3 3.33
   5  0.344  0.173  0.451-  54 2.12  74 2.19  53 2.23  70 2.26  49 2.33  69 2.43  17 3.15  10 3.15
                             6 3.17  21 3.19   9 3.23  22 3.23   4 3.30   8 3.35
   6  0.341  0.413  0.450-  54 2.14  55 2.15  50 2.22  70 2.26  75 2.35  71 2.48  10 3.10   5 3.17
                            22 3.22   7 3.26  11 3.30  23 3.30  18 3.35   1 3.42
   7  0.343  0.662  0.458-  55 1.99  71 2.22  51 2.26  76 2.27  72 2.33  56 2.53  11 3.07  23 3.12
                            24 3.15  19 3.18  12 3.25   6 3.26   2 3.35   8 3.36
   8  0.339  0.915  0.454-  53 2.09  56 2.11  52 2.21  69 2.26  72 2.34  73 2.44  24 3.20  12 3.22
                             9 3.23  21 3.25  20 3.30   3 3.30   4 3.33   5 3.35   7 3.36
   9  0.583  0.162  0.457-  58 2.10  53 2.14  78 2.18  74 2.29  73 2.33  57 2.33  26 3.00  13 3.13
                            25 3.15  21 3.19   5 3.23   8 3.23  12 3.23  14 3.35  10 3.38
  10  0.579  0.417  0.454-  54 2.15  74 2.20  75 2.21  79 2.28  59 2.30  58 2.51  26 2.97  27 3.10
                             6 3.10  22 3.12   5 3.15  11 3.34   9 3.38  15 3.38  14 3.40
  11  0.583  0.673  0.455-  76 2.14  60 2.14  80 2.22  55 2.25  59 2.36  75 2.44   7 3.07  27 3.11
                            16 3.14  28 3.16  12 3.18  23 3.23   6 3.30  10 3.34  15 3.42
  12  0.584  0.916  0.457-  60 2.10  57 2.14  56 2.19  73 2.19  77 2.20  76 2.36  13 3.14  16 3.14
                            24 3.18  11 3.18  28 3.20   8 3.22   9 3.23   7 3.25  25 3.25
  13  0.820  0.159  0.453-  57 2.08  78 2.24  77 2.29  62 2.32  61 2.34  66 2.38  30 3.10  29 3.12
                             9 3.13  12 3.14  16 3.24  25 3.27  14 3.29   1 3.34   2 3.42
  14  0.838  0.417  0.447-  58 2.14  62 2.21  67 2.22  63 2.25  78 2.28  79 2.34  30 3.07   2 3.15
                            26 3.18   3 3.26  31 3.27  13 3.29  15 3.29   9 3.35  10 3.40
  15  0.840  0.669  0.443-  63 2.11  64 2.14  59 2.28  68 2.35  80 2.44  79 2.45   3 3.22  14 3.29
                             4 3.33  16 3.34  31 3.34  32 3.35  10 3.38  27 3.41  11 3.42
  16  0.821  0.912  0.450-  61 2.19  64 2.22  77 2.24  80 2.33  60 2.34  65 2.50  11 3.14  12 3.14
                            29 3.16  28 3.20  32 3.22  13 3.24   1 3.29  15 3.34
  17  0.171  0.087  0.542-  37 2.02  33 2.18  65 2.19  70 2.21  69 2.27  36 2.48   4 3.03   5 3.15
                            21 3.15   1 3.15  20 3.18  29 3.22  18 3.23  22 3.29  32 3.31
  18  0.158  0.326  0.547-  34 2.09  33 2.15  38 2.24  66 2.26  71 2.31  70 2.39  29 3.11  17 3.23
                             1 3.24  30 3.28  19 3.31   2 3.32  23 3.32   6 3.35  22 3.39
  19  0.164  0.581  0.549-  35 2.20  72 2.24  71 2.26  39 2.35  67 2.39  34 2.40   3 3.14   7 3.18
                            30 3.25   2 3.27  24 3.27  31 3.30  18 3.31  23 3.35  20 3.43
  20  0.160  0.840  0.551-  36 2.19  69 2.24  40 2.28  35 2.30  68 2.31  72 2.48   4 3.17  17 3.18
                            32 3.19   3 3.23  21 3.28   8 3.30  31 3.31  19 3.43  24 3.43
  21  0.411  0.088  0.551-  40 2.12  37 2.15  41 2.18  74 2.36  69 2.37  73 2.49  17 3.15   9 3.19
                            22 3.19   5 3.19   8 3.25  20 3.28  25 3.32  26 3.33
  22  0.422  0.336  0.550-  75 2.15  38 2.18  42 2.18  74 2.27  37 2.34  70 2.37  10 3.12  23 3.16
                            26 3.18  21 3.19  27 3.22   6 3.22   5 3.23  17 3.29  18 3.39
  23  0.416  0.574  0.552-  39 2.10  38 2.15  43 2.19  71 2.24  75 2.28  76 2.30   7 3.12  22 3.16
                            27 3.20  11 3.23   6 3.30  18 3.32  24 3.35  19 3.35  28 3.40
  24  0.415  0.829  0.552-  72 2.20  73 2.24  39 2.35  76 2.37  40 2.53  44 2.53   7 3.15  12 3.18
                             8 3.20  19 3.27  25 3.31  23 3.35  28 3.37  20 3.43
  25  0.662  0.086  0.555-  44 2.07  73 2.13  45 2.15  41 2.22  78 2.47  77 2.48   9 3.15  12 3.25
                            13 3.27  24 3.31  21 3.32  30 3.33  26 3.33  28 3.39
  26  0.664  0.339  0.540-  79 2.13  42 2.17  74 2.18  78 2.25  41 2.41  46 2.47  10 2.97   9 3.00
                            22 3.18  14 3.18  27 3.22  31 3.24  30 3.30  21 3.33  25 3.33
  27  0.664  0.584  0.546-  43 2.14  42 2.15  75 2.15  80 2.21  47 2.25  79 2.35  10 3.10  11 3.11
                            23 3.20  22 3.22  26 3.22  28 3.22  31 3.29  32 3.32  15 3.41
  28  0.674  0.834  0.551-  48 2.07  44 2.17  76 2.25  77 2.25  80 2.32  43 2.34  32 3.16  11 3.16
                            12 3.20  16 3.20  27 3.22  29 3.31  24 3.37  25 3.39  23 3.40
  29  0.925  0.086  0.542-  65 2.17  33 2.17  48 2.18  45 2.26  77 2.29  66 2.33   1 3.00  18 3.11
                            13 3.12  16 3.16  32 3.20  17 3.22  28 3.31  30 3.37
  30  0.915  0.337  0.541-  46 2.14  78 2.20  34 2.22  67 2.25  66 2.33  45 2.38  14 3.07  13 3.10
                             2 3.11  31 3.23  19 3.25  18 3.28  26 3.30  25 3.33  29 3.37
  31  0.914  0.582  0.547-  46 2.21  35 2.22  47 2.23  79 2.28  67 2.29  68 2.44   3 3.12  30 3.23
                            26 3.24  14 3.27  27 3.29  19 3.30  20 3.31  32 3.34  15 3.34
  32  0.916  0.837  0.546-  36 2.12  48 2.17  47 2.20  68 2.20  80 2.28  65 2.35  28 3.16   4 3.17
                            20 3.19  29 3.20  16 3.22  17 3.31  27 3.32  31 3.34  15 3.35
  33  0.084  0.161  0.586-  18 2.15  29 2.17  17 2.18
  34  0.070  0.392  0.589-  18 2.09  30 2.22  19 2.40
  35  0.079  0.661  0.591-  19 2.20  31 2.22  20 2.30
  36  0.063  0.907  0.594-  32 2.12  20 2.19  17 2.48
  37  0.311  0.154  0.589-  17 2.02  21 2.15  22 2.34
  38  0.327  0.408  0.590-  23 2.15  22 2.18  18 2.24
  39  0.339  0.651  0.596-  23 2.10  24 2.35  19 2.35
  40  0.329  0.937  0.597-  21 2.12  20 2.28  24 2.53
  41  0.573  0.169  0.594-  21 2.18  25 2.22  26 2.41
  42  0.592  0.422  0.587-  27 2.15  26 2.17  22 2.18
  43  0.582  0.653  0.593-  27 2.14  23 2.19  28 2.34
  44  0.613  0.933  0.595-  25 2.07  28 2.17  24 2.53
  45  0.834  0.160  0.588-  25 2.15  29 2.26  30 2.38
  46  0.847  0.417  0.590-  30 2.14  31 2.21  26 2.47
  47  0.834  0.673  0.589-  32 2.20  31 2.23  27 2.25
  48  0.837  0.925  0.585-  28 2.07  32 2.17  29 2.18
  49  0.172  0.108  0.405-   1 2.09   5 2.33   4 2.46
  50  0.173  0.345  0.409-   2 2.20   6 2.22   1 2.37
  51  0.182  0.609  0.411-   3 2.17   7 2.26   2 2.37
  52  0.177  0.847  0.409-   8 2.21   4 2.21   3 2.39
  53  0.423  0.075  0.415-   8 2.09   9 2.14   5 2.23
  54  0.423  0.332  0.409-   5 2.12   6 2.14  10 2.15
  55  0.408  0.583  0.416-   7 1.99   6 2.15  11 2.25
  56  0.429  0.854  0.410-   8 2.11  12 2.19   7 2.53
  57  0.666  0.071  0.412-  13 2.08  12 2.14   9 2.33
  58  0.671  0.312  0.412-   9 2.10  14 2.14  10 2.51
  59  0.662  0.582  0.405-  15 2.28  10 2.30  11 2.36
  60  0.639  0.826  0.410-  12 2.10  11 2.14  16 2.34
  61  0.916  0.078  0.409-   1 2.11  16 2.19  13 2.34
  62  0.917  0.329  0.406-   2 2.16  14 2.21  13 2.32
  63  0.912  0.583  0.402-  15 2.11  14 2.25   3 2.43
  64  0.915  0.837  0.408-  15 2.14  16 2.22   4 2.32
  65  0.010  0.010  0.498-   1 2.14  29 2.17  17 2.19   4 2.24  32 2.35  16 2.50
  66  0.006  0.256  0.493-   1 2.23   2 2.23  18 2.26  30 2.33  29 2.33  13 2.38
  67  0.996  0.504  0.496-   3 2.14  14 2.22  30 2.25   2 2.29  31 2.29  19 2.39
  68  1.000  0.763  0.499-  32 2.20   4 2.21  20 2.31   3 2.34  15 2.35  31 2.44
  69  0.245  0.991  0.498-   4 2.14  20 2.24   8 2.26  17 2.27  21 2.37   5 2.43
  70  0.254  0.249  0.497-  17 2.21   6 2.26   5 2.26  22 2.37  18 2.39   1 2.40
  71  0.254  0.502  0.505-   7 2.22  23 2.24  19 2.26  18 2.31   6 2.48   2 2.51
  72  0.257  0.748  0.505-  24 2.20  19 2.24   7 2.33   8 2.34   3 2.37  20 2.48
  73  0.512  0.995  0.508-  25 2.13  12 2.19  24 2.24   9 2.33   8 2.44  21 2.49
  74  0.500  0.255  0.499-  26 2.18   5 2.19  10 2.20  22 2.27   9 2.29  21 2.36
  75  0.502  0.493  0.505-  22 2.15  27 2.15  10 2.21  23 2.28   6 2.35  11 2.44
  76  0.508  0.744  0.506-  11 2.14  28 2.25   7 2.27  23 2.30  12 2.36  24 2.37
  77  0.747  0.993  0.501-  12 2.20  16 2.24  28 2.25  13 2.29  29 2.29  25 2.48
  78  0.750  0.255  0.498-   9 2.18  30 2.20  13 2.24  26 2.25  14 2.28  25 2.47
  79  0.750  0.497  0.498-  26 2.13  10 2.28  31 2.28  14 2.34  27 2.35  15 2.45
  80  0.748  0.744  0.500-  27 2.21  11 2.22  32 2.28  28 2.32  16 2.33  15 2.44
 
  LATTYP: Found a hexagonal cell.
 ALAT       =    13.1286233990
 C/A-ratio  =     2.0434811347
  
  Lattice vectors:
  
 A1 = (  13.1286234000,   0.0000000000,   0.0000000000)
 A2 = (  -6.5643117000,  11.3697213800,   0.0000000000)
 A3 = (   0.0000000000,   0.0000000000,  26.8280942400)


Analysis of symmetry for initial positions (statically):
=====================================================================
 Subroutine PRICEL returns:
 Original cell was already a primitive cell.
 

 Routine SETGRP: Setting up the symmetry group for a 
 hexagonal supercell.


 Subroutine GETGRP returns: Found  1 space group operations
 (whereof  1 operations were pure point group operations)
 out of a pool of 24 trial point group operations.


The static configuration has the point symmetry C_1 .


Analysis of symmetry for dynamics (positions and initial velocities):
=====================================================================
 Subroutine PRICEL returns:
 Original cell was already a primitive cell.
 

 Routine SETGRP: Setting up the symmetry group for a 
 hexagonal supercell.


 Subroutine GETGRP returns: Found  1 space group operations
 (whereof  1 operations were pure point group operations)
 out of a pool of 24 trial point group operations.


The dynamic configuration has the point symmetry C_1 .


 Subroutine INISYM returns: Found  1 space group operations
 (whereof  1 operations are pure point group operations),
 and found     1 'primitive' translations

 
 

Automatic generation of k-mesh.
 generate k-points for:    3    3    1
Space group operators:
 irot       det(A)        alpha          n_x          n_y          n_z        tau_x        tau_y        tau_z
    1     1.000000     0.000000     1.000000     0.000000     0.000000     0.000000     0.000000     0.000000
 
 Subroutine IBZKPT returns following result:
 ===========================================
 
 Found      5 irreducible k-points:
 
 Following reciprocal coordinates:
            Coordinates               Weight
  0.000000  0.000000  0.000000      1.000000
  0.333333 -0.000000  0.000000      2.000000
  0.000000  0.333333  0.000000      2.000000
  0.333333  0.333333  0.000000      2.000000
 -0.333333  0.333333  0.000000      2.000000
 
 Following cartesian coordinates:
            Coordinates               Weight
  0.000000  0.000000  0.000000      1.000000
  0.025390  0.014659  0.000000      2.000000
  0.000000  0.029318  0.000000      2.000000
  0.025390  0.043976  0.000000      2.000000
 -0.025390  0.014659  0.000000      2.000000
 


--------------------------------------------------------------------------------------------------------




 Dimension of arrays:
   k-points           NKPTS =      5   k-points in BZ     NKDIM =      5   number of bands    NBANDS=    384
   number of dos      NEDOS =    301   number of ions     NIONS =     80
   non local maximal  LDIM  =      6   non local SUM 2l+1 LMDIM =     18
   total plane-waves  NPLWV = ******
   max r-space proj   IRMAX =  10060   max aug-charges    IRDMAX= 222480
   dimension x,y,z NGX =   108 NGY =  108 NGZ =  216
   dimension x,y,z NGXF=   216 NGYF=  216 NGZF=  432
   support grid    NGXF=   432 NGYF=  432 NGZF=  864
   ions per type =              32  32  16
   NGX,Y,Z   is equivalent  to a cutoff of  13.68, 13.68, 13.38 a.u.
   NGXF,Y,Z  is equivalent  to a cutoff of  27.35, 27.35, 26.77 a.u.

 SYSTEM =  unknown system                          
 POSCAR =  Sc  F  C                                

 Startparameter for this run:
   NWRITE =      2    write-flag & timer
   PREC   = anorma    normal or accurate (medium, high low for compatibility)
   ISTART =      0    job   : 0-new  1-cont  2-samecut
   ICHARG =      2    charge: 1-file 2-atom 10-const
   ISPIN  =      1    spin polarized calculation?
   LNONCOLLINEAR =      F non collinear calculations
   LSORBIT =      F    spin-orbit coupling
   INIWAV =      1    electr: 0-lowe 1-rand  2-diag
   LASPH  =      F    aspherical Exc in radial PAW
   METAGGA=      F    non-selfconsistent MetaGGA calc.

 Electronic Relaxation 1
   ENCUT  =  600.0 eV  44.10 Ry    6.64 a.u.  26.22 26.22 53.58*2*pi/ulx,y,z
   ENINI  =  600.0     initial cutoff
   ENAUG  =  644.9 eV  augmentation charge cutoff
   NELM   =     60;   NELMIN=  2; NELMDL= -5     # of ELM steps 
   EDIFF  = 0.1E-05   stopping-criterion for ELM
   LREAL  =      T    real-space projection
   NLSPLINE    = F    spline interpolate recip. space projectors
   LCOMPAT=      F    compatible to vasp.4.4
   GGA_COMPAT  = T    GGA compatible to vasp.4.4-vasp.4.6
   LMAXPAW     = -100 max onsite density
   LMAXMIX     =    2 max onsite mixed and CHGCAR
   VOSKOWN=      0    Vosko Wilk Nusair interpolation
   ROPT   =   -0.00025  -0.00025  -0.00025
 Ionic relaxation
   EDIFFG = -.1E-01   stopping-criterion for IOM
   NSW    =      1    number of steps for IOM
   NBLOCK =      1;   KBLOCK =      1    inner block; outer block 
   IBRION =     -1    ionic relax: 0-MD 1-quasi-New 2-CG
   NFREE  =      0    steps in history (QN), initial steepest desc. (CG)
   ISIF   =      2    stress and relaxation
   IWAVPR =     10    prediction:  0-non 1-charg 2-wave 3-comb
   ISYM   =      2    0-nonsym 1-usesym 2-fastsym
   LCORR  =      T    Harris-Foulkes like correction to forces

   POTIM  = 1.0000    time-step for ionic-motion
   TEIN   =    0.0    initial temperature
   TEBEG  =    0.0;   TEEND  =   0.0 temperature during run
   SMASS  =  -3.00    Nose mass-parameter (am)
   estimated Nose-frequenzy (Omega)   =  0.10E-29 period in steps =****** mass=  -0.394E-26a.u.
   SCALEE = 1.0000    scale energy and forces
   NPACO  =    256;   APACO  = 16.0  distance and # of slots for P.C.
   PSTRESS=    0.0 pullay stress

  Mass of Ions in am
   POMASS =  44.96 19.00 12.01
  Ionic Valenz
   ZVAL   =  11.00  7.00  4.00
  Atomic Wigner-Seitz radii
   RWIGS  =  -1.00 -1.00 -1.00
  virtual crystal weights 
   VCA    =   1.00  1.00  1.00
   NELECT =     640.0000    total number of electrons
   NUPDOWN=      -1.0000    fix difference up-down

 DOS related values:
   EMIN   =  10.00;   EMAX   =-10.00  energy-range for DOS
   EFERMI =   0.00
   ISMEAR =     0;   SIGMA  =   0.05  broadening in eV -4-tet -1-fermi 0-gaus

 Electronic relaxation 2 (details)
   IALGO  =     38    algorithm
   LDIAG  =      T    sub-space diagonalisation (order eigenvalues)
   LSUBROT=      F    optimize rotation matrix (better conditioning)
   TURBO    =      0    0=normal 1=particle mesh
   IRESTART =      0    0=no restart 2=restart with 2 vectors
   NREBOOT  =      0    no. of reboots
   NMIN     =      0    reboot dimension
   EREF     =   0.00    reference energy to select bands
   IMIX   =      4    mixing-type and parameters
     AMIX     =   0.40;   BMIX     =  1.00
     AMIX_MAG =   1.60;   BMIX_MAG =  1.00
     AMIN     =   0.10
     WC   =   100.;   INIMIX=   1;  MIXPRE=   1;  MAXMIX= -45

 Intra band minimization:
   WEIMIN = 0.0000     energy-eigenvalue tresh-hold
   EBREAK =  0.65E-09  absolut break condition
   DEPER  =   0.30     relativ break condition  

   TIME   =   0.40     timestep for ELM

  volume/ion in A,a.u.               =      50.06       337.80
  Fermi-wavevector in a.u.,A,eV,Ry     =   0.888414  1.678858 10.738790  0.789279
  Thomas-Fermi vector in A             =   2.009840
 
 Write flags
   LWAVE        =      F    write WAVECAR
   LDOWNSAMPLE  =      F    k-point downsampling of WAVECAR
   LCHARG       =      F    write CHGCAR
   LVTOT        =      F    write LOCPOT, total local potential
   LVHAR        =      F    write LOCPOT, Hartree potential only
   LELF         =      F    write electronic localiz. function (ELF)
   LORBIT       =      0    0 simple, 1 ext, 2 COOP (PROOUT), +10 PAW based schemes


 Dipole corrections
   LMONO  =      F    monopole corrections only (constant potential shift)
   LDIPOL =      F    correct potential (dipole corrections)
   IDIPOL =      0    1-x, 2-y, 3-z, 4-all directions 
   EPSILON=  1.0000000 bulk dielectric constant

 Exchange correlation treatment:
   GGA     =    --    GGA type
   LEXCH   =     8    internal setting for exchange type
   VOSKOWN=      0    Vosko Wilk Nusair interpolation
   LHFCALC =     F    Hartree Fock is set to
   LHFONE  =     F    Hartree Fock one center treatment
   AEXX    =    0.0000 exact exchange contribution

 Linear response parameters
   LEPSILON=     F    determine dielectric tensor
   LRPA    =     F    only Hartree local field effects (RPA)
   LNABLA  =     F    use nabla operator in PAW spheres
   LVEL    =     F    velocity operator in full k-point grid
   LINTERFAST=   F  fast interpolation
   KINTER  =     0    interpolate to denser k-point grid
   CSHIFT  =0.1000    complex shift for real part using Kramers Kronig
   OMEGAMAX=  -1.0    maximum frequency
   DEG_THRESHOLD= 0.2000000E-02 threshold for treating states as degnerate
   RTIME   =   -0.100 relaxation time in fs
  (WPLASMAI=    0.000 imaginary part of plasma frequency in eV, 0.658/RTIME)
   DFIELD  = 0.0000000 0.0000000 0.0000000 field for delta impulse in time
 
 Orbital magnetization related:
   ORBITALMAG=     F  switch on orbital magnetization
   LCHIMAG   =     F  perturbation theory with respect to B field
   DQ        =  0.001000  dq finite difference perturbation B field
   LLRAUG    =     F  two centre corrections for induced B field



--------------------------------------------------------------------------------------------------------


 Static calculation
 charge density and potential will be updated during run
 non-spin polarized calculation
 Variant of blocked Davidson
 Davidson routine will perform the subspace rotation
 perform sub-space diagonalisation
    after iterative eigenvector-optimisation
 modified Broyden-mixing scheme, WC =      100.0
 initial mixing is a Kerker type mixing with AMIX =  0.4000 and BMIX =      1.0000
 Hartree-type preconditioning will be used
 using additional bands           64
 real space projection scheme for non local part
 use partial core corrections
 calculate Harris-corrections to forces 
   (improved forces if not selfconsistent)
 use gradient corrections 
 use of overlap-Matrix (Vanderbilt PP)
 Gauss-broadening in eV      SIGMA  =   0.05


--------------------------------------------------------------------------------------------------------


  energy-cutoff  :      600.00
  volume of cell :     4004.60
      direct lattice vectors                 reciprocal lattice vectors
    13.128623400  0.000000000  0.000000000     0.076169448  0.043976451  0.000000000
    -6.564311700 11.369721380  0.000000000     0.000000000  0.087952903  0.000000000
     0.000000000  0.000000000 26.828094240     0.000000000  0.000000000  0.037274358

  length of vectors
    13.128623400 13.128623399 26.828094240     0.087952903  0.087952903  0.037274358


 
 k-points in units of 2pi/SCALE and weight: read from INCAR                         
   0.00000000  0.00000000  0.00000000       0.111
   0.02538982  0.01465882  0.00000000       0.222
   0.00000000  0.02931763  0.00000000       0.222
   0.02538982  0.04397645  0.00000000       0.222
  -0.02538982  0.01465882  0.00000000       0.222
 
 k-points in reciprocal lattice and weights: read from INCAR                         
   0.00000000  0.00000000  0.00000000       0.111
   0.33333333 -0.00000000  0.00000000       0.222
   0.00000000  0.33333333  0.00000000       0.222
   0.33333333  0.33333333  0.00000000       0.222
  -0.33333333  0.33333333  0.00000000       0.222
 
 position of ions in fractional coordinates (direct lattice) 
   0.07492065  0.15986587  0.44951524
   0.07898524  0.42012904  0.44794162
   0.08354203  0.66726825  0.45589203
   0.08964984  0.92409690  0.45294747
   0.34380331  0.17315430  0.45077476
   0.34116798  0.41339880  0.44965178
   0.34341482  0.66224985  0.45804431
   0.33858182  0.91547551  0.45442557
   0.58345448  0.16205880  0.45745869
   0.57921904  0.41693369  0.45417689
   0.58274060  0.67298106  0.45522321
   0.58424699  0.91626414  0.45725126
   0.81970968  0.15852334  0.45326613
   0.83762653  0.41707910  0.44749821
   0.84010926  0.66869737  0.44314099
   0.82091406  0.91226245  0.44974092
   0.17077540  0.08679705  0.54236128
   0.15800421  0.32590881  0.54749666
   0.16442022  0.58101223  0.54888508
   0.15981327  0.83973423  0.55123264
   0.41058942  0.08804803  0.55084711
   0.42154648  0.33621357  0.54956380
   0.41577000  0.57391879  0.55229755
   0.41527440  0.82872330  0.55163329
   0.66174816  0.08560005  0.55487212
   0.66437741  0.33904586  0.54048307
   0.66381288  0.58353248  0.54578376
   0.67418691  0.83378409  0.55136352
   0.92513956  0.08559140  0.54150662
   0.91461588  0.33692590  0.54068931
   0.91387518  0.58209919  0.54739505
   0.91591879  0.83714361  0.54556219
   0.08434494  0.16096847  0.58637806
   0.07020751  0.39225825  0.58933742
   0.07898548  0.66114459  0.59133713
   0.06303173  0.90695705  0.59378161
   0.31057007  0.15378930  0.58880969
   0.32704763  0.40766698  0.59013031
   0.33864891  0.65053114  0.59553292
   0.32874743  0.93677900  0.59676261
   0.57264830  0.16877737  0.59400222
   0.59163371  0.42208491  0.58738079
   0.58238710  0.65329185  0.59341316
   0.61295674  0.93252948  0.59463063
   0.83373718  0.16009936  0.58775290
   0.84652945  0.41651510  0.58997210
   0.83441972  0.67253447  0.58856897
   0.83703549  0.92451222  0.58521007
   0.17152069  0.10806965  0.40505535
   0.17272510  0.34470689  0.40850033
   0.18158392  0.60870693  0.41086969
   0.17675825  0.84657500  0.40930087
   0.42332352  0.07506963  0.41549829
   0.42274980  0.33230169  0.40942436
   0.40779475  0.58321920  0.41597046
   0.42871887  0.85367361  0.40997702
   0.66609775  0.07069927  0.41152380
   0.67105675  0.31159872  0.41224480
   0.66160695  0.58167855  0.40474519
   0.63866441  0.82591541  0.40959798
   0.91618946  0.07773674  0.40876460
   0.91704414  0.32920612  0.40596698
   0.91200863  0.58264268  0.40190503
   0.91473495  0.83724265  0.40827043
   0.00984582  0.01029014  0.49773167
   0.00576042  0.25637004  0.49348920
   0.99631904  0.50406249  0.49558088
   0.99968443  0.76266636  0.49850447
   0.24472899  0.99139517  0.49791969
   0.25379195  0.24932802  0.49685358
   0.25423802  0.50169040  0.50464671
   0.25659023  0.74786568  0.50489993
   0.51199734  0.99529562  0.50763654
   0.49978498  0.25483193  0.49874419
   0.50153316  0.49316006  0.50478526
   0.50798855  0.74356278  0.50576318
   0.74701397  0.99291203  0.50133480
   0.75004224  0.25495952  0.49750949
   0.75028349  0.49695944  0.49813907
   0.74761338  0.74437986  0.49952014
 
 position of ions in cartesian coordinates  (Angst):
  -0.06580446  1.81763043 12.05963714
  -1.72089050  4.77675010 12.01741998
  -3.28336493  7.58665404 12.23071423
  -4.88908109 10.50672432 12.15171730
   3.37702542  1.96871616 12.09342762
   1.76538729  4.70022916 12.06330022
   0.16134939  7.52959632 12.28845598
  -1.56435334 10.40870147 12.19137212
   6.59614964  1.84256339 12.27274477
   4.86746594  4.74041987 12.18470030
   3.23292443  7.65160715 12.21277111
   1.65571527 10.41766793 12.26717982
   9.72106299  1.80236624 12.16026640
   8.25904598  4.74207320 12.00552409
   6.63994010  7.60290274 11.88862815
   4.78909653 10.37216988 12.06569178
   1.67228297  0.98685827 14.55051951
  -0.06498923  3.70549240 14.68829210
  -1.65533428  6.60594719 14.72554057
  -3.41414896  9.54754419 14.78852127
   4.81249914  1.00108155 14.77817806
   3.32731437  3.82265462 14.74374932
   1.69110591  6.52529671 14.81709078
   0.01198318  9.42235298 14.79926979
   8.12593704  0.97324869 14.88616153
   6.49675807  3.85485701 14.50013073
   4.88446025  6.63460172 14.64233817
   3.37792733  9.47989280 14.79203258
  11.58396028  0.97315040 14.52759053
   9.79596082  3.83075357 14.50566384
   8.17684257  6.61830562 14.68556611
   6.52948125  9.51808963 14.63639392
   0.05068572  1.83016667 15.73140578
  -1.65317752  4.45986700 15.81079977
  -3.30298858  7.51702982 15.86444834
  -5.12602895 10.31184893 15.93002899
   3.06783653  1.74854152 15.79664197
   1.61763204  4.63505993 15.83207153
   0.17570478  7.39635780 15.97701326
  -1.83330812 10.65091623 16.01000360
   6.41017662  1.91895162 15.93594753
   4.99663923  4.79898786 15.75830714
   3.35752951  7.42774637 15.92014413
   1.92586409 10.60260036 15.95280649
   9.89487930  1.82028512 15.76829024
   8.37963134  4.73566069 15.82782705
   6.54005636  7.64652953 15.79018371
   4.92033732 10.51144635 15.70007081
   1.54242771  1.22872186 10.86686322
   0.00487937  3.91922130 10.95928539
  -1.61179515  6.92082825 11.02285083
  -3.23658974  9.62532190 10.98076241
   5.06487460  0.85352074 11.14702722
   3.36879098  3.77817768 10.98407535
   1.52535104  6.63103985 11.15969482
   0.02470896  9.70603110 10.99890204
   8.28085447  0.80383099 11.04039925
   6.76462020  3.54279064 11.05974232
   4.86766922  6.61352300 10.85854210
   2.96321838  9.39042804 10.98873311
  11.51801816  0.88384507 10.96637516
   9.87851557  3.74298183 10.89132052
   8.14876971  6.62448489 10.78234597
   6.51328892  9.51921565 10.95311757
   0.06171442  0.11699597 13.35319223
  -1.60726641  2.91485589 13.23937485
   9.77147413  5.73105007 13.29549056
   8.11810069  8.67130403 13.37392488
  -3.29487212 11.27188688 13.35823636
   1.69527214  2.83479011 13.32963469
   0.04454307  5.70408002 13.53870939
  -1.54054689  8.50302436 13.54550287
   0.18838954 11.31623387 13.61892098
   4.88869252  2.89736806 13.38035602
   3.34718359  5.60709244 13.54242649
   1.78821248  8.45410168 13.56866236
   3.28948110 11.28913308 13.44985731
   8.17338828  2.89881874 13.34723144
   6.58799276  5.65029036 13.36412184
   4.92879303  8.46339166 13.40117337
 


--------------------------------------------------------------------------------------------------------


 k-point  1 :   0.0000 0.0000 0.0000  plane waves:  133769
 k-point  2 :   0.3333-0.0000 0.0000  plane waves:  133588
 k-point  3 :   0.0000 0.3333 0.0000  plane waves:  133588
 k-point  4 :   0.3333 0.3333 0.0000  plane waves:  133608
 k-point  5 :  -0.3333 0.3333 0.0000  plane waves:  133588

 maximum and minimum number of plane-waves per node :     10323    10242

 maximum number of plane-waves:    133769
 maximum index in each direction: 
   IXMAX=   26   IYMAX=   26   IZMAX=   53
   IXMIN=  -26   IYMIN=  -26   IZMIN=  -53


 real space projection operators:
  total allocation   :      55734.12 KBytes
  max/ min on nodes  :       4720.69       4045.77


 parallel 3D FFT for wavefunctions:
    minimum data exchange during FFTs selected (reduces bandwidth)
 parallel 3D FFT for charge:
    minimum data exchange during FFTs selected (reduces bandwidth)


 total amount of memory used by VASP MPI-rank0   234707. kBytes
=======================================================================

   base      :      30000. kBytes
   nonlr-proj:      19439. kBytes
   fftplans  :      66973. kBytes
   grid      :      38377. kBytes
   one-center:        108. kBytes
   wavefun   :      79810. kBytes
 
     INWAV:  cpu time    0.0000: real time    0.0000
 Broyden mixing: mesh for mixing (old mesh)
   NGX = 53   NGY = 53   NGZ =107
  (NGX  =216   NGY  =216   NGZ  =432)
  gives a total of 300563 points

 initial charge density was supplied:
 charge density of overlapping atoms calculated
 number of electron     640.0000000 magnetization 
 keeping initial charge density in first step


--------------------------------------------------------------------------------------------------------


 Maximum index for non-local projection operator         1111
 Maximum index for augmentation-charges         5801 (set IRDMAX)


--------------------------------------------------------------------------------------------------------


 First call to EWALD:  gamma=   0.112
 Maximum number of real-space cells 4x 4x 2
 Maximum number of reciprocal cells 2x 2x 4

    FEWALD:  cpu time    0.0028: real time    0.0028


--------------------------------------- Iteration      1(   1)  ---------------------------------------


    POTLOK:  cpu time    0.4182: real time    0.4243
    SETDIJ:  cpu time    0.4173: real time    0.4194
     EDDAV:  cpu time   46.2228: real time   46.2350
       DOS:  cpu time    0.0013: real time    0.0013
    --------------------------------------------
      LOOP:  cpu time   47.0596: real time   47.0800

 eigenvalue-minimisations  :  4232
 total energy-change (2. order) : 0.1368859E+05  (-0.2786244E+05)
 number of electron     640.0000000 magnetization 
 augmentation part      640.0000000 magnetization 

 Free energy of the ion-electron system (eV)
  ---------------------------------------------------
  alpha Z        PSCENC =       871.83850952
  Ewald energy   TEWEN  =    286472.41116163
  -Hartree energ DENC   =   -340818.76253711
  -exchange      EXHF   =         0.00000000
  -V(xc)+E(xc)   XCENC  =      3043.20823107
  PAW double counting   =     50525.51240023   -50422.77561733
  entropy T*S    EENTRO =        -0.08147364
  eigenvalues    EBANDS =      -190.19376249
  atomic energy  EATOM  =     64207.43592568
  Solvation  Ediel_sol  =         0.00000000
  ---------------------------------------------------
  free energy    TOTEN  =     13688.59283756 eV

  energy without entropy =    13688.67431120  energy(sigma->0) =    13688.63357438


--------------------------------------------------------------------------------------------------------




--------------------------------------- Iteration      1(   2)  ---------------------------------------


     EDDAV:  cpu time   49.2751: real time   49.3099
       DOS:  cpu time    0.0012: real time    0.0012
    --------------------------------------------
      LOOP:  cpu time   49.2763: real time   49.3111

 eigenvalue-minimisations  :  4624
 total energy-change (2. order) :-0.1119417E+05  (-0.1089565E+05)
 number of electron     640.0000000 magnetization 
 augmentation part      640.0000000 magnetization 

 Free energy of the ion-electron system (eV)
  ---------------------------------------------------
  alpha Z        PSCENC =       871.83850952
  Ewald energy   TEWEN  =    286472.41116163
  -Hartree energ DENC   =   -340818.76253711
  -exchange      EXHF   =         0.00000000
  -V(xc)+E(xc)   XCENC  =      3043.20823107
  PAW double counting   =     50525.51240023   -50422.77561733
  entropy T*S    EENTRO =        -0.05539126
  eigenvalues    EBANDS =    -11384.38740641
  atomic energy  EATOM  =     64207.43592568
  Solvation  Ediel_sol  =         0.00000000
  ---------------------------------------------------
  free energy    TOTEN  =      2494.42527601 eV

  energy without entropy =     2494.48066727  energy(sigma->0) =     2494.45297164


--------------------------------------------------------------------------------------------------------




--------------------------------------- Iteration      1(   3)  ---------------------------------------


     EDDAV:  cpu time   67.4817: real time   67.4929
       DOS:  cpu time    0.0004: real time    0.0004
    --------------------------------------------
      LOOP:  cpu time   67.4821: real time   67.4933

 eigenvalue-minimisations  :  6792
 total energy-change (2. order) :-0.2875457E+04  (-0.2761062E+04)
 number of electron     640.0000000 magnetization 
 augmentation part      640.0000000 magnetization 

 Free energy of the ion-electron system (eV)
  ---------------------------------------------------
  alpha Z        PSCENC =       871.83850952
  Ewald energy   TEWEN  =    286472.41116163
  -Hartree energ DENC   =   -340818.76253711
  -exchange      EXHF   =         0.00000000
  -V(xc)+E(xc)   XCENC  =      3043.20823107
  PAW double counting   =     50525.51240023   -50422.77561733
  entropy T*S    EENTRO =        -0.00000000
  eigenvalues    EBANDS =    -14259.90016770
  atomic energy  EATOM  =     64207.43592568
  Solvation  Ediel_sol  =         0.00000000
  ---------------------------------------------------
  free energy    TOTEN  =      -381.03209401 eV

  energy without entropy =     -381.03209401  energy(sigma->0) =     -381.03209401


--------------------------------------------------------------------------------------------------------




--------------------------------------- Iteration      1(   4)  ---------------------------------------


     EDDAV:  cpu time   61.2429: real time   61.2619
       DOS:  cpu time    0.0005: real time    0.0005
    --------------------------------------------
      LOOP:  cpu time   61.2434: real time   61.2623

 eigenvalue-minimisations  :  6048
 total energy-change (2. order) :-0.3581134E+03  (-0.3539617E+03)
 number of electron     640.0000000 magnetization 
 augmentation part      640.0000000 magnetization 

 Free energy of the ion-electron system (eV)
  ---------------------------------------------------
  alpha Z        PSCENC =       871.83850952
  Ewald energy   TEWEN  =    286472.41116163
  -Hartree energ DENC   =   -340818.76253711
  -exchange      EXHF   =         0.00000000
  -V(xc)+E(xc)   XCENC  =      3043.20823107
  PAW double counting   =     50525.51240023   -50422.77561733
  entropy T*S    EENTRO =        -0.00000000
  eigenvalues    EBANDS =    -14618.01359676
  atomic energy  EATOM  =     64207.43592568
  Solvation  Ediel_sol  =         0.00000000
  ---------------------------------------------------
  free energy    TOTEN  =      -739.14552307 eV

  energy without entropy =     -739.14552307  energy(sigma->0) =     -739.14552307


--------------------------------------------------------------------------------------------------------




--------------------------------------- Iteration      1(   5)  ---------------------------------------


     EDDAV:  cpu time   61.7980: real time   61.8093
       DOS:  cpu time    0.0005: real time    0.0005
    CHARGE:  cpu time    3.5711: real time    3.5711
    MIXING:  cpu time    0.0301: real time    0.0304
    --------------------------------------------
      LOOP:  cpu time   65.3999: real time   65.4114

 eigenvalue-minimisations  :  6080
 total energy-change (2. order) :-0.1449073E+02  (-0.1442838E+02)
 number of electron     640.0000007 magnetization 
 augmentation part      134.5736131 magnetization 

 Broyden mixing:
  rms(total) = 0.76949E+01    rms(broyden)= 0.76946E+01
  rms(prec ) = 0.80997E+01
  weight for this iteration     100.00

 Free energy of the ion-electron system (eV)
  ---------------------------------------------------
  alpha Z        PSCENC =       871.83850952
  Ewald energy   TEWEN  =    286472.41116163
  -Hartree energ DENC   =   -340818.76253711
  -exchange      EXHF   =         0.00000000
  -V(xc)+E(xc)   XCENC  =      3043.20823107
  PAW double counting   =     50525.51240023   -50422.77561733
  entropy T*S    EENTRO =        -0.00000000
  eigenvalues    EBANDS =    -14632.50432718
  atomic energy  EATOM  =     64207.43592568
  Solvation  Ediel_sol  =         0.00000000
  ---------------------------------------------------
  free energy    TOTEN  =      -753.63625350 eV

  energy without entropy =     -753.63625350  energy(sigma->0) =     -753.63625350


--------------------------------------------------------------------------------------------------------




--------------------------------------- Iteration      1(   6)  ---------------------------------------


    POTLOK:  cpu time    0.3899: real time    0.4013
    SETDIJ:  cpu time    0.4201: real time    0.4201
     EDDAV:  cpu time   58.9061: real time   58.9078
       DOS:  cpu time    0.0006: real time    0.0006
    CHARGE:  cpu time    3.6033: real time    3.6033
    MIXING:  cpu time    0.0278: real time    0.0279
    --------------------------------------------
      LOOP:  cpu time   63.3478: real time   63.3609

 eigenvalue-minimisations  :  5760
 total energy-change (2. order) : 0.1560734E+03  (-0.8408218E+02)
 number of electron     640.0000007 magnetization 
 augmentation part      140.5221928 magnetization 

 Broyden mixing:
  rms(total) = 0.25196E+01    rms(broyden)= 0.25189E+01
  rms(prec ) = 0.25726E+01
  weight for this iteration     100.00

 eigenvalues of (default mixing * dielectric matrix)
  average eigenvalue GAMMA=   0.9810
  0.9810

 Free energy of the ion-electron system (eV)
  ---------------------------------------------------
  alpha Z        PSCENC =       871.83850952
  Ewald energy   TEWEN  =    286472.41116163
  -Hartree energ DENC   =   -340997.31059998
  -exchange      EXHF   =         0.00000000
  -V(xc)+E(xc)   XCENC  =      3055.68471931
  PAW double counting   =     56451.86761295   -56418.46320432
  entropy T*S    EENTRO =        -0.00000000
  eigenvalues    EBANDS =    -14241.02697897
  atomic energy  EATOM  =     64207.43592568
  Solvation  Ediel_sol  =         0.00000000
  ---------------------------------------------------
  free energy    TOTEN  =      -597.56285417 eV

  energy without entropy =     -597.56285417  energy(sigma->0) =     -597.56285417


--------------------------------------------------------------------------------------------------------




--------------------------------------- Iteration      1(   7)  ---------------------------------------


    POTLOK:  cpu time    0.4151: real time    0.4250
    SETDIJ:  cpu time    0.4198: real time    0.4198
     EDDAV:  cpu time   60.6418: real time   60.6431
       DOS:  cpu time    0.0006: real time    0.0006
    CHARGE:  cpu time    3.6106: real time    3.6106
    MIXING:  cpu time    0.0284: real time    0.0284
    --------------------------------------------
      LOOP:  cpu time   65.1163: real time   65.1274

 eigenvalue-minimisations  :  5960
 total energy-change (2. order) : 0.1814708E-02  (-0.5522365E+01)
 number of electron     640.0000007 magnetization 
 augmentation part      141.0718895 magnetization 

 Broyden mixing:
  rms(total) = 0.16483E+01    rms(broyden)= 0.16483E+01
  rms(prec ) = 0.16777E+01
  weight for this iteration     100.00

 eigenvalues of (default mixing * dielectric matrix)
  average eigenvalue GAMMA=   1.6371
  0.9614  2.3129

 Free energy of the ion-electron system (eV)
  ---------------------------------------------------
  alpha Z        PSCENC =       871.83850952
  Ewald energy   TEWEN  =    286472.41116163
  -Hartree energ DENC   =   -341145.38956040
  -exchange      EXHF   =         0.00000000
  -V(xc)+E(xc)   XCENC  =      3052.81664057
  PAW double counting   =     60206.21184366   -60179.67383086
  entropy T*S    EENTRO =        -0.00000000
  eigenvalues    EBANDS =    -14083.21172926
  atomic energy  EATOM  =     64207.43592568
  Solvation  Ediel_sol  =         0.00000000
  ---------------------------------------------------
  free energy    TOTEN  =      -597.56103946 eV

  energy without entropy =     -597.56103946  energy(sigma->0) =     -597.56103946


--------------------------------------------------------------------------------------------------------




--------------------------------------- Iteration      1(   8)  ---------------------------------------


    POTLOK:  cpu time    0.4069: real time    0.4180
    SETDIJ:  cpu time    0.4192: real time    0.4192
     EDDAV:  cpu time   57.6366: real time   57.6399
       DOS:  cpu time    0.0006: real time    0.0006
    CHARGE:  cpu time    3.6037: real time    3.6037
    MIXING:  cpu time    0.0270: real time    0.0270
    --------------------------------------------
      LOOP:  cpu time   62.0941: real time   62.1084

 eigenvalue-minimisations  :  5608
 total energy-change (2. order) : 0.1557958E+01  (-0.1043576E+01)
 number of electron     640.0000007 magnetization 
 augmentation part      141.1330511 magnetization 

 Broyden mixing:
  rms(total) = 0.44965E+00    rms(broyden)= 0.44956E+00
  rms(prec ) = 0.48407E+00
  weight for this iteration     100.00

 eigenvalues of (default mixing * dielectric matrix)
  average eigenvalue GAMMA=   1.4144
  2.4515  0.8959  0.8959

 Free energy of the ion-electron system (eV)
  ---------------------------------------------------
  alpha Z        PSCENC =       871.83850952
  Ewald energy   TEWEN  =    286472.41116163
  -Hartree energ DENC   =   -341406.73774941
  -exchange      EXHF   =         0.00000000
  -V(xc)+E(xc)   XCENC  =      3049.22759049
  PAW double counting   =     66555.01445285   -66545.50129141
  entropy T*S    EENTRO =        -0.00000000
  eigenvalues    EBANDS =    -13799.69168096
  atomic energy  EATOM  =     64207.43592568
  Solvation  Ediel_sol  =         0.00000000
  ---------------------------------------------------
  free energy    TOTEN  =      -596.00308161 eV

  energy without entropy =     -596.00308161  energy(sigma->0) =     -596.00308161


--------------------------------------------------------------------------------------------------------




--------------------------------------- Iteration      1(   9)  ---------------------------------------


    POTLOK:  cpu time    0.3868: real time    0.3970
    SETDIJ:  cpu time    0.4195: real time    0.4195
     EDDAV:  cpu time   56.4919: real time   56.4985
       DOS:  cpu time    0.0006: real time    0.0006
    CHARGE:  cpu time    3.5869: real time    3.5869
    MIXING:  cpu time    0.0266: real time    0.0266
    --------------------------------------------
      LOOP:  cpu time   60.9123: real time   60.9291

 eigenvalue-minimisations  :  5472
 total energy-change (2. order) : 0.5108870E+00  (-0.2664665E+00)
 number of electron     640.0000007 magnetization 
 augmentation part      141.5191071 magnetization 

 Broyden mixing:
  rms(total) = 0.21490E+00    rms(broyden)= 0.21489E+00
  rms(prec ) = 0.23363E+00
  weight for this iteration     100.00

 eigenvalues of (default mixing * dielectric matrix)
  average eigenvalue GAMMA=   1.2599
  2.0893  1.1692  0.8906  0.8906

 Free energy of the ion-electron system (eV)
  ---------------------------------------------------
  alpha Z        PSCENC =       871.83850952
  Ewald energy   TEWEN  =    286472.41116163
  -Hartree energ DENC   =   -341516.23513006
  -exchange      EXHF   =         0.00000000
  -V(xc)+E(xc)   XCENC  =      3051.21050543
  PAW double counting   =     67011.01765274   -67004.81323308
  entropy T*S    EENTRO =        -0.00000000
  eigenvalues    EBANDS =    -13688.35758645
  atomic energy  EATOM  =     64207.43592568
  Solvation  Ediel_sol  =         0.00000000
  ---------------------------------------------------
  free energy    TOTEN  =      -595.49219459 eV

  energy without entropy =     -595.49219459  energy(sigma->0) =     -595.49219459


--------------------------------------------------------------------------------------------------------




--------------------------------------- Iteration      1(  10)  ---------------------------------------


    POTLOK:  cpu time    0.3905: real time    0.4045
    SETDIJ:  cpu time    0.4185: real time    0.4185
     EDDAV:  cpu time   59.8262: real time   59.8279
       DOS:  cpu time    0.0006: real time    0.0006
    CHARGE:  cpu time    3.5430: real time    3.5430
    MIXING:  cpu time    0.0277: real time    0.0277
    --------------------------------------------
      LOOP:  cpu time   64.2065: real time   64.2222

 eigenvalue-minimisations  :  5872
 total energy-change (2. order) : 0.4238901E-01  (-0.2874920E-01)
 number of electron     640.0000007 magnetization 
 augmentation part      141.3455448 magnetization 

 Broyden mixing:
  rms(total) = 0.12211E+00    rms(broyden)= 0.12210E+00
  rms(prec ) = 0.14586E+00
  weight for this iteration     100.00

 eigenvalues of (default mixing * dielectric matrix)
  average eigenvalue GAMMA=   1.4020
  2.2657  2.2657  0.9072  0.9072  0.6644

 Free energy of the ion-electron system (eV)
  ---------------------------------------------------
  alpha Z        PSCENC =       871.83850952
  Ewald energy   TEWEN  =    286472.41116163
  -Hartree energ DENC   =   -341582.85907969
  -exchange      EXHF   =         0.00000000
  -V(xc)+E(xc)   XCENC  =      3052.58135658
  PAW double counting   =     66418.72370146   -66411.38816942
  entropy T*S    EENTRO =        -0.00000000
  eigenvalues    EBANDS =    -13624.19321134
  atomic energy  EATOM  =     64207.43592568
  Solvation  Ediel_sol  =         0.00000000
  ---------------------------------------------------
  free energy    TOTEN  =      -595.44980558 eV

  energy without entropy =     -595.44980558  energy(sigma->0) =     -595.44980558


--------------------------------------------------------------------------------------------------------




--------------------------------------- Iteration      1(  11)  ---------------------------------------


    POTLOK:  cpu time    0.3995: real time    0.4108
    SETDIJ:  cpu time    0.4190: real time    0.4190
     EDDAV:  cpu time   57.2619: real time   57.2697
       DOS:  cpu time    0.0007: real time    0.0006
    CHARGE:  cpu time    3.5539: real time    3.5540
    MIXING:  cpu time    0.0281: real time    0.0281
    --------------------------------------------
      LOOP:  cpu time   61.6630: real time   61.6822

 eigenvalue-minimisations  :  5552
 total energy-change (2. order) : 0.1157656E+00  (-0.1376941E-01)
 number of electron     640.0000007 magnetization 
 augmentation part      141.2643868 magnetization 

 Broyden mixing:
  rms(total) = 0.73295E-01    rms(broyden)= 0.73292E-01
  rms(prec ) = 0.90062E-01
  weight for this iteration     100.00

 eigenvalues of (default mixing * dielectric matrix)
  average eigenvalue GAMMA=   1.3723
  2.5728  2.0671  1.0197  0.9317  0.9317  0.7105

 Free energy of the ion-electron system (eV)
  ---------------------------------------------------
  alpha Z        PSCENC =       871.83850952
  Ewald energy   TEWEN  =    286472.41116163
  -Hartree energ DENC   =   -341733.58916373
  -exchange      EXHF   =         0.00000000
  -V(xc)+E(xc)   XCENC  =      3053.96572286
  PAW double counting   =     66398.85784999   -66391.67494948
  entropy T*S    EENTRO =        -0.00000000
  eigenvalues    EBANDS =    -13474.57909645
  atomic energy  EATOM  =     64207.43592568
  Solvation  Ediel_sol  =         0.00000000
  ---------------------------------------------------
  free energy    TOTEN  =      -595.33403998 eV

  energy without entropy =     -595.33403998  energy(sigma->0) =     -595.33403998


--------------------------------------------------------------------------------------------------------




--------------------------------------- Iteration      1(  12)  ---------------------------------------


    POTLOK:  cpu time    0.3991: real time    0.4076
    SETDIJ:  cpu time    0.4190: real time    0.4190
     EDDAV:  cpu time   58.7454: real time   58.7469
       DOS:  cpu time    0.0006: real time    0.0006
    CHARGE:  cpu time    3.5375: real time    3.5376
    MIXING:  cpu time    0.0287: real time    0.0287
    --------------------------------------------
      LOOP:  cpu time   63.1304: real time   63.1403

 eigenvalue-minimisations  :  5728
 total energy-change (2. order) : 0.3481120E-01  (-0.5246579E-02)
 number of electron     640.0000007 magnetization 
 augmentation part      141.3302970 magnetization 

 Broyden mixing:
  rms(total) = 0.32502E-01    rms(broyden)= 0.32500E-01
  rms(prec ) = 0.50515E-01
  weight for this iteration     100.00

 eigenvalues of (default mixing * dielectric matrix)
  average eigenvalue GAMMA=   1.4058
  2.5215  2.5215  1.1557  1.1557  0.9055  0.9055  0.6751

 Free energy of the ion-electron system (eV)
  ---------------------------------------------------
  alpha Z        PSCENC =       871.83850952
  Ewald energy   TEWEN  =    286472.41116163
  -Hartree energ DENC   =   -341799.02103212
  -exchange      EXHF   =         0.00000000
  -V(xc)+E(xc)   XCENC  =      3054.13255249
  PAW double counting   =     66569.02533883   -66562.27387804
  entropy T*S    EENTRO =        -0.00000000
  eigenvalues    EBANDS =    -13408.84780678
  atomic energy  EATOM  =     64207.43592568
  Solvation  Ediel_sol  =         0.00000000
  ---------------------------------------------------
  free energy    TOTEN  =      -595.29922878 eV

  energy without entropy =     -595.29922878  energy(sigma->0) =     -595.29922878


--------------------------------------------------------------------------------------------------------




--------------------------------------- Iteration      1(  13)  ---------------------------------------


    POTLOK:  cpu time    0.3824: real time    0.3901
    SETDIJ:  cpu time    0.4186: real time    0.4186
     EDDAV:  cpu time   58.0608: real time   58.0627
       DOS:  cpu time    0.0006: real time    0.0006
    CHARGE:  cpu time    3.5927: real time    3.5927
    MIXING:  cpu time    0.0288: real time    0.0288
    --------------------------------------------
      LOOP:  cpu time   62.4838: real time   62.4934

 eigenvalue-minimisations  :  5648
 total energy-change (2. order) : 0.1093314E-01  (-0.3272356E-02)
 number of electron     640.0000007 magnetization 
 augmentation part      141.2744725 magnetization 

 Broyden mixing:
  rms(total) = 0.27861E-01    rms(broyden)= 0.27859E-01
  rms(prec ) = 0.39793E-01
  weight for this iteration     100.00

 eigenvalues of (default mixing * dielectric matrix)
  average eigenvalue GAMMA=   1.3715
  2.8408  2.4335  1.2373  1.2373  0.8863  0.8863  0.7807  0.6698

 Free energy of the ion-electron system (eV)
  ---------------------------------------------------
  alpha Z        PSCENC =       871.83850952
  Ewald energy   TEWEN  =    286472.41116163
  -Hartree energ DENC   =   -341868.36061293
  -exchange      EXHF   =         0.00000000
  -V(xc)+E(xc)   XCENC  =      3054.40846335
  PAW double counting   =     66495.53907508   -66488.44188077
  entropy T*S    EENTRO =        -0.00000000
  eigenvalues    EBANDS =    -13340.11893719
  atomic energy  EATOM  =     64207.43592568
  Solvation  Ediel_sol  =         0.00000000
  ---------------------------------------------------
  free energy    TOTEN  =      -595.28829564 eV

  energy without entropy =     -595.28829564  energy(sigma->0) =     -595.28829564


--------------------------------------------------------------------------------------------------------




--------------------------------------- Iteration      1(  14)  ---------------------------------------


    POTLOK:  cpu time    0.3832: real time    0.3940
    SETDIJ:  cpu time    0.4190: real time    0.4190
     EDDAV:  cpu time   57.8226: real time   57.8245
       DOS:  cpu time    0.0005: real time    0.0005
    CHARGE:  cpu time    3.5427: real time    3.5428
    MIXING:  cpu time    0.0295: real time    0.0295
    --------------------------------------------
      LOOP:  cpu time   62.1976: real time   62.2103

 eigenvalue-minimisations  :  5616
 total energy-change (2. order) : 0.3176209E-02  (-0.1085558E-02)
 number of electron     640.0000007 magnetization 
 augmentation part      141.3005714 magnetization 

 Broyden mixing:
  rms(total) = 0.14944E-01    rms(broyden)= 0.14943E-01
  rms(prec ) = 0.25095E-01
  weight for this iteration     100.00

 eigenvalues of (default mixing * dielectric matrix)
  average eigenvalue GAMMA=   1.4679
  2.9405  2.9405  1.5377  1.5377  0.9398  0.9398  0.8577  0.8577  0.6594

 Free energy of the ion-electron system (eV)
  ---------------------------------------------------
  alpha Z        PSCENC =       871.83850952
  Ewald energy   TEWEN  =    286472.41116163
  -Hartree energ DENC   =   -341914.89049885
  -exchange      EXHF   =         0.00000000
  -V(xc)+E(xc)   XCENC  =      3054.52367950
  PAW double counting   =     66517.51651525   -66510.53277210
  entropy T*S    EENTRO =        -0.00000000
  eigenvalues    EBANDS =    -13293.58764006
  atomic energy  EATOM  =     64207.43592568
  Solvation  Ediel_sol  =         0.00000000
  ---------------------------------------------------
  free energy    TOTEN  =      -595.28511943 eV

  energy without entropy =     -595.28511943  energy(sigma->0) =     -595.28511943


--------------------------------------------------------------------------------------------------------




--------------------------------------- Iteration      1(  15)  ---------------------------------------


    POTLOK:  cpu time    0.4178: real time    0.4278
    SETDIJ:  cpu time    0.4514: real time    0.4514
     EDDAV:  cpu time   59.6214: real time   59.6239
       DOS:  cpu time    0.0006: real time    0.0006
    CHARGE:  cpu time    3.5963: real time    3.5963
    MIXING:  cpu time    0.0274: real time    0.0274
    --------------------------------------------
      LOOP:  cpu time   64.1149: real time   64.1274

 eigenvalue-minimisations  :  5832
 total energy-change (2. order) :-0.5766601E-02  (-0.9671651E-03)
 number of electron     640.0000007 magnetization 
 augmentation part      141.3085438 magnetization 

 Broyden mixing:
  rms(total) = 0.11330E-01    rms(broyden)= 0.11328E-01
  rms(prec ) = 0.16130E-01
  weight for this iteration     100.00

 eigenvalues of (default mixing * dielectric matrix)
  average eigenvalue GAMMA=   1.4954
  4.0078  2.7338  1.9470  1.0497  1.0497  1.0580  0.8585  0.8585  0.7487  0.6420

 Free energy of the ion-electron system (eV)
  ---------------------------------------------------
  alpha Z        PSCENC =       871.83850952
  Ewald energy   TEWEN  =    286472.41116163
  -Hartree energ DENC   =   -341974.54364381
  -exchange      EXHF   =         0.00000000
  -V(xc)+E(xc)   XCENC  =      3054.64227571
  PAW double counting   =     66480.74082850   -66473.72245039
  entropy T*S    EENTRO =        -0.00000000
  eigenvalues    EBANDS =    -13234.09349288
  atomic energy  EATOM  =     64207.43592568
  Solvation  Ediel_sol  =         0.00000000
  ---------------------------------------------------
  free energy    TOTEN  =      -595.29088603 eV

  energy without entropy =     -595.29088603  energy(sigma->0) =     -595.29088603


--------------------------------------------------------------------------------------------------------




--------------------------------------- Iteration      1(  16)  ---------------------------------------


    POTLOK:  cpu time    0.3945: real time    0.4041
    SETDIJ:  cpu time    0.4210: real time    0.4210
     EDDAV:  cpu time   58.5581: real time   58.5639
       DOS:  cpu time    0.0006: real time    0.0006
    CHARGE:  cpu time    3.5496: real time    3.5496
    MIXING:  cpu time    0.0289: real time    0.0289
    --------------------------------------------
      LOOP:  cpu time   62.9527: real time   62.9680

 eigenvalue-minimisations  :  5696
 total energy-change (2. order) :-0.3427328E-02  (-0.2291973E-03)
 number of electron     640.0000007 magnetization 
 augmentation part      141.3030042 magnetization 

 Broyden mixing:
  rms(total) = 0.79809E-02    rms(broyden)= 0.79805E-02
  rms(prec ) = 0.11134E-01
  weight for this iteration     100.00

 eigenvalues of (default mixing * dielectric matrix)
  average eigenvalue GAMMA=   1.5287
  4.3682  2.7276  2.1749  1.2312  1.2312  0.9804  0.9804  0.8887  0.8887  0.7053
  0.6396

 Free energy of the ion-electron system (eV)
  ---------------------------------------------------
  alpha Z        PSCENC =       871.83850952
  Ewald energy   TEWEN  =    286472.41116163
  -Hartree energ DENC   =   -342002.43745182
  -exchange      EXHF   =         0.00000000
  -V(xc)+E(xc)   XCENC  =      3054.69456709
  PAW double counting   =     66485.69776846   -66478.69397342
  entropy T*S    EENTRO =        -0.00000000
  eigenvalues    EBANDS =    -13206.24082050
  atomic energy  EATOM  =     64207.43592568
  Solvation  Ediel_sol  =         0.00000000
  ---------------------------------------------------
  free energy    TOTEN  =      -595.29431336 eV

  energy without entropy =     -595.29431336  energy(sigma->0) =     -595.29431336


--------------------------------------------------------------------------------------------------------




--------------------------------------- Iteration      1(  17)  ---------------------------------------


    POTLOK:  cpu time    0.4161: real time    0.4269
    SETDIJ:  cpu time    0.4306: real time    0.4306
     EDDAV:  cpu time   60.9491: real time   60.9528
       DOS:  cpu time    0.0006: real time    0.0006
    CHARGE:  cpu time    3.5415: real time    3.5415
    MIXING:  cpu time    0.0307: real time    0.0307
    --------------------------------------------
      LOOP:  cpu time   65.3685: real time   65.3831

 eigenvalue-minimisations  :  5976
 total energy-change (2. order) :-0.5503346E-02  (-0.2515149E-03)
 number of electron     640.0000007 magnetization 
 augmentation part      141.3060017 magnetization 

 Broyden mixing:
  rms(total) = 0.90895E-02    rms(broyden)= 0.90877E-02
  rms(prec ) = 0.10573E-01
  weight for this iteration     100.00

 eigenvalues of (default mixing * dielectric matrix)
  average eigenvalue GAMMA=   1.6189
  5.5408  2.8767  2.1616  1.9395  0.9756  0.9756  0.9822  0.9822  0.8484  0.8484
  0.6931  0.6027

 Free energy of the ion-electron system (eV)
  ---------------------------------------------------
  alpha Z        PSCENC =       871.83850952
  Ewald energy   TEWEN  =    286472.41116163
  -Hartree energ DENC   =   -342021.99824148
  -exchange      EXHF   =         0.00000000
  -V(xc)+E(xc)   XCENC  =      3054.73153219
  PAW double counting   =     66491.72672008   -66484.79706672
  entropy T*S    EENTRO =        -0.00000000
  eigenvalues    EBANDS =    -13186.64835761
  atomic energy  EATOM  =     64207.43592568
  Solvation  Ediel_sol  =         0.00000000
  ---------------------------------------------------
  free energy    TOTEN  =      -595.29981670 eV

  energy without entropy =     -595.29981670  energy(sigma->0) =     -595.29981670


--------------------------------------------------------------------------------------------------------




--------------------------------------- Iteration      1(  18)  ---------------------------------------


    POTLOK:  cpu time    0.3871: real time    0.3966
    SETDIJ:  cpu time    0.4180: real time    0.4179
     EDDAV:  cpu time   56.2217: real time   56.2306
       DOS:  cpu time    0.0006: real time    0.0006
    CHARGE:  cpu time    3.5705: real time    3.5705
    MIXING:  cpu time    0.0308: real time    0.0308
    --------------------------------------------
      LOOP:  cpu time   60.6287: real time   60.6470

 eigenvalue-minimisations  :  5424
 total energy-change (2. order) :-0.3134647E-02  (-0.7331085E-04)
 number of electron     640.0000007 magnetization 
 augmentation part      141.2972787 magnetization 

 Broyden mixing:
  rms(total) = 0.52264E-02    rms(broyden)= 0.52261E-02
  rms(prec ) = 0.62028E-02
  weight for this iteration     100.00

 eigenvalues of (default mixing * dielectric matrix)
  average eigenvalue GAMMA=   1.6174
  6.0996  2.7109  2.5717  1.8083  0.9626  0.9626  1.0054  1.0054  0.9054  0.9054
  0.7794  0.6761  0.6331

 Free energy of the ion-electron system (eV)
  ---------------------------------------------------
  alpha Z        PSCENC =       871.83850952
  Ewald energy   TEWEN  =    286472.41116163
  -Hartree energ DENC   =   -342037.12699335
  -exchange      EXHF   =         0.00000000
  -V(xc)+E(xc)   XCENC  =      3054.77601962
  PAW double counting   =     66478.91495936   -66471.98049961
  entropy T*S    EENTRO =        -0.00000000
  eigenvalues    EBANDS =    -13171.57203420
  atomic energy  EATOM  =     64207.43592568
  Solvation  Ediel_sol  =         0.00000000
  ---------------------------------------------------
  free energy    TOTEN  =      -595.30295135 eV

  energy without entropy =     -595.30295135  energy(sigma->0) =     -595.30295135


--------------------------------------------------------------------------------------------------------




--------------------------------------- Iteration      1(  19)  ---------------------------------------


    POTLOK:  cpu time    0.4044: real time    0.4143
    SETDIJ:  cpu time    0.4177: real time    0.4177
     EDDAV:  cpu time   57.7488: real time   57.7500
       DOS:  cpu time    0.0006: real time    0.0006
    CHARGE:  cpu time    3.6127: real time    3.6127
    MIXING:  cpu time    0.0293: real time    0.0293
    --------------------------------------------
      LOOP:  cpu time   62.2135: real time   62.2246

 eigenvalue-minimisations  :  5608
 total energy-change (2. order) :-0.1716609E-02  (-0.4995790E-04)
 number of electron     640.0000007 magnetization 
 augmentation part      141.2975713 magnetization 

 Broyden mixing:
  rms(total) = 0.22032E-02    rms(broyden)= 0.22005E-02
  rms(prec ) = 0.33193E-02
  weight for this iteration     100.00

 eigenvalues of (default mixing * dielectric matrix)
  average eigenvalue GAMMA=   1.6237
  6.5433  3.0143  2.4645  1.9141  0.9920  0.9920  1.0416  0.9851  0.9851  0.8868
  0.7863  0.7863  0.7133  0.6271

 Free energy of the ion-electron system (eV)
  ---------------------------------------------------
  alpha Z        PSCENC =       871.83850952
  Ewald energy   TEWEN  =    286472.41116163
  -Hartree energ DENC   =   -342041.33814624
  -exchange      EXHF   =         0.00000000
  -V(xc)+E(xc)   XCENC  =      3054.77854891
  PAW double counting   =     66482.54037427   -66475.61921933
  entropy T*S    EENTRO =        -0.00000000
  eigenvalues    EBANDS =    -13167.35182241
  atomic energy  EATOM  =     64207.43592568
  Solvation  Ediel_sol  =         0.00000000
  ---------------------------------------------------
  free energy    TOTEN  =      -595.30466796 eV

  energy without entropy =     -595.30466796  energy(sigma->0) =     -595.30466796


--------------------------------------------------------------------------------------------------------




--------------------------------------- Iteration      1(  20)  ---------------------------------------


    POTLOK:  cpu time    0.3887: real time    0.4007
    SETDIJ:  cpu time    0.4182: real time    0.4182
     EDDAV:  cpu time   55.4102: real time   55.4120
       DOS:  cpu time    0.0006: real time    0.0006
    CHARGE:  cpu time    3.5370: real time    3.5370
    MIXING:  cpu time    0.0289: real time    0.0289
    --------------------------------------------
      LOOP:  cpu time   59.7836: real time   59.7975

 eigenvalue-minimisations  :  5328
 total energy-change (2. order) :-0.2675818E-02  (-0.1195660E-04)
 number of electron     640.0000007 magnetization 
 augmentation part      141.2988314 magnetization 

 Broyden mixing:
  rms(total) = 0.22789E-02    rms(broyden)= 0.22783E-02
  rms(prec ) = 0.28692E-02
  weight for this iteration     100.00

 eigenvalues of (default mixing * dielectric matrix)
  average eigenvalue GAMMA=   1.6807
  6.9575  3.3771  2.3344  2.3344  1.6359  0.9432  0.9432  1.0663  0.9513  0.9513
  0.8462  0.8462  0.7266  0.6868  0.6108

 Free energy of the ion-electron system (eV)
  ---------------------------------------------------
  alpha Z        PSCENC =       871.83850952
  Ewald energy   TEWEN  =    286472.41116163
  -Hartree energ DENC   =   -342045.14399191
  -exchange      EXHF   =         0.00000000
  -V(xc)+E(xc)   XCENC  =      3054.77225083
  PAW double counting   =     66480.13269213   -66473.20501184
  entropy T*S    EENTRO =        -0.00000000
  eigenvalues    EBANDS =    -13163.54887982
  atomic energy  EATOM  =     64207.43592568
  Solvation  Ediel_sol  =         0.00000000
  ---------------------------------------------------
  free energy    TOTEN  =      -595.30734378 eV

  energy without entropy =     -595.30734378  energy(sigma->0) =     -595.30734378


--------------------------------------------------------------------------------------------------------




--------------------------------------- Iteration      1(  21)  ---------------------------------------


    POTLOK:  cpu time    0.3622: real time    0.3668
    SETDIJ:  cpu time    0.4176: real time    0.4176
     EDDAV:  cpu time   44.8551: real time   44.8562
       DOS:  cpu time    0.0006: real time    0.0006
    CHARGE:  cpu time    3.6019: real time    3.6019
    MIXING:  cpu time    0.0294: real time    0.0294
    --------------------------------------------
      LOOP:  cpu time   49.2668: real time   49.2725

 eigenvalue-minimisations  :  4072
 total energy-change (2. order) :-0.2579174E-02  (-0.1146350E-04)
 number of electron     640.0000007 magnetization 
 augmentation part      141.2989499 magnetization 

 Broyden mixing:
[...]
    -6.564311700 11.369721380  0.000000000     0.000000000  0.087952903  0.000000000
     0.000000000  0.000000000 26.828094240     0.000000000  0.000000000  0.037274358

  length of vectors
    13.128623400 13.128623399 26.828094240     0.087952903  0.087952903  0.037274358


 FORCES acting on ions
    electron-ion (+dipol)            ewald-force                    non-local-force                 convergence-correction
 -----------------------------------------------------------------------------------------------
   0.175E+01 -.672E+02 0.134E+04   -.696E+00 0.681E+02 -.134E+04   -.277E+00 0.618E+00 -.491E+01   0.615E-04 0.745E-04 -.690E-04
   -.388E+02 -.672E+02 0.137E+04   0.404E+02 0.651E+02 -.136E+04   -.108E+00 0.179E+01 -.573E+01   -.403E-04 0.123E-03 0.509E-04
   0.145E+02 -.427E+02 0.117E+04   -.129E+02 0.434E+02 -.116E+04   -.978E+00 0.599E+00 -.596E+01   0.145E-04 -.592E-04 0.151E-03
   -.498E+01 0.194E+02 0.131E+04   0.530E+01 -.203E+02 -.130E+04   -.513E+00 0.364E+00 -.672E+01   0.122E-03 -.731E-04 0.276E-04
   0.891E+01 0.767E+02 0.133E+04   -.110E+02 -.768E+02 -.132E+04   0.844E+00 -.841E+00 -.630E+01   0.471E-04 -.154E-05 0.956E-04
   0.511E+02 -.933E+01 0.132E+04   -.538E+02 0.771E+01 -.131E+04   0.888E+00 0.118E+01 -.613E+01   -.184E-04 0.127E-04 0.591E-04
   0.971E+02 -.526E+02 0.110E+04   -.991E+02 0.515E+02 -.110E+04   -.171E+00 0.148E+01 -.601E+01   -.503E-04 -.312E-04 0.111E-03
   0.320E+02 0.696E+02 0.114E+04   -.327E+02 -.706E+02 -.113E+04   0.216E+00 0.248E+00 -.409E+01   -.526E-04 -.199E-04 0.115E-03
   0.130E+02 0.337E+02 0.111E+04   -.125E+02 -.321E+02 -.111E+04   -.354E+00 -.163E+01 -.508E+01   -.243E-04 0.330E-04 0.947E-04
   -.682E+02 -.488E+02 0.129E+04   0.690E+02 0.501E+02 -.128E+04   0.101E+00 -.369E+00 -.689E+01   0.482E-05 -.308E-04 0.999E-04
   -.559E+02 0.538E+02 0.121E+04   0.572E+02 -.534E+02 -.121E+04   -.552E+00 -.125E+01 -.642E+01   -.756E-05 0.730E-05 0.620E-04
   0.415E+02 0.272E+02 0.107E+04   -.416E+02 -.272E+02 -.107E+04   -.420E+00 -.292E+00 -.441E+01   -.844E-05 -.191E-04 0.637E-04
   -.473E+02 -.405E+02 0.123E+04   0.481E+02 0.410E+02 -.122E+04   0.385E+00 0.613E-01 -.573E+01   -.673E-04 0.248E-04 0.223E-04
   0.643E+01 -.666E+02 0.138E+04   -.788E+01 0.657E+02 -.138E+04   0.375E+00 0.653E+00 -.569E+01   0.512E-04 0.582E-04 0.115E-03
   0.822E+01 0.148E+02 0.144E+04   -.912E+01 -.146E+02 -.144E+04   -.163E+00 -.148E+00 -.516E+01   0.450E-04 -.415E-05 0.504E-04
   -.235E+02 0.441E+02 0.135E+04   0.247E+02 -.433E+02 -.134E+04   -.491E+00 -.577E+00 -.630E+01   -.284E-04 -.703E-04 -.164E-04
   0.120E+01 0.473E+02 -.111E+04   -.210E+01 -.460E+02 0.110E+04   -.115E+00 -.119E+01 0.560E+01   0.171E-03 0.759E-05 -.248E-04
   -.102E+02 -.489E+02 -.121E+04   0.103E+02 0.505E+02 0.121E+04   0.592E+00 -.818E+00 0.517E+01   0.504E-04 0.120E-03 -.438E-04
   0.477E+01 -.696E+01 -.131E+04   -.303E+01 0.827E+01 0.130E+04   -.896E+00 -.130E+01 0.658E+01   -.175E-04 0.393E-04 -.158E-03
   -.744E+02 0.652E+02 -.134E+04   0.749E+02 -.652E+02 0.133E+04   0.198E+00 -.488E+00 0.578E+01   0.360E-04 -.111E-04 -.116E-03
   -.478E+02 0.243E+02 -.129E+04   0.488E+02 -.261E+02 0.128E+04   -.300E+00 0.106E+01 0.412E+01   -.219E-04 -.746E-05 -.815E-04
   0.129E+02 0.470E+02 -.135E+04   -.144E+02 -.462E+02 0.134E+04   0.483E+00 -.123E+01 0.674E+01   0.141E-04 -.126E-04 -.920E-04
   0.285E+02 -.205E+02 -.135E+04   -.298E+02 0.212E+02 0.134E+04   0.897E+00 -.376E+00 0.487E+01   -.410E-04 -.116E-04 -.840E-04
   0.449E+02 -.406E+01 -.144E+04   -.447E+02 0.361E+01 0.143E+04   0.102E+00 0.398E+00 0.818E+01   -.513E-04 -.253E-04 -.874E-04
   0.295E+02 -.542E+02 -.144E+04   -.282E+02 0.528E+02 0.144E+04   -.395E+00 0.159E+01 0.457E+01   -.333E-04 -.288E-04 -.339E-04
   -.767E+02 0.159E+02 -.115E+04   0.772E+02 -.156E+02 0.115E+04   0.500E+00 -.355E+00 0.673E+01   -.350E-05 -.120E-04 -.127E-03
   -.730E+02 -.363E+02 -.119E+04   0.732E+02 0.368E+02 0.118E+04   0.831E+00 -.582E-01 0.524E+01   -.334E-05 -.407E-05 -.824E-04
   0.429E+02 0.588E+02 -.137E+04   -.443E+02 -.579E+02 0.136E+04   0.589E+00 -.103E+01 0.601E+01   -.366E-04 -.858E-05 -.238E-04
   0.432E+02 -.356E+02 -.111E+04   -.446E+02 0.353E+02 0.110E+04   0.577E-01 0.387E+00 0.539E+01   -.104E-03 -.197E-04 0.402E-04
   -.878E+01 0.605E+01 -.109E+04   0.870E+01 -.684E+01 0.109E+04   0.584E+00 -.258E-01 0.507E+01   -.813E-04 0.116E-03 -.780E-04
   0.333E+01 -.209E+02 -.124E+04   -.399E+01 0.207E+02 0.123E+04   0.196E+00 0.407E+00 0.530E+01   0.611E-04 -.173E-04 -.133E-03
   -.585E+01 0.411E+02 -.116E+04   0.681E+01 -.418E+02 0.115E+04   -.896E+00 0.271E+00 0.492E+01   0.386E-04 -.965E-04 -.270E-04
   0.810E+01 0.404E+01 -.157E+04   -.730E+01 -.600E+01 0.159E+04   -.971E+00 0.209E+01 -.177E+02   -.154E-04 0.991E-05 -.207E-04
   0.282E+02 -.373E+02 -.157E+04   -.308E+02 0.379E+02 0.159E+04   0.227E+01 0.808E-01 -.171E+02   0.446E-05 0.113E-04 -.372E-04
   -.205E+02 -.841E+01 -.157E+04   0.207E+02 0.928E+01 0.159E+04   -.307E+00 -.760E+00 -.159E+02   0.928E-06 0.453E-06 -.346E-04
   -.120E+02 -.163E+02 -.163E+04   0.108E+02 0.201E+02 0.165E+04   0.181E+01 -.356E+01 -.182E+02   0.933E-05 -.122E-04 -.190E-04
   -.971E+01 -.344E+02 -.159E+04   0.836E+01 0.366E+02 0.161E+04   0.253E+01 -.140E+01 -.178E+02   0.823E-05 -.856E-05 -.394E-04
   0.233E+02 0.244E+02 -.159E+04   -.257E+02 -.264E+02 0.160E+04   0.258E+01 0.181E+01 -.154E+02   -.131E-04 0.428E-05 -.492E-04
   0.605E+02 -.376E+02 -.162E+04   -.627E+02 0.379E+02 0.164E+04   0.150E+01 0.267E+00 -.152E+02   -.246E-05 -.470E-07 -.473E-04
   -.402E+02 0.730E+02 -.162E+04   0.417E+02 -.757E+02 0.164E+04   -.147E+01 0.213E+01 -.165E+02   0.169E-06 0.941E-06 -.331E-04
   -.165E+02 -.423E+02 -.161E+04   0.165E+02 0.460E+02 0.163E+04   0.202E+00 -.356E+01 -.165E+02   0.212E-05 -.151E-04 -.372E-04
   -.367E+02 0.131E+02 -.159E+04   0.383E+02 -.125E+02 0.161E+04   -.164E+01 -.106E+01 -.163E+02   -.974E-05 -.243E-05 -.481E-04
   0.308E+01 -.328E+02 -.163E+04   -.360E+01 0.342E+02 0.165E+04   0.568E+00 -.104E+01 -.165E+02   -.464E-05 0.104E-04 -.370E-04
   0.469E+02 0.483E+02 -.163E+04   -.469E+02 -.508E+02 0.164E+04   -.441E+00 0.184E+01 -.152E+02   0.540E-05 0.443E-05 -.175E-04
   -.173E+02 -.448E+02 -.154E+04   0.207E+02 0.462E+02 0.156E+04   -.328E+01 -.850E+00 -.149E+02   0.291E-05 -.175E-04 -.310E-04
   0.278E+02 0.137E+02 -.159E+04   -.298E+02 -.160E+02 0.160E+04   0.152E+01 0.254E+01 -.177E+02   0.172E-04 0.579E-05 -.505E-04
   -.140E+02 0.204E+02 -.155E+04   0.132E+02 -.202E+02 0.157E+04   0.978E+00 -.481E+00 -.160E+02   0.657E-05 0.121E-04 -.391E-04
   -.193E+02 -.147E+02 -.155E+04   0.204E+02 0.183E+02 0.157E+04   -.564E+00 -.350E+01 -.165E+02   -.181E-04 0.725E-05 -.202E-04
   -.462E+02 0.326E+02 0.163E+04   0.489E+02 -.329E+02 -.165E+04   -.197E+01 -.448E+00 0.157E+02   -.159E-04 0.107E-04 0.290E-04
   0.594E+01 -.110E+02 0.157E+04   -.558E+01 0.869E+01 -.158E+04   -.259E+00 0.239E+01 0.137E+02   0.306E-05 -.743E-05 0.253E-04
   -.114E+02 -.994E+01 0.155E+04   0.136E+02 0.118E+02 -.156E+04   -.215E+01 -.249E+01 0.155E+02   0.281E-05 -.170E-04 0.383E-04
   0.312E+01 0.294E+02 0.157E+04   -.296E+01 -.309E+02 -.159E+04   -.419E-01 0.114E+01 0.160E+02   -.808E-05 0.149E-04 0.398E-04
   0.236E+02 -.805E+01 0.153E+04   -.237E+02 0.846E+01 -.155E+04   -.590E-01 0.129E-01 0.165E+02   -.136E-06 0.646E-05 0.373E-04
   -.125E+02 -.760E+01 0.163E+04   0.132E+02 0.729E+01 -.165E+04   -.658E+00 0.531E+00 0.183E+02   -.297E-05 -.705E-05 0.221E-04
   -.978E+01 0.969E+01 0.154E+04   0.115E+02 -.104E+02 -.156E+04   -.575E+00 0.478E+00 0.167E+02   -.238E-05 -.750E-05 0.281E-04
   0.192E+02 0.615E+02 0.158E+04   -.177E+02 -.643E+02 -.160E+04   -.136E+01 0.224E+01 0.182E+02   0.468E-05 0.469E-06 0.389E-04
   0.271E+02 -.101E+02 0.159E+04   -.305E+02 0.920E+01 -.161E+04   0.291E+01 0.122E+01 0.188E+02   0.378E-05 0.649E-05 0.492E-04
   0.466E+02 -.278E+02 0.157E+04   -.492E+02 0.285E+02 -.158E+04   0.195E+01 -.215E+00 0.140E+02   0.462E-05 -.744E-05 0.443E-04
   0.128E+02 0.290E+01 0.161E+04   -.150E+02 -.303E+01 -.162E+04   0.229E+01 0.101E+00 0.153E+02   0.427E-05 0.894E-05 0.194E-04
   -.253E+02 0.166E+02 0.162E+04   0.239E+02 -.164E+02 -.164E+04   0.247E+01 -.212E+00 0.186E+02   0.410E-05 0.686E-05 0.313E-04
   0.224E+02 -.789E+01 0.160E+04   -.243E+02 0.921E+01 -.162E+04   0.132E+01 -.155E+01 0.160E+02   0.544E-05 0.537E-05 0.274E-04
   -.161E+02 0.141E+02 0.162E+04   0.164E+02 -.184E+02 -.164E+04   -.487E+00 0.450E+01 0.164E+02   -.629E-05 0.802E-05 0.254E-04
   -.436E+02 -.993E+01 0.164E+04   0.479E+02 0.925E+01 -.166E+04   -.403E+01 0.723E+00 0.179E+02   -.415E-06 -.709E-05 0.998E-05
   -.189E+02 -.199E+02 0.158E+04   0.205E+02 0.243E+02 -.160E+04   -.155E+01 -.445E+01 0.144E+02   0.174E-05 -.591E-05 0.482E-05
   0.380E+01 0.370E+02 0.358E+02   -.345E+01 -.369E+02 -.357E+02   -.116E+01 -.142E+01 -.376E+00   0.184E-05 0.186E-06 -.395E-05
   0.842E+01 -.136E+02 0.671E+02   -.834E+01 0.137E+02 -.674E+02   -.987E+00 -.482E+00 0.110E+01   -.173E-05 0.763E-05 0.862E-06
   -.129E+02 -.137E+02 0.290E+02   0.128E+02 0.137E+02 -.291E+02   0.731E+00 -.122E+00 0.555E+00   -.172E-05 0.171E-05 0.754E-05
   -.105E+02 0.315E+02 0.229E+02   0.104E+02 -.312E+02 -.229E+02   0.102E+01 -.165E+01 -.896E-01   0.985E-05 -.721E-05 0.336E-05
   -.260E+02 0.425E+01 0.273E+02   0.261E+02 -.458E+01 -.276E+02   0.687E+00 0.159E+01 0.137E+01   0.106E-04 -.515E-05 0.375E-05
   0.160E+02 -.171E+02 0.339E+02   -.161E+02 0.171E+02 -.341E+02   0.403E+00 0.169E+00 0.504E+00   0.117E-04 0.829E-05 0.126E-05
   0.195E+02 0.200E+02 -.290E+02   -.196E+02 -.200E+02 0.295E+02   -.353E+00 -.392E+00 -.118E+01   -.577E-05 0.661E-05 0.211E-05
   0.200E+02 -.841E+01 -.498E+02   -.197E+02 0.833E+01 0.497E+02   -.109E+01 0.391E+00 0.355E+00   -.203E-05 -.377E-05 0.571E-05
   0.387E+02 0.104E+02 -.881E+02   -.383E+02 -.106E+02 0.882E+02   -.253E+01 0.524E+00 -.480E+00   -.480E-05 -.174E-05 -.231E-06
   -.150E+01 0.230E+02 0.574E+01   0.147E+01 -.229E+02 -.586E+01   0.374E+00 -.110E+01 0.648E+00   0.365E-06 -.670E-05 0.258E-05
   0.214E+02 -.182E+02 -.184E+02   -.213E+02 0.182E+02 0.186E+02   -.550E+00 0.175E+00 -.180E+01   -.151E-05 -.409E-05 0.214E-05
   0.273E+02 -.120E+02 -.812E+02   -.271E+02 0.120E+02 0.815E+02   -.154E+01 0.546E+00 -.342E+00   -.618E-05 0.251E-05 0.129E-05
   0.630E+01 -.142E+02 -.301E+02   -.620E+01 0.141E+02 0.303E+02   0.421E+00 0.756E+00 -.111E+01   -.741E-05 -.313E-05 0.258E-05
   -.729E+01 0.358E+01 -.247E+01   0.714E+01 -.339E+01 0.241E+01   0.642E+00 -.882E+00 0.692E+00   -.401E-05 0.655E-05 -.963E-06
   -.152E+02 -.414E+02 0.372E+02   0.152E+02 0.413E+02 -.372E+02   0.168E+00 0.818E+00 -.783E+00   0.123E-04 -.730E-06 0.230E-05
   -.276E+02 0.585E+01 0.240E+02   0.277E+02 -.604E+01 -.239E+02   -.223E+00 0.104E+01 -.865E+00   -.103E-05 -.410E-05 0.300E-05
 -----------------------------------------------------------------------------------------------
   -.334E+00 0.241E+01 0.447E+01   -.419E-12 0.497E-13 -.108E-10   0.331E+00 -.242E+01 -.446E+01   0.294E-04 0.674E-04 -.178E-03
 
 
 POSITION                                       TOTAL-FORCE (eV/Angst)
 -----------------------------------------------------------------------------------
     -0.06580      1.81763     12.05964         0.777974      1.524136     -0.623923
     -1.72089      4.77675     12.01742         1.466074     -0.343821      0.348155
     -3.28336      7.58665     12.23071         0.589392      1.281288     -0.746447
     -4.88908     10.50672     12.15172        -0.194960     -0.530206     -1.079812
      3.37703      1.96872     12.09343        -1.236262     -0.912101      0.228539
      1.76539      4.70023     12.06330        -1.738904     -0.435841      1.505865
      0.16135      7.52960     12.28846        -2.076833      0.421231      0.663873
     -1.56435     10.40870     12.19137        -0.442199     -0.727510      0.516747
      6.59615      1.84256     12.27274         0.104585     -0.108257     -0.532163
      4.86747      4.74042     12.18470         0.924623      0.921618     -0.699797
      3.23292      7.65161     12.21277         0.759033     -0.828353      0.079932
      1.65572     10.41767     12.26718        -0.443669     -0.319339      0.455435
      9.72106      1.80237     12.16027         1.205966      0.517233     -0.065147
      8.25905      4.74207     12.00552        -1.076567     -0.214343      0.208840
      6.63994      7.60290     11.88863        -1.069327      0.061612      1.621636
      4.78910     10.37217     12.06569         0.742525      0.272110      0.569087
      1.67228      0.98686     14.55052        -1.010860      0.100068     -0.056682
     -0.06499      3.70549     14.68829         0.730511      0.838074     -1.156684
     -1.65533      6.60595     14.72554         0.840502      0.004840     -0.111723
     -3.41415      9.54754     14.78852         0.734875     -0.414175     -0.462772
      4.81250      1.00108     14.77818         0.747368     -0.777112     -0.300267
      3.32731      3.82265     14.74375        -1.006848     -0.412514     -0.493538
      1.69111      6.52530     14.81709        -0.376386      0.239268     -0.311310
      0.01198      9.42235     14.79927         0.299402     -0.055525      0.080202
      8.12594      0.97325     14.88616         0.918561      0.177643     -0.344007
      6.49676      3.85486     14.50013         1.054819     -0.054149      1.760023
      4.88446      6.63460     14.64234         1.093642      0.362884      0.243674
      3.37793      9.47989     14.79203        -0.781047     -0.174617     -0.580662
     11.58396      0.97315     14.52759        -1.294644      0.027117      0.851435
      9.79596      3.83075     14.50566         0.499625     -0.814707      1.096968
      8.17684      6.61831     14.68557        -0.456975      0.160711     -0.381543
      6.52948      9.51809     14.63639         0.061719     -0.374032     -0.330356
      0.05069      1.83017     15.73141        -0.169493      0.121703      0.268606
     -1.65318      4.45987     15.81080        -0.352456      0.677456      0.001916
     -3.30299      7.51703     15.86445        -0.173401      0.108883     -0.150032
     -5.12603     10.31185     15.93003         0.663134      0.240712     -0.353677
      3.06784      1.74854     15.79664         1.173996      0.723552      0.692578
      1.61763      4.63506     15.83207         0.215040     -0.169323      0.342822
      0.17570      7.39636     15.97701        -0.722357      0.608650      0.041535
     -1.83331     10.65092     16.01000         0.082075     -0.534711     -0.437410
      6.41018      1.91895     15.93595         0.212632      0.139540     -0.458199
      4.99664      4.79899     15.75831        -0.055835     -0.456036      0.573296
      3.35753      7.42775     15.92014         0.053038      0.386580      0.049869
      1.92586     10.60260     15.95281        -0.472592     -0.662290      0.337854
      9.89488      1.82029     15.76829         0.115538      0.526344     -0.182141
      8.37963      4.73566     15.82783        -0.439842      0.284302     -0.440827
      6.54006      7.64653     15.79018         0.171827     -0.245622     -0.105472
      4.92034     10.51145     15.70007         0.587833      0.068803      0.733887
      1.54243      1.22872     10.86686         0.689979     -0.715486      0.028313
      0.00488      3.91922     10.95929         0.097513      0.117202      0.012196
     -1.61180      6.92083     11.02285         0.002385     -0.587455      0.187716
     -3.23659      9.62532     10.98076         0.114685     -0.373764      0.279566
      5.06487      0.85352     11.14703        -0.218547      0.427567     -0.517232
      3.36879      3.77818     10.98408        -0.034250      0.225531     -0.447508
      1.52535      6.63104     11.15969         1.184340     -0.237432     -1.218249
      0.02471      9.70603     10.99890         0.110307     -0.545472      0.322404
      8.28085      0.80383     11.04040        -0.461933      0.289915     -0.088414
      6.76462      3.54279     11.05974        -0.626186      0.515400     -0.787623
      4.86767      6.61352     10.85854         0.123374     -0.036524      0.615578
      2.96322      9.39043     10.98873         1.104211     -0.058797     -0.155162
     11.51802      0.88385     10.96638        -0.562393     -0.232610     -0.198514
      9.87852      3.74298     10.89132        -0.182916      0.190905      0.111808
      8.14877      6.62448     10.78235         0.282994      0.047739      0.533661
      6.51329      9.51922     10.95312        -0.023902     -0.070847     -0.163918
      0.06171      0.11700     13.35319        -0.818788     -1.304538     -0.261698
     -1.60727      2.91486     13.23937        -0.911019     -0.378972      0.762910
      9.77147      5.73105     13.29549         0.595860     -0.100126      0.537318
      8.11810      8.67130     13.37392         0.913192     -1.386316     -0.113762
     -3.29487     11.27189     13.35824         0.723025      1.257870      1.055287
      1.69527      2.83479     13.32963         0.281667      0.189083      0.252564
      0.04454      5.70408     13.53871        -0.384363     -0.320382     -0.731658
     -1.54055      8.50302     13.54550        -0.734754      0.302959      0.251128
      0.18839     11.31623     13.61892        -2.119576      0.308739     -0.338714
      4.88869      2.89737     13.38036         0.346001     -1.001714      0.524089
      3.34718      5.60709     13.54243        -0.506963      0.183960     -1.611056
      1.78821      8.45410     13.56866        -1.246185      0.498669     -0.022192
      3.28948     11.28913     13.44986         0.522640      0.712115     -0.828528
      8.17339      2.89882     13.34723         0.500338     -0.688843      0.637022
      6.58799      5.65029     13.36412         0.164627      0.698620     -0.719822
      4.92879      8.46339     13.40117        -0.160215      0.841233     -0.775694
 -----------------------------------------------------------------------------------
    total drift:                               -0.002672     -0.009793      0.004471


--------------------------------------------------------------------------------------------------------



  FREE ENERGIE OF THE ION-ELECTRON SYSTEM (eV)
  ---------------------------------------------------
  free  energy   TOTEN  =      -595.31254196 eV

  energy  without entropy=     -595.31254196  energy(sigma->0) =     -595.31254196
 


--------------------------------------------------------------------------------------------------------


    POTLOK:  cpu time    0.7832: real time    0.7832


--------------------------------------------------------------------------------------------------------


     LOOP+:  cpu time 1819.5286: real time 1819.9728
    4ORBIT:  cpu time    0.0000: real time    0.0000

 total amount of memory used by VASP MPI-rank0   234707. kBytes
=======================================================================

   base      :      30000. kBytes
   nonlr-proj:      19439. kBytes
   fftplans  :      66973. kBytes
   grid      :      38377. kBytes
   one-center:        108. kBytes
   wavefun   :      79810. kBytes
 
  
  
 General timing and accounting informations for this job:
 ========================================================
  
                  Total CPU time used (sec):     1851.276
                            User time (sec):     1842.166
                          System time (sec):        9.110
                         Elapsed time (sec):     1851.867
  
                   Maximum memory used (kb):      428388.
                   Average memory used (kb):           0.
  
                          Minor page faults:       157776
                          Major page faults:            0
                 Voluntary context switches:         2261
