<?xml version="1.0" encoding="ISO-8859-1"?>
<modeling>
 <generator>
  <i name="program" type="string">vasp </i>
  <i name="version" type="string">5.4.4.18Apr17-6-g9f103f2a35  </i>
  <i name="subversion" type="string">(build Mar 16 2023 09:39:13) complex            parallel </i>
  <i name="platform" type="string">LinuxIFC </i>
  <i name="date" type="string">2024 04 29 </i>
  <i name="time" type="string">23:23:07 </i>
 </generator>
 <incar>
  <i type="int" name="ISTART">     0</i>
  <i type="string" name="PREC">a</i>
  <i type="logical" name="ADDGRID"> T  </i>
  <i type="int" name="IBRION">    -1</i>
  <i name="EDIFF">      0.00000100</i>
  <i name="EDIFFG">     -0.01000000</i>
  <i type="int" name="NSW">     1</i>
  <i type="int" name="ISIF">     2</i>
  <i type="int" name="ISYM">     0</i>
  <i name="ENCUT">    600.00000000</i>
  <i name="POTIM">      1.00000000</i>
  <i type="string" name="LREAL">  A</i>
  <i type="int" name="ISMEAR">     0</i>
  <i name="SIGMA">      0.05000000</i>
  <i name="KSPACING">      0.30000000</i>
  <i type="logical" name="KGAMMA"> T  </i>
  <i type="logical" name="LWAVE"> F  </i>
  <i type="logical" name="LCHARG"> F  </i>
  <i type="logical" name="LSCALAPACK"> F  </i>
  <v type="int" name="KPOINT_BSE">    -1     0     0     0</v>
 </incar>
 <structure name="primitive_cell" >
  <crystal>
   <varray name="basis" >
    <v>      12.93041299       0.00000000       0.00000000 </v>
    <v>       0.00000000      12.93041299       0.00000000 </v>
    <v>       0.00000000       0.00000000      12.93041299 </v>
   </varray>
   <i name="volume">   2161.90790069 </i>
   <varray name="rec_basis" >
    <v>       0.07733705       0.00000000       0.00000000 </v>
    <v>       0.00000000       0.07733705       0.00000000 </v>
    <v>       0.00000000       0.00000000       0.07733705 </v>
   </varray>
  </crystal>
  <varray name="positions" >
   <v>       0.33154686      -0.15328695      -0.46680150 </v>
   <v>       0.16685765      -0.11208401       0.47136751 </v>
   <v>       0.27150899      -0.15731475       0.36011919 </v>
   <v>       0.36326763      -0.15761672      -0.28368958 </v>
   <v>       0.33121212      -0.34486051       0.47995568 </v>
   <v>       0.34153715       0.04686454       0.48354473 </v>
   <v>       0.09660798      -0.11836211      -0.41929399 </v>
   <v>       0.26408699      -0.38329428      -0.40962675 </v>
   <v>      -0.48015987      -0.06100479       0.40181549 </v>
   <v>       0.42781768       0.07596433      -0.41233498 </v>
   <v>       0.46442391      -0.10347608      -0.24693496 </v>
   <v>       0.14991412      -0.04803348      -0.30951405 </v>
   <v>       0.28666880      -0.34870937      -0.29475423 </v>
   <v>      -0.44254285      -0.11870955      -0.32989992 </v>
   <v>       0.43582328       0.03181374       0.35781881 </v>
   <v>       0.17351876       0.03062807       0.37440639 </v>
   <v>      -0.39147012      -0.05569440      -0.46541771 </v>
   <v>       0.44600444      -0.40518076       0.43382777 </v>
   <v>       0.25300486      -0.24103256       0.25880889 </v>
   <v>       0.34828101       0.00847696       0.27241153 </v>
   <v>       0.46856205      -0.44726740      -0.44960060 </v>
   <v>      -0.44440859      -0.34168667       0.38898996 </v>
   <v>       0.44159552       0.00388942      -0.19629837 </v>
   <v>       0.01351685      -0.18956181      -0.35251930 </v>
   <v>      -0.45872240      -0.22293207       0.26320611 </v>
   <v>       0.27128463      -0.37314410       0.26681508 </v>
   <v>       0.19588524      -0.47739339      -0.43803131 </v>
   <v>       0.15984637      -0.10785207      -0.16224666 </v>
   <v>       0.00853666      -0.00637649      -0.49481602 </v>
   <v>       0.12320627      -0.31537443      -0.22711861 </v>
   <v>       0.32851318       0.16152372      -0.29801313 </v>
   <v>      -0.49493553      -0.19332923      -0.15123638 </v>
   <v>       0.13312321      -0.24443901       0.23166298 </v>
   <v>       0.31715063      -0.17983961       0.15643503 </v>
   <v>       0.02622666      -0.37556411       0.46829771 </v>
   <v>       0.47572209       0.14812626       0.33831805 </v>
   <v>       0.39544362       0.49395242       0.36739545 </v>
   <v>      -0.47300453      -0.35664740      -0.18811932 </v>
   <v>       0.32103553      -0.04330084       0.15022469 </v>
   <v>       0.25989131       0.07987517      -0.14047264 </v>
   <v>      -0.06987497      -0.23889808      -0.48153291 </v>
   <v>       0.28235174       0.24961906      -0.35647867 </v>
   <v>       0.30093257       0.25188619       0.41529410 </v>
   <v>       0.37744952      -0.45518800       0.23759554 </v>
   <v>       0.39362351      -0.47959292      -0.19764007 </v>
   <v>       0.07059746      -0.49358324      -0.48846494 </v>
   <v>       0.36790950       0.27528302      -0.45530663 </v>
   <v>       0.43869123      -0.36709845       0.17518741 </v>
   <v>      -0.37202313      -0.07382040       0.22458397 </v>
   <v>       0.11446391       0.18858647       0.34868779 </v>
   <v>       0.17338275      -0.32539781      -0.07913569 </v>
   <v>       0.43600887      -0.02169595       0.10860851 </v>
   <v>      -0.23004811      -0.02377501       0.48900484 </v>
   <v>       0.16456183       0.27921552      -0.40406163 </v>
   <v>      -0.07939185       0.04404287      -0.35082827 </v>
   <v>       0.46713089       0.40012624      -0.38060903 </v>
   <v>      -0.26650745      -0.35780050      -0.30262659 </v>
   <v>      -0.23043360      -0.27516079       0.37427629 </v>
   <v>       0.01315924      -0.24441261       0.17871660 </v>
   <v>      -0.48045751       0.13988497      -0.12720400 </v>
   <v>      -0.33830907       0.09643945      -0.21110592 </v>
   <v>      -0.39515720      -0.17095194      -0.06257748 </v>
   <v>       0.24571559       0.04165084       0.09018797 </v>
   <v>       0.25827531       0.20356032       0.20032659 </v>
   <v>       0.08233602       0.43483755       0.40954916 </v>
   <v>      -0.31327669      -0.24175336      -0.12877642 </v>
   <v>      -0.12722273       0.04276544      -0.47120740 </v>
   <v>      -0.43938674      -0.00514167       0.11061595 </v>
   <v>      -0.01458540      -0.35735683       0.22395773 </v>
   <v>       0.33425976       0.41097674      -0.20288633 </v>
   <v>      -0.20871972      -0.36201959       0.46303606 </v>
   <v>      -0.15799884      -0.17332857       0.38552136 </v>
   <v>      -0.42095907       0.47674511      -0.21319175 </v>
   <v>       0.04276523      -0.48839966       0.26138302 </v>
   <v>      -0.25789937      -0.30508721       0.25020952 </v>
   <v>       0.14179137       0.22660466       0.22578671 </v>
   <v>      -0.33260793       0.24027526      -0.38014900 </v>
   <v>       0.33084152       0.34545117      -0.30179621 </v>
   <v>      -0.22125034      -0.27960657      -0.21810311 </v>
   <v>       0.01082370      -0.40878740      -0.13153448 </v>
   <v>      -0.01250174       0.44675693      -0.41924688 </v>
   <v>      -0.17391809      -0.18787507      -0.27905091 </v>
   <v>      -0.05921188      -0.15344623       0.16711608 </v>
   <v>      -0.29495205       0.22610760       0.47148994 </v>
   <v>      -0.39338451      -0.05669416      -0.01318659 </v>
   <v>      -0.19168374      -0.00655826      -0.25913571 </v>
   <v>      -0.44837359      -0.39165300       0.09386276 </v>
   <v>       0.00160978       0.27600695       0.43141382 </v>
   <v>       0.38007769       0.43512299       0.16928567 </v>
   <v>      -0.39873435      -0.24684124       0.06047654 </v>
   <v>       0.49634313      -0.42148629      -0.01275733 </v>
   <v>      -0.12223145       0.16066217       0.46372834 </v>
   <v>       0.14776052       0.14401367      -0.03380235 </v>
   <v>      -0.29746932       0.20845726      -0.26116011 </v>
   <v>      -0.16539355      -0.02641844       0.31210633 </v>
   <v>      -0.21923621      -0.48851311      -0.39192635 </v>
   <v>      -0.42623914       0.11457797       0.09757492 </v>
   <v>       0.42682123       0.30562901      -0.14875174 </v>
   <v>       0.07769487      -0.38229850      -0.01271683 </v>
   <v>       0.09795079       0.35983167      -0.28796615 </v>
   <v>       0.05011496       0.15232625       0.14305019 </v>
   <v>       0.12489209       0.06671156       0.04880727 </v>
   <v>      -0.49477326       0.29974175       0.23073791 </v>
   <v>      -0.30871779       0.40353669       0.49905119 </v>
   <v>       0.22113531       0.38573948      -0.14689198 </v>
   <v>      -0.40622163      -0.49480297       0.15325029 </v>
   <v>       0.05691492      -0.02584426       0.03877953 </v>
   <v>       0.02276040      -0.28745912       0.05610862 </v>
   <v>      -0.07402675       0.17882478      -0.20920940 </v>
   <v>      -0.10810333       0.07447552      -0.15598060 </v>
   <v>       0.38996627       0.46032906      -0.00188560 </v>
   <v>      -0.20194997       0.48258779       0.39652383 </v>
   <v>      -0.19900611       0.15465299       0.29468540 </v>
   <v>      -0.43851422       0.38406766      -0.13221309 </v>
   <v>      -0.33013696       0.32187916       0.31380534 </v>
   <v>      -0.06207056      -0.05173327       0.05844494 </v>
   <v>      -0.19217943      -0.36478112      -0.11629643 </v>
   <v>      -0.34262361       0.32042512      -0.19795837 </v>
   <v>       0.10494905       0.35316103       0.20017132 </v>
   <v>      -0.11638717       0.03736186       0.12120203 </v>
   <v>      -0.11691038      -0.47242616      -0.14255895 </v>
   <v>      -0.13842882       0.47331720      -0.24426106 </v>
   <v>      -0.02287656       0.26827811      -0.13878628 </v>
   <v>       0.07658115      -0.49475007       0.03249577 </v>
   <v>      -0.17204009       0.23301019      -0.26762584 </v>
   <v>      -0.15617463      -0.09667165      -0.02370967 </v>
   <v>      -0.22147184       0.27845894       0.25822200 </v>
   <v>      -0.18874552      -0.25561326       0.05926294 </v>
   <v>      -0.45589503       0.37768833      -0.00758586 </v>
   <v>      -0.14877497       0.37741195       0.28748909 </v>
   <v>      -0.28258133       0.42660707       0.09309299 </v>
   <v>      -0.21247528       0.14163787       0.05409942 </v>
   <v>       0.04767435       0.31177285       0.02358500 </v>
   <v>      -0.22039402       0.29258553       0.13768671 </v>
   <v>      -0.15191040       0.45766985      -0.05237281 </v>
  </varray>
 </structure>
 <varray name="primitive_index" >
  <v type="int" >        1 </v>
  <v type="int" >       61 </v>
  <v type="int" >      103 </v>
  <v type="int" >       65 </v>
  <v type="int" >      104 </v>
  <v type="int" >      122 </v>
  <v type="int" >       43 </v>
  <v type="int" >       41 </v>
  <v type="int" >      101 </v>
  <v type="int" >       14 </v>
  <v type="int" >       44 </v>
  <v type="int" >       76 </v>
  <v type="int" >       81 </v>
  <v type="int" >       67 </v>
  <v type="int" >       53 </v>
  <v type="int" >        6 </v>
  <v type="int" >       23 </v>
  <v type="int" >       30 </v>
  <v type="int" >       38 </v>
  <v type="int" >       95 </v>
  <v type="int" >       57 </v>
  <v type="int" >       79 </v>
  <v type="int" >      134 </v>
  <v type="int" >      115 </v>
  <v type="int" >        9 </v>
  <v type="int" >       89 </v>
  <v type="int" >      105 </v>
  <v type="int" >       26 </v>
  <v type="int" >      109 </v>
  <v type="int" >        3 </v>
  <v type="int" >       93 </v>
  <v type="int" >      119 </v>
  <v type="int" >       75 </v>
  <v type="int" >       72 </v>
  <v type="int" >       84 </v>
  <v type="int" >       85 </v>
  <v type="int" >       99 </v>
  <v type="int" >       10 </v>
  <v type="int" >       49 </v>
  <v type="int" >        5 </v>
  <v type="int" >       16 </v>
  <v type="int" >       29 </v>
  <v type="int" >       12 </v>
  <v type="int" >       47 </v>
  <v type="int" >      129 </v>
  <v type="int" >       46 </v>
  <v type="int" >       66 </v>
  <v type="int" >      111 </v>
  <v type="int" >      123 </v>
  <v type="int" >       97 </v>
  <v type="int" >      121 </v>
  <v type="int" >       90 </v>
  <v type="int" >       87 </v>
  <v type="int" >       80 </v>
  <v type="int" >      118 </v>
  <v type="int" >        2 </v>
  <v type="int" >      125 </v>
  <v type="int" >       32 </v>
  <v type="int" >       45 </v>
  <v type="int" >       21 </v>
  <v type="int" >       60 </v>
  <v type="int" >       28 </v>
  <v type="int" >      113 </v>
  <v type="int" >       94 </v>
  <v type="int" >       62 </v>
  <v type="int" >       91 </v>
  <v type="int" >       36 </v>
  <v type="int" >       50 </v>
  <v type="int" >      130 </v>
  <v type="int" >       35 </v>
  <v type="int" >      133 </v>
  <v type="int" >       56 </v>
  <v type="int" >       82 </v>
  <v type="int" >       27 </v>
  <v type="int" >      108 </v>
  <v type="int" >       40 </v>
  <v type="int" >       86 </v>
  <v type="int" >      114 </v>
  <v type="int" >       37 </v>
  <v type="int" >      100 </v>
  <v type="int" >       68 </v>
  <v type="int" >       92 </v>
  <v type="int" >      127 </v>
  <v type="int" >       24 </v>
  <v type="int" >       71 </v>
  <v type="int" >        4 </v>
  <v type="int" >       54 </v>
  <v type="int" >       18 </v>
  <v type="int" >       73 </v>
  <v type="int" >       78 </v>
  <v type="int" >       96 </v>
  <v type="int" >      116 </v>
  <v type="int" >       64 </v>
  <v type="int" >       31 </v>
  <v type="int" >       19 </v>
  <v type="int" >       13 </v>
  <v type="int" >      107 </v>
  <v type="int" >      120 </v>
  <v type="int" >       39 </v>
  <v type="int" >       15 </v>
  <v type="int" >      124 </v>
  <v type="int" >       48 </v>
  <v type="int" >       17 </v>
  <v type="int" >       58 </v>
  <v type="int" >       59 </v>
  <v type="int" >       98 </v>
  <v type="int" >      135 </v>
  <v type="int" >      131 </v>
  <v type="int" >       34 </v>
  <v type="int" >       55 </v>
  <v type="int" >       25 </v>
  <v type="int" >        7 </v>
  <v type="int" >      117 </v>
  <v type="int" >       42 </v>
  <v type="int" >      132 </v>
  <v type="int" >       33 </v>
  <v type="int" >      102 </v>
  <v type="int" >       88 </v>
  <v type="int" >      110 </v>
  <v type="int" >      112 </v>
  <v type="int" >       51 </v>
  <v type="int" >       70 </v>
  <v type="int" >       83 </v>
  <v type="int" >       77 </v>
  <v type="int" >       74 </v>
  <v type="int" >       63 </v>
  <v type="int" >       52 </v>
  <v type="int" >       20 </v>
  <v type="int" >      128 </v>
  <v type="int" >       69 </v>
  <v type="int" >        8 </v>
  <v type="int" >       22 </v>
  <v type="int" >       11 </v>
  <v type="int" >      126 </v>
  <v type="int" >      106 </v>
 </varray>
 <kpoints>
  <generation param="Gamma">
   <v type="int" name="divisions">       2        2        2 </v>
   <v name="usershift">      0.00000000       0.00000000       0.00000000 </v>
   <v name="genvec1">      0.50000000       0.00000000       0.00000000 </v>
   <v name="genvec2">      0.00000000       0.50000000       0.00000000 </v>
   <v name="genvec3">      0.00000000       0.00000000       0.50000000 </v>
   <v name="shift">      0.00000000       0.00000000       0.00000000 </v>
  </generation>
  <varray name="kpointlist" >
   <v>       0.00000000       0.00000000       0.00000000 </v>
   <v>       0.50000000       0.00000000       0.00000000 </v>
   <v>       0.00000000       0.50000000       0.00000000 </v>
   <v>       0.50000000       0.50000000       0.00000000 </v>
   <v>       0.00000000       0.00000000       0.50000000 </v>
   <v>       0.50000000       0.00000000       0.50000000 </v>
   <v>       0.00000000       0.50000000       0.50000000 </v>
   <v>       0.50000000       0.50000000       0.50000000 </v>
  </varray>
  <varray name="weights" >
   <v>       0.12500000 </v>
   <v>       0.12500000 </v>
   <v>       0.12500000 </v>
   <v>       0.12500000 </v>
   <v>       0.12500000 </v>
   <v>       0.12500000 </v>
   <v>       0.12500000 </v>
   <v>       0.12500000 </v>
  </varray>
 </kpoints>
 <parameters>
  <separator name="general" >
   <i type="string" name="SYSTEM">unknown system</i>
   <i type="logical" name="LCOMPAT"> F  </i>
  </separator>
  <separator name="electronic" >
   <i type="string" name="PREC">a</i>
   <i name="ENMAX">    600.00000000</i>
   <i name="ENAUG">    605.39200000</i>
   <i name="EDIFF">      0.00000100</i>
   <i type="int" name="IALGO">    38</i>
   <i type="int" name="IWAVPR">    10</i>
   <i type="int" name="NBANDS">   520</i>
   <i name="NELECT">    864.00000000</i>
   <i type="int" name="TURBO">     0</i>
   <i type="int" name="IRESTART">     0</i>
   <i type="int" name="NREBOOT">     0</i>
   <i type="int" name="NMIN">     0</i>
   <i name="EREF">      0.00000000</i>
   <separator name="electronic smearing" >
    <i type="int" name="ISMEAR">     0</i>
    <i name="SIGMA">      0.05000000</i>
    <i name="KSPACING">      0.30000000</i>
    <i type="logical" name="KGAMMA"> T  </i>
   </separator>
   <separator name="electronic projectors" >
    <i type="logical" name="LREAL"> T  </i>
    <v name="ROPT">     -0.00025000     -0.00025000     -0.00025000</v>
    <i type="int" name="LMAXPAW">  -100</i>
    <i type="int" name="LMAXMIX">     2</i>
    <i type="logical" name="NLSPLINE"> F  </i>
   </separator>
   <separator name="electronic startup" >
    <i type="int" name="ISTART">     0</i>
    <i type="int" name="ICHARG">     2</i>
    <i type="int" name="INIWAV">     1</i>
   </separator>
   <separator name="electronic spin" >
    <i type="int" name="ISPIN">     1</i>
    <i type="logical" name="LNONCOLLINEAR"> F  </i>
    <v name="MAGMOM">      1.00000000      1.00000000      1.00000000      1.00000000      1.00000000      1.00000000      1.00000000      1.00000000      1.00000000      1.00000000      1.00000000      1.00000000      1.00000000      1.00000000      1.00000000      1.00000000      1.00000000      1.00000000      1.00000000      1.00000000
      1.00000000      1.00000000      1.00000000      1.00000000      1.00000000      1.00000000      1.00000000      1.00000000      1.00000000      1.00000000      1.00000000      1.00000000      1.00000000      1.00000000      1.00000000      1.00000000      1.00000000      1.00000000      1.00000000      1.00000000
      1.00000000      1.00000000      1.00000000      1.00000000      1.00000000      1.00000000      1.00000000      1.00000000      1.00000000      1.00000000      1.00000000      1.00000000      1.00000000      1.00000000      1.00000000      1.00000000      1.00000000      1.00000000      1.00000000      1.00000000
      1.00000000      1.00000000      1.00000000      1.00000000      1.00000000      1.00000000      1.00000000      1.00000000      1.00000000      1.00000000      1.00000000      1.00000000      1.00000000      1.00000000      1.00000000      1.00000000      1.00000000      1.00000000      1.00000000      1.00000000
      1.00000000      1.00000000      1.00000000      1.00000000      1.00000000      1.00000000      1.00000000      1.00000000      1.00000000      1.00000000      1.00000000      1.00000000      1.00000000      1.00000000      1.00000000      1.00000000      1.00000000      1.00000000      1.00000000      1.00000000
      1.00000000      1.00000000      1.00000000      1.00000000      1.00000000      1.00000000      1.00000000      1.00000000      1.00000000      1.00000000      1.00000000      1.00000000      1.00000000      1.00000000      1.00000000      1.00000000      1.00000000      1.00000000      1.00000000      1.00000000
      1.00000000      1.00000000      1.00000000      1.00000000      1.00000000      1.00000000      1.00000000      1.00000000      1.00000000      1.00000000      1.00000000      1.00000000      1.00000000      1.00000000      1.00000000</v>
    <i name="NUPDOWN">     -1.00000000</i>
    <i type="logical" name="LSORBIT"> F  </i>
    <v name="SAXIS">      0.00000000      0.00000000      1.00000000</v>
    <i type="logical" name="LSPIRAL"> F  </i>
    <v name="QSPIRAL">      0.00000000      0.00000000      0.00000000</v>
    <i type="logical" name="LZEROZ"> F  </i>
   </separator>
   <separator name="electronic exchange-correlation" >
    <i type="logical" name="LASPH"> F  </i>
    <i type="logical" name="LMETAGGA"> F  </i>
   </separator>
   <separator name="electronic convergence" >
    <i type="int" name="NELM">    60</i>
    <i type="int" name="NELMDL">    -5</i>
    <i type="int" name="NELMIN">     2</i>
    <i name="ENINI">    600.00000000</i>
    <separator name="electronic convergence detail" >
     <i type="logical" name="LDIAG"> T  </i>
     <i type="logical" name="LSUBROT"> F  </i>
     <i name="WEIMIN">      0.00000000</i>
     <i name="EBREAK">      0.00000000</i>
     <i name="DEPER">      0.30000000</i>
     <i type="int" name="NRMM">     4</i>
     <i name="TIME">      0.40000000</i>
    </separator>
   </separator>
   <separator name="electronic mixer" >
    <i name="AMIX">      0.40000000</i>
    <i name="BMIX">      1.00000000</i>
    <i name="AMIN">      0.10000000</i>
    <i name="AMIX_MAG">      1.60000000</i>
    <i name="BMIX_MAG">      1.00000000</i>
    <separator name="electronic mixer details" >
     <i type="int" name="IMIX">     4</i>
     <i type="logical" name="MIXFIRST"> F  </i>
     <i type="int" name="MAXMIX">   -45</i>
     <i name="WC">    100.00000000</i>
     <i type="int" name="INIMIX">     1</i>
     <i type="int" name="MIXPRE">     1</i>
     <i type="int" name="MREMOVE">     5</i>
    </separator>
   </separator>
   <separator name="electronic dipolcorrection" >
    <i type="logical" name="LDIPOL"> F  </i>
    <i type="logical" name="LMONO"> F  </i>
    <i type="int" name="IDIPOL">     0</i>
    <i name="EPSILON">      1.00000000</i>
    <v name="DIPOL">   -100.00000000   -100.00000000   -100.00000000</v>
    <i name="EFIELD">      0.00000000</i>
   </separator>
  </separator>
  <separator name="grids" >
   <i type="int" name="NGX">   108</i>
   <i type="int" name="NGY">   108</i>
   <i type="int" name="NGZ">   108</i>
   <i type="int" name="NGXF">   216</i>
   <i type="int" name="NGYF">   216</i>
   <i type="int" name="NGZF">   216</i>
   <i type="logical" name="ADDGRID"> T  </i>
  </separator>
  <separator name="ionic" >
   <i type="int" name="NSW">     1</i>
   <i type="int" name="IBRION">    -1</i>
   <i type="int" name="MDALGO">     0</i>
   <i type="int" name="ISIF">     2</i>
   <i name="PSTRESS">      0.00000000</i>
   <i name="EDIFFG">     -0.01000000</i>
   <i type="int" name="NFREE">     0</i>
   <i name="POTIM">      1.00000000</i>
   <i name="SMASS">     -3.00000000</i>
   <i name="SCALEE">      1.00000000</i>
  </separator>
  <separator name="ionic md" >
   <i name="TEBEG">      0.00010000</i>
   <i name="TEEND">      0.00010000</i>
   <i type="int" name="NBLOCK">     1</i>
   <i type="int" name="KBLOCK">     1</i>
   <i type="int" name="NPACO">   256</i>
   <i name="APACO">     16.00000000</i>
  </separator>
  <separator name="symmetry" >
   <i type="int" name="ISYM">     0</i>
   <i name="SYMPREC">      0.00001000</i>
  </separator>
  <separator name="dos" >
   <i type="int" name="LORBIT">     0</i>
   <v name="RWIGS">     -1.00000000     -1.00000000     -1.00000000</v>
   <i type="int" name="NEDOS">   301</i>
   <i name="EMIN">     10.00000000</i>
   <i name="EMAX">    -10.00000000</i>
   <i name="EFERMI">      0.00000000</i>
  </separator>
  <separator name="writing" >
   <i type="int" name="NWRITE">     2</i>
   <i type="logical" name="LWAVE"> F  </i>
   <i type="logical" name="LDOWNSAMPLE"> F  </i>
   <i type="logical" name="LCHARG"> F  </i>
   <i type="logical" name="LPARD"> F  </i>
   <i type="logical" name="LVTOT"> F  </i>
   <i type="logical" name="LVHAR"> F  </i>
   <i type="logical" name="LELF"> F  </i>
   <i type="logical" name="LOPTICS"> F  </i>
   <v name="STM">      0.00000000      0.00000000      0.00000000      0.00000000      0.00000000      0.00000000      0.00000000</v>
  </separator>
  <separator name="performance" >
   <i type="int" name="NPAR">     4</i>
   <i type="int" name="NSIM">     4</i>
   <i type="int" name="NBLK">    -1</i>
   <i type="logical" name="LPLANE"> T  </i>
   <i type="logical" name="LSCALAPACK"> F  </i>
   <i type="logical" name="LSCAAWARE"> F  </i>
   <i type="logical" name="LSCALU"> F  </i>
   <i type="logical" name="LASYNC"> F  </i>
   <i type="logical" name="LORBITALREAL"> F  </i>
  </separator>
  <separator name="miscellaneous" >
   <i type="int" name="IDIOT">     3</i>
   <i type="int" name="ISPECIAL">     0</i>
   <i type="logical" name="LMUSIC"> F  </i>
   <v name="POMASS">     40.07800000     28.08500000     16.00000000</v>
   <v name="DARWINR">      0.00000000      0.00000000      0.00000000</v>
   <v name="DARWINV">      1.00000000      1.00000000      1.00000000</v>
   <i type="logical" name="LCORR"> T  </i>
  </separator>
  <i type="logical" name="GGA_COMPAT"> T  </i>
  <i type="logical" name="LBERRY"> F  </i>
  <i type="int" name="ICORELEVEL">     0</i>
  <i type="logical" name="LDAU"> F  </i>
  <i type="int" name="I_CONSTRAINED_M">     0</i>
  <separator name="electronic exchange-correlation" >
   <i type="string" name="GGA">--</i>
   <i type="int" name="VOSKOWN">     0</i>
   <i type="logical" name="LHFCALC"> F  </i>
   <i type="string" name="PRECFOCK"></i>
   <i type="logical" name="LSYMGRAD"> F  </i>
   <i type="logical" name="LHFONE"> F  </i>
   <i type="logical" name="LRHFCALC"> F  </i>
   <i type="logical" name="LTHOMAS"> F  </i>
   <i type="logical" name="LMODELHF"> F  </i>
   <i name="ENCUT4O">     -1.00000000</i>
   <i type="int" name="EXXOEP">     0</i>
   <i type="int" name="FOURORBIT">     0</i>
   <i name="AEXX">      0.00000000</i>
   <i name="HFALPHA">      0.00000000</i>
   <i name="MCALPHA">      0.00000000</i>
   <i name="ALDAX">      1.00000000</i>
   <i name="AGGAX">      1.00000000</i>
   <i name="ALDAC">      1.00000000</i>
   <i name="AGGAC">      1.00000000</i>
   <i type="int" name="NKREDX">     1</i>
   <i type="int" name="NKREDY">     1</i>
   <i type="int" name="NKREDZ">     1</i>
   <i type="logical" name="SHIFTRED"> F  </i>
   <i type="logical" name="ODDONLY"> F  </i>
   <i type="logical" name="EVENONLY"> F  </i>
   <i type="int" name="LMAXFOCK">     0</i>
   <i type="int" name="NMAXFOCKAE">     0</i>
   <i type="logical" name="LFOCKAEDFT"> F  </i>
   <i name="HFSCREEN">      0.00000000</i>
   <i name="HFSCREENC">      0.00000000</i>
   <i type="int" name="NBANDSGWLOW">     0</i>
  </separator>
  <separator name="vdW DFT" >
   <i type="logical" name="LUSE_VDW"> F  </i>
   <i name="Zab_VDW">     -0.84910000</i>
   <i name="PARAM1">      0.12340000</i>
   <i name="PARAM2">      1.00000000</i>
   <i name="PARAM3">      0.00000000</i>
  </separator>
  <separator name="model GW" >
   <i type="int" name="MODEL_GW">     0</i>
   <i name="MODEL_EPS0">      9.60847956</i>
   <i name="MODEL_ALPHA">      1.00000000</i>
  </separator>
  <separator name="linear response parameters" >
   <i type="logical" name="LEPSILON"> F  </i>
   <i type="logical" name="LRPA"> F  </i>
   <i type="logical" name="LNABLA"> F  </i>
   <i type="logical" name="LVEL"> F  </i>
   <i type="int" name="KINTER">     0</i>
   <i name="CSHIFT">      0.10000000</i>
   <i name="OMEGAMAX">     -1.00000000</i>
   <i name="DEG_THRESHOLD">      0.00200000</i>
   <i name="RTIME">     -0.10000000</i>
   <i name="WPLASMAI">      0.00000000</i>
   <v name="DFIELD">      0.00000000      0.00000000      0.00000000</v>
   <v name="WPLASMA">      0.00000000      0.00000000      0.00000000      0.00000000      0.00000000      0.00000000      0.00000000      0.00000000      0.00000000</v>
  </separator>
  <separator name="orbital magnetization" >
   <i type="logical" name="NUCIND"> F  </i>
   <v name="MAGPOS">      0.00000000      0.00000000      0.00000000</v>
   <i type="logical" name="LNICSALL"> T  </i>
   <i type="logical" name="ORBITALMAG"> F  </i>
   <i type="logical" name="LMAGBLOCH"> F  </i>
   <i type="logical" name="LCHIMAG"> F  </i>
   <i type="logical" name="LGAUGE"> T  </i>
   <i type="int" name="MAGATOM">     0</i>
   <v name="MAGDIPOL">      0.00000000      0.00000000      0.00000000</v>
   <v name="AVECCONST">      0.00000000      0.00000000      0.00000000</v>
  </separator>
  <separator name="response functions" >
   <i type="logical" name="LADDER"> F  </i>
   <i type="logical" name="LRPAFORCE"> F  </i>
   <i type="logical" name="LFXC"> F  </i>
   <i type="logical" name="LHARTREE"> T  </i>
   <i type="int" name="IBSE">     0</i>
   <v type="int" name="KPOINT">    -1     0     0     0</v>
   <i type="logical" name="LTCTE"> F  </i>
   <i type="logical" name="LTETE"> F  </i>
   <i type="logical" name="LTRIPLET"> F  </i>
   <i type="logical" name="LFXCEPS"> F  </i>
   <i type="logical" name="LFXHEG"> F  </i>
   <i type="int" name="NATURALO">     2</i>
   <i type="logical" name="L2ORDER"> F  </i>
   <i type="logical" name="LMP2LT"> F  </i>
   <i type="logical" name="LUSEW"> F  </i>
   <i name="ENCUTGW">     -2.00000000</i>
   <i name="ENCUTGWSOFT">     -2.00000000</i>
   <i name="ENCUTLF">     -1.00000000</i>
   <i type="int" name="LMAXMP2">    -1</i>
   <i name="SCISSOR">      0.00000000</i>
   <i type="int" name="NOMEGA">     0</i>
   <i type="int" name="NOMEGAR">     0</i>
   <i type="int" name="NBANDSGW">    -1</i>
   <i type="int" name="NBANDSO">    -1</i>
   <i type="int" name="NBANDSV">    -1</i>
   <i type="int" name="NELM">     1</i>
   <i type="int" name="NELMHF">     1</i>
   <i type="int" name="DIM">     3</i>
   <i type="int" name="ANTIRES">     0</i>
   <i name="OMEGAMAX">    -30.00000000</i>
   <i name="OMEGAMIN">    -30.00000000</i>
   <i name="OMEGATL">   -200.00000000</i>
   <i type="int" name="OMEGAGRID">   140</i>
   <i name="CSHIFT">     -0.10000000</i>
   <i type="logical" name="SELFENERGY"> F  </i>
   <i type="logical" name="LSPECTRAL"> F  </i>
   <i type="logical" name="LSPECTRALGW"> F  </i>
   <i type="logical" name="LSINGLES"> F  </i>
   <i type="logical" name="LFERMIGW"> F  </i>
   <i type="logical" name="ODDONLYGW"> F  </i>
   <i type="logical" name="EVENONLYGW"> F  </i>
   <i type="int" name="NKREDLFX">     1</i>
   <i type="int" name="NKREDLFY">     1</i>
   <i type="int" name="NKREDLFZ">     1</i>
   <i type="int" name="MAXMEM">  2800</i>
   <i type="int" name="TELESCOPE">     0</i>
   <i type="int" name="TAUPAR">     1</i>
   <i type="int" name="OMEGAPAR">    -1</i>
   <i name="LAMBDA">      1.00000000</i>
  </separator>
  <separator name="External order field" >
   <i name="OFIELD_KAPPA">      0.00000000</i>
   <v name="OFIELD_K">      0.00000000      0.00000000      0.00000000</v>
   <i name="OFIELD_Q6_NEAR">      0.00000000</i>
   <i name="OFIELD_Q6_FAR">      0.00000000</i>
   <i name="OFIELD_A">      0.00000000</i>
  </separator>
 </parameters>
 <atominfo>
  <atoms>     135 </atoms>
  <types>       3 </types>
  <array name="atoms" >
   <dimension dim="1">ion</dimension>
   <field type="string">element</field>
   <field type="int">atomtype</field>
   <set>
    <rc><c>Ca</c><c>   1</c></rc>
    <rc><c>Ca</c><c>   1</c></rc>
    <rc><c>Ca</c><c>   1</c></rc>
    <rc><c>Ca</c><c>   1</c></rc>
    <rc><c>Ca</c><c>   1</c></rc>
    <rc><c>Ca</c><c>   1</c></rc>
    <rc><c>Ca</c><c>   1</c></rc>
    <rc><c>Ca</c><c>   1</c></rc>
    <rc><c>Ca</c><c>   1</c></rc>
    <rc><c>Ca</c><c>   1</c></rc>
    <rc><c>Ca</c><c>   1</c></rc>
    <rc><c>Ca</c><c>   1</c></rc>
    <rc><c>Ca</c><c>   1</c></rc>
    <rc><c>Ca</c><c>   1</c></rc>
    <rc><c>Ca</c><c>   1</c></rc>
    <rc><c>Ca</c><c>   1</c></rc>
    <rc><c>Ca</c><c>   1</c></rc>
    <rc><c>Ca</c><c>   1</c></rc>
    <rc><c>Ca</c><c>   1</c></rc>
    <rc><c>Ca</c><c>   1</c></rc>
    <rc><c>Ca</c><c>   1</c></rc>
    <rc><c>Ca</c><c>   1</c></rc>
    <rc><c>Ca</c><c>   1</c></rc>
    <rc><c>Ca</c><c>   1</c></rc>
    <rc><c>Ca</c><c>   1</c></rc>
    <rc><c>Ca</c><c>   1</c></rc>
    <rc><c>Ca</c><c>   1</c></rc>
    <rc><c>Si</c><c>   2</c></rc>
    <rc><c>Si</c><c>   2</c></rc>
    <rc><c>Si</c><c>   2</c></rc>
    <rc><c>Si</c><c>   2</c></rc>
    <rc><c>Si</c><c>   2</c></rc>
    <rc><c>Si</c><c>   2</c></rc>
    <rc><c>Si</c><c>   2</c></rc>
    <rc><c>Si</c><c>   2</c></rc>
    <rc><c>Si</c><c>   2</c></rc>
    <rc><c>Si</c><c>   2</c></rc>
    <rc><c>Si</c><c>   2</c></rc>
    <rc><c>Si</c><c>   2</c></rc>
    <rc><c>Si</c><c>   2</c></rc>
    <rc><c>Si</c><c>   2</c></rc>
    <rc><c>Si</c><c>   2</c></rc>
    <rc><c>Si</c><c>   2</c></rc>
    <rc><c>Si</c><c>   2</c></rc>
    <rc><c>Si</c><c>   2</c></rc>
    <rc><c>Si</c><c>   2</c></rc>
    <rc><c>Si</c><c>   2</c></rc>
    <rc><c>Si</c><c>   2</c></rc>
    <rc><c>Si</c><c>   2</c></rc>
    <rc><c>Si</c><c>   2</c></rc>
    <rc><c>Si</c><c>   2</c></rc>
    <rc><c>Si</c><c>   2</c></rc>
    <rc><c>Si</c><c>   2</c></rc>
    <rc><c>Si</c><c>   2</c></rc>
    <rc><c>O </c><c>   3</c></rc>
    <rc><c>O </c><c>   3</c></rc>
    <rc><c>O </c><c>   3</c></rc>
    <rc><c>O </c><c>   3</c></rc>
    <rc><c>O </c><c>   3</c></rc>
    <rc><c>O </c><c>   3</c></rc>
    <rc><c>O </c><c>   3</c></rc>
    <rc><c>O </c><c>   3</c></rc>
    <rc><c>O </c><c>   3</c></rc>
    <rc><c>O </c><c>   3</c></rc>
    <rc><c>O </c><c>   3</c></rc>
    <rc><c>O </c><c>   3</c></rc>
    <rc><c>O </c><c>   3</c></rc>
    <rc><c>O </c><c>   3</c></rc>
    <rc><c>O </c><c>   3</c></rc>
    <rc><c>O </c><c>   3</c></rc>
    <rc><c>O </c><c>   3</c></rc>
    <rc><c>O </c><c>   3</c></rc>
    <rc><c>O </c><c>   3</c></rc>
    <rc><c>O </c><c>   3</c></rc>
    <rc><c>O </c><c>   3</c></rc>
    <rc><c>O </c><c>   3</c></rc>
    <rc><c>O </c><c>   3</c></rc>
    <rc><c>O </c><c>   3</c></rc>
    <rc><c>O </c><c>   3</c></rc>
    <rc><c>O </c><c>   3</c></rc>
    <rc><c>O </c><c>   3</c></rc>
    <rc><c>O </c><c>   3</c></rc>
    <rc><c>O </c><c>   3</c></rc>
    <rc><c>O </c><c>   3</c></rc>
    <rc><c>O </c><c>   3</c></rc>
    <rc><c>O </c><c>   3</c></rc>
    <rc><c>O </c><c>   3</c></rc>
    <rc><c>O </c><c>   3</c></rc>
    <rc><c>O </c><c>   3</c></rc>
    <rc><c>O </c><c>   3</c></rc>
    <rc><c>O </c><c>   3</c></rc>
    <rc><c>O </c><c>   3</c></rc>
    <rc><c>O </c><c>   3</c></rc>
    <rc><c>O </c><c>   3</c></rc>
    <rc><c>O </c><c>   3</c></rc>
    <rc><c>O </c><c>   3</c></rc>
    <rc><c>O </c><c>   3</c></rc>
    <rc><c>O </c><c>   3</c></rc>
    <rc><c>O </c><c>   3</c></rc>
    <rc><c>O </c><c>   3</c></rc>
    <rc><c>O </c><c>   3</c></rc>
    <rc><c>O </c><c>   3</c></rc>
    <rc><c>O </c><c>   3</c></rc>
    <rc><c>O </c><c>   3</c></rc>
    <rc><c>O </c><c>   3</c></rc>
    <rc><c>O </c><c>   3</c></rc>
    <rc><c>O </c><c>   3</c></rc>
    <rc><c>O </c><c>   3</c></rc>
    <rc><c>O </c><c>   3</c></rc>
    <rc><c>O </c><c>   3</c></rc>
    <rc><c>O </c><c>   3</c></rc>
    <rc><c>O </c><c>   3</c></rc>
    <rc><c>O </c><c>   3</c></rc>
    <rc><c>O </c><c>   3</c></rc>
    <rc><c>O </c><c>   3</c></rc>
    <rc><c>O </c><c>   3</c></rc>
    <rc><c>O </c><c>   3</c></rc>
    <rc><c>O </c><c>   3</c></rc>
    <rc><c>O </c><c>   3</c></rc>
    <rc><c>O </c><c>   3</c></rc>
    <rc><c>O </c><c>   3</c></rc>
    <rc><c>O </c><c>   3</c></rc>
    <rc><c>O </c><c>   3</c></rc>
    <rc><c>O </c><c>   3</c></rc>
    <rc><c>O </c><c>   3</c></rc>
    <rc><c>O </c><c>   3</c></rc>
    <rc><c>O </c><c>   3</c></rc>
    <rc><c>O </c><c>   3</c></rc>
    <rc><c>O </c><c>   3</c></rc>
    <rc><c>O </c><c>   3</c></rc>
    <rc><c>O </c><c>   3</c></rc>
    <rc><c>O </c><c>   3</c></rc>
    <rc><c>O </c><c>   3</c></rc>
    <rc><c>O </c><c>   3</c></rc>
    <rc><c>O </c><c>   3</c></rc>
   </set>
  </array>
  <array name="atomtypes" >
   <dimension dim="1">type</dimension>
   <field type="int">atomspertype</field>
   <field type="string">element</field>
   <field>mass</field>
   <field>valence</field>
   <field type="string">pseudopotential</field>
   <set>
    <rc><c>  27</c><c>Ca</c><c>     40.07800000</c><c>     10.00000000</c><c>  PAW_PBE Ca_sv 06Sep2000               </c></rc>
    <rc><c>  27</c><c>Si</c><c>     28.08500000</c><c>      4.00000000</c><c>  PAW_PBE Si 05Jan2001                  </c></rc>
    <rc><c>  81</c><c>O </c><c>     16.00000000</c><c>      6.00000000</c><c>  PAW_PBE O 08Apr2002                   </c></rc>
   </set>
  </array>
 </atominfo>
 <structure name="initialpos" >
  <crystal>
   <varray name="basis" >
    <v>      12.93041299       0.00000000       0.00000000 </v>
    <v>       0.00000000      12.93041299       0.00000000 </v>
    <v>       0.00000000       0.00000000      12.93041299 </v>
   </varray>
   <i name="volume">   2161.90790069 </i>
   <varray name="rec_basis" >
    <v>       0.07733705       0.00000000       0.00000000 </v>
    <v>       0.00000000       0.07733705       0.00000000 </v>
    <v>       0.00000000       0.00000000       0.07733705 </v>
   </varray>
  </crystal>
  <varray name="positions" >
   <v>       0.33154686       0.84671305       0.53319850 </v>
   <v>       0.46713089       0.40012624       0.61939097 </v>
   <v>       0.12320627       0.68462557       0.77288139 </v>
   <v>       0.80831626       0.99344174       0.74086429 </v>
   <v>       0.25989131       0.07987517       0.85952736 </v>
   <v>       0.17351876       0.03062807       0.37440639 </v>
   <v>       0.79805003       0.48258779       0.39652383 </v>
   <v>       0.71741867       0.42660707       0.09309299 </v>
   <v>       0.54127760       0.77706793       0.26320611 </v>
   <v>       0.52699547       0.64335260       0.81188068 </v>
   <v>       0.04767435       0.31177285       0.02358500 </v>
   <v>       0.30093257       0.25188619       0.41529410 </v>
   <v>       0.78076379       0.51148689       0.60807365 </v>
   <v>       0.42781768       0.07596433       0.58766502 </v>
   <v>       0.09795079       0.35983167       0.71203385 </v>
   <v>       0.93012503       0.76110192       0.51846709 </v>
   <v>       0.50522674       0.29974175       0.23073791 </v>
   <v>       0.00160978       0.27600695       0.43141382 </v>
   <v>       0.83460645       0.97358156       0.31210633 </v>
   <v>       0.81125448       0.74438674       0.05926294 </v>
   <v>       0.51954249       0.13988497       0.87279600 </v>
   <v>       0.78752472       0.14163787       0.05409942 </v>
   <v>       0.60852988       0.94430560       0.53458229 </v>
   <v>       0.70504795       0.22610760       0.47148994 </v>
   <v>       0.38996627       0.46032906       0.99811440 </v>
   <v>       0.15984637       0.89214793       0.83775334 </v>
   <v>       0.04276523       0.51160034       0.26138302 </v>
   <v>       0.60484280       0.82904806       0.93742252 </v>
   <v>       0.28235174       0.24961906       0.64352133 </v>
   <v>       0.44600444       0.59481924       0.43382777 </v>
   <v>       0.70253068       0.20845726       0.73883989 </v>
   <v>       0.76956640       0.72483921       0.37427629 </v>
   <v>       0.93792944       0.94826673       0.05844494 </v>
   <v>       0.92597325       0.17882478       0.79079060 </v>
   <v>       0.33425976       0.41097674       0.79711367 </v>
   <v>       0.87277727       0.04276544       0.52879260 </v>
   <v>       0.77874966       0.72039343       0.78189689 </v>
   <v>       0.25300486       0.75896744       0.25880889 </v>
   <v>       0.07769487       0.61770150       0.98728317 </v>
   <v>       0.14179137       0.22660466       0.22578671 </v>
   <v>       0.26408699       0.61670572       0.59037325 </v>
   <v>       0.56148578       0.38406766       0.86778691 </v>
   <v>       0.09660798       0.88163789       0.58070601 </v>
   <v>       0.46442391       0.89652392       0.75306504 </v>
   <v>       0.01315924       0.75558739       0.17871660 </v>
   <v>       0.07059746       0.50641676       0.51153506 </v>
   <v>       0.37744952       0.54481200       0.23759554 </v>
   <v>       0.12489209       0.06671156       0.04880727 </v>
   <v>       0.32103553       0.95669916       0.15022469 </v>
   <v>       0.56061326       0.99485833       0.11061595 </v>
   <v>       0.88308962       0.52757384       0.85744105 </v>
   <v>       0.77852816       0.27845894       0.25822200 </v>
   <v>       0.43582328       0.03181374       0.35781881 </v>
   <v>       0.55162641       0.60834700       0.09386276 </v>
   <v>       0.89189667       0.07447552       0.84401940 </v>
   <v>       0.84200116       0.82667143       0.38552136 </v>
   <v>       0.46856205       0.55273260       0.55039940 </v>
   <v>       0.69128221       0.40353669       0.49905119 </v>
   <v>       0.22113531       0.38573948       0.85310802 </v>
   <v>       0.66169093       0.09643945       0.78889408 </v>
   <v>       0.16685765       0.88791599       0.47136751 </v>
   <v>       0.08233602       0.43483755       0.40954916 </v>
   <v>       0.84382537       0.90332835       0.97629033 </v>
   <v>       0.14776052       0.14401367       0.96619765 </v>
   <v>       0.36326763       0.84238328       0.71631042 </v>
   <v>       0.36790950       0.27528302       0.54469337 </v>
   <v>       0.55745715       0.88129045       0.67010008 </v>
   <v>       0.98749826       0.44675693       0.58075312 </v>
   <v>       0.85122503       0.37741195       0.28748909 </v>
   <v>       0.86157118       0.47331720       0.75573894 </v>
   <v>       0.60661549       0.94330584       0.98681341 </v>
   <v>       0.31715063       0.82016039       0.15643503 </v>
   <v>       0.38007769       0.43512299       0.16928567 </v>
   <v>       0.82795991       0.23301019       0.73237416 </v>
   <v>       0.13312321       0.75556099       0.23166298 </v>
   <v>       0.14991412       0.95196652       0.69048595 </v>
   <v>       0.07658115       0.50524993       0.03249577 </v>
   <v>       0.60126565       0.75315876       0.06047654 </v>
   <v>       0.55559141       0.65831333       0.38898996 </v>
   <v>       0.16456183       0.27921552       0.59593837 </v>
   <v>       0.28666880       0.65129063       0.70524577 </v>
   <v>       0.57904093       0.47674511       0.78680825 </v>
   <v>       0.97712344       0.26827811       0.86121372 </v>
   <v>       0.02622666       0.62443589       0.46829771 </v>
   <v>       0.47572209       0.14812626       0.33831805 </v>
   <v>       0.66739207       0.24027526       0.61985100 </v>
   <v>       0.76995189       0.97622499       0.48900484 </v>
   <v>       0.65737639       0.32042512       0.80204163 </v>
   <v>       0.27128463       0.62685590       0.26681508 </v>
   <v>       0.43600887       0.97830405       0.10860851 </v>
   <v>       0.68672331       0.75824664       0.87122358 </v>
   <v>       0.82608191       0.81212493       0.72094909 </v>
   <v>       0.32851318       0.16152372       0.70198687 </v>
   <v>       0.25827531       0.20356032       0.20032659 </v>
   <v>       0.34828101       0.00847696       0.27241153 </v>
   <v>       0.49634313       0.57851371       0.98724267 </v>
   <v>       0.11446391       0.18858647       0.34868779 </v>
   <v>       0.59377837       0.50519703       0.15325029 </v>
   <v>       0.39544362       0.49395242       0.36739545 </v>
   <v>       0.01082370       0.59121260       0.86846552 </v>
   <v>       0.51984013       0.93899521       0.40181549 </v>
   <v>       0.80782057       0.63521888       0.88370357 </v>
   <v>       0.27150899       0.84268525       0.36011919 </v>
   <v>       0.33121212       0.65513949       0.47995568 </v>
   <v>       0.19588524       0.52260661       0.56196869 </v>
   <v>       0.84808960       0.45766985       0.94762719 </v>
   <v>       0.57376086       0.11457797       0.09757492 </v>
   <v>       0.74210063       0.69491279       0.25020952 </v>
   <v>       0.00853666       0.99362351       0.50518398 </v>
   <v>       0.10494905       0.35316103       0.20017132 </v>
   <v>       0.43869123       0.63290155       0.17518741 </v>
   <v>       0.88361283       0.03736186       0.12120203 </v>
   <v>       0.24571559       0.04165084       0.09018797 </v>
   <v>       0.33084152       0.34545117       0.69820379 </v>
   <v>       0.01351685       0.81043819       0.64748070 </v>
   <v>       0.87776855       0.16066217       0.46372834 </v>
   <v>       0.80099389       0.15465299       0.29468540 </v>
   <v>       0.92060815       0.04404287       0.64917173 </v>
   <v>       0.50506447       0.80667077       0.84876362 </v>
   <v>       0.42682123       0.30562901       0.85124826 </v>
   <v>       0.17338275       0.67460219       0.92086431 </v>
   <v>       0.34153715       0.04686454       0.48354473 </v>
   <v>       0.62797687       0.92617960       0.22458397 </v>
   <v>       0.05011496       0.15232625       0.14305019 </v>
   <v>       0.73349255       0.64219950       0.69737341 </v>
   <v>       0.77960598       0.29258553       0.13768671 </v>
   <v>       0.94078812       0.84655377       0.16711608 </v>
   <v>       0.54410497       0.37768833       0.99241414 </v>
   <v>       0.39362351       0.52040708       0.80235993 </v>
   <v>       0.98541460       0.64264317       0.22395773 </v>
   <v>       0.02276040       0.71254088       0.05610862 </v>
   <v>       0.66986304       0.32187916       0.31380534 </v>
   <v>       0.79128028       0.63798041       0.46303606 </v>
   <v>       0.44159552       0.00388942       0.80370163 </v>
   <v>       0.05691492       0.97415574       0.03877953 </v>
  </varray>
  <varray name="velocities" >
   <v>       0.00000000       0.00000000       0.00000000 </v>
   <v>       0.00000000       0.00000000       0.00000000 </v>
   <v>       0.00000000       0.00000000       0.00000000 </v>
   <v>       0.00000000       0.00000000       0.00000000 </v>
   <v>       0.00000000       0.00000000       0.00000000 </v>
   <v>       0.00000000       0.00000000       0.00000000 </v>
   <v>       0.00000000       0.00000000       0.00000000 </v>
   <v>       0.00000000       0.00000000       0.00000000 </v>
   <v>       0.00000000       0.00000000       0.00000000 </v>
   <v>       0.00000000       0.00000000       0.00000000 </v>
   <v>       0.00000000       0.00000000       0.00000000 </v>
   <v>       0.00000000       0.00000000       0.00000000 </v>
   <v>       0.00000000       0.00000000       0.00000000 </v>
   <v>       0.00000000       0.00000000       0.00000000 </v>
   <v>       0.00000000       0.00000000       0.00000000 </v>
   <v>       0.00000000       0.00000000       0.00000000 </v>
   <v>       0.00000000       0.00000000       0.00000000 </v>
   <v>       0.00000000       0.00000000       0.00000000 </v>
   <v>       0.00000000       0.00000000       0.00000000 </v>
   <v>       0.00000000       0.00000000       0.00000000 </v>
   <v>       0.00000000       0.00000000       0.00000000 </v>
   <v>       0.00000000       0.00000000       0.00000000 </v>
   <v>       0.00000000       0.00000000       0.00000000 </v>
   <v>       0.00000000       0.00000000       0.00000000 </v>
   <v>       0.00000000       0.00000000       0.00000000 </v>
   <v>       0.00000000       0.00000000       0.00000000 </v>
   <v>       0.00000000       0.00000000       0.00000000 </v>
   <v>       0.00000000       0.00000000       0.00000000 </v>
   <v>       0.00000000       0.00000000       0.00000000 </v>
   <v>       0.00000000       0.00000000       0.00000000 </v>
   <v>       0.00000000       0.00000000       0.00000000 </v>
   <v>       0.00000000       0.00000000       0.00000000 </v>
   <v>       0.00000000       0.00000000       0.00000000 </v>
   <v>       0.00000000       0.00000000       0.00000000 </v>
   <v>       0.00000000       0.00000000       0.00000000 </v>
   <v>       0.00000000       0.00000000       0.00000000 </v>
   <v>       0.00000000       0.00000000       0.00000000 </v>
   <v>       0.00000000       0.00000000       0.00000000 </v>
   <v>       0.00000000       0.00000000       0.00000000 </v>
   <v>       0.00000000       0.00000000       0.00000000 </v>
   <v>       0.00000000       0.00000000       0.00000000 </v>
   <v>       0.00000000       0.00000000       0.00000000 </v>
   <v>       0.00000000       0.00000000       0.00000000 </v>
   <v>       0.00000000       0.00000000       0.00000000 </v>
   <v>       0.00000000       0.00000000       0.00000000 </v>
   <v>       0.00000000       0.00000000       0.00000000 </v>
   <v>       0.00000000       0.00000000       0.00000000 </v>
   <v>       0.00000000       0.00000000       0.00000000 </v>
   <v>       0.00000000       0.00000000       0.00000000 </v>
   <v>       0.00000000       0.00000000       0.00000000 </v>
   <v>       0.00000000       0.00000000       0.00000000 </v>
   <v>       0.00000000       0.00000000       0.00000000 </v>
   <v>       0.00000000       0.00000000       0.00000000 </v>
   <v>       0.00000000       0.00000000       0.00000000 </v>
   <v>       0.00000000       0.00000000       0.00000000 </v>
   <v>       0.00000000       0.00000000       0.00000000 </v>
   <v>       0.00000000       0.00000000       0.00000000 </v>
   <v>       0.00000000       0.00000000       0.00000000 </v>
   <v>       0.00000000       0.00000000       0.00000000 </v>
   <v>       0.00000000       0.00000000       0.00000000 </v>
   <v>       0.00000000       0.00000000       0.00000000 </v>
   <v>       0.00000000       0.00000000       0.00000000 </v>
   <v>       0.00000000       0.00000000       0.00000000 </v>
   <v>       0.00000000       0.00000000       0.00000000 </v>
   <v>       0.00000000       0.00000000       0.00000000 </v>
   <v>       0.00000000       0.00000000       0.00000000 </v>
   <v>       0.00000000       0.00000000       0.00000000 </v>
   <v>       0.00000000       0.00000000       0.00000000 </v>
   <v>       0.00000000       0.00000000       0.00000000 </v>
   <v>       0.00000000       0.00000000       0.00000000 </v>
   <v>       0.00000000       0.00000000       0.00000000 </v>
   <v>       0.00000000       0.00000000       0.00000000 </v>
   <v>       0.00000000       0.00000000       0.00000000 </v>
   <v>       0.00000000       0.00000000       0.00000000 </v>
   <v>       0.00000000       0.00000000       0.00000000 </v>
   <v>       0.00000000       0.00000000       0.00000000 </v>
   <v>       0.00000000       0.00000000       0.00000000 </v>
   <v>       0.00000000       0.00000000       0.00000000 </v>
   <v>       0.00000000       0.00000000       0.00000000 </v>
   <v>       0.00000000       0.00000000       0.00000000 </v>
   <v>       0.00000000       0.00000000       0.00000000 </v>
   <v>       0.00000000       0.00000000       0.00000000 </v>
   <v>       0.00000000       0.00000000       0.00000000 </v>
   <v>       0.00000000       0.00000000       0.00000000 </v>
   <v>       0.00000000       0.00000000       0.00000000 </v>
   <v>       0.00000000       0.00000000       0.00000000 </v>
   <v>       0.00000000       0.00000000       0.00000000 </v>
   <v>       0.00000000       0.00000000       0.00000000 </v>
   <v>       0.00000000       0.00000000       0.00000000 </v>
   <v>       0.00000000       0.00000000       0.00000000 </v>
   <v>       0.00000000       0.00000000       0.00000000 </v>
   <v>       0.00000000       0.00000000       0.00000000 </v>
   <v>       0.00000000       0.00000000       0.00000000 </v>
   <v>       0.00000000       0.00000000       0.00000000 </v>
   <v>       0.00000000       0.00000000       0.00000000 </v>
   <v>       0.00000000       0.00000000       0.00000000 </v>
   <v>       0.00000000       0.00000000       0.00000000 </v>
   <v>       0.00000000       0.00000000       0.00000000 </v>
   <v>       0.00000000       0.00000000       0.00000000 </v>
   <v>       0.00000000       0.00000000       0.00000000 </v>
   <v>       0.00000000       0.00000000       0.00000000 </v>
   <v>       0.00000000       0.00000000       0.00000000 </v>
   <v>       0.00000000       0.00000000       0.00000000 </v>
   <v>       0.00000000       0.00000000       0.00000000 </v>
   <v>       0.00000000       0.00000000       0.00000000 </v>
   <v>       0.00000000       0.00000000       0.00000000 </v>
   <v>       0.00000000       0.00000000       0.00000000 </v>
   <v>       0.00000000       0.00000000       0.00000000 </v>
   <v>       0.00000000       0.00000000       0.00000000 </v>
   <v>       0.00000000       0.00000000       0.00000000 </v>
   <v>       0.00000000       0.00000000       0.00000000 </v>
   <v>       0.00000000       0.00000000       0.00000000 </v>
   <v>       0.00000000       0.00000000       0.00000000 </v>
   <v>       0.00000000       0.00000000       0.00000000 </v>
   <v>       0.00000000       0.00000000       0.00000000 </v>
   <v>       0.00000000       0.00000000       0.00000000 </v>
   <v>       0.00000000       0.00000000       0.00000000 </v>
   <v>       0.00000000       0.00000000       0.00000000 </v>
   <v>       0.00000000       0.00000000       0.00000000 </v>
   <v>       0.00000000       0.00000000       0.00000000 </v>
   <v>       0.00000000       0.00000000       0.00000000 </v>
   <v>       0.00000000       0.00000000       0.00000000 </v>
   <v>       0.00000000       0.00000000       0.00000000 </v>
   <v>       0.00000000       0.00000000       0.00000000 </v>
   <v>       0.00000000       0.00000000       0.00000000 </v>
   <v>       0.00000000       0.00000000       0.00000000 </v>
   <v>       0.00000000       0.00000000       0.00000000 </v>
   <v>       0.00000000       0.00000000       0.00000000 </v>
   <v>       0.00000000       0.00000000       0.00000000 </v>
   <v>       0.00000000       0.00000000       0.00000000 </v>
   <v>       0.00000000       0.00000000       0.00000000 </v>
   <v>       0.00000000       0.00000000       0.00000000 </v>
   <v>       0.00000000       0.00000000       0.00000000 </v>
   <v>       0.00000000       0.00000000       0.00000000 </v>
   <v>       0.00000000       0.00000000       0.00000000 </v>
  </varray>
 </structure>
 <calculation>
  <scstep>
   <time name="dav">   50.11   50.67</time>
   <time name="total">   50.63   51.21</time>
   <energy>
    <i name="alphaZ">   2210.34415451 </i>
    <i name="ewald"> -40454.98340803 </i>
    <i name="hartreedc"> -20984.54730430 </i>
    <i name="XCdc">   3138.47343840 </i>
    <i name="pawpsdc">  50594.51003143 </i>
    <i name="pawaedc"> -49994.65612350 </i>
    <i name="eentropy">     -0.04455097 </i>
    <i name="bandstr">   -155.46470858 </i>
    <i name="atom">  64968.54023382 </i>
    <i name="e_fr_energy">   9322.17176279 </i>
    <i name="e_wo_entrp">   9322.21631376 </i>
    <i name="e_0_energy">   9322.19403828 </i>
   </energy>
  </scstep>
  <scstep>
   <time name="dav">   59.56   60.19</time>
   <time name="total">   59.56   60.19</time>
   <energy>
    <i name="e_fr_energy">    -13.61901801 </i>
    <i name="e_wo_entrp">    -13.61901801 </i>
    <i name="e_0_energy">    -13.61901801 </i>
   </energy>
  </scstep>
  <scstep>
   <time name="dav">   59.45   60.07</time>
   <time name="total">   59.45   60.07</time>
   <energy>
    <i name="e_fr_energy">  -1030.06520993 </i>
    <i name="e_wo_entrp">  -1030.06520993 </i>
    <i name="e_0_energy">  -1030.06520993 </i>
   </energy>
  </scstep>
  <scstep>
   <time name="dav">   62.67   63.34</time>
   <time name="total">   62.67   63.34</time>
   <energy>
    <i name="e_fr_energy">  -1077.35163260 </i>
    <i name="e_wo_entrp">  -1077.35163260 </i>
    <i name="e_0_energy">  -1077.35163260 </i>
   </energy>
  </scstep>
  <scstep>
   <time name="dav">   79.97   80.76</time>
   <time name="total">   82.43   83.25</time>
   <energy>
    <i name="e_fr_energy">  -1083.30608762 </i>
    <i name="e_wo_entrp">  -1083.30608762 </i>
    <i name="e_0_energy">  -1083.30608762 </i>
   </energy>
  </scstep>
  <scstep>
   <time name="dav">   58.78   59.35</time>
   <time name="total">   61.74   62.32</time>
   <energy>
    <i name="e_fr_energy">   -919.10911332 </i>
    <i name="e_wo_entrp">   -919.10911332 </i>
    <i name="e_0_energy">   -919.10911332 </i>
   </energy>
  </scstep>
  <scstep>
   <time name="dav">   71.86   73.80</time>
   <time name="total">   74.81   76.76</time>
   <energy>
    <i name="e_fr_energy">   -920.20026429 </i>
    <i name="e_wo_entrp">   -920.20024964 </i>
    <i name="e_0_energy">   -920.20025697 </i>
   </energy>
  </scstep>
  <scstep>
   <time name="dav">   59.29   59.56</time>
   <time name="total">   62.30   62.59</time>
   <energy>
    <i name="e_fr_energy">   -918.26954829 </i>
    <i name="e_wo_entrp">   -918.22413294 </i>
    <i name="e_0_energy">   -918.24684062 </i>
   </energy>
  </scstep>
  <scstep>
   <time name="dav">   60.12   60.44</time>
   <time name="total">   63.09   63.43</time>
   <energy>
    <i name="e_fr_energy">   -919.40299210 </i>
    <i name="e_wo_entrp">   -919.40299210 </i>
    <i name="e_0_energy">   -919.40299210 </i>
   </energy>
  </scstep>
  <scstep>
   <time name="dav">   64.08   64.35</time>
   <time name="total">   67.10   67.39</time>
   <energy>
    <i name="e_fr_energy">   -918.28516557 </i>
    <i name="e_wo_entrp">   -918.26824153 </i>
    <i name="e_0_energy">   -918.27670355 </i>
   </energy>
  </scstep>
  <scstep>
   <time name="dav">   61.07   61.40</time>
   <time name="total">   64.07   64.41</time>
   <energy>
    <i name="e_fr_energy">   -918.09575900 </i>
    <i name="e_wo_entrp">   -918.09163164 </i>
    <i name="e_0_energy">   -918.09369532 </i>
   </energy>
  </scstep>
  <scstep>
   <time name="dav">   60.59   60.89</time>
   <time name="total">   63.58   63.89</time>
   <energy>
    <i name="e_fr_energy">   -918.08434941 </i>
    <i name="e_wo_entrp">   -918.02580278 </i>
    <i name="e_0_energy">   -918.05507609 </i>
   </energy>
  </scstep>
  <scstep>
   <time name="dav">   66.84   67.15</time>
   <time name="total">   69.87   70.20</time>
   <energy>
    <i name="e_fr_energy">   -918.08382032 </i>
    <i name="e_wo_entrp">   -918.04997396 </i>
    <i name="e_0_energy">   -918.06689714 </i>
   </energy>
  </scstep>
  <scstep>
   <time name="dav">   56.13   56.42</time>
   <time name="total">   59.09   59.40</time>
   <energy>
    <i name="e_fr_energy">   -918.11732064 </i>
    <i name="e_wo_entrp">   -918.09948573 </i>
    <i name="e_0_energy">   -918.10840318 </i>
   </energy>
  </scstep>
  <scstep>
   <time name="dav">   55.38   55.61</time>
   <time name="total">   58.37   58.62</time>
   <energy>
    <i name="e_fr_energy">   -918.11789009 </i>
    <i name="e_wo_entrp">   -918.06286058 </i>
    <i name="e_0_energy">   -918.09037533 </i>
   </energy>
  </scstep>
  <scstep>
   <time name="dav">   56.55   56.83</time>
   <time name="total">   59.85   60.15</time>
   <energy>
    <i name="e_fr_energy">   -918.11247215 </i>
    <i name="e_wo_entrp">   -918.09613171 </i>
    <i name="e_0_energy">   -918.10430193 </i>
   </energy>
  </scstep>
  <scstep>
   <time name="dav">   58.72   58.96</time>
   <time name="total">   61.72   61.98</time>
   <energy>
    <i name="e_fr_energy">   -918.11228964 </i>
    <i name="e_wo_entrp">   -918.06349898 </i>
    <i name="e_0_energy">   -918.08789431 </i>
   </energy>
  </scstep>
  <scstep>
   <time name="dav">   57.97   58.24</time>
   <time name="total">   60.93   61.22</time>
   <energy>
    <i name="e_fr_energy">   -918.10828808 </i>
    <i name="e_wo_entrp">   -918.08184164 </i>
    <i name="e_0_energy">   -918.09506486 </i>
   </energy>
  </scstep>
  <scstep>
   <time name="dav">   54.94   55.17</time>
   <time name="total">   57.96   58.19</time>
   <energy>
    <i name="e_fr_energy">   -918.10774068 </i>
    <i name="e_wo_entrp">   -918.07318459 </i>
    <i name="e_0_energy">   -918.09046264 </i>
   </energy>
  </scstep>
  <scstep>
   <time name="dav">   68.48   68.84</time>
   <time name="total">   71.51   71.87</time>
   <energy>
    <i name="e_fr_energy">   -918.10620578 </i>
    <i name="e_wo_entrp">   -918.06723788 </i>
    <i name="e_0_energy">   -918.08672183 </i>
   </energy>
  </scstep>
  <scstep>
   <time name="dav">   55.90   56.20</time>
   <time name="total">   58.89   59.21</time>
   <energy>
    <i name="e_fr_energy">   -918.10660850 </i>
    <i name="e_wo_entrp">   -918.06690170 </i>
    <i name="e_0_energy">   -918.08675510 </i>
   </energy>
  </scstep>
  <scstep>
   <time name="dav">   62.86   63.16</time>
   <time name="total">   65.82   66.13</time>
   <energy>
    <i name="e_fr_energy">   -918.10661034 </i>
    <i name="e_wo_entrp">   -918.06637985 </i>
    <i name="e_0_energy">   -918.08649510 </i>
   </energy>
  </scstep>
  <scstep>
   <time name="dav">   53.45   53.71</time>
   <time name="total">   56.42   56.70</time>
   <energy>
    <i name="e_fr_energy">   -918.10662395 </i>
    <i name="e_wo_entrp">   -918.06679271 </i>
    <i name="e_0_energy">   -918.08670833 </i>
   </energy>
  </scstep>
  <scstep>
   <time name="dav">   50.28   50.49</time>
   <time name="total">   53.25   53.52</time>
   <energy>
    <i name="e_fr_energy">   -918.10662137 </i>
    <i name="e_wo_entrp">   -918.06660855 </i>
    <i name="e_0_energy">   -918.08661496 </i>
   </energy>
  </scstep>
  <scstep>
   <time name="dav">   38.84   39.06</time>
   <time name="total">   39.36   39.59</time>
   <energy>
    <i name="alphaZ">   2210.34415451 </i>
    <i name="ewald"> -40454.98340803 </i>
    <i name="hartreedc"> -22805.36177983 </i>
    <i name="XCdc">   3247.89611105 </i>
    <i name="pawpsdc">  90854.66825234 </i>
    <i name="pawaedc"> -90516.99393395 </i>
    <i name="eentropy">     -0.03999269 </i>
    <i name="bandstr">  -8422.17625918 </i>
    <i name="atom">  64968.54023382 </i>
    <i name="e_fr_energy">   -918.10662196 </i>
    <i name="e_wo_entrp">   -918.06662927 </i>
    <i name="e_0_energy">   -918.08662562 </i>
   </energy>
  </scstep>
  <structure>
   <crystal>
    <varray name="basis" >
     <v>      12.93041299       0.00000000       0.00000000 </v>
     <v>       0.00000000      12.93041299       0.00000000 </v>
     <v>       0.00000000       0.00000000      12.93041299 </v>
    </varray>
    <i name="volume">   2161.90790069 </i>
    <varray name="rec_basis" >
     <v>       0.07733705       0.00000000       0.00000000 </v>
     <v>       0.00000000       0.07733705       0.00000000 </v>
     <v>       0.00000000       0.00000000       0.07733705 </v>
    </varray>
   </crystal>
   <varray name="positions" >
    <v>       0.33154686       0.84671305       0.53319850 </v>
    <v>       0.46713089       0.40012624       0.61939097 </v>
    <v>       0.12320627       0.68462557       0.77288139 </v>
    <v>       0.80831626       0.99344174       0.74086429 </v>
    <v>       0.25989131       0.07987517       0.85952736 </v>
    <v>       0.17351876       0.03062807       0.37440639 </v>
    <v>       0.79805003       0.48258779       0.39652383 </v>
    <v>       0.71741867       0.42660707       0.09309299 </v>
    <v>       0.54127760       0.77706793       0.26320611 </v>
    <v>       0.52699547       0.64335260       0.81188068 </v>
    <v>       0.04767435       0.31177285       0.02358500 </v>
    <v>       0.30093257       0.25188619       0.41529410 </v>
    <v>       0.78076379       0.51148689       0.60807365 </v>
    <v>       0.42781768       0.07596433       0.58766502 </v>
    <v>       0.09795079       0.35983167       0.71203385 </v>
    <v>       0.93012503       0.76110192       0.51846709 </v>
    <v>       0.50522674       0.29974175       0.23073791 </v>
    <v>       0.00160978       0.27600695       0.43141382 </v>
    <v>       0.83460645       0.97358156       0.31210633 </v>
    <v>       0.81125448       0.74438674       0.05926294 </v>
    <v>       0.51954249       0.13988497       0.87279600 </v>
    <v>       0.78752472       0.14163787       0.05409942 </v>
    <v>       0.60852988       0.94430560       0.53458229 </v>
    <v>       0.70504795       0.22610760       0.47148994 </v>
    <v>       0.38996627       0.46032906       0.99811440 </v>
    <v>       0.15984637       0.89214793       0.83775334 </v>
    <v>       0.04276523       0.51160034       0.26138302 </v>
    <v>       0.60484280       0.82904806       0.93742252 </v>
    <v>       0.28235174       0.24961906       0.64352133 </v>
    <v>       0.44600444       0.59481924       0.43382777 </v>
    <v>       0.70253068       0.20845726       0.73883989 </v>
    <v>       0.76956640       0.72483921       0.37427629 </v>
    <v>       0.93792944       0.94826673       0.05844494 </v>
    <v>       0.92597325       0.17882478       0.79079060 </v>
    <v>       0.33425976       0.41097674       0.79711367 </v>
    <v>       0.87277727       0.04276544       0.52879260 </v>
    <v>       0.77874966       0.72039343       0.78189689 </v>
    <v>       0.25300486       0.75896744       0.25880889 </v>
    <v>       0.07769487       0.61770150       0.98728317 </v>
    <v>       0.14179137       0.22660466       0.22578671 </v>
    <v>       0.26408699       0.61670572       0.59037325 </v>
    <v>       0.56148578       0.38406766       0.86778691 </v>
    <v>       0.09660798       0.88163789       0.58070601 </v>
    <v>       0.46442391       0.89652392       0.75306504 </v>
    <v>       0.01315924       0.75558739       0.17871660 </v>
    <v>       0.07059746       0.50641676       0.51153506 </v>
    <v>       0.37744952       0.54481200       0.23759554 </v>
    <v>       0.12489209       0.06671156       0.04880727 </v>
    <v>       0.32103553       0.95669916       0.15022469 </v>
    <v>       0.56061326       0.99485833       0.11061595 </v>
    <v>       0.88308962       0.52757384       0.85744105 </v>
    <v>       0.77852816       0.27845894       0.25822200 </v>
    <v>       0.43582328       0.03181374       0.35781881 </v>
    <v>       0.55162641       0.60834700       0.09386276 </v>
    <v>       0.89189667       0.07447552       0.84401940 </v>
    <v>       0.84200116       0.82667143       0.38552136 </v>
    <v>       0.46856205       0.55273260       0.55039940 </v>
    <v>       0.69128221       0.40353669       0.49905119 </v>
    <v>       0.22113531       0.38573948       0.85310802 </v>
    <v>       0.66169093       0.09643945       0.78889408 </v>
    <v>       0.16685765       0.88791599       0.47136751 </v>
    <v>       0.08233602       0.43483755       0.40954916 </v>
    <v>       0.84382537       0.90332835       0.97629033 </v>
    <v>       0.14776052       0.14401367       0.96619765 </v>
    <v>       0.36326763       0.84238328       0.71631042 </v>
    <v>       0.36790950       0.27528302       0.54469337 </v>
    <v>       0.55745715       0.88129045       0.67010008 </v>
    <v>       0.98749826       0.44675693       0.58075312 </v>
    <v>       0.85122503       0.37741195       0.28748909 </v>
    <v>       0.86157118       0.47331720       0.75573894 </v>
    <v>       0.60661549       0.94330584       0.98681341 </v>
    <v>       0.31715063       0.82016039       0.15643503 </v>
    <v>       0.38007769       0.43512299       0.16928567 </v>
    <v>       0.82795991       0.23301019       0.73237416 </v>
    <v>       0.13312321       0.75556099       0.23166298 </v>
    <v>       0.14991412       0.95196652       0.69048595 </v>
    <v>       0.07658115       0.50524993       0.03249577 </v>
    <v>       0.60126565       0.75315876       0.06047654 </v>
    <v>       0.55559141       0.65831333       0.38898996 </v>
    <v>       0.16456183       0.27921552       0.59593837 </v>
    <v>       0.28666880       0.65129063       0.70524577 </v>
    <v>       0.57904093       0.47674511       0.78680825 </v>
    <v>       0.97712344       0.26827811       0.86121372 </v>
    <v>       0.02622666       0.62443589       0.46829771 </v>
    <v>       0.47572209       0.14812626       0.33831805 </v>
    <v>       0.66739207       0.24027526       0.61985100 </v>
    <v>       0.76995189       0.97622499       0.48900484 </v>
    <v>       0.65737639       0.32042512       0.80204163 </v>
    <v>       0.27128463       0.62685590       0.26681508 </v>
    <v>       0.43600887       0.97830405       0.10860851 </v>
    <v>       0.68672331       0.75824664       0.87122358 </v>
    <v>       0.82608191       0.81212493       0.72094909 </v>
    <v>       0.32851318       0.16152372       0.70198687 </v>
    <v>       0.25827531       0.20356032       0.20032659 </v>
    <v>       0.34828101       0.00847696       0.27241153 </v>
    <v>       0.49634313       0.57851371       0.98724267 </v>
    <v>       0.11446391       0.18858647       0.34868779 </v>
    <v>       0.59377837       0.50519703       0.15325029 </v>
    <v>       0.39544362       0.49395242       0.36739545 </v>
    <v>       0.01082370       0.59121260       0.86846552 </v>
    <v>       0.51984013       0.93899521       0.40181549 </v>
    <v>       0.80782057       0.63521888       0.88370357 </v>
    <v>       0.27150899       0.84268525       0.36011919 </v>
    <v>       0.33121212       0.65513949       0.47995568 </v>
    <v>       0.19588524       0.52260661       0.56196869 </v>
    <v>       0.84808960       0.45766985       0.94762719 </v>
    <v>       0.57376086       0.11457797       0.09757492 </v>
    <v>       0.74210063       0.69491279       0.25020952 </v>
    <v>       0.00853666       0.99362351       0.50518398 </v>
    <v>       0.10494905       0.35316103       0.20017132 </v>
    <v>       0.43869123       0.63290155       0.17518741 </v>
    <v>       0.88361283       0.03736186       0.12120203 </v>
    <v>       0.24571559       0.04165084       0.09018797 </v>
    <v>       0.33084152       0.34545117       0.69820379 </v>
    <v>       0.01351685       0.81043819       0.64748070 </v>
    <v>       0.87776855       0.16066217       0.46372834 </v>
    <v>       0.80099389       0.15465299       0.29468540 </v>
    <v>       0.92060815       0.04404287       0.64917173 </v>
    <v>       0.50506447       0.80667077       0.84876362 </v>
    <v>       0.42682123       0.30562901       0.85124826 </v>
    <v>       0.17338275       0.67460219       0.92086431 </v>
    <v>       0.34153715       0.04686454       0.48354473 </v>
    <v>       0.62797687       0.92617960       0.22458397 </v>
    <v>       0.05011496       0.15232625       0.14305019 </v>
    <v>       0.73349255       0.64219950       0.69737341 </v>
    <v>       0.77960598       0.29258553       0.13768671 </v>
    <v>       0.94078812       0.84655377       0.16711608 </v>
    <v>       0.54410497       0.37768833       0.99241414 </v>
    <v>       0.39362351       0.52040708       0.80235993 </v>
    <v>       0.98541460       0.64264317       0.22395773 </v>
    <v>       0.02276040       0.71254088       0.05610862 </v>
    <v>       0.66986304       0.32187916       0.31380534 </v>
    <v>       0.79128028       0.63798041       0.46303606 </v>
    <v>       0.44159552       0.00388942       0.80370163 </v>
    <v>       0.05691492       0.97415574       0.03877953 </v>
   </varray>
  </structure>
  <varray name="forces" >
   <v>      -0.48186360      -0.47152696      -1.12318522 </v>
   <v>       3.25876427       1.27860254      -0.73645874 </v>
   <v>      -1.02161235      -1.76097113      -1.34022939 </v>
   <v>      -2.83653602      -3.97938883       1.27706017 </v>
   <v>       1.92872728       2.24984424      -1.61269396 </v>
   <v>       0.00138372      -1.59949929       0.72513995 </v>
   <v>      -1.37082100      -0.75452093      -0.99881658 </v>
   <v>       1.35061638       1.20795085      -2.79823394 </v>
   <v>       0.41143084       0.61387979      -0.35826257 </v>
   <v>       0.17658210      -2.20282271      -0.69631754 </v>
   <v>       0.40943237       1.67961243       0.25926234 </v>
   <v>      -1.94243754      -0.26871977      -4.09757030 </v>
   <v>      -0.23552083      -0.40814977       2.17345867 </v>
   <v>       3.44697114       2.64512113       5.69511674 </v>
   <v>      -2.46567289       2.22566176       2.28861773 </v>
   <v>      -0.88984242      -1.65003235      -0.19688101 </v>
   <v>       0.70973068      -0.25222456      -0.20776166 </v>
   <v>      -0.67332187       0.87592145       0.25747143 </v>
   <v>      -0.80645135       2.23587090      -1.70450098 </v>
   <v>      -0.39468931      -0.30683929      -0.65600550 </v>
   <v>       0.32973964       0.33478021       0.78934497 </v>
   <v>      -1.42980491       0.46918509      -0.05789319 </v>
   <v>       2.84918235      -0.76233379      -0.39520541 </v>
   <v>       0.81233351       1.07867786      -2.82390135 </v>
   <v>      -1.40079429      -0.86444931       0.42845066 </v>
   <v>      -0.60493830      -1.52045337      -0.18844170 </v>
   <v>       1.94994457      -3.55718998      -0.03113799 </v>
   <v>      -1.45267856      -2.97755047       0.14650775 </v>
   <v>      -1.98377783       3.15373702      -5.93667654 </v>
   <v>       2.10043852      -0.23858319       3.10318565 </v>
   <v>      -1.28026328       3.37713544      -0.78787276 </v>
   <v>       0.91647748      -1.94269465      -3.51636862 </v>
   <v>      -6.10457160      -2.47865426       0.02014596 </v>
   <v>      -1.81558169       0.88885578       1.32775611 </v>
   <v>      -0.76659446      -0.16389589       5.55350811 </v>
   <v>       5.21533600       2.52158811      -0.62084178 </v>
   <v>      -1.75248061      -2.82486571       1.13023155 </v>
   <v>       0.89969099       1.11636266       2.00127845 </v>
   <v>      -0.39568777      -0.28521058      -2.60070583 </v>
   <v>      -2.48787307       2.73134600      -1.16913643 </v>
   <v>       4.60163009       0.99146650      -2.16592278 </v>
   <v>       0.27503626      -1.07597911      -1.64346961 </v>
   <v>      -0.82905849       6.13422321       1.01998043 </v>
   <v>       1.63504880      -3.54403471       1.42147769 </v>
   <v>       5.70554782      -7.93074463       0.66864540 </v>
   <v>      -1.38689875       2.44140920      -3.02696997 </v>
   <v>      -2.58364284      -2.28897468       1.39474928 </v>
   <v>       1.50947491       5.74410575       7.50287107 </v>
   <v>       2.25807846      -1.17011780       2.52318163 </v>
   <v>       2.76081155      -2.54837494       1.92152387 </v>
   <v>       0.86842741       3.25961954       1.95038640 </v>
   <v>      -0.21865219      -1.87388828       3.04166733 </v>
   <v>       0.36509964      -0.37861815       1.38359418 </v>
   <v>      -2.24760708       0.21025137      -0.30079012 </v>
   <v>       1.72918535       0.88985771       2.71040586 </v>
   <v>      -1.05995410      -1.83407921       0.11869367 </v>
   <v>       0.09804861      -0.87540965       0.25827109 </v>
   <v>       0.96417890       0.36656075       0.33263143 </v>
   <v>       1.02295071       0.66843506      -0.73965678 </v>
   <v>       0.68111183       1.53912351      -0.70183879 </v>
   <v>      -1.92210624      -1.17679575       5.28932609 </v>
   <v>       0.71294504      -0.63650800       0.08501004 </v>
   <v>       3.18082315      -0.49977143       1.92890431 </v>
   <v>       0.78405812       2.64291477      -5.14829067 </v>
   <v>      -2.55574295       0.01931434      -1.73840135 </v>
   <v>       1.28702106      -1.38890511       1.44358486 </v>
   <v>      -0.64775675       1.18645424      -0.00706074 </v>
   <v>       0.27666209      -0.69946570       1.49268663 </v>
   <v>       2.57932532      -0.07914347       0.71162789 </v>
   <v>       0.53540663      -0.92993171      -3.54559101 </v>
   <v>      -0.39404701       0.69141172       1.02491924 </v>
   <v>      -0.88532555       2.47301208       0.15102846 </v>
   <v>      -0.23419024       1.39928738       1.38099343 </v>
   <v>       0.34660384      -0.74928272      -0.05145234 </v>
   <v>      -2.35775293       2.13921857      -1.21871741 </v>
   <v>       0.08668080      -1.22341236      -1.18222968 </v>
   <v>       0.67167089      -0.73416663       1.53335117 </v>
   <v>      -0.27245458      -1.73677702      -0.30712580 </v>
   <v>      -3.44912888      -0.41535860       0.21765117 </v>
   <v>       2.44372938      -2.47810919      -0.17456302 </v>
   <v>      -1.54186944       0.32790724      -1.57612711 </v>
   <v>      -0.87838873       0.71925858       0.53584654 </v>
   <v>       1.45580804      -0.75608075      -1.53646297 </v>
   <v>       1.01311653      -1.51655844       1.59159225 </v>
   <v>      -0.11082018       0.45176567       0.99813700 </v>
   <v>      -1.65725186      -2.27331350       2.95950065 </v>
   <v>       0.91540849       1.39129077       1.31863220 </v>
   <v>      -0.30383251      -4.02453660       1.50704393 </v>
   <v>       1.52837211      -0.00958536      -0.65414379 </v>
   <v>      -0.07680161      -0.99970050      -1.47489054 </v>
   <v>      -0.90029798       2.38984841       0.88288727 </v>
   <v>       1.14653749       2.37361400       0.02540853 </v>
   <v>       0.22496885      -5.61217723       3.24818931 </v>
   <v>       1.12313608      -0.00259210       0.94853145 </v>
   <v>      -1.78955981      -0.91854171      -1.34888448 </v>
   <v>       1.21265381       2.09215325      -0.64878341 </v>
   <v>       1.13177115      -0.08680660      -0.62071783 </v>
   <v>      -0.12297248       2.98649733       0.42036057 </v>
   <v>       0.91905035       1.84705546      -2.64741607 </v>
   <v>      -1.67631945      -0.26088125      -0.05436189 </v>
   <v>      -3.21854844       1.61988179      -0.76342609 </v>
   <v>       2.15658851       1.00230596      -0.77684185 </v>
   <v>       2.12817662      -3.25158906      -3.79829783 </v>
   <v>      -1.52695715       1.41409140       1.64428679 </v>
   <v>      -2.41292144      -1.83438562       0.21342361 </v>
   <v>      -0.53285654      -2.06481033       4.10404835 </v>
   <v>       1.32137743       1.76464339      -0.86077760 </v>
   <v>      -0.27001853       0.85904952       2.66310184 </v>
   <v>      -1.19110824      -1.87146514      -1.55534184 </v>
   <v>       0.06611994      -3.27196851      -0.05598798 </v>
   <v>       3.25212705       1.80163373      -0.85683778 </v>
   <v>       0.56279567      -0.32826845       1.26916614 </v>
   <v>      -0.24816509      -2.93499929       0.06638267 </v>
   <v>      -0.79532382       2.87638554      -1.45572360 </v>
   <v>       3.12218631      -0.25289737      -0.20358347 </v>
   <v>      -0.30526784      -2.49737813       2.92936550 </v>
   <v>      -0.94470681       1.77972028      -1.42306854 </v>
   <v>      -0.92423950       2.09638583      -0.83230216 </v>
   <v>       0.47694253       2.49308795       2.09780108 </v>
   <v>       1.27870448       2.20671095      -0.05579959 </v>
   <v>       0.24929757       0.98856048       1.59984970 </v>
   <v>      -2.83286257      -1.55811578      -6.63220967 </v>
   <v>      -1.87363122       1.81498580      -3.73753918 </v>
   <v>       3.56975712      -0.76316226      -0.63793715 </v>
   <v>      -1.17306374       0.24446071      -0.11482704 </v>
   <v>       0.21839680      -2.70110306      -3.35770797 </v>
   <v>      -2.73154830       5.34592614      -1.14483876 </v>
   <v>       1.80067843      -0.52531735      -0.52561518 </v>
   <v>      -1.76404023      -1.81924990       0.13953856 </v>
   <v>      -3.60864591       3.61854146       0.19622907 </v>
   <v>      -0.16645458       0.99697559      -1.39834514 </v>
   <v>      -1.35040051      -0.97112995      -1.33054902 </v>
   <v>      -0.35236661       2.18379578      -0.69183558 </v>
   <v>      -0.69613069       3.02835179       1.23721125 </v>
   <v>      -1.40480396      -5.55064389      -1.90187293 </v>
  </varray>
  <varray name="stress" >
   <v>      -2.59998959       7.22235206       0.20221022 </v>
   <v>       7.22235205      -2.88519630      21.34392365 </v>
   <v>       0.20221020      21.34392366       5.90601901 </v>
  </varray>
  <energy>
   <i name="e_fr_energy">   -918.10662196 </i>
[...]
       <r>     2.2846    14.5242   858.3004 </r>
       <r>     2.4589    30.2102   863.5664 </r>
       <r>     2.6332    13.9585   865.9995 </r>
       <r>     2.8076     0.0026   866.0000 </r>
       <r>     2.9819     0.1170   866.0204 </r>
       <r>     3.1562     7.8096   867.3817 </r>
       <r>     3.3305    16.8512   870.3191 </r>
       <r>     3.5048     9.6355   871.9987 </r>
       <r>     3.6791     6.4237   873.1184 </r>
       <r>     3.8534    16.1782   875.9385 </r>
       <r>     4.0277    10.1214   877.7028 </r>
       <r>     4.2021     7.6976   879.0446 </r>
       <r>     4.3764    15.7427   881.7887 </r>
       <r>     4.5507     4.4540   882.5651 </r>
       <r>     4.7250    12.2846   884.7065 </r>
       <r>     4.8993    22.9915   888.7142 </r>
       <r>     5.0736    13.7689   891.1143 </r>
       <r>     5.2479    24.5805   895.3990 </r>
       <r>     5.4222    36.4976   901.7610 </r>
       <r>     5.5966    27.3139   906.5221 </r>
       <r>     5.7709    38.9114   913.3049 </r>
       <r>     5.9452    43.7332   920.9281 </r>
       <r>     6.1195    48.7371   929.4236 </r>
       <r>     6.2938    53.7632   938.7952 </r>
       <r>     6.4681    59.2288   949.1195 </r>
       <r>     6.6424    65.1639   960.4784 </r>
       <r>     6.8167    72.7543   973.1604 </r>
       <r>     6.9911    82.5960   987.5579 </r>
       <r>     7.1654    84.2737  1002.2479 </r>
       <r>     7.3397   101.7314  1019.9810 </r>
       <r>     7.5140    91.6390  1035.9548 </r>
       <r>     7.6883    23.2034  1039.9994 </r>
       <r>     7.8626     0.0032  1040.0000 </r>
       <r>     8.0369     0.0000  1040.0000 </r>
       <r>     8.2112     0.0000  1040.0000 </r>
       <r>     8.3856     0.0000  1040.0000 </r>
       <r>     8.5599     0.0000  1040.0000 </r>
       <r>     8.7342     0.0000  1040.0000 </r>
       <r>     8.9085     0.0000  1040.0000 </r>
       <r>     9.0828     0.0000  1040.0000 </r>
       <r>     9.2571     0.0000  1040.0000 </r>
       <r>     9.4314     0.0000  1040.0000 </r>
       <r>     9.6057     0.0000  1040.0000 </r>
       <r>     9.7801     0.0000  1040.0000 </r>
       <r>     9.9544     0.0000  1040.0000 </r>
      </set>
     </set>
    </array>
   </total>
  </dos>
 </calculation>
 <structure name="finalpos" >
  <crystal>
   <varray name="basis" >
    <v>      12.93041299       0.00000000       0.00000000 </v>
    <v>       0.00000000      12.93041299       0.00000000 </v>
    <v>       0.00000000       0.00000000      12.93041299 </v>
   </varray>
   <i name="volume">   2161.90790069 </i>
   <varray name="rec_basis" >
    <v>       0.07733705       0.00000000       0.00000000 </v>
    <v>       0.00000000       0.07733705       0.00000000 </v>
    <v>       0.00000000       0.00000000       0.07733705 </v>
   </varray>
  </crystal>
  <varray name="positions" >
   <v>       0.33154686       0.84671305       0.53319850 </v>
   <v>       0.46713089       0.40012624       0.61939097 </v>
   <v>       0.12320627       0.68462557       0.77288139 </v>
   <v>       0.80831626       0.99344174       0.74086429 </v>
   <v>       0.25989131       0.07987517       0.85952736 </v>
   <v>       0.17351876       0.03062807       0.37440639 </v>
   <v>       0.79805003       0.48258779       0.39652383 </v>
   <v>       0.71741867       0.42660707       0.09309299 </v>
   <v>       0.54127760       0.77706793       0.26320611 </v>
   <v>       0.52699547       0.64335260       0.81188068 </v>
   <v>       0.04767435       0.31177285       0.02358500 </v>
   <v>       0.30093257       0.25188619       0.41529410 </v>
   <v>       0.78076379       0.51148689       0.60807365 </v>
   <v>       0.42781768       0.07596433       0.58766502 </v>
   <v>       0.09795079       0.35983167       0.71203385 </v>
   <v>       0.93012503       0.76110192       0.51846709 </v>
   <v>       0.50522674       0.29974175       0.23073791 </v>
   <v>       0.00160978       0.27600695       0.43141382 </v>
   <v>       0.83460645       0.97358156       0.31210633 </v>
   <v>       0.81125448       0.74438674       0.05926294 </v>
   <v>       0.51954249       0.13988497       0.87279600 </v>
   <v>       0.78752472       0.14163787       0.05409942 </v>
   <v>       0.60852988       0.94430560       0.53458229 </v>
   <v>       0.70504795       0.22610760       0.47148994 </v>
   <v>       0.38996627       0.46032906       0.99811440 </v>
   <v>       0.15984637       0.89214793       0.83775334 </v>
   <v>       0.04276523       0.51160034       0.26138302 </v>
   <v>       0.60484280       0.82904806       0.93742252 </v>
   <v>       0.28235174       0.24961906       0.64352133 </v>
   <v>       0.44600444       0.59481924       0.43382777 </v>
   <v>       0.70253068       0.20845726       0.73883989 </v>
   <v>       0.76956640       0.72483921       0.37427629 </v>
   <v>       0.93792944       0.94826673       0.05844494 </v>
   <v>       0.92597325       0.17882478       0.79079060 </v>
   <v>       0.33425976       0.41097674       0.79711367 </v>
   <v>       0.87277727       0.04276544       0.52879260 </v>
   <v>       0.77874966       0.72039343       0.78189689 </v>
   <v>       0.25300486       0.75896744       0.25880889 </v>
   <v>       0.07769487       0.61770150       0.98728317 </v>
   <v>       0.14179137       0.22660466       0.22578671 </v>
   <v>       0.26408699       0.61670572       0.59037325 </v>
   <v>       0.56148578       0.38406766       0.86778691 </v>
   <v>       0.09660798       0.88163789       0.58070601 </v>
   <v>       0.46442391       0.89652392       0.75306504 </v>
   <v>       0.01315924       0.75558739       0.17871660 </v>
   <v>       0.07059746       0.50641676       0.51153506 </v>
   <v>       0.37744952       0.54481200       0.23759554 </v>
   <v>       0.12489209       0.06671156       0.04880727 </v>
   <v>       0.32103553       0.95669916       0.15022469 </v>
   <v>       0.56061326       0.99485833       0.11061595 </v>
   <v>       0.88308962       0.52757384       0.85744105 </v>
   <v>       0.77852816       0.27845894       0.25822200 </v>
   <v>       0.43582328       0.03181374       0.35781881 </v>
   <v>       0.55162641       0.60834700       0.09386276 </v>
   <v>       0.89189667       0.07447552       0.84401940 </v>
   <v>       0.84200116       0.82667143       0.38552136 </v>
   <v>       0.46856205       0.55273260       0.55039940 </v>
   <v>       0.69128221       0.40353669       0.49905119 </v>
   <v>       0.22113531       0.38573948       0.85310802 </v>
   <v>       0.66169093       0.09643945       0.78889408 </v>
   <v>       0.16685765       0.88791599       0.47136751 </v>
   <v>       0.08233602       0.43483755       0.40954916 </v>
   <v>       0.84382537       0.90332835       0.97629033 </v>
   <v>       0.14776052       0.14401367       0.96619765 </v>
   <v>       0.36326763       0.84238328       0.71631042 </v>
   <v>       0.36790950       0.27528302       0.54469337 </v>
   <v>       0.55745715       0.88129045       0.67010008 </v>
   <v>       0.98749826       0.44675693       0.58075312 </v>
   <v>       0.85122503       0.37741195       0.28748909 </v>
   <v>       0.86157118       0.47331720       0.75573894 </v>
   <v>       0.60661549       0.94330584       0.98681341 </v>
   <v>       0.31715063       0.82016039       0.15643503 </v>
   <v>       0.38007769       0.43512299       0.16928567 </v>
   <v>       0.82795991       0.23301019       0.73237416 </v>
   <v>       0.13312321       0.75556099       0.23166298 </v>
   <v>       0.14991412       0.95196652       0.69048595 </v>
   <v>       0.07658115       0.50524993       0.03249577 </v>
   <v>       0.60126565       0.75315876       0.06047654 </v>
   <v>       0.55559141       0.65831333       0.38898996 </v>
   <v>       0.16456183       0.27921552       0.59593837 </v>
   <v>       0.28666880       0.65129063       0.70524577 </v>
   <v>       0.57904093       0.47674511       0.78680825 </v>
   <v>       0.97712344       0.26827811       0.86121372 </v>
   <v>       0.02622666       0.62443589       0.46829771 </v>
   <v>       0.47572209       0.14812626       0.33831805 </v>
   <v>       0.66739207       0.24027526       0.61985100 </v>
   <v>       0.76995189       0.97622499       0.48900484 </v>
   <v>       0.65737639       0.32042512       0.80204163 </v>
   <v>       0.27128463       0.62685590       0.26681508 </v>
   <v>       0.43600887       0.97830405       0.10860851 </v>
   <v>       0.68672331       0.75824664       0.87122358 </v>
   <v>       0.82608191       0.81212493       0.72094909 </v>
   <v>       0.32851318       0.16152372       0.70198687 </v>
   <v>       0.25827531       0.20356032       0.20032659 </v>
   <v>       0.34828101       0.00847696       0.27241153 </v>
   <v>       0.49634313       0.57851371       0.98724267 </v>
   <v>       0.11446391       0.18858647       0.34868779 </v>
   <v>       0.59377837       0.50519703       0.15325029 </v>
   <v>       0.39544362       0.49395242       0.36739545 </v>
   <v>       0.01082370       0.59121260       0.86846552 </v>
   <v>       0.51984013       0.93899521       0.40181549 </v>
   <v>       0.80782057       0.63521888       0.88370357 </v>
   <v>       0.27150899       0.84268525       0.36011919 </v>
   <v>       0.33121212       0.65513949       0.47995568 </v>
   <v>       0.19588524       0.52260661       0.56196869 </v>
   <v>       0.84808960       0.45766985       0.94762719 </v>
   <v>       0.57376086       0.11457797       0.09757492 </v>
   <v>       0.74210063       0.69491279       0.25020952 </v>
   <v>       0.00853666       0.99362351       0.50518398 </v>
   <v>       0.10494905       0.35316103       0.20017132 </v>
   <v>       0.43869123       0.63290155       0.17518741 </v>
   <v>       0.88361283       0.03736186       0.12120203 </v>
   <v>       0.24571559       0.04165084       0.09018797 </v>
   <v>       0.33084152       0.34545117       0.69820379 </v>
   <v>       0.01351685       0.81043819       0.64748070 </v>
   <v>       0.87776855       0.16066217       0.46372834 </v>
   <v>       0.80099389       0.15465299       0.29468540 </v>
   <v>       0.92060815       0.04404287       0.64917173 </v>
   <v>       0.50506447       0.80667077       0.84876362 </v>
   <v>       0.42682123       0.30562901       0.85124826 </v>
   <v>       0.17338275       0.67460219       0.92086431 </v>
   <v>       0.34153715       0.04686454       0.48354473 </v>
   <v>       0.62797687       0.92617960       0.22458397 </v>
   <v>       0.05011496       0.15232625       0.14305019 </v>
   <v>       0.73349255       0.64219950       0.69737341 </v>
   <v>       0.77960598       0.29258553       0.13768671 </v>
   <v>       0.94078812       0.84655377       0.16711608 </v>
   <v>       0.54410497       0.37768833       0.99241414 </v>
   <v>       0.39362351       0.52040708       0.80235993 </v>
   <v>       0.98541460       0.64264317       0.22395773 </v>
   <v>       0.02276040       0.71254088       0.05610862 </v>
   <v>       0.66986304       0.32187916       0.31380534 </v>
   <v>       0.79128028       0.63798041       0.46303606 </v>
   <v>       0.44159552       0.00388942       0.80370163 </v>
   <v>       0.05691492       0.97415574       0.03877953 </v>
  </varray>
  <varray name="velocities" >
   <v>       0.00000000       0.00000000       0.00000000 </v>
   <v>       0.00000000       0.00000000       0.00000000 </v>
   <v>       0.00000000       0.00000000       0.00000000 </v>
   <v>       0.00000000       0.00000000       0.00000000 </v>
   <v>       0.00000000       0.00000000       0.00000000 </v>
   <v>       0.00000000       0.00000000       0.00000000 </v>
   <v>       0.00000000       0.00000000       0.00000000 </v>
   <v>       0.00000000       0.00000000       0.00000000 </v>
   <v>       0.00000000       0.00000000       0.00000000 </v>
   <v>       0.00000000       0.00000000       0.00000000 </v>
   <v>       0.00000000       0.00000000       0.00000000 </v>
   <v>       0.00000000       0.00000000       0.00000000 </v>
   <v>       0.00000000       0.00000000       0.00000000 </v>
   <v>       0.00000000       0.00000000       0.00000000 </v>
   <v>       0.00000000       0.00000000       0.00000000 </v>
   <v>       0.00000000       0.00000000       0.00000000 </v>
   <v>       0.00000000       0.00000000       0.00000000 </v>
   <v>       0.00000000       0.00000000       0.00000000 </v>
   <v>       0.00000000       0.00000000       0.00000000 </v>
   <v>       0.00000000       0.00000000       0.00000000 </v>
   <v>       0.00000000       0.00000000       0.00000000 </v>
   <v>       0.00000000       0.00000000       0.00000000 </v>
   <v>       0.00000000       0.00000000       0.00000000 </v>
   <v>       0.00000000       0.00000000       0.00000000 </v>
   <v>       0.00000000       0.00000000       0.00000000 </v>
   <v>       0.00000000       0.00000000       0.00000000 </v>
   <v>       0.00000000       0.00000000       0.00000000 </v>
   <v>       0.00000000       0.00000000       0.00000000 </v>
   <v>       0.00000000       0.00000000       0.00000000 </v>
   <v>       0.00000000       0.00000000       0.00000000 </v>
   <v>       0.00000000       0.00000000       0.00000000 </v>
   <v>       0.00000000       0.00000000       0.00000000 </v>
   <v>       0.00000000       0.00000000       0.00000000 </v>
   <v>       0.00000000       0.00000000       0.00000000 </v>
   <v>       0.00000000       0.00000000       0.00000000 </v>
   <v>       0.00000000       0.00000000       0.00000000 </v>
   <v>       0.00000000       0.00000000       0.00000000 </v>
   <v>       0.00000000       0.00000000       0.00000000 </v>
   <v>       0.00000000       0.00000000       0.00000000 </v>
   <v>       0.00000000       0.00000000       0.00000000 </v>
   <v>       0.00000000       0.00000000       0.00000000 </v>
   <v>       0.00000000       0.00000000       0.00000000 </v>
   <v>       0.00000000       0.00000000       0.00000000 </v>
   <v>       0.00000000       0.00000000       0.00000000 </v>
   <v>       0.00000000       0.00000000       0.00000000 </v>
   <v>       0.00000000       0.00000000       0.00000000 </v>
   <v>       0.00000000       0.00000000       0.00000000 </v>
   <v>       0.00000000       0.00000000       0.00000000 </v>
   <v>       0.00000000       0.00000000       0.00000000 </v>
   <v>       0.00000000       0.00000000       0.00000000 </v>
   <v>       0.00000000       0.00000000       0.00000000 </v>
   <v>       0.00000000       0.00000000       0.00000000 </v>
   <v>       0.00000000       0.00000000       0.00000000 </v>
   <v>       0.00000000       0.00000000       0.00000000 </v>
   <v>       0.00000000       0.00000000       0.00000000 </v>
   <v>       0.00000000       0.00000000       0.00000000 </v>
   <v>       0.00000000       0.00000000       0.00000000 </v>
   <v>       0.00000000       0.00000000       0.00000000 </v>
   <v>       0.00000000       0.00000000       0.00000000 </v>
   <v>       0.00000000       0.00000000       0.00000000 </v>
   <v>       0.00000000       0.00000000       0.00000000 </v>
   <v>       0.00000000       0.00000000       0.00000000 </v>
   <v>       0.00000000       0.00000000       0.00000000 </v>
   <v>       0.00000000       0.00000000       0.00000000 </v>
   <v>       0.00000000       0.00000000       0.00000000 </v>
   <v>       0.00000000       0.00000000       0.00000000 </v>
   <v>       0.00000000       0.00000000       0.00000000 </v>
   <v>       0.00000000       0.00000000       0.00000000 </v>
   <v>       0.00000000       0.00000000       0.00000000 </v>
   <v>       0.00000000       0.00000000       0.00000000 </v>
   <v>       0.00000000       0.00000000       0.00000000 </v>
   <v>       0.00000000       0.00000000       0.00000000 </v>
   <v>       0.00000000       0.00000000       0.00000000 </v>
   <v>       0.00000000       0.00000000       0.00000000 </v>
   <v>       0.00000000       0.00000000       0.00000000 </v>
   <v>       0.00000000       0.00000000       0.00000000 </v>
   <v>       0.00000000       0.00000000       0.00000000 </v>
   <v>       0.00000000       0.00000000       0.00000000 </v>
   <v>       0.00000000       0.00000000       0.00000000 </v>
   <v>       0.00000000       0.00000000       0.00000000 </v>
   <v>       0.00000000       0.00000000       0.00000000 </v>
   <v>       0.00000000       0.00000000       0.00000000 </v>
   <v>       0.00000000       0.00000000       0.00000000 </v>
   <v>       0.00000000       0.00000000       0.00000000 </v>
   <v>       0.00000000       0.00000000       0.00000000 </v>
   <v>       0.00000000       0.00000000       0.00000000 </v>
   <v>       0.00000000       0.00000000       0.00000000 </v>
   <v>       0.00000000       0.00000000       0.00000000 </v>
   <v>       0.00000000       0.00000000       0.00000000 </v>
   <v>       0.00000000       0.00000000       0.00000000 </v>
   <v>       0.00000000       0.00000000       0.00000000 </v>
   <v>       0.00000000       0.00000000       0.00000000 </v>
   <v>       0.00000000       0.00000000       0.00000000 </v>
   <v>       0.00000000       0.00000000       0.00000000 </v>
   <v>       0.00000000       0.00000000       0.00000000 </v>
   <v>       0.00000000       0.00000000       0.00000000 </v>
   <v>       0.00000000       0.00000000       0.00000000 </v>
   <v>       0.00000000       0.00000000       0.00000000 </v>
   <v>       0.00000000       0.00000000       0.00000000 </v>
   <v>       0.00000000       0.00000000       0.00000000 </v>
   <v>       0.00000000       0.00000000       0.00000000 </v>
   <v>       0.00000000       0.00000000       0.00000000 </v>
   <v>       0.00000000       0.00000000       0.00000000 </v>
   <v>       0.00000000       0.00000000       0.00000000 </v>
   <v>       0.00000000       0.00000000       0.00000000 </v>
   <v>       0.00000000       0.00000000       0.00000000 </v>
   <v>       0.00000000       0.00000000       0.00000000 </v>
   <v>       0.00000000       0.00000000       0.00000000 </v>
   <v>       0.00000000       0.00000000       0.00000000 </v>
   <v>       0.00000000       0.00000000       0.00000000 </v>
   <v>       0.00000000       0.00000000       0.00000000 </v>
   <v>       0.00000000       0.00000000       0.00000000 </v>
   <v>       0.00000000       0.00000000       0.00000000 </v>
   <v>       0.00000000       0.00000000       0.00000000 </v>
   <v>       0.00000000       0.00000000       0.00000000 </v>
   <v>       0.00000000       0.00000000       0.00000000 </v>
   <v>       0.00000000       0.00000000       0.00000000 </v>
   <v>       0.00000000       0.00000000       0.00000000 </v>
   <v>       0.00000000       0.00000000       0.00000000 </v>
   <v>       0.00000000       0.00000000       0.00000000 </v>
   <v>       0.00000000       0.00000000       0.00000000 </v>
   <v>       0.00000000       0.00000000       0.00000000 </v>
   <v>       0.00000000       0.00000000       0.00000000 </v>
   <v>       0.00000000       0.00000000       0.00000000 </v>
   <v>       0.00000000       0.00000000       0.00000000 </v>
   <v>       0.00000000       0.00000000       0.00000000 </v>
   <v>       0.00000000       0.00000000       0.00000000 </v>
   <v>       0.00000000       0.00000000       0.00000000 </v>
   <v>       0.00000000       0.00000000       0.00000000 </v>
   <v>       0.00000000       0.00000000       0.00000000 </v>
   <v>       0.00000000       0.00000000       0.00000000 </v>
   <v>       0.00000000       0.00000000       0.00000000 </v>
   <v>       0.00000000       0.00000000       0.00000000 </v>
   <v>       0.00000000       0.00000000       0.00000000 </v>
   <v>       0.00000000       0.00000000       0.00000000 </v>
  </varray>
 </structure>
</modeling>
