135
Time=99999.99999996 pbc="T T T" Lattice="10.26287559 0.00000000 0.00000000 0.00000000 10.26287559 0.00000000 0.00000000 0.00000000 10.26287559" energy=-834.25442522 virial="488.26211819 2.85663895 5.69132026 2.85663895 608.63602965 -6.20922655 5.69132026 -6.20922655 542.71390808" stress="0.48398210 0.00264270 0.00526509 0.00264270 0.59534106 -0.00574421 0.00526509 -0.00574421 0.53435592" Properties=species:S:1:pos:R:3
Ca 5.77795807 2.61409036 4.87605693
Ca 0.23067384 1.81515599 2.08402870
Ca 2.52085613 1.51837945 0.52181516
Ca 6.14829164 7.32620251 4.61029072
Ca 5.97725529 5.82538342 2.19980941
Ca 9.04656177 6.42106088 1.56272738
Ca 9.75356544 9.28748189 5.18701425
Ca 3.85786004 7.69387819 6.68999880
Ca 0.34264436 1.18489580 8.73964347
Ca 9.90025961 3.70301208 4.45252323
Ca 1.55407738 9.16491395 7.14050019
Ca 1.31176508 5.00831030 3.01535210
Ca 6.94044638 7.53903144 0.10724139
Ca 6.47098395 10.18395391 10.08160240
Ca 0.43686174 3.56401215 8.15031127
Ca 3.04814263 4.86090228 10.16333310
Ca 8.17909587 0.36227405 8.06072344
Ca 8.33851654 2.80206608 0.18162189
Ca 7.80713419 4.03910953 2.53222895
Ca 1.76779461 3.80622023 5.84708437
Ca 4.41370364 5.14289700 4.45001685
Ca 2.54084990 9.50055357 0.48139633
Ca 3.68351256 9.58978474 4.49658742
Ca 1.17800072 9.60768007 2.40431428
Ca 4.90767770 2.59818059 9.49276688
Ca 8.35654526 1.50348679 4.99866154
Ca 7.13894242 8.36066214 6.83534733
Si 7.24880012 4.61144772 5.63081125
Si 3.77417067 10.11397805 8.45272733
Si 6.03908458 5.10169631 9.87818446
Si 3.28394541 1.29160172 6.21048522
Si 3.86206045 3.96502582 1.94079695
Si 5.89981981 1.01429441 7.24129556
Si 0.78662134 1.29718355 5.47459637
Si 7.71958513 0.82034428 2.43950448
Si 3.66119157 3.75908083 7.50179159
Si 4.13982623 7.53404181 9.61313356
Si 4.99064937 9.11588921 2.07330913
Si 9.31987800 8.05769603 8.68629362
Si 0.31772089 4.47319663 0.41414876
Si 5.11203738 1.72634068 2.21735538
Si 2.28413947 7.00084762 4.80671653
Si 1.43100871 7.14115777 0.47665371
Si 9.53384762 6.60610838 6.24895517
Si 7.45201616 3.02233791 7.88307336
Si 3.38896746 7.16277664 2.47687909
Si 1.78810453 6.23950479 8.10584907
Si 8.53037415 5.52768723 8.52781451
Si 9.24837993 6.78604199 4.05104441
Si 5.45434158 5.79131603 7.46537971
Si 2.62691713 1.86249840 3.52201665
Si 9.56507997 9.79028631 0.34527866
Si 6.18264467 10.00513933 4.70638196
Si 8.14076197 8.76786324 2.62899649
O 8.72571014 8.43088246 0.93680946
O 5.32866504 7.38473656 8.03359406
O 4.08839156 2.47454546 1.29466601
O 5.48628159 9.84871500 7.97785469
O 4.97987487 8.50751561 0.20990700
O 2.30986882 1.25017933 2.30142749
O 6.69179559 5.83001545 8.56272846
O 6.73965587 5.17509374 4.03628024
O 2.50313500 0.86474223 4.83785864
O 1.39657568 2.65775041 4.21689781
O 0.00792933 5.85748610 7.43782143
O 4.91220595 4.74421659 8.82638389
O 3.61502593 5.55339067 2.38117123
O 1.78648678 7.21908725 3.09881297
O 0.53283400 6.81572040 4.91753271
O 3.63420759 3.01155207 5.90108242
O 2.29534193 0.33740003 8.76617037
O 0.87022528 5.59349540 9.39216095
O 0.48208789 2.92503186 10.17765789
O 10.12281747 0.42771025 6.62946738
O 2.06005446 4.55108721 8.00814311
O 3.19465112 3.05360643 9.05350953
O 6.75994556 3.68457113 9.70236696
O 6.68940939 9.48745222 1.90523681
O 8.86503682 6.88473060 9.62759710
O 6.76441169 5.96466029 6.24596107
O 0.63111134 5.95875324 1.20258849
O 6.67162943 1.21725654 3.66665277
O 7.86486056 9.71190459 3.95153456
O 0.77105316 8.49819019 0.96442164
O 5.12699258 0.87678472 5.84692434
O 9.71255741 8.01191270 3.27598875
O 1.79558554 3.99091739 1.40076339
O 8.51694208 0.74638883 0.16723224
O 3.83388306 7.32948017 4.49529098
O 4.18533693 5.15856388 6.57915692
O 8.63712250 2.05261693 2.80119729
O 4.94282872 4.33620515 0.74702784
O 7.17153992 2.08786498 6.67473962
O 2.99391601 7.01123108 0.75126887
O 10.17636745 2.78575624 6.04662280
O 2.40738931 5.18336416 4.81476482
O 3.20877727 8.70146002 8.70205071
O 5.22757437 6.38591800 0.34842489
O 7.38489350 5.29159048 0.71667941
O 7.39390234 7.34841118 2.79084520
O 5.48295927 3.27965759 3.03383285
O 0.24000383 0.70398107 4.01523628
O 8.09833385 7.36514434 5.10202023
O 9.94180851 3.69192286 1.86403079
O 2.79012243 3.63032038 3.26361557
O 9.88524520 8.31131994 7.14549679
O 7.74047575 3.45380990 4.81841883
O 4.31164005 0.30481100 1.65807596
O 1.77002977 1.54113620 6.92995856
O 3.41196931 6.33537832 8.75704241
O 6.56919452 1.57201867 1.33823633
O 7.63535787 8.75147658 8.83721435
O 1.04158306 7.80201990 9.12851702
O 9.06237621 10.13288678 2.15197696
O 4.93476249 7.56180348 2.57427830
O 3.43487781 9.96374096 6.62014804
O 9.19667813 4.60568033 9.65064115
O 8.92060072 5.23208755 5.32898977
O 5.43769225 9.62878369 3.42577384
O 8.39089940 6.80228593 7.31839513
O 4.26465221 1.65731894 3.86039407
O 3.33636092 8.90217049 2.48519141
O 4.38975454 1.97641589 7.63231658
O 8.29942038 4.41982056 7.32849027
O 0.62763895 0.77870071 0.65417838
O 6.44702269 1.56855331 8.61793345
O 9.01700486 2.37631772 8.51390583
O 2.18171480 6.56757471 6.61969726
O 9.95890399 9.50437928 9.08594967
O 2.10332131 8.41061084 5.44004103
O 4.42502109 0.63758302 9.74740053
O 6.10595352 3.93601369 6.81706626
O 5.56718743 8.88687483 5.43360883
O 9.39100702 5.40209795 3.20277330
O 7.54592395 10.15868829 5.88806432
135
Time=199999.99999918 pbc="T T T" Lattice="10.26287559 0.00000000 0.00000000 0.00000000 10.26287559 0.00000000 0.00000000 0.00000000 10.26287559" energy=-840.94156965 virial="589.10144602 27.80842920 -7.59348835 27.80842920 568.50340445 0.76263183 -7.59348835 0.76263183 531.50150621" stress="0.57726944 0.02572582 -0.00702480 0.02572582 0.55821401 0.00070552 -0.00702480 0.00070552 0.52398323" Properties=species:S:1:pos:R:3
Ca 5.18347961 2.89378857 4.92337325
Ca 0.25345918 1.86824407 2.13867849
Ca 2.71097217 1.96352316 0.20132977
Ca 6.44202207 7.00185508 4.54768026
Ca 6.35629709 5.84322499 2.17626315
Ca 9.16818630 6.23689840 1.45467355
Ca 9.82366266 9.29539744 5.11674387
Ca 3.69674991 7.92222048 6.70291609
Ca 0.39546715 1.17207213 9.23097792
Ca 8.99058061 3.65768369 3.88998511
Ca 1.40297156 9.08184137 7.64296324
Ca 1.82990942 5.04617452 2.76958274
Ca 6.89321052 7.77597377 9.92860318
Ca 6.30088077 10.20406175 9.83750588
Ca 10.16719024 3.60382921 7.66524877
Ca 3.23769801 5.44259967 0.04121475
Ca 8.68768748 0.33893091 7.54135072
Ca 8.69532365 2.88827233 0.19950122
Ca 7.15178592 3.59941327 2.23298233
Ca 0.91614585 4.46789864 5.38272435
Ca 4.37214129 5.46214706 4.77098653
Ca 3.16583684 9.80479994 0.73617143
Ca 3.91752212 9.54368684 4.84349922
Ca 1.51043781 9.64695088 3.20159230
Ca 4.98553477 2.86459908 9.39773530
Ca 8.44725056 1.18116092 4.66760160
Ca 6.77872258 8.04424263 7.26734046
Si 7.37945218 4.58561751 6.24260775
Si 4.02661972 10.19757904 8.20310390
Si 5.95764868 5.16396384 10.02637647
Si 2.80533854 1.44179657 7.04964829
Si 4.32912524 3.81751296 2.16641693
Si 6.03609048 0.96804352 7.12198911
Si 0.73532406 1.62972325 5.79108910
Si 7.66747124 1.11596682 1.71029611
Si 3.21927809 3.93374769 7.41750879
Si 4.04654648 7.62693965 9.51618630
Si 5.51996629 8.79662107 1.90059439
Si 9.21645978 8.02878612 8.63679117
Si 0.73860158 4.28117644 0.57983112
Si 4.97115868 1.04060671 2.61479186
Si 1.85743593 7.28830909 4.87314159
Si 1.05803317 7.30755844 0.09605718
Si 9.59099931 6.86470359 6.43384550
Si 7.40234643 2.83884246 8.09940750
Si 3.29215732 7.50990294 2.54117485
Si 1.68854027 5.99493858 7.98086503
Si 8.26488692 5.40337767 9.13411589
Si 9.20621519 6.44827414 4.18276857
Si 5.20831014 5.68194712 7.82708756
Si 2.55149809 2.31066189 3.83085375
Si 9.96783502 9.39498792 0.84603961
Si 6.33567632 9.78206517 4.69717787
Si 8.22062393 8.70736173 2.41215605
O 8.48940711 8.56958256 0.81921137
O 3.94132553 5.42466292 6.84637369
O 5.04317418 0.42577373 1.25651432
O 5.60563395 9.68787488 7.76402298
O 5.07000122 7.25315723 8.26266955
O 2.26725255 1.33895940 2.45376452
O 6.56903889 5.87897197 8.68419839
O 7.89457769 5.68141385 3.39197364
O 2.22577443 1.25365663 5.27540236
O 1.10260629 3.12072298 3.92108085
O 0.16308453 5.61157556 7.31832682
O 5.97904286 3.81567725 7.17792195
O 3.64692926 5.76444216 2.23275339
O 1.79051826 7.41563465 3.03633168
O 0.37790295 7.14964864 5.23952763
O 4.69720095 4.98578502 9.11076372
O 2.35111442 0.64355855 8.34994922
O 1.76698715 4.52730762 7.19053655
O 0.61092547 2.84930607 9.96707906
O 0.24353328 0.25879250 6.66586634
O 3.03470624 6.65693250 8.61708382
O 4.29240920 0.82849302 9.56359506
O 6.86221928 3.92323715 9.24728345
O 6.96165386 9.86295655 1.76689034
O 8.96204521 6.78494052 9.59397808
O 3.22854548 2.91668308 8.55283776
O 0.91461967 5.89491125 0.83904193
O 6.60024267 1.47890876 3.19433504
O 7.54354817 9.07979528 3.99427543
O 0.48684897 8.11282236 1.33174270
O 4.54478860 1.46261186 7.58950242
O 9.38545692 7.77672397 3.26628024
O 2.28562819 3.60282671 1.20414272
O 8.79005825 0.61408245 0.06431483
O 3.78637040 7.55531714 4.34813342
O 5.48394153 4.46088196 3.26001634
O 8.49450486 1.88143451 2.60237666
O 5.23276316 4.49160658 0.94526414
O 7.38402480 2.25714262 6.50987952
O 2.73625058 7.49366302 0.74821495
O 9.68008319 2.90626673 5.78859360
O 2.33646859 5.64416793 4.92960729
O 3.15102483 8.94545977 8.79210042
O 5.06690050 6.50630625 0.28061235
O 7.36861766 5.56284356 0.52078156
O 6.89730249 7.92818675 2.00876779
O 4.45052111 2.36481476 1.42400434
O 0.08447945 0.83521666 4.35433083
O 8.45815356 7.50792712 5.50064388
O 9.83988563 3.85537242 1.78164139
O 3.42196154 3.48504703 3.57918747
O 9.87188361 8.40023377 7.34685518
O 7.13686332 3.73476447 4.96015590
O 5.40499727 9.76479290 3.42460535
O 1.53030254 2.28210190 7.06157515
O 1.44135455 4.99751431 9.30659248
O 6.88373940 2.23916536 0.63281593
O 7.89555402 9.07871815 8.45272390
O 1.01440044 7.18667344 8.85358059
O 9.39386207 9.99868397 2.35727214
O 4.86348154 7.27074567 2.22002440
O 3.39200206 10.03141557 6.75476498
O 9.38781591 4.66701177 9.76853854
O 8.77648380 5.28672414 5.50629639
O 5.53617125 8.57222570 5.65899425
O 8.56845473 6.91032836 7.67389899
O 4.14209952 1.41534975 3.91284757
O 3.50344320 9.19677325 2.45398840
O 3.19192295 3.11671353 5.96062073
O 8.19499167 4.53472851 7.66425500
O 1.05471449 0.15224678 0.90615938
O 6.56211866 1.65037462 8.58860424
O 8.85710759 2.35653969 8.46133475
O 1.82098584 7.34279384 6.62571102
O 10.13701850 9.17678579 9.41473734
O 1.86801100 9.02523784 5.16202062
O 4.91898357 8.70273212 0.24559016
O 6.31664152 5.93493070 6.36358132
O 5.84057142 0.82614455 5.50631419
O 0.14845955 5.47387448 3.42319681
O 7.56076584 9.84177117 5.90695048
135
Time=299999.99999840 pbc="T T T" Lattice="10.26287559 0.00000000 0.00000000 0.00000000 10.26287559 0.00000000 0.00000000 0.00000000 10.26287559" energy=-841.08351915 virial="539.13207876 19.22244887 -3.06516018 19.22244887 627.46074498 -47.62750320 -3.06516018 -47.62750320 507.11600568" stress="0.53104234 0.01778286 -0.00283561 0.01778286 0.61275597 -0.04406062 -0.00283561 -0.04406062 0.50142399" Properties=species:S:1:pos:R:3
Ca 5.30023572 3.02587285 5.05779927
Ca 0.32016277 2.14409819 1.92076686
Ca 2.51491987 2.09622260 0.08458969
Ca 6.10429177 7.26618671 4.15369306
Ca 6.06864216 5.91279344 2.27915502
Ca 9.27531834 6.33441038 1.48999006
Ca 9.74702836 9.27489197 5.52427165
Ca 4.25990369 7.97119192 6.91035872
Ca 0.35654818 1.37476364 8.65131106
Ca 9.58990228 3.67413274 3.47703661
Ca 1.49803994 9.22136902 7.42450656
Ca 1.43280833 5.43534829 2.75180908
Ca 7.19064864 7.51302322 10.05048630
Ca 6.27081241 10.23526878 9.84567955
Ca 0.20830287 3.96441403 7.74620829
Ca 3.41515635 5.00285988 0.18720417
Ca 8.55420836 0.10574619 8.02058861
Ca 8.71631174 2.87073476 0.09182198
Ca 6.83014857 3.58185345 2.40342497
Ca 1.29745831 4.14492757 5.34970371
Ca 4.15952785 5.32603404 4.96524702
Ca 2.62705496 9.96939441 0.66957543
Ca 3.66779430 9.73517129 4.40884896
Ca 0.92726155 9.41467298 3.23999064
Ca 5.18973620 2.34014405 9.67377751
Ca 8.35695068 1.42700638 4.64096100
Ca 6.90816459 8.11398155 6.84726457
Si 7.80383576 4.76637608 5.67681807
Si 3.75953211 0.03438684 8.09567982
Si 6.19918407 4.76602691 0.01757420
Si 2.72842273 1.96363991 7.08376576
Si 3.65599433 3.81933080 2.37541865
Si 5.97001363 0.47017777 6.96901729
Si 0.51269118 1.71233299 5.60221274
Si 7.82989058 1.01566549 1.67893587
Si 3.80604017 4.15220425 7.57382221
Si 4.29433920 7.36087909 9.57100694
Si 4.88975259 8.99214297 1.97577755
Si 9.71402158 8.13822038 9.10221869
Si 0.44608129 4.48874622 0.17939484
Si 5.24135325 1.45668235 2.58847787
Si 2.07633367 7.29643575 5.13382563
Si 1.45481423 7.31714831 0.29998005
Si 9.59453999 6.93045184 6.53407764
Si 7.04339482 2.75520102 7.75449023
Si 3.41326617 7.27295402 2.61631885
Si 1.90736171 6.11625966 8.12860333
Si 8.28488938 5.41083426 8.42013718
Si 8.94507255 6.63784909 4.20004950
Si 5.69170707 5.50372071 7.76909422
Si 2.27284409 1.99004142 3.80547206
Si 9.93914782 10.06796413 0.63384903
Si 6.52879980 9.85749401 4.72006965
Si 8.20203781 8.64926717 2.48480488
O 8.99711013 8.62263897 0.92237984
O 5.85182263 3.75830636 7.35255800
O 4.73311367 0.21471588 1.45798471
O 5.52951929 9.62238014 8.08929518
O 5.48032088 7.18734686 8.39277219
O 1.89931784 0.80318281 2.74226240
O 6.80989677 5.40246992 8.84463108
O 7.53253228 5.73116869 4.05928694
O 2.35078204 1.18650524 5.37532403
O 0.97865205 2.71662901 3.95223807
O 0.21768024 5.98144374 7.49382155
O 4.35087193 5.60332268 7.01528545
O 3.74949870 5.64142541 2.44177523
O 1.88523296 7.30181282 3.37622173
O 0.32389221 7.05278661 5.25595184
O 4.72092640 4.44060762 8.87148174
O 2.44016296 0.87420424 8.32179104
O 2.38588553 4.88525276 7.12981444
O 0.64589919 2.96303065 9.93105125
O 10.08325070 0.40308375 6.71107292
O 3.25822670 6.45047783 8.87150803
O 4.05818646 0.52473095 9.83690807
O 6.97760367 3.51524501 9.79292922
O 7.18023864 9.63469585 1.90955594
O 8.99668872 6.92875190 9.64485630
O 3.12083372 2.95520970 8.38052582
O 0.99173928 5.86941001 0.80125327
O 6.82658954 1.76236264 3.27384511
O 8.04420583 9.51261688 4.00570279
O 1.07374467 8.56811323 1.09864700
O 4.35556168 1.36114574 7.46832686
O 9.53608465 7.92294378 3.20594447
O 2.10110813 3.62855660 1.37866619
O 8.57664993 0.61919967 0.02929286
O 3.67500935 7.56637594 4.72112984
O 4.99595862 4.12550179 3.28304429
O 8.60711192 2.42948994 2.04634945
O 4.95598900 4.19886468 0.97585259
O 7.10844665 1.74482129 6.37082318
O 2.93139002 7.03749610 0.78287100
O 9.61848147 2.91012689 5.78129560
O 2.39259036 5.66486108 4.66218795
O 3.55267335 8.87650316 8.79227081
O 5.36208519 6.30637763 0.10725791
O 7.44819076 5.01342235 1.05288446
O 7.41460416 7.33881549 2.26932510
O 3.95786573 2.21163941 1.69914909
O 10.00701529 0.43604516 4.28130419
O 8.39203955 7.54053366 5.54866854
O 10.06181013 4.25725738 1.60375535
O 2.93947279 3.51676474 3.91680161
O 9.71630601 8.49872817 7.32080911
O 7.51943165 3.56636315 4.77505720
O 5.71142116 9.37955985 3.32485795
O 1.30302146 2.50384892 6.94188969
O 1.47146712 4.83400309 9.07271421
O 6.33933878 1.73202313 1.06902508
O 7.86580599 8.97973644 8.92588550
O 1.18819667 7.62963942 9.03978590
O 9.26889165 0.49000846 2.30473988
O 5.04183135 7.47620803 2.32950171
O 3.35238034 10.02121155 6.53508348
O 9.27663937 4.89673464 9.60606069
O 9.31266710 5.16440401 5.61094570
O 5.45620996 8.76015952 5.50221162
O 8.05600629 4.16728736 7.31393350
O 4.06169076 1.39145733 3.86370918
O 3.14936433 8.86102357 2.43117204
O 3.48562802 3.37686367 6.09866498
O 7.97808087 6.55595748 7.42205289
O 0.84355957 0.92022293 0.51248763
O 6.34415365 1.36612972 8.28519875
O 8.50195281 2.19458622 8.28158333
O 2.27562027 7.25275838 6.80348189
O 0.14389626 9.68107823 9.04987395
O 1.75685652 9.14346428 5.28452373
O 4.86191194 8.46085173 0.51499194
O 6.31001575 5.47100602 6.10316817
O 5.27702559 0.59180414 5.47225914
O 9.98059903 5.73766966 3.28788657
O 7.48746361 9.91495919 6.12641628
135
Time=400000.00000008 pbc="T T T" Lattice="10.26287559 0.00000000 0.00000000 0.00000000 10.26287559 0.00000000 0.00000000 0.00000000 10.26287559" energy=-838.51299349 virial="506.94868365 25.31391848 -35.45503203 25.31391848 555.84053645 10.90775701 -35.45503203 10.90775701 552.20581071" stress="0.50126920 0.02341813 -0.03279976 0.02341813 0.54649948 0.01009086 -0.03279976 0.01009086 0.54313697" Properties=species:S:1:pos:R:3
Ca 5.51132215 3.40682258 4.99913841
Ca 3.01425159 1.00989883 2.08181014
Ca 2.52694318 1.43065561 9.53188918
Ca 6.16017765 8.46436238 3.71783353
Ca 5.67333788 6.09516572 2.18043973
Ca 9.80771760 6.09210755 3.52261481
Ca 8.89754340 9.10375408 4.53791148
Ca 4.17968545 7.34161640 6.32458778
Ca 0.29510465 1.71818838 7.37532652
Ca 0.74860010 2.03307334 1.64516691
Ca 0.93073341 8.90139938 6.91559494
Ca 1.55280424 5.08308891 2.50113015
Ca 8.15677897 7.29381358 1.25462391
Ca 6.44919150 9.50153748 10.02356881
Ca 1.42163365 3.88040296 9.28960345
Ca 3.25563297 5.09452791 0.43644443
Ca 8.01195072 0.20452990 7.89492976
Ca 8.48130431 2.69270636 9.02902281
Ca 6.97471193 3.86705761 2.55645997
Ca 1.17097942 4.21191583 6.30335293
Ca 3.73463428 5.38357612 4.56411243
Ca 2.61604898 8.97847797 9.75083440
Ca 3.14781971 9.35570203 4.40961509
Ca 0.80495128 9.38747413 2.60652200
Ca 5.20767901 2.02197669 0.01494869
Ca 7.92797943 1.20287592 4.91436302
Ca 6.63704400 8.19563056 6.93373212
Si 7.03767574 5.90029434 4.92158845
Si 4.10531449 9.64177405 7.66404083
Si 6.78185484 4.73612940 10.13609467
Si 3.03607535 1.15627894 6.99313876
Si 4.38415843 3.29150785 2.25004257
Si 5.79159676 1.73110683 7.69896267
Si 0.59414590 0.60135390 4.90174299
Si 7.84657195 1.96875768 1.17118358
Si 3.77358150 3.69113032 8.11207697
Si 4.68838895 7.04116637 9.31516724
Si 4.43350234 9.01018174 1.83739833
Si 9.05941635 8.44284648 8.84746546
Si 9.54853179 4.65037028 1.10926617
Si 6.18674315 0.91032716 2.89312478
Si 1.49622616 6.84160701 4.84345092
Si 0.73783141 7.06284469 0.20863736
Si 9.08901424 6.83673604 6.30239834
Si 8.69938516 3.72650365 6.14743415
Si 2.82429896 7.28202696 2.44980513
Si 1.61305337 6.56743665 8.04248436
Si 8.86701636 5.64645342 8.47127668
Si 9.54937991 3.04527690 3.88049583
Si 5.85029479 5.17533499 7.66374833
Si 2.32200208 2.60421127 4.28810459
Si 9.89990733 0.44829315 10.16251432
Si 5.64636489 0.16386084 5.52133317
Si 8.38471033 9.82940250 1.98459793
O 9.59884599 0.54081380 1.84535876
O 4.60601252 4.74394546 6.63701487
O 4.37356279 10.09100282 0.62118113
O 1.88221355 0.25298973 7.81190855
O 5.63327347 6.73034482 7.86756966
O 4.01583198 0.93763799 5.60171984
O 7.68034091 5.16301337 1.17150617
O 7.47347909 5.96439286 3.23910323
O 1.73535352 1.38765341 5.79056907
O 1.36788689 5.25365386 4.53008572
O 0.97242459 5.82047115 9.44785900
O 5.49796009 6.37973051 4.98883833
O 3.44344087 5.83325122 2.52977113
O 0.09121088 7.37390647 5.52549891
O 9.08976775 8.37686890 7.05744710
O 4.59782021 5.05054231 8.93599653
O 2.14366057 2.50289348 7.74270279
O 2.36897940 4.88682504 7.86445683
O 9.61108185 4.20051876 2.65392862
O 9.78628589 0.23003333 6.12695443
O 3.21719063 6.86943068 8.63292706
O 4.21485970 1.05518180 8.43302018
O 7.43118441 5.17412703 8.82802604
O 6.78951302 0.55762682 1.35894832
O 9.44088099 6.90655356 9.28835479
O 3.48636034 3.42017314 9.59561325
O 1.11396771 7.40316001 3.27540872
O 7.66330901 2.16508870 2.87877303
O 7.37575749 10.02024865 3.27909636
O 0.23463971 8.46146922 0.68426226
O 4.38051122 2.54915599 6.99669590
O 8.74064422 8.13075170 2.76246213
O 0.88296517 3.78165069 0.95579742
O 8.43506262 1.02791680 0.02425400
O 2.97810640 7.07775816 4.36393423
O 5.15144336 4.41791015 3.25612379
O 0.23036405 1.90697423 9.58573180
O 3.06753848 2.91582634 1.48996544
O 6.18705177 3.50262128 8.22372118
O 2.18318498 7.03433492 0.90889213
O 1.12963172 3.09114523 3.33872215
O 0.09791729 6.34506120 7.32784294
O 5.69560712 10.05876529 7.37012766
O 5.93240202 6.28726858 0.09866583
O 5.16876722 4.18224144 0.95235253
O 6.13670082 8.43945810 1.67695140
O 5.42417626 2.13590396 2.19386323
O 1.51832482 1.06189949 3.45759427
O 7.88492850 7.34360042 4.94325014
O 9.06371704 2.98700655 0.96572968
O 3.71979180 2.46032951 3.63696890
O 7.51411301 8.12357257 8.96824014
O 8.06993319 3.12571139 4.75856199
O 4.74168499 0.26189259 2.83245799
O 3.00536275 3.47574692 5.38412211
O 9.98080182 6.18808581 1.68262182
O 7.00234941 3.04045582 0.22062764
O 8.58075092 9.21405050 0.46305592
O 1.12871789 7.92976427 8.71043822
O 9.51699063 1.30318355 3.93230528
O 4.23793006 7.84750397 3.14752378
O 4.56788765 8.73185814 8.74416821
O 9.34330817 4.46518024 9.77855109
O 9.13273220 5.23869992 5.38350819
O 4.99562657 9.04799891 5.27559979
O 9.61648239 4.42631482 7.51647410
O 6.00688685 1.22296105 4.45396583
O 2.80936838 8.92594095 2.05966864
O 6.44093079 1.76058227 6.39779048
O 7.90615384 6.34357307 7.32398871
O 1.19452188 0.19192961 0.58209826
O 6.53859940 1.20044686 8.94403308
O 8.37106695 2.47717620 7.04977747
O 2.22255138 6.69303162 6.36845690
O 9.71885036 9.87097049 8.74191527
O 1.08855824 9.18837902 4.84032318
O 4.26184433 7.40688237 0.78129199
O 7.12250975 4.54134764 6.07400761
O 2.88157782 9.04977295 6.60611910
O 0.00722677 2.71592328 5.57445694
O 7.31484341 9.84010761 5.92258590
135
Time=500000.00000301 pbc="T T T" Lattice="10.26287559 0.00000000 0.00000000 0.00000000 10.26287559 0.00000000 0.00000000 0.00000000 10.26287559" energy=-835.28271072 virial="533.04533201 -7.82291417 -21.29261521 -7.82291417 557.20511365 18.74755312 -21.29261521 18.74755312 575.54327926" stress="0.52541144 -0.00723705 -0.01969799 -0.00723705 0.54776187 0.01734353 -0.01969799 0.01734353 0.56472666" Properties=species:S:1:pos:R:3
Ca 5.51899025 2.74783368 4.84801710
Ca 3.23830004 0.70247147 2.27317332
Ca 2.94760722 1.86176672 9.70734176
Ca 6.47390824 8.36664895 3.98290872
Ca 5.42301696 6.37180939 1.90249249
Ca 9.08380426 5.74488862 3.89035771
Ca 8.89297826 8.79524313 4.32540737
Ca 4.25283828 7.25965361 6.65135527
Ca 0.52371767 1.37087954 7.57654519
Ca 1.20214464 2.10745509 1.33746343
Ca 0.94277909 9.04794077 6.73945589
Ca 1.26156831 5.26567130 2.62078331
Ca 7.73866738 7.27421102 0.94857921
Ca 5.97629647 9.90001079 9.57272036
Ca 1.14110303 3.84428261 9.17554162
Ca 3.19487867 5.57953334 0.75137441
Ca 8.43200767 0.69855550 7.58864295
Ca 8.04459642 3.11612055 9.16999728
Ca 6.88109673 3.75876189 2.81589510
Ca 0.78605455 4.19501440 6.33890831
Ca 3.50649206 5.42174356 4.75353707
Ca 2.85210882 9.07734894 9.67238339
Ca 3.58145897 9.74738502 4.80655372
Ca 0.50226005 9.12015812 2.46773243
Ca 5.24140885 2.38989932 0.46272375
Ca 8.34421444 1.18677022 4.91134259
Ca 6.80841995 8.12122232 6.97154939
Si 6.19472301 5.75232441 4.73907772
Si 3.72075466 10.10939097 7.61976890
Si 6.26678347 4.91466387 0.09312898
Si 3.06253557 2.16227133 6.63622398
Si 4.17939400 3.25930876 2.62285271
Si 5.62863180 2.30562788 7.75792728
Si 0.72310269 0.39217651 4.65317432
Si 8.15092483 1.80455122 0.87048212
Si 3.65849671 4.78275004 8.60781024
Si 4.69242310 7.27607452 9.36150899
Si 4.97689648 9.07567391 1.78488637
Si 9.27498069 8.58973362 8.88332752
Si 9.52230029 4.42647224 1.04076354
Si 6.39740533 0.74213479 2.84539250
Si 1.13536444 7.01107985 4.94324100
Si 0.39077170 7.00418170 0.32803373
Si 9.01645840 6.83592069 6.49844933
Si 8.37994647 3.74103708 6.01260155
Si 2.55012077 7.60136270 2.94369654
Si 1.62714141 6.71158710 8.03108555
Si 8.84852268 5.43062567 8.58267549
Si 9.34780125 2.76694157 3.15830091
Si 6.22432809 5.15170259 7.46712772
Si 2.01666168 2.68653233 4.17009012
Si 0.00201842 0.39003239 0.03127794
Si 6.21641628 0.17048471 6.29196849
Si 8.00015902 9.69642900 1.55298138
O 9.14799420 0.50914392 1.30510144
O 5.46708988 5.12477373 6.03922374
O 4.23107704 0.10679876 0.47883334
O 3.17685202 6.56410132 8.63471632
O 4.28688292 2.96363480 6.63347367
O 1.08686399 8.99665527 4.62005516
O 7.16924373 5.38268982 1.35647712
O 2.15745193 1.11121464 5.81019335
O 3.67756698 2.01969953 3.92357731
O 9.95309865 7.46869277 5.38606363
O 1.18502219 5.95980507 9.58058991
O 6.92931092 6.08266506 3.43598910
O 3.25656091 6.05694154 2.82838113
O 8.77048694 8.50290444 7.34813830
O 8.08125705 9.10190295 10.04246999
O 5.16546569 4.11750727 8.58313763
O 2.36056225 0.26614048 8.18218622
O 2.62369709 5.04232366 7.32049784
O 9.02940421 4.13080012 2.66830924
O 9.94199108 10.13292122 5.98221611
O 6.29049070 7.45987792 10.02788318
O 4.59152015 1.14065545 8.44863466
O 7.07877962 5.17964739 8.92501110
O 7.78469759 1.92035513 2.76750189
O 8.89530704 6.78231932 9.55217052
O 2.01067309 2.67712790 7.74686484
O 0.97602230 7.18322837 3.17118610
O 8.85497426 8.25997625 2.44029367
O 7.78309771 10.06332298 3.12163133
O 10.15908789 8.48172794 0.15470445
O 2.67319553 3.45873346 5.42506565
O 6.57947847 8.75669190 1.73030466
O 0.90411724 4.20651738 1.02068748
O 8.55533157 1.25677901 9.58532791
O 2.80178160 7.69012030 4.52209223
O 4.89054574 4.75756396 3.31092634
O 0.50387400 1.95564652 9.52422362
O 3.47834266 2.52526344 1.28663013
O 7.29724524 3.91205699 7.32456224
O 1.76894835 7.35479418 1.20980629
O 0.77482249 5.32710853 4.80389211
O 0.12785456 6.46799693 7.40763624
O 6.64359936 10.04290105 7.71037349
O 3.27767820 3.82792890 9.72762294
O 4.96876144 4.39056145 1.36681162
O 4.43908560 8.71518525 8.35457476
O 0.81347916 2.98252334 3.26425185
O 1.75586755 0.87855024 3.53553735
O 7.82863496 7.05546209 5.23431877
O 9.58616710 2.68752390 1.12980486
O 5.41445573 1.99543060 2.45330356
O 5.36707835 6.55402128 7.94835939
O 7.05624027 4.19132013 4.92073437
O 5.04405376 10.17277024 3.07769533
O 2.71793544 3.76886399 3.06151577
O 9.68664142 6.01119797 1.41236812
O 7.24202104 3.24271921 0.65118423
O 6.74266531 0.64265121 1.25620125
O 1.41490008 8.14869955 8.58090227
O 9.30014866 3.12826479 4.69779230
O 4.59912063 7.94411397 3.01208676
O 4.82609105 5.74230729 10.02986766
O 8.94826788 4.74675712 9.96579828
O 9.16162549 5.33966275 5.99901660
O 5.49151217 9.09088504 5.70300459
O 9.69310824 4.16382649 8.01587524
O 5.96991936 0.97065490 4.58211651
O 2.57159298 9.17347202 2.61950400
O 6.72551708 1.86793854 6.52363886
O 7.71057223 6.39546778 7.43003260
O 1.54761169 0.26846205 0.68977839
O 6.52898450 1.89995665 8.95219075
O 9.15111578 2.52487523 6.79422745
O 2.10646359 7.10082428 6.25517973
O 10.17027869 9.97838011 8.64307612
O 9.76281915 0.91647405 3.62830936
O 4.14790825 7.97879430 0.66018216
O 5.03029970 6.83747754 4.84596314
O 4.62619817 0.63693348 6.47564018
O 3.00191575 8.96575230 6.71045020
O 7.62866613 9.72564362 5.70783656
135
Time=600000.00000594 pbc="T T T" Lattice="10.26287559 0.00000000 0.00000000 0.00000000 10.26287559 0.00000000 0.00000000 0.00000000 10.26287559" energy=-839.59547710 virial="518.92075874 -17.85960520 -36.84432441 -17.85960520 596.97478918 1.81288648 -36.84432441 1.81288648 561.19299895" stress="0.51234467 -0.01652208 -0.03408501 -0.01652208 0.58455314 0.00167712 -0.03408501 0.00167712 0.55145109" Properties=species:S:1:pos:R:3
Ca 5.67144103 3.38032523 5.33621764
Ca 4.13706379 0.85928146 0.83059483
Ca 2.37115377 1.51883360 8.69260649
Ca 6.36875262 8.14924122 4.36438129
Ca 4.85086249 5.91316375 2.85495918
Ca 8.42874278 7.26585073 2.97570441
Ca 9.22740087 9.32197230 5.17773841
Ca 3.94769604 6.70838773 6.32131595
Ca 10.21804148 2.10528988 7.76301866
Ca 1.04492206 2.77851143 1.47594719
Ca 1.32029482 9.58405680 7.27354393
Ca 0.80606724 6.43075864 2.88024726
Ca 7.87547242 8.35829891 1.05270287
Ca 6.26027576 0.06620528 10.13479664
Ca 0.79560194 3.99001559 9.92716741
Ca 3.11730380 5.31541196 0.55381695
Ca 8.19711487 0.26770103 7.67042580
Ca 7.89742722 3.20995370 9.21876018
Ca 6.89389604 4.10554601 2.69149337
Ca 0.78335708 4.77520864 6.26453623
Ca 3.47032054 4.74881511 4.54324859
Ca 2.42685546 9.06827230 10.07602629
Ca 3.48866281 0.11837670 4.23051613
Ca 1.53559830 9.81264448 2.32906385
Ca 4.95310550 3.24132832 10.10179972
Ca 7.87987037 1.55840935 5.09460117
Ca 6.95536566 7.92551997 7.97073077
Si 6.73045663 5.96677644 5.38152529
Si 4.24030530 9.23550430 7.34465355
Si 6.12569556 6.03054063 0.03373492
Si 2.88850282 1.87888724 5.95649195
Si 3.89280313 2.68336126 2.71027797
Si 5.52963211 1.82459866 8.11887278
Si 0.62578781 0.94340575 5.25161208
Si 8.16504040 1.91911401 1.26345797
Si 2.86703734 4.16814747 7.71360450
Si 4.61705377 7.52887965 9.44413168
Si 5.11172700 8.50799937 1.46438213
Si 9.62042240 8.95033688 8.85873486
Si 8.88962119 5.15621753 1.21734239
Si 6.24407388 0.75470615 3.07588973
Si 1.56097813 7.87154064 5.29137929
Si 0.28061085 7.38669894 0.44296379
Si 9.00988325 6.85616999 6.44276050
Si 8.33860866 3.84679096 6.40215636
Si 3.03124825 7.68812482 2.57495863
Si 1.65621683 7.07662684 8.33865840
Si 9.43163374 5.93047692 8.65826299
Si 9.31173279 4.10247279 4.09869358
Si 5.84725630 5.04586321 7.86769134
Si 1.19031754 3.25447953 4.18866729
Si 0.08556562 0.70850173 0.11162073
Si 5.82651537 0.00623831 6.13632951
Si 9.01222380 10.23221911 2.62227850
O 10.21668067 0.98861243 1.61363993
O 4.56199054 1.29027209 9.20518180
O 6.03114596 9.93568171 1.81534365
O 3.76207497 2.50461501 7.26337459
O 4.72678931 9.06779981 10.10847937
O 1.32553091 9.77011495 5.13317248
O 7.46501732 5.71871908 1.25709550
O 1.66928188 1.65986563 4.34939781
O 3.82575333 2.06796497 4.53045163
O 10.21081760 7.34976647 5.15178809
O 1.10855410 6.04304445 9.46412091
O 6.95532903 6.11699403 3.71075126
O 1.54420412 7.96383374 1.29469138
O 9.37552482 8.56696749 7.16926125
O 6.37311804 7.56154181 9.85413843
O 9.90446568 2.68297162 3.31902261
O 1.55777931 1.31976496 6.62995419
O 2.55699843 5.74213570 7.75622993
O 8.80501944 5.06720948 2.84536694
O 9.60861369 0.63058400 6.27086896
O 5.57371765 3.39122387 8.08477574
O 5.95546243 6.40027127 7.04874298
O 6.80261249 5.00032194 9.19126881
O 7.62562726 1.64047761 2.88328523
O 9.10177134 7.08253154 9.57572808
O 1.47331098 3.44919068 7.67529666
O 1.71287506 8.16052400 3.69197612
O 9.93303413 8.78624941 2.82762907
O 7.77690120 9.19665117 3.50196215
O 9.89054698 9.20306927 0.27342541
O 2.34876438 3.33633304 5.49399555
O 6.17958047 7.57085504 2.12925691
O 0.40304826 4.81799919 1.46561890
O 8.05330264 9.35518843 9.38844331
O 1.90521385 6.33326492 5.19793176
O 4.84050089 4.01759927 3.28052825
O 0.15729020 2.22850884 9.78980436
O 3.43431811 2.97676648 0.94794955
O 4.13179593 4.49715753 6.76360809
O 0.92311116 8.52096443 8.94895973
O 0.64751633 4.69157148 4.20287294
O 0.33181963 6.53784575 7.44506523
O 5.60950369 9.90786577 7.83515063