135
Time=99999.99999996 pbc="T T T" Lattice="11.62817333 0.00000000 0.00000000 0.00000000 11.62817333 0.00000000 0.00000000 0.00000000 11.62817333" energy=-859.99975287 virial="175.23574974 43.17541152 -1.01520957 43.17541152 179.99615794 20.56150883 -1.01520957 20.56150883 193.24048086" stress="0.14844706 0.02746009 -0.00064569 0.02746009 0.15147474 0.01307737 -0.00064569 0.01307737 0.15989829" Properties=species:S:1:pos:R:3
Ca 6.01046816 5.83935145 0.56235302
Ca 8.86898616 0.99948856 11.10863463
Ca 6.00325540 0.91808827 8.54157595
Ca 9.70328173 8.58110565 10.79253882
Ca 3.18058156 8.32300454 9.77990900
Ca 6.26187457 5.27574897 3.12437519
Ca 0.35908546 4.63232291 3.19783308
Ca 7.85110794 4.56124298 9.43946520
Ca 11.01452361 2.17139905 0.74284861
Ca 1.31448265 4.78174432 6.17305881
Ca 2.48520608 6.38937917 8.43248830
Ca 1.13364332 10.98086821 5.80321352
Ca 0.32777494 7.50725832 8.57068394
Ca 1.08044568 10.58479740 0.50081432
Ca 2.61947295 1.31828566 2.75404693
Ca 9.87114759 1.61987328 5.55642724
Ca 4.54478077 9.21194665 6.98807738
Ca 0.59146691 2.41204821 9.44089699
Ca 2.67079318 7.13359020 1.83276198
Ca 11.23752063 9.00291667 2.59773359
Ca 4.68951744 3.53839534 6.04742418
Ca 7.33173177 6.81565431 5.61747346
Ca 10.42678854 4.53762942 7.63596147
Ca 5.88570288 11.17857464 0.31370704
Ca 6.92716216 0.18032137 5.79121581
Ca 9.16181579 9.51770926 6.81784840
Ca 9.18747269 6.26920820 1.55824625
Si 5.15926989 5.22428698 9.72428750
Si 2.92724328 0.20295864 10.56401290
Si 11.33307160 10.30339951 8.46071141
Si 3.99753811 4.32133690 2.24449035
Si 2.93817072 1.60200784 7.59951403
Si 2.01965773 2.10107229 5.53567423
Si 5.84054687 8.83605840 3.94954893
Si 6.07637534 2.07324408 3.31670473
Si 2.95593938 8.39151869 4.69754283
Si 3.72491138 9.41903551 1.88689629
Si 11.58761140 7.15623218 0.09583410
Si 8.56889434 11.19859860 2.73694582
Si 7.03481327 6.98118522 8.90689220
Si 7.66528454 8.71891699 1.64823164
Si 9.82346586 5.73110192 4.31462577
Si 3.65788646 2.35403741 11.16521864
Si 4.18557150 6.30722860 4.50435708
Si 6.90767017 10.01178183 9.12063424
Si 4.39615863 11.10165929 4.67841065
Si 11.00901091 4.72309734 10.85421809
Si 9.23881395 1.40961540 7.99922984
Si 7.04458924 3.36084783 5.49294668
Si 6.49530306 2.72365603 11.40136397
Si 2.02335934 5.11664721 10.91953885
Si 11.23081909 7.38210225 5.20248227
Si 11.33413090 11.47074249 3.26983755
Si 8.40447389 3.60814934 1.67755915
O 0.87807844 4.07153472 0.12810634
O 10.32873431 7.07276764 3.35744541
O 3.08333965 2.92446745 4.63204636
O 0.92999299 10.68600467 9.17263526
O 7.43744200 2.90753525 3.56714707
O 2.63046137 3.42321823 10.70549089
O 10.74734606 2.09683913 7.73382773
O 2.73964747 0.10869668 5.00394905
O 4.97810865 7.47847704 3.78453425
O 2.75372639 6.81583157 4.11810943
O 7.80283788 11.20212667 8.52846560
O 10.15881735 3.71144584 3.80555415
O 6.25478364 4.63992968 5.24941103
O 11.38521863 9.49345241 7.15102587
O 8.03452641 10.81683865 1.37069240
O 11.50856218 5.78343158 4.82641600
O 1.89049522 0.92915876 6.93415009
O 9.26130302 5.51165826 5.77928873
O 8.81868712 0.26577053 6.83905394
O 1.34484766 10.87216599 2.98109800
O 0.15762362 6.67825797 6.78394422
O 9.81889039 8.41405077 5.16294040
O 7.69294643 3.64562920 11.42123009
O 7.20859016 7.48725234 0.52029895
O 4.96223260 3.13322632 0.09285603
O 5.41399979 10.56036207 8.88962002
O 7.51516659 10.68728804 3.97156334
O 7.53317784 9.49078163 10.71432944
O 10.11900258 10.70295723 2.32069202
O 4.43413568 1.00412399 10.89203495
O 4.28547240 9.80856514 3.53383334
O 1.96287773 6.88312468 10.74821421
O 10.82578380 11.11149237 4.68716013
O 4.22993146 2.26865147 7.27275487
O 8.51034923 6.47698766 8.42512522
O 4.97554986 0.77240513 3.60178470
O 3.85156919 5.39062511 10.96408440
O 6.32685658 9.25577604 5.31213240
O 4.23312066 5.49143598 1.42126015
O 8.18912494 5.89008885 3.62408877
O 3.05528106 0.93710204 9.11476189
O 0.51484678 5.32160020 9.45141590
O 6.20399794 5.80355539 8.30938901
O 7.83100778 5.09181672 1.40962555
O 8.35545571 2.25246664 8.94238060
O 2.40073589 3.31229697 8.19966250
O 6.19712444 1.30802794 1.78797953
O 0.61183446 8.48732866 0.59464124
O 10.12729437 3.62246964 9.65595398
O 3.95843037 4.98440937 3.82971807
O 0.60584694 6.16611973 1.09072129
O 10.06387162 9.41596297 9.14450593
O 0.53800317 2.63734171 5.08319980
O 3.66182753 10.21702708 10.64343747
O 7.77331140 3.27472957 7.03838848
O 6.01166380 2.22700061 5.25251521
O 4.83674087 11.25547626 6.42428276
O 5.31644424 3.58637327 2.74699633
O 4.59812423 6.92786078 8.90672120
O 11.27704215 1.16453760 2.63693346
O 2.97513553 8.47613909 0.66450648
O 5.28786585 3.60622776 9.19735267
O 3.80876646 6.79726523 5.90662459
O 8.79493121 2.21121548 1.94236580
O 2.46911325 8.79172006 7.71365111
O 3.07780592 9.46579689 5.86600429
O 7.93070949 0.81601481 4.16584723
O 10.26660756 4.19833735 1.11950383
O 2.82736843 3.52989531 1.79768597
O 10.13298734 6.33480693 11.08385565
O 6.81219056 8.52069366 8.16726588
O 7.14197353 8.41518364 3.33604045
O 6.36269525 6.35825496 10.34127811
O 9.18478395 8.49981276 1.37696902
O 0.97276097 8.60277467 4.90107946
O 5.74546642 9.52287499 1.88707133
O 3.64675113 11.10665451 1.58248893
O 2.05876861 1.68270845 0.07500173
O 11.18073310 0.02256085 11.08476781
O 2.52863674 8.79832231 3.00559330
O 6.67375358 1.25290544 10.84358566
135
Time=199999.99999918 pbc="T T T" Lattice="11.62817333 0.00000000 0.00000000 0.00000000 11.62817333 0.00000000 0.00000000 0.00000000 11.62817333" energy=-863.29125843 virial="180.93863415 -2.13757376 18.83855379 -2.13757376 209.11649017 17.31856403 18.83855379 17.31856403 218.38812845" stress="0.15207416 -0.00135952 0.01198155 -0.00135952 0.16999563 0.01101482 0.01198155 0.01101482 0.17589250" Properties=species:S:1:pos:R:3
Ca 0.95715179 4.07665870 7.14315451
Ca 8.53801020 3.77526571 1.20959991
Ca 2.76428463 9.91558600 5.03710862
Ca 9.01883629 9.68669284 4.85991218
Ca 7.40046748 6.02062086 10.84036630
Ca 4.69133877 1.81234294 7.48621775
Ca 4.08083019 7.75032357 7.07312480
Ca 1.64014656 10.56433398 8.71990237
Ca 7.07057317 0.73969561 11.49873532
Ca 7.78546263 7.28096097 2.41813121
Ca 5.63283434 3.31348856 4.52981853
Ca 9.01238678 3.38228649 9.91783480
Ca 3.13332812 4.47064376 1.50266739
Ca 8.43722740 0.15493367 7.94370635
Ca 2.25995937 1.92248870 9.92843745
Ca 9.28233154 9.31186090 7.89139998
Ca 4.32291345 9.99890051 0.71618920
Ca 10.65240645 7.31701860 10.40540992
Ca 5.70899987 9.11164502 9.57833605
Ca 9.52999221 4.07339146 4.98759077
Ca 0.01482259 11.26867403 6.36845935
Ca 0.20043636 9.65813807 10.87945329
Ca 5.00763208 1.69680618 1.80860784
Ca 6.66281719 6.53604176 6.16231793
Ca 0.76366481 4.29343159 10.74972714
Ca 8.88865694 11.18321027 1.10213515
Ca 1.36739784 1.14685006 0.98943755
Si 8.40181054 9.56875896 10.84728314
Si 11.22948363 4.39195252 2.93605511
Si 7.61032551 3.71911594 6.86316525
Si 4.19550043 6.93403593 0.62392312
Si 2.88526746 1.04984596 5.25799583
Si 6.25277490 10.33129399 7.06832038
Si 3.57696421 5.21383489 5.90232542
Si 6.16793255 5.02607293 2.25580424
Si 2.52104969 8.21159631 10.05801870
Si 5.21751217 8.78917137 3.56440400
Si 11.59451039 10.34827154 3.42078547
Si 10.82759551 1.91365685 8.17269965
Si 11.31177190 8.09395949 2.49467400
Si 3.24567092 4.83171433 8.98853330
Si 7.63866652 1.35249948 4.31661798
Si 6.22791708 10.69696851 4.24592179
Si 6.29944492 3.52520084 9.35442562
Si 10.27235724 7.10546577 5.56734067
Si 2.73138726 6.96447380 3.39624320
Si 0.39270194 8.21628496 7.66541858
Si 10.62146417 5.33449242 1.03651777
Si 10.25597314 5.45660552 8.27085018
Si 10.62223568 1.46199451 11.32850228
Si 4.35635056 0.46938074 10.18966995
Si 10.34205969 1.34597546 3.30756446
Si 2.08318958 3.45319989 4.40440160
Si 5.50076347 5.43457162 8.27416585
O 4.50860197 1.21903713 5.30490495
O 7.07142503 10.71849571 5.54995171
O 9.31568124 1.06949016 4.24847690
O 4.81813954 9.71412655 6.81852399
O 3.43215704 8.64177706 8.92671435
O 2.32519195 10.01933339 10.60893754
O 4.05443206 6.36423379 8.45621624
O 1.08316910 1.99763262 8.33493229
O 9.36361277 10.64633276 6.25353292
O 11.08733270 8.33397170 6.12104897
O 7.15057387 9.84812115 0.13397914
O 10.05074658 4.74821397 11.37779035
O 3.80738660 1.17833181 0.02163973
O 0.83448052 4.60387391 4.60735090
O 11.23566155 9.60944333 9.08752414
O 6.34804780 11.41978216 1.54721803
O 3.90062223 3.87103798 5.30721660
O 0.12133023 9.24116148 1.38917485
O 10.02323573 9.56188238 2.88415113
O 7.35887513 5.20910295 8.59353756
O 8.83210744 11.21868097 10.32247279
O 0.18760013 2.62684723 11.18039714
O 7.20926545 5.12150706 1.11853842
O 9.87239243 9.60124637 0.03925290
O 11.14616152 0.77904072 1.91455075
O 1.95799732 11.33070088 6.70474655
O 9.60528998 4.68541562 2.71817255
O 11.09619171 0.02479805 10.98390928
O 3.36172686 0.54728105 9.17142252
O 0.19639449 6.54320134 0.65611845
O 2.54993995 0.31597025 3.95180578
O 9.15248400 1.82918346 0.15665496
O 0.43030589 4.01660932 1.73642210
O 8.49212451 8.19302860 10.46694944
O 1.29471385 2.29969172 5.64096501
O 5.18867405 10.62088682 10.37446507
O 4.68331097 6.24477431 5.66949587
O 9.85341018 4.09363625 7.75855275
O 5.49490497 7.63540612 11.53353056
O 8.09337033 4.87773359 5.97739266
O 5.98051908 4.27647488 6.65279427
O 6.00308385 0.02603325 7.86860343
O 7.66771994 2.53930647 3.00929319
O 7.38200512 9.21064892 7.33379899
O 5.88324979 7.72522736 4.47813045
O 6.74295364 9.83013909 3.14098872
O 6.17986296 0.64749269 4.06432684
O 4.86131074 4.37443227 9.26074589
O 11.36908751 4.83166023 9.09162217
O 9.20663131 6.69138697 9.09926962
O 2.80583107 3.59509225 8.04155012
O 10.87153071 11.54706009 8.22361324
O 2.73671671 4.42197080 10.57731107
O 10.40984882 6.97167833 4.03688942
O 5.30716161 3.48648987 2.06206386
O 3.40577126 7.13006422 10.72868760
O 3.21969951 5.55784800 3.85086207
O 5.12769419 2.00696685 9.71041372
O 2.31218955 5.59342391 6.87679824
O 1.33688343 7.07733601 3.87337139
O 10.68681530 2.88435687 3.45780258
O 2.78318886 6.86007701 1.34055607
O 8.35681607 7.58234657 5.40995084
O 5.59038167 8.79203593 1.88598624
O 1.06337244 7.16448803 9.29792957
O 0.07511137 0.52994255 4.00462692
O 6.23954372 5.49444585 3.64172618
O 0.87579954 9.03807772 3.96775757
O 9.74820923 7.34746450 1.62731760
O 2.88119083 2.63683664 2.92935964
O 10.64296682 1.99466786 9.64317899
O 7.22179913 2.05694092 5.79608599
O 7.00307794 3.87581208 10.84497700
O 10.89707609 5.88513088 6.57713023
O 5.03467406 6.19899652 1.81062370
O 10.30645220 1.93000895 6.77056297
O 4.67048133 10.42988202 4.29897465
O 6.10417229 7.01408035 8.85299660
O 1.97628688 8.75466534 6.99762108
O 3.46484293 8.40272110 3.31146029
O 7.54458885 3.02308396 8.33755110
135
Time=299999.99999840 pbc="T T T" Lattice="11.62817333 0.00000000 0.00000000 0.00000000 11.62817333 0.00000000 0.00000000 0.00000000 11.62817333" energy=-870.25662933 virial="174.85917207 41.07088561 -9.56515824 41.07088561 192.74755929 43.12026433 -9.56515824 43.12026433 123.09701127" stress="0.14820755 0.02612159 -0.00608356 0.02612159 0.15958479 0.02742502 -0.00608356 0.02742502 0.11528618" Properties=species:S:1:pos:R:3
Ca 4.18132107 3.73855600 5.05584896
Ca 2.16211349 1.25975062 9.88721941
Ca 2.33801662 9.20908351 4.12835977
Ca 6.81978190 1.47148083 4.13114810
Ca 7.79415416 4.43792333 7.79296047
Ca 11.15029052 9.71475281 5.25938700
Ca 9.97468834 4.23092367 4.40328963
Ca 1.92302266 3.53649309 2.61179899
Ca 0.65055753 4.74900828 10.57486760
Ca 1.90439814 6.70538366 1.10571175
Ca 5.56295873 1.65299893 11.22540319
Ca 4.57695766 7.51826940 1.11055935
Ca 3.70956088 0.81071208 7.36529370
Ca 7.83911730 10.52386446 2.91231156
Ca 4.79888723 9.70947568 6.67991172
Ca 8.27854565 7.01686285 2.33780023
Ca 5.84062843 7.12821033 5.01893453
Ca 8.93218314 2.37153416 10.02143280
Ca 10.84374356 6.80473472 7.70522050
Ca 4.98377441 3.45109594 1.84227374
Ca 1.68383548 9.72351314 10.73254766
Ca 10.95110126 0.12944037 9.50648331
Ca 9.61901611 1.43765080 5.92554584
Ca 2.46236376 5.03676628 6.74197200
Ca 10.43653954 9.12571694 2.27371361
Ca 1.01669146 1.00706897 3.81549692
Ca 8.66936624 10.25215121 7.15612841
Si 1.31042819 2.24572381 6.39453562
Si 2.18062458 6.62081623 9.52049762
Si 11.33972654 11.52320756 1.32795280
Si 6.85395246 4.42630860 5.18198271
Si 3.44854101 4.02756739 11.60769603
Si 0.43091605 6.72385311 4.19997122
Si 2.15431782 10.55363628 1.61195612
Si 6.93720079 7.85143842 10.53763299
Si 4.76409376 3.35634357 8.75755539
Si 8.91906069 7.61808479 5.46674246
Si 7.38199961 0.96558191 8.25293838
Si 7.98415700 4.01817517 1.41898885
Si 7.33420068 10.45544936 10.66926268
Si 1.68216648 8.31061844 7.08107626
Si 2.94252844 7.06493172 4.44314460
Si 11.39745172 3.06238307 8.23153800
Si 9.86826231 9.96393598 11.16346017
Si 6.97087962 7.87347597 7.29894753
Si 5.45503440 9.24255432 3.11488340
Si 1.24158456 10.92537595 7.07069076
Si 4.66339282 10.58955771 11.44932959
Si 4.60427643 8.03568567 8.75516695
Si 4.43723914 0.32088533 3.93799280
Si 11.14110061 4.83435241 1.51422180
Si 9.59838756 1.06792427 2.96537189
Si 6.65055851 4.82718604 10.61670774
Si 10.12885956 7.19022686 10.93751286
O 8.52050392 7.38395460 11.16292657
O 9.62015185 4.53204995 1.54492365
O 1.46056892 7.61068992 10.44260505
O 2.24383608 9.04119266 1.02290270
O 6.22942208 8.89639142 11.36833169
O 3.50376797 0.24583709 11.61679061
O 6.60253314 0.12137378 7.25756652
O 10.28300828 7.30993465 4.67220133
O 8.43815817 3.36074637 6.12484722
O 0.15979394 8.91460830 7.80188256
O 8.73817347 9.99825409 9.85082017
O 6.20005912 5.31906584 6.47379445
O 10.86511558 1.43324642 1.77772536
O 5.25012498 3.77953013 11.19859798
O 4.61052063 1.75360980 2.96070603
O 8.14998534 1.06519035 2.60363807
O 5.56150211 7.40641633 7.48081962
O 1.34098986 11.44838731 8.52877148
O 2.90035388 5.66434615 10.91071234
O 1.48914403 2.77222326 8.01331453
O 7.14159721 2.59326287 8.50472040
O 8.78490132 0.31550793 8.16372221
O 1.99332251 5.92737845 3.87954704
O 6.61882493 8.08110805 3.16126473
O 3.15367839 7.70090092 2.71317854
O 7.80536418 2.84937653 0.52457864
O 4.41991148 8.89470963 4.73892686
O 2.91957059 11.40347400 3.49150324
O 7.00942557 0.29332509 10.06154127
O 8.41492410 9.17086591 4.66822296
O 10.43714588 6.04731835 9.83499807
O 1.29056003 11.46603975 0.65520585
O 11.50381715 5.78448170 2.84223606
O 2.86387879 3.21581126 10.16280514
O 1.65102458 7.72271418 5.53059400
O 5.40776944 5.55005451 3.51343314
O 10.98297997 10.96694094 0.05484742
O 10.37619187 11.28416958 2.52368320
O 6.20213864 6.51012089 10.37341492
O 5.57096374 10.95338726 3.20241918
O 1.43754037 5.23400406 8.75212569
O 2.84049087 2.73234839 0.66021420
O 1.40988084 10.00363497 6.00858210
O 0.02507175 5.93434442 0.60585588
O 5.74152893 4.44976533 9.13236828
O 6.90553994 5.47239869 1.04626210
O 7.78069043 4.88197070 9.62569447
O 4.61295681 10.39740772 9.61330564
O 7.03069586 9.16012275 6.34132281
O 2.80310969 9.11916261 7.79057797
O 10.30204670 8.51729880 0.38263593
O 0.28280078 3.41296395 5.97408607
O 9.70950741 8.58722160 6.67273772
O 11.54974617 2.29163483 10.20114576
O 4.00635102 6.42969710 5.33193938
O 5.98525383 3.08745046 4.68189382
O 4.47677399 1.86159608 9.13287524
O 0.24997273 5.91119334 5.72170401
O 8.08156656 6.25795167 5.00408833
O 6.15144976 9.08098535 8.85295602
O 10.92012610 10.89316038 7.30609362
O 4.07847986 3.29578743 7.22737093
O 4.68438710 9.54743117 1.58191169
O 10.83788420 2.06012646 3.76185617
O 2.65542219 2.41748960 5.12226963
O 3.73019195 8.03321928 10.14753046
O 10.19526872 3.92318553 8.76601902
O 8.28672747 11.56098473 4.60816942
O 6.36479829 11.09985699 0.20842009
O 0.54444871 8.33151919 3.63407404
O 8.19878595 7.06604798 8.29766043
O 4.74172051 0.50521784 5.55627305
O 0.33192581 3.26267820 1.56849006
O 0.77460742 10.25644677 2.60837780
O 8.78576948 10.47172811 0.56564613
O 3.64687732 4.78025716 1.58420787
O 7.72074941 4.00395802 3.55094579
O 1.11720701 0.89911198 6.03188991
O 3.67545917 6.61725798 8.59420178
O 11.06960293 1.58984039 7.96927976
O 10.67950552 8.42926929 9.82490927
135
Time=400000.00000008 pbc="T T T" Lattice="11.62817333 0.00000000 0.00000000 0.00000000 11.62817333 0.00000000 0.00000000 0.00000000 11.62817333" energy=-862.22443071 virial="258.13351792 -14.24518237 -23.98099956 -14.24518237 213.15744033 9.55109044 -23.98099956 9.55109044 198.36116683" stress="0.20117106 -0.00906011 -0.01525221 -0.00906011 0.17256572 0.00607461 -0.01525221 0.00607461 0.16315511" Properties=species:S:1:pos:R:3
Ca 11.31829128 9.54966383 10.28393257
Ca 11.20526943 4.56410392 2.22430326
Ca 7.72388283 1.29723186 9.33594826
Ca 6.74620731 0.84668470 1.02951809
Ca 8.77153637 10.69707450 0.81332176
Ca 1.87064220 9.39513068 7.67791544
Ca 8.14741119 7.35350456 9.33479898
Ca 11.44804700 3.08066776 9.04052833
Ca 1.36959467 1.49689396 7.94641463
Ca 5.33626479 3.33197849 0.74303657
Ca 6.63029702 4.21327136 9.79434726
Ca 3.12204585 6.22482957 10.36787606
Ca 6.18858735 0.41107781 4.61716961
Ca 11.29466641 10.71665485 5.51243446
Ca 4.33731758 8.73757999 5.62955988
Ca 3.96999926 2.50468649 4.70130923
Ca 9.34459103 6.54395510 6.54362681
Ca 9.26178896 1.26314115 6.40079630
Ca 8.03149281 3.58430253 3.39992301
Ca 1.63907667 1.82406408 2.03019674
Ca 6.57355369 6.64033971 3.97828058
Ca 10.02608628 8.35677207 3.15813374
Ca 1.88545037 6.54077838 4.60111804
Ca 5.81803272 9.94055241 9.78774762
Ca 2.80692459 11.52064935 10.44613131
Ca 3.04371629 4.91584956 7.59560910
Ca 0.30202721 1.84098263 4.78866721
Si 8.37734772 5.78151580 0.61463556
Si 3.78951551 0.06722574 6.69548701
Si 4.79578374 6.44430244 1.71786840
Si 7.45290891 7.90204174 1.32016914
Si 8.94905282 4.03340935 7.56253104
Si 2.13424630 3.80056121 4.38035442
Si 6.07269611 2.03574129 7.08818452
Si 5.13535010 7.57926122 7.42673245
Si 10.75995892 11.46518300 8.13085279
Si 3.08899453 4.58216601 1.69794857
Si 1.18459381 8.53973127 1.44325229
Si 9.40899336 2.39782955 0.64061449
Si 1.61032192 3.62962054 11.07689346
Si 10.49423471 7.29527815 0.31694348
Si 0.06059021 4.85329742 6.43647001
Si 0.34319943 6.74473423 8.81569263
Si 9.19593195 0.20404555 3.45621273
Si 11.20157124 7.88827673 5.61695387
Si 4.41759927 0.16948089 2.12020105
Si 3.57011312 8.48680949 2.55652012
Si 6.44775103 4.68532832 6.26967366
Si 11.36650547 1.09374711 11.00138296
Si 0.36609286 10.96997743 2.67132599
Si 9.35045003 9.12548703 7.57072301
Si 4.81772487 2.15204289 9.68400043
Si 5.29802893 10.70378674 0.33123888
Si 7.76553078 9.42506459 4.69600062
O 2.95428803 0.06215365 2.64294946
O 0.60924669 11.14665621 8.54577155
O 8.62687156 5.34279689 8.14501231
O 10.53650602 11.57908354 10.86096450
O 0.72082430 4.06520615 7.48454012
O 9.99632521 4.31423135 6.11185651
O 8.18074501 5.08918427 10.70404062
O 11.42895127 7.19001585 10.37862006
O 1.95208216 4.45658848 3.01340226
O 9.44794213 10.40689014 6.78622232
O 9.43046413 2.51054244 7.99831512
O 0.17529923 3.99479111 5.02054781
O 3.90215557 6.76609709 6.47810701
O 5.34005799 2.98001500 8.43825090
O 1.80015776 6.74508003 8.54142386
O 10.44866239 10.37987769 2.52168624
O 2.40461140 8.94288945 0.44815741
O 8.05826011 2.53755781 11.37125463
O 5.48536741 1.68489814 2.81357085
O 2.33638065 7.42108212 2.59010234
O 4.42237184 5.25061078 9.37236113
O 8.55959439 6.35152573 2.32940324
O 1.27156535 2.00549026 10.66754858
O 9.62802306 0.13322014 9.02446347
O 8.96572821 8.02688806 0.20212801
O 9.35126971 9.44555784 9.21562198
O 1.24604508 11.61768808 4.08638237
O 3.90842142 10.02771455 11.31760420
O 7.99775890 8.36473991 7.24968043
O 8.29732515 10.39763933 3.70075193
O 4.46033760 6.57083837 3.27152763
O 3.35637634 4.80907946 4.98467535
O 2.94151772 3.15498024 0.79952394
O 7.60870723 3.15281502 6.93439252
O 1.87743872 4.38613123 9.58719702
O 4.08936796 3.49725941 2.80504346
O 3.75934230 9.43414840 3.80600626
O 5.58448008 3.26251285 6.10075752
O 3.09702572 2.22469673 9.74064110
O 4.57239309 7.95338507 1.26187874
O 1.84506623 2.32159533 4.04986858
O 0.12448036 6.84865427 1.46830852
O 10.52586737 2.83378712 10.74918071
O 0.79070696 0.02417601 0.97567479
O 9.25515613 3.42264733 1.86863024
O 10.95075681 1.91310964 1.05671340
O 5.62570547 10.92634582 1.92019575
O 10.15055988 8.80981802 5.73983953
O 6.21513477 4.39300239 2.30821549
O 7.01815001 10.31696333 5.70534815
O 7.18212003 4.69529660 5.10349105
O 10.59779738 0.53487481 3.85276887
O 8.41481592 1.21966566 4.47090984
O 1.43803452 5.05379775 0.45785659
O 8.56005104 0.85091717 1.87924583
O 11.11923541 7.16062558 4.40665028
O 6.05940028 1.89645769 10.60593184
O 0.97155650 9.40883041 3.06823594
O 11.19370808 0.99501796 6.88064802
O 6.00734036 7.59002741 5.84811644
O 11.02613173 5.20188228 8.81648540
O 11.08855525 9.08364296 0.70880551
O 10.09694411 5.86068646 0.00067560
O 6.95277087 8.76022897 2.50080935
O 6.03724165 6.03457490 7.47571356
O 0.01672131 6.47856237 6.43811584
O 7.03692878 8.88508236 11.37407611
O 0.92651617 8.60327780 6.15825768
O 6.37044650 6.11352939 0.38744986
O 4.09038732 5.46946285 0.90052300
O 2.41483675 0.15746093 6.95376801
O 5.17301522 8.01817307 9.07425950
O 8.45119885 7.94922338 4.24152219
O 10.73045140 7.86066169 8.19766027
O 4.51747393 0.56153144 0.60888828
O 4.82648771 1.26715111 6.24144539
O 6.92725815 0.78540641 7.47931064
O 3.69085316 9.89888798 7.48575229
O 4.02481515 11.47047283 5.09214398
O 4.47126758 0.31567153 9.07416501
O 6.49389620 11.13107186 11.19938018
135
Time=500000.00000301 pbc="T T T" Lattice="11.62817333 0.00000000 0.00000000 0.00000000 11.62817333 0.00000000 0.00000000 0.00000000 11.62817333" energy=-868.82768672 virial="165.47512374 -16.71486540 29.84695359 -16.71486540 172.25346214 17.98995640 29.84695359 17.98995640 191.87872867" stress="0.14223918 -0.01063086 0.01898303 -0.01063086 0.14655029 0.01144183 0.01898303 0.01144183 0.15903220" Properties=species:S:1:pos:R:3
Ca 7.10843845 11.58452789 7.79796488
Ca 1.41535977 1.76185063 2.05207682
Ca 6.77429056 6.23791341 1.13573001
Ca 11.50440013 10.89427881 7.33730452
Ca 7.64547615 8.15776934 6.59928597
Ca 1.40267561 10.62226377 10.16415393
Ca 8.03594141 9.38082377 3.76279288
Ca 4.70285483 6.34001039 6.75092068
Ca 9.94464906 8.07456423 0.31177527
Ca 5.60560840 11.19436931 11.31690237
Ca 11.18727264 5.05474120 8.93554860
Ca 3.84784881 4.73432308 3.83026378
Ca 4.46192321 7.94281020 1.06950821
Ca 11.32307030 8.04296582 9.12904848
Ca 4.04704921 9.36353515 8.48015921
Ca 5.62705277 6.30347572 9.48230700
Ca 8.39944921 4.60432251 3.44122460
Ca 8.79577986 5.32714965 6.33613544
Ca 0.40247066 10.81331770 3.94478558
Ca 2.48036096 1.98324054 7.68886741
Ca 6.20780005 3.78487924 0.04035460
Ca 5.38226171 1.85258695 5.53066610
Ca 1.71757620 4.63645093 1.07970591
Ca 1.67115163 8.03514080 6.54992923
Ca 6.97627214 2.11576388 3.10876429
Ca 1.32138367 7.31843833 3.69232505
Ca 10.98542286 10.96338280 1.12919252
Si 4.55554184 9.56460030 4.96633078
Si 9.51402893 3.27990397 0.76056084
Si 4.27568183 1.96972365 2.26679615
Si 9.49653953 1.38650692 2.81483247
Si 7.63373655 10.40386874 1.00467158
Si 4.48578820 0.87585984 9.31590397
Si 6.49265821 9.06106710 10.03772285
Si 1.83336188 1.81447645 5.04440992
Si 5.82273201 4.32784028 5.75021107
Si 8.69315680 10.96077614 9.99796131
Si 8.89696736 0.29283733 5.40642048
Si 10.29759586 7.45705449 4.22259410
Si 3.23805389 3.66502287 10.44492431
Si 1.52698638 4.80955297 6.01918426
Si 10.29181603 5.90038824 1.49624302
Si 2.88229828 11.18261393 1.08638163
Si 10.61831583 7.94832255 6.55471324
Si 8.52602931 4.82797767 10.51652527
Si 0.08817249 2.96081426 10.87816770
Si 10.17302783 1.32413922 8.24185926
Si 11.34721504 3.92479261 4.01602675
Si 2.78210640 6.81965063 9.24610244
Si 7.46181942 3.08946031 8.63096904
Si 6.20216291 7.15161236 3.94903026
Si 1.53178201 8.10729896 0.15978050
Si 3.57544030 11.38015008 6.78671584
Si 5.10753114 10.91445815 2.81847720
O 7.02659616 3.27949144 5.43447156
O 5.72419264 10.32754310 9.23401762
O 8.00325985 9.46338311 10.06807062
O 2.00173214 8.40837006 9.76988414
O 0.60152530 4.80939147 2.93857406
O 8.99290304 2.30344669 3.79580853
O 1.84071479 10.24702018 7.61778148
O 1.27058229 11.51864489 1.21235697
O 7.95158276 11.56191009 11.21534625
O 1.98932992 4.60841053 7.78246220
O 9.09891229 5.26207413 8.96247539
O 6.71446279 11.30594451 2.24115686
O 3.62117706 0.47446640 2.58030345
O 2.77781459 0.65187541 9.18477052
O 6.33475593 7.94558264 2.50375875
O 4.13137670 11.46783706 5.02223625
O 6.74254214 4.46307028 8.94031098
O 4.99616605 7.92149884 5.00625417
O 8.58052913 3.54824443 11.11468772
O 9.08398793 0.31516129 8.79679579
O 4.61802038 9.92767574 6.78666861
O 9.78209293 6.93762210 2.73309053
O 0.00081721 6.86439151 7.57592508
O 7.01313463 5.58575721 10.92637813
O 4.22681954 2.56021145 9.71250856
O 9.09745289 11.54951881 3.66118778
O 2.46308263 9.43688419 0.95002975
O 5.75027378 10.19842121 4.00318266
O 7.52993048 7.00589821 4.90424603
O 8.88568396 6.05651271 0.76515238
O 10.85706303 0.51641145 5.56854229
O 6.71835453 4.32367176 1.80069530
O 7.12196113 0.81311930 5.40429854
O 0.30309926 9.36166586 6.20080052
O 0.54465529 2.36399973 4.01445776
O 11.07824782 0.61847285 2.78586216
O 2.19185668 0.76991371 4.04341058
O 1.70032265 2.80820482 11.51463789
O 4.11524338 4.58838558 0.22833820
O 7.33301173 7.90053137 9.19455360
O 5.51440631 5.58641160 4.27014853
O 3.73336559 0.10471365 11.25306695
O 3.07967867 2.96848578 1.92593258
O 8.24159808 10.44087583 5.87219224
O 3.13915958 7.55991241 7.86526787
O 3.62123651 5.41665861 9.64510653
O 5.82950483 1.04337938 9.99939583
O 11.56898083 9.06483257 0.04878847
O 9.66959397 8.54057620 7.61457600
O 9.29336321 7.18859081 5.64806294
O 10.07802625 4.57817262 4.40757997
O 9.05502064 2.82704847 8.24188252
O 4.22555716 9.85179360 1.79857083
O 4.40376240 0.77132789 7.69247033
O 4.33096897 4.09505405 6.30916231
O 10.56686875 4.65011160 10.99361631
O 9.38286396 1.52296440 6.71183546
O 6.75530983 5.30154310 6.90083760
O 10.20834215 10.65726814 10.62800232
O 3.03497326 8.91213411 4.37157581
O 2.52675976 6.36177037 2.21555272
O 11.62403809 3.54663349 6.42150433
O 10.54109893 8.94127776 3.84127082
O 5.00974447 8.30907594 10.43516724
O 6.72708027 9.19543929 0.48310013
O 1.98496406 0.44104612 6.50252932
O 11.57137779 6.97108428 4.86104299
O 6.63123576 1.78134236 7.98352066
O 11.62740768 6.90376073 1.54421191
O 5.44792687 1.11675568 1.31196038
O 2.17655880 6.80339495 11.32097604
O 10.44054813 2.07792420 11.13134189
O 8.98717392 1.79992721 1.37704227
O 1.03396414 6.60984525 9.31895869
O 5.16926985 2.78639256 3.57349727
O 11.54699031 0.83724901 8.84958430
O 1.09873050 3.16165899 9.42807641
O 8.94073020 9.97419374 1.43617184
O 2.44398904 3.34876385 5.31837462
O 10.19963141 4.24351754 1.78260625
O 2.42157739 5.93656650 5.40093002
135
Time=600000.00000594 pbc="T T T" Lattice="11.62817333 0.00000000 0.00000000 0.00000000 11.62817333 0.00000000 0.00000000 0.00000000 11.62817333" energy=-873.39488121 virial="125.61545332 8.64550797 28.07356404 8.64550797 186.87497204 -3.15185753 28.07356404 -3.15185753 123.65088375" stress="0.11688794 0.00549865 0.01785513 0.00549865 0.15584975 -0.00200462 0.01785513 -0.00200462 0.11563845" Properties=species:S:1:pos:R:3
Ca 9.87788909 10.71758643 5.82919303
Ca 7.11977455 11.29051628 7.25742130
Ca 8.09503868 5.82695531 5.49905346
Ca 10.28155130 8.21971166 0.00363883
Ca 3.65131403 7.01488393 5.67225472
Ca 3.81358544 11.23433282 9.79745919
Ca 0.43034898 2.41599734 3.67470375
Ca 3.40089255 8.26889963 9.19006488
Ca 5.11607618 9.42911462 0.72082939
Ca 2.02257560 5.76494591 11.26363247
Ca 7.11902569 8.17525914 6.70922554
Ca 3.77354600 9.75923800 3.29851871
Ca 7.02764225 9.12728113 9.68668527
Ca 1.13138312 7.41643074 3.89602806
Ca 1.06450995 9.22253735 6.42102602
Ca 2.32901908 3.86971811 6.10380931
Ca 6.87891485 3.96210943 8.06851499
Ca 7.65129053 8.22039835 2.20832226
Ca 0.74958759 0.78236672 0.86459359
Ca 8.55218684 2.60820449 5.47181663
Ca 1.35828467 0.93630674 5.74484283
Ca 6.22021692 1.17392285 0.64031412
Ca 7.17360825 4.18444988 0.52258770
Ca 9.03338933 0.57377416 2.38962940
Ca 4.07351799 6.62164474 1.46530137
Ca 4.53270352 1.96731388 7.46589771
Ca 9.66958338 2.38509941 10.24579885
Si 1.01267219 5.64560701 7.84730732
Si 5.75030206 5.74089219 3.72575522
Si 4.28588031 10.26812327 6.37852212
Si 9.73209397 8.17459290 4.32355668
Si 8.24354880 4.35733273 3.06369848
Si 7.17863588 1.41113037 9.54576513
Si 9.83251062 6.72395671 7.72041788
Si 0.86425073 0.35680252 9.31411252
Si 5.30039236 6.32894121 9.53341089
Si 11.36606037 4.81288227 5.44789756
Si 3.42645074 2.99196517 11.43562887
Si 9.76652615 9.68860551 8.42350420
Si 8.23694913 6.39523332 9.94108136
Si 0.77440389 10.60127899 3.78369202
Si 4.75229947 1.75709167 4.61608380
Si 0.83389596 9.39201063 10.02447794
Si 2.17050884 9.27094317 0.72561590
Si 11.22074823 3.24743421 0.42022210
Si 10.06475055 5.43120720 10.99011881
Si 3.14407326 0.82576893 2.47943496
Si 1.73585028 4.57228391 2.44185245
Si 10.60744691 9.88739279 2.24332737
Si 2.42128992 3.22999240 8.88325919
Si 4.51354988 3.69457270 2.64563537
Si 9.22841602 11.09882742 10.89753229
Si 10.58014940 1.82757721 7.42574993
Si 7.00715748 10.85618865 3.80672545
O 6.04651467 6.17278802 5.65621888
O 11.18511145 0.10017330 10.40708612
O 7.40009755 4.07150133 4.46488687
O 7.58211688 0.82861184 3.76686716
O 6.84642478 1.64031815 7.99647528
O 7.96800465 5.86871334 2.78387395
O 9.78459414 4.12804536 0.33163404
O 4.56207367 0.61094723 3.09401334
O 11.45828473 5.99361178 11.11318013
O 0.06784821 3.18735555 6.12944378
O 8.95698684 6.52239569 11.58490602
O 11.13365754 2.34663680 1.94398705
O 11.44681163 6.28122451 8.47431732
O 3.35888295 4.10680619 1.37379830
O 1.73838997 11.08175199 8.12965799
O 4.16374640 5.12937994 3.90854071
O 4.83157317 2.96763976 10.73716069
O 1.52433284 10.79435763 10.49136514
O 1.55858808 0.52787703 2.93973843
O 5.70662041 2.38011165 5.66112274
O 3.54225497 0.05265910 6.35549323
O 2.27814314 10.92760069 4.23696870
O 7.96741181 8.32280789 4.61808728
O 5.67768384 8.00279909 8.73168317
O 2.24233893 6.17279412 2.55000584
O 11.31026401 9.09924999 8.85729650
O 10.43246691 10.95373204 3.85227704
O 9.72505229 3.92104739 3.96525139
O 9.89891140 8.17969901 7.51617891
O 2.29783093 3.07882443 2.82327581
O 5.38258992 2.71593726 3.21574418
O 6.26604840 10.25986534 2.48346158
O 0.30380075 1.85203135 8.35708710
O 2.42790978 1.41754241 9.69146847
O 1.53620611 4.50959912 8.49488276