 running on   52 total cores
 distrk:  each k-point on   52 cores,    1 groups
 distr:  one band on   13 cores,    4 groups
 using from now: INCAR     
 vasp.5.4.4.18Apr17-6-g9f103f2a35 (build Oct 31 2019 15:01:46) complex          
  
 POSCAR found type information on POSCAR  Sc F  C 
 POSCAR found :  3 types and      80 ions
 scaLAPACK is switched off
 LDA part: xc-table for Pade appr. of Perdew
 generate k-points for:    3    3    1
 POSCAR, INCAR and KPOINTS ok, starting setup
 FFT: planning ...
 WAVECAR not read
 entering main loop
       N       E                     dE             d eps       ncg     rms          rms(c)
DAV:   1     0.136446140526E+05    0.13645E+05   -0.27886E+05  4232   0.156E+03
DAV:   2     0.248882959771E+04   -0.11156E+05   -0.10849E+05  4568   0.533E+02
DAV:   3    -0.382495021633E+03   -0.28713E+04   -0.27601E+04  6800   0.294E+02
DAV:   4    -0.737980905365E+03   -0.35549E+03   -0.35126E+03  6056   0.139E+02
DAV:   5    -0.752267736752E+03   -0.14287E+02   -0.14227E+02  6080   0.350E+01    0.772E+01
DAV:   6    -0.597030583963E+03    0.15524E+03   -0.84039E+02  5752   0.647E+01    0.253E+01
DAV:   7    -0.596990971152E+03    0.39613E-01   -0.54577E+01  5944   0.218E+01    0.166E+01
DAV:   8    -0.595476342362E+03    0.15146E+01   -0.10316E+01  5424   0.857E+00    0.466E+00
DAV:   9    -0.594973116570E+03    0.50323E+00   -0.24336E+00  5512   0.524E+00    0.223E+00
DAV:  10    -0.594930813554E+03    0.42303E-01   -0.31047E-01  5896   0.169E+00    0.127E+00
DAV:  11    -0.594812145508E+03    0.11867E+00   -0.15279E-01  5504   0.111E+00    0.816E-01
DAV:  12    -0.594781414209E+03    0.30731E-01   -0.47949E-02  6008   0.556E-01    0.338E-01
DAV:  13    -0.594772527363E+03    0.88868E-02   -0.28282E-02  5808   0.391E-01    0.277E-01
DAV:  14    -0.594769442720E+03    0.30846E-02   -0.11234E-02  5728   0.251E-01    0.155E-01
DAV:  15    -0.594775115993E+03   -0.56733E-02   -0.96186E-03  5864   0.194E-01    0.108E-01
DAV:  16    -0.594778363810E+03   -0.32478E-02   -0.19233E-03  5648   0.130E-01    0.863E-02
DAV:  17    -0.594784167618E+03   -0.58038E-02   -0.26738E-03  5952   0.993E-02    0.911E-02
DAV:  18    -0.594786916261E+03   -0.27486E-02   -0.88182E-04  5456   0.793E-02    0.488E-02
DAV:  19    -0.594788827883E+03   -0.19116E-02   -0.60447E-04  5880   0.529E-02    0.261E-02
DAV:  20    -0.594791673778E+03   -0.28459E-02   -0.12733E-04  5272   0.234E-02    0.262E-02
DAV:  21    -0.594794098093E+03   -0.24243E-02   -0.14725E-04  4536   0.207E-02    0.108E-02
DAV:  22    -0.594794986031E+03   -0.88794E-03   -0.85371E-05  4928   0.143E-02    0.102E-02
DAV:  23    -0.594795510897E+03   -0.52487E-03   -0.24149E-05  4640   0.114E-02    0.398E-03
DAV:  24    -0.594795848331E+03   -0.33743E-03   -0.10734E-05  4528   0.578E-03    0.242E-03
DAV:  25    -0.594796048170E+03   -0.19984E-03   -0.67328E-06  4088   0.364E-03    0.166E-03
DAV:  26    -0.594796112946E+03   -0.64777E-04   -0.10426E-06  2936   0.215E-03    0.150E-03
DAV:  27    -0.594796145928E+03   -0.32981E-04   -0.46281E-07  2672   0.192E-03    0.988E-04
DAV:  28    -0.594796171181E+03   -0.25253E-04   -0.81591E-07  2960   0.209E-03    0.772E-04
DAV:  29    -0.594796176801E+03   -0.56203E-05   -0.41351E-07  2592   0.195E-03    0.977E-04
DAV:  30    -0.594796180438E+03   -0.36370E-05   -0.26021E-07  2552   0.134E-03    0.863E-04
DAV:  31    -0.594796182271E+03   -0.18327E-05   -0.14516E-07  2560   0.123E-03    0.637E-04
DAV:  32    -0.594796182920E+03   -0.64936E-06   -0.11625E-07  2520   0.853E-04
   1 F= -.59479618E+03 E0= -.59479618E+03  d E =-.113382E-17
