 vasp.5.4.4.18Apr17-6-g9f103f2a35 (build Mar 16 2023 09:39:13) complex          
  
 executed on             LinuxIFC date 2024.04.29  20:42:04
 running on   48 total cores
 distrk:  each k-point on   48 cores,    1 groups
 distr:  one band on NCORES_PER_BAND=  12 cores,    4 groups


--------------------------------------------------------------------------------------------------------


 INCAR:
 POTCAR:    PAW_PBE Ca_sv 06Sep2000               
 POTCAR:    PAW_PBE Si 05Jan2001                  
 POTCAR:    PAW_PBE O 08Apr2002                   
 POTCAR:    PAW_PBE Ca_sv 06Sep2000               
   SHA256 =  a47365830e737f14e0e6c5cf1ed81b94e081eecf0a33df105380881bc9da05d5 Ca
   COPYR  = (c) Copyright 06Sep2000 Georg Kresse                                
   COPYR  = This file is part of the software VASP. Any use, copying, and all ot
   COPYR  = If you do not have a valid VASP license, you may not use, copy or di
   VRHFIN =Ca: 3s3p4s                                                           
   LEXCH  = PE                                                                  
   EATOM  =  1006.0909 eV,   73.9456 Ry                                         
                                                                                
   TITEL  = PAW_PBE Ca_sv 06Sep2000                                             
   LULTRA =        F    use ultrasoft PP ?                                      
   IUNSCR =        1    unscreen: 0-lin 1-nonlin 2-no                           
   RPACOR =    2.000    partial core radius                                     
   POMASS =   40.078; ZVAL   =   10.000    mass and valenz                      
   RCORE  =    2.300    outmost cutoff radius                                   
   RWIGS  =    2.500; RWIGS  =    1.323    wigner-seitz radius (au A)           
   ENMAX  =  266.622; ENMIN  =  199.967 eV                                      
   RCLOC  =    1.808    cutoff for local pot                                    
   LCOR   =        T    correct aug charges                                     
   LPAW   =        T    paw PP                                                  
   EAUG   =  420.852                                                            
   RMAX   =    2.359    core radius for proj-oper                               
   RAUG   =    1.300    factor for augmentation sphere                          
   RDEP   =    2.392    radius for radial grids                                 
   RDEPT  =    1.987    core radius for aug-charge                              
                                                                                
   Atomic configuration                                                         
    7 entries                                                                   
     n  l   j            E        occ.                                          
     1  0  0.50     -3949.1705   2.0000                                         
     2  0  0.50      -414.3434   2.0000                                         
     2  1  1.50      -334.7047   6.0000                                         
     3  0  0.50       -47.0896   2.0000                                         
     4  0  0.50        -3.7663   2.0000                                         
     3  1  1.50       -28.0061   6.0000                                         
     3  2  1.50        -4.0817   0.0000                                         
   Description                                                                  
     l       E           TYP  RCUT    TYP  RCUT                                 
     0    -47.0896403     23  2.300                                             
     0     -3.7663320     23  2.300                                             
     1    -28.0060855     23  2.300                                             
     1      6.8029130     23  2.300                                             
     2     -4.0817478     23  2.300                                             
     2      0.4464412     23  2.300                                             
  local pseudopotential read in
  partial core-charges read in
  partial kinetic energy density read in
  atomic valenz-charges read in
  non local Contribution for L=           0  read in
    real space projection operators read in
  non local Contribution for L=           0  read in
    real space projection operators read in
  non local Contribution for L=           1  read in
    real space projection operators read in
  non local Contribution for L=           1  read in
    real space projection operators read in
  non local Contribution for L=           2  read in
    real space projection operators read in
  non local Contribution for L=           2  read in
    real space projection operators read in
    PAW grid and wavefunctions read in
 
   number of l-projection  operators is LMAX  =           6
   number of lm-projection operators is LMMAX =          18
 
 POTCAR:    PAW_PBE Si 05Jan2001                  
   SHA256 =  79d9987ad8750f624c4d6acb2a16d13abf6a777132adc04dc6c8399be72b42bb Si
   COPYR  = (c) Copyright 05Jan2001 Georg Kresse                                
   COPYR  = This file is part of the software VASP. Any use, copying, and all ot
   COPYR  = If you do not have a valid VASP license, you may not use, copy or di
   VRHFIN =Si: s2p2                                                             
   LEXCH  = PE                                                                  
   EATOM  =   103.0669 eV,    7.5752 Ry                                         
                                                                                
   TITEL  = PAW_PBE Si 05Jan2001                                                
   LULTRA =        F    use ultrasoft PP ?                                      
   IUNSCR =        1    unscreen: 0-lin 1-nonlin 2-no                           
   RPACOR =    1.500    partial core radius                                     
   POMASS =   28.085; ZVAL   =    4.000    mass and valenz                      
   RCORE  =    1.900    outmost cutoff radius                                   
   RWIGS  =    2.480; RWIGS  =    1.312    wigner-seitz radius (au A)           
   ENMAX  =  245.345; ENMIN  =  184.009 eV                                      
   ICORE  =        2    local potential                                         
   LCOR   =        T    correct aug charges                                     
   LPAW   =        T    paw PP                                                  
   EAUG   =  322.069                                                            
   DEXC   =    0.000                                                            
   RMAX   =    1.950    core radius for proj-oper                               
   RAUG   =    1.300    factor for augmentation sphere                          
   RDEP   =    1.993    radius for radial grids                                 
   RDEPT  =    1.837    core radius for aug-charge                              
                                                                                
   Atomic configuration                                                         
    6 entries                                                                   
     n  l   j            E        occ.                                          
     1  0  0.50     -1785.8828   2.0000                                         
     2  0  0.50      -139.4969   2.0000                                         
     2  1  1.50       -95.5546   6.0000                                         
     3  0  0.50       -10.8127   2.0000                                         
     3  1  0.50        -4.0811   2.0000                                         
     3  2  1.50        -4.0817   0.0000                                         
   Description                                                                  
     l       E           TYP  RCUT    TYP  RCUT                                 
     0    -10.8127223     23  1.900                                             
     0     -7.6451159     23  1.900                                             
     1     -4.0811372     23  1.900                                             
     1      2.4879257     23  1.900                                             
     2     -4.0817478      7  1.900                                             
  local pseudopotential read in
  partial core-charges read in
  partial kinetic energy density read in
  atomic valenz-charges read in
  non local Contribution for L=           0  read in
    real space projection operators read in
  non local Contribution for L=           0  read in
    real space projection operators read in
  non local Contribution for L=           1  read in
    real space projection operators read in
  non local Contribution for L=           1  read in
    real space projection operators read in
    PAW grid and wavefunctions read in
 
   number of l-projection  operators is LMAX  =           4
   number of lm-projection operators is LMMAX =           8
 
 POTCAR:    PAW_PBE O 08Apr2002                   
   SHA256 =  818f92134a0a090dccd8ba1447fa70422a3b330e708bb4f08108d8ae51209ddf O/
   COPYR  = (c) Copyright 08Apr2002 Georg Kresse                                
   COPYR  = This file is part of the software VASP. Any use, copying, and all ot
   COPYR  = If you do not have a valid VASP license, you may not use, copy or di
   VRHFIN =O: s2p4                                                              
   LEXCH  = PE                                                                  
   EATOM  =   432.3788 eV,   31.7789 Ry                                         
                                                                                
   TITEL  = PAW_PBE O 08Apr2002                                                 
   LULTRA =        F    use ultrasoft PP ?                                      
   IUNSCR =        1    unscreen: 0-lin 1-nonlin 2-no                           
   RPACOR =    1.200    partial core radius                                     
   POMASS =   16.000; ZVAL   =    6.000    mass and valenz                      
   RCORE  =    1.520    outmost cutoff radius                                   
   RWIGS  =    1.550; RWIGS  =    0.820    wigner-seitz radius (au A)           
   ENMAX  =  400.000; ENMIN  =  300.000 eV                                      
   ICORE  =        2    local potential                                         
   LCOR   =        T    correct aug charges                                     
   LPAW   =        T    paw PP                                                  
   EAUG   =  605.392                                                            
   DEXC   =    0.000                                                            
   RMAX   =    1.553    core radius for proj-oper                               
   RAUG   =    1.300    factor for augmentation sphere                          
   RDEP   =    1.550    radius for radial grids                                 
   RDEPT  =    1.329    core radius for aug-charge                              
                                                                                
   Atomic configuration                                                         
    4 entries                                                                   
     n  l   j            E        occ.                                          
     1  0  0.50      -514.6923   2.0000                                         
     2  0  0.50       -23.9615   2.0000                                         
     2  1  0.50        -9.0305   4.0000                                         
     3  2  1.50        -9.5241   0.0000                                         
   Description                                                                  
     l       E           TYP  RCUT    TYP  RCUT                                 
     0    -23.9615318     23  1.200                                             
     0     -9.5240782     23  1.200                                             
     1     -9.0304911     23  1.520                                             
     1      8.1634956     23  1.520                                             
     2     -9.5240782      7  1.500                                             
  local pseudopotential read in
  partial core-charges read in
  partial kinetic energy density read in
  kinetic energy density of atom read in
  atomic valenz-charges read in
  non local Contribution for L=           0  read in
    real space projection operators read in
  non local Contribution for L=           0  read in
    real space projection operators read in
  non local Contribution for L=           1  read in
    real space projection operators read in
  non local Contribution for L=           1  read in
    real space projection operators read in
    PAW grid and wavefunctions read in
 
   number of l-projection  operators is LMAX  =           4
   number of lm-projection operators is LMMAX =           8
 
 Optimization of the real space projectors (new method)

 maximal supplied QI-value         = 16.25
 optimisation between [QCUT,QGAM] = [ 12.51, 25.03] = [ 43.85,175.40] Ry 
 Optimized for a Real-space Cutoff    1.47 Angstroem

   l    n(q)    QCUT    max X(q) W(low)/X(q) W(high)/X(q)  e(spline) 
   0     11    12.514    11.817    0.25E-04    0.32E-05    0.87E-07
   0     11    12.514     8.461    0.39E-04    0.59E-05    0.18E-06
   1     11    12.514     3.957    0.97E-05    0.57E-05    0.28E-07
   1     11    12.514     4.314    0.42E-04    0.14E-04    0.23E-06
   2     10    12.514    14.565    0.79E-04    0.50E-03    0.16E-05
   2     10    12.514    14.552    0.75E-04    0.48E-03    0.15E-05
 Optimization of the real space projectors (new method)

 maximal supplied QI-value         = 19.84
 optimisation between [QCUT,QGAM] = [ 12.50, 25.00] = [ 43.76,175.03] Ry 
 Optimized for a Real-space Cutoff    1.16 Angstroem

   l    n(q)    QCUT    max X(q) W(low)/X(q) W(high)/X(q)  e(spline) 
   0      9    12.501   159.560    0.10E-03    0.83E-04    0.71E-07
   0      9    12.501   115.863    0.99E-04    0.81E-04    0.70E-07
   1      8    12.501    88.339    0.20E-03    0.25E-03    0.76E-07
   1      8    12.501    48.592    0.20E-03    0.24E-03    0.75E-07
 Optimization of the real space projectors (new method)

 maximal supplied QI-value         = 24.76
 optimisation between [QCUT,QGAM] = [ 12.38, 25.00] = [ 42.90,175.06] Ry 
 Optimized for a Real-space Cutoff    1.16 Angstroem

   l    n(q)    QCUT    max X(q) W(low)/X(q) W(high)/X(q)  e(spline) 
   0      9    12.378    20.381    0.16E-03    0.67E-05    0.31E-06
   0      9    12.378    15.268    0.17E-03    0.81E-05    0.33E-06
   1      8    12.378     5.964    0.20E-03    0.16E-03    0.30E-06
   1      8    12.378     5.382    0.18E-03    0.14E-03    0.26E-06
  PAW_PBE Ca_sv 06Sep2000               :
 energy of atom  1       EATOM=-1006.0909
 kinetic energy error for atom=    0.0012 (will be added to EATOM!!)
  PAW_PBE Si 05Jan2001                  :
 energy of atom  2       EATOM= -103.0669
 kinetic energy error for atom=    0.0003 (will be added to EATOM!!)
  PAW_PBE O 08Apr2002                   :
 energy of atom  3       EATOM= -432.3788
 kinetic energy error for atom=    0.0168 (will be added to EATOM!!)
 
 
 POSCAR: Ca Si  O                                
  positions in direct lattice
  No initial velocities read in
 exchange correlation table for  LEXCH =        8
   RHO(1)=    0.500       N(1)  =     2000
   RHO(2)=  100.500       N(2)  =     4000
 


--------------------------------------------------------------------------------------------------------


 ion  position               nearest neighbor table
   1  0.610  0.951  0.234-  77 2.01  96 2.20  58 2.28
   2  0.401  0.146  0.217-  58 2.49  98 2.54  94 2.55
   3  0.927  0.201  0.602-  65 2.16  76 2.37  97 2.44  41 2.73
   4  0.150  0.261  0.790-  74 2.19 116 2.38  90 2.40 124 2.43
   5  0.531  0.569  0.102-  82 1.92
   6  0.393  0.916  0.883- 103 2.13  63 2.28  53 3.06
   7  0.619  0.430  0.393-  89 2.12 114 2.30  67 2.50  26 2.92  45 3.14
   8  0.532  0.773  0.674- 106 2.02 101 2.48  35 3.05
   9  0.180  0.420  0.482- 105 2.04  68 2.18  71 2.37  33 2.86  51 3.06  31 3.12
  10  0.955  0.541  0.047- 135 2.38 107 2.39  84 2.47
  11  0.047  0.581  0.294- 120 2.19  79 2.28  84 2.37
  12  0.599  0.154  0.553-  91 2.24  85 2.28  93 2.35
  13  0.928  0.072  0.241-  70 2.24 100 2.32 119 2.55
  14  0.037  0.885  0.436-  80 2.14 118 2.51
  15  0.150  0.778  0.094- 117 2.35 102 2.55
  16  0.299  0.660  0.383- 120 1.96 126 2.15
  17  0.916  0.051  0.823-  76 2.44  87 2.50  90 2.57  44 2.88  39 3.15
  18  0.685  0.987  0.839-  87 2.10  92 2.30
  19  0.662  0.159  0.005-  62 1.89  87 2.06  96 2.36  99 2.57  46 2.82  34 2.87
  20  0.855  0.501  0.816- 135 2.29 108 2.44  41 3.11  34 3.11
  21  0.312  0.180  0.578- 123 2.18 116 2.22 125 2.31 109 2.49  50 2.93  53 2.98
  22  0.891  0.888  0.636-  92 2.28 133 2.36
  23  0.156  0.158  0.062-  74 2.19  90 2.47  37 3.13  49 3.14
  24  0.306  0.653  0.917- 117 2.08 121 2.09 101 2.35
  25  0.546  0.337  0.828-  60 2.18  99 2.28  32 3.03
  26  0.704  0.414  0.594- 108 2.14  85 2.23  97 2.27  89 2.49   7 2.92  45 3.09
  27  0.800  0.290  0.169-  66 2.26 107 2.53 100 2.56 128 2.56  34 2.83  54 3.01  36 3.13
  28  0.785  0.616  0.247-  84 1.50 132 1.54 114 1.77 131 2.32
  29  0.184  0.199  0.353- 125 1.60  83 1.66  94 1.69  56 1.81  33 3.01  36 3.11
  30  0.765  0.009  0.415-  93 1.57  77 1.77 118 1.90  70 1.91  43 3.15
  31  0.104  0.638  0.525-  75 1.49 105 1.56  71 1.99 120 2.08  81 2.23  51 2.72   9 3.12
  32  0.384  0.186  0.883-  69 1.63  99 1.64  57 1.85  86 1.87  37 2.81  25 3.03  53 3.10
  33  0.357  0.339  0.391-  94 1.56  68 1.58  67 1.64 109 1.75   9 2.86  29 3.01  45 3.04
  34  0.774  0.339  0.963- 107 1.50  55 1.52  62 1.62  60 1.91  27 2.83  41 2.86  19 2.87  20 3.11

  35  0.435  0.570  0.718-  88 1.55 134 1.62 106 1.66 127 1.83 101 2.36  38 2.91  45 2.93   8 3.05

  36  0.025  0.319  0.230- 119 1.52  64 1.55  83 1.65 128 1.95  29 3.11  27 3.13
  37  0.283  0.341  0.986- 111 1.59  74 1.60  86 1.74  95 1.84  32 2.81  23 3.13
  38  0.559  0.651  0.879-  82 1.60  73 1.72 101 1.81  88 2.08  35 2.91
  39  0.898  0.819  0.865- 112 1.70  72 1.82  92 1.85 115 2.02  40 2.98  17 3.15
  40  0.837  0.769  0.075-  72 1.58 131 1.63 113 1.74 122 1.89  39 2.98  46 3.07
  41  0.827  0.275  0.765- 108 1.66  65 1.73  76 1.83  55 1.90   3 2.73  34 2.86  20 3.11
  42  0.067  0.657  0.825- 121 1.60 135 1.64 112 1.75  81 1.88  51 3.07
  43  0.802  0.776  0.433- 130 1.53  61 1.81 132 1.92 118 1.94  30 3.15
  44  0.112  0.990  0.892-  63 1.67 110 1.69 115 1.79  90 2.10  17 2.88
  45  0.473  0.406  0.576-  89 1.63 127 1.64  85 1.73 109 1.78  35 2.93  33 3.04  26 3.09   7 3.14

  46  0.778  0.992  0.067-  96 1.52 122 1.72 100 1.75  87 1.97  19 2.82  40 3.07
  47  0.265  0.548  0.137-  79 1.69 104 1.69  95 1.87 117 2.28
  48  0.121  0.021  0.654- 129 1.58 110 1.65 133 1.66 116 1.74  50 3.05
  49  0.191  0.985  0.218- 102 1.50  98 1.68  80 1.72  56 1.75  52 3.13  23 3.14
  50  0.325  0.961  0.568-  59 1.46 129 1.60 123 1.61  78 1.69  53 2.67  21 2.93  48 3.05  52 3.09

  51  0.199  0.539  0.677-  71 1.59 124 1.67  81 1.71 134 1.91  31 2.72   9 3.06  42 3.07
  52  0.373  0.910  0.347-  78 1.54 126 1.67  58 1.72  98 2.01  50 3.09  49 3.13
  53  0.443  0.050  0.704-  91 1.50 103 1.68  57 1.72 123 1.75  50 2.67  21 2.98   6 3.06  32 3.10

  54  0.815  0.271  0.393-  66 1.54  97 1.67 128 1.73  70 2.41  27 3.01
  55  0.808  0.247  0.904-  34 1.52  41 1.90
  56  0.213  0.109  0.256-  49 1.75  29 1.81
  57  0.355  0.122  0.764-  53 1.72  32 1.85
  58  0.462  0.996  0.309-  52 1.72   1 2.28   2 2.49
  59  0.372  0.880  0.625-  50 1.46
  60  0.691  0.403  0.865-  34 1.91  25 2.18
  61  0.714  0.832  0.521-  43 1.81
  62  0.669  0.300  0.012-  34 1.62  19 1.89
  63  0.223  0.931  0.894-  44 1.67   6 2.28
  64  0.041  0.419  0.171-  36 1.55
  65  0.955  0.250  0.754-  41 1.73   3 2.16
  66  0.725  0.284  0.321-  54 1.54  27 2.26
  67  0.467  0.334  0.336-  33 1.64   7 2.50
  68  0.281  0.422  0.353-  33 1.58   9 2.18
  69  0.314  0.113  0.951-  32 1.63
  70  0.875  0.101  0.398-  30 1.91  13 2.24  54 2.41
  71  0.230  0.568  0.566-  51 1.59  31 1.99   9 2.37
  72  0.811  0.819  0.970-  40 1.58  39 1.82
  73  0.681  0.637  0.839-  38 1.72
  74  0.192  0.272  0.948-  37 1.60   4 2.19  23 2.19
  75  0.088  0.743  0.558-  31 1.49
  76  0.802  0.148  0.718-  41 1.83   3 2.37  17 2.44
  77  0.701  0.048  0.305-  30 1.77   1 2.01
  78  0.317  0.925  0.447-  52 1.54  50 1.69
  79  0.148  0.595  0.156-  47 1.69  11 2.28
  80  0.098  0.947  0.300-  49 1.72  14 2.14
  81  0.105  0.626  0.693-  51 1.71  42 1.88  31 2.23
  82  0.533  0.665  0.995-  38 1.60   5 1.92
  83  0.079  0.262  0.325-  36 1.65  29 1.66
  84  0.887  0.579  0.216-  28 1.50  11 2.37  10 2.47
  85  0.567  0.318  0.588-  45 1.73  26 2.23  12 2.28
  86  0.357  0.324  0.879-  37 1.74  32 1.87
  87  0.771  0.070  0.941-  46 1.97  19 2.06  18 2.10  17 2.50
  88  0.498  0.527  0.806-  35 1.55  38 2.08
  89  0.547  0.487  0.523-  45 1.63   7 2.12  26 2.49
  90  0.069  0.142  0.899-  44 2.10   4 2.40  23 2.47  17 2.57
  91  0.550  0.087  0.699-  53 1.50  12 2.24
  92  0.801  0.873  0.781-  39 1.85  22 2.28  18 2.30
  93  0.730  0.039  0.524-  30 1.57  12 2.35
  94  0.302  0.245  0.348-  33 1.56  29 1.69   2 2.55
  95  0.292  0.474  0.021-  37 1.84  47 1.87
  96  0.666  0.001  0.087-  46 1.52   1 2.20  19 2.36
  97  0.811  0.310  0.512-  54 1.67  26 2.27   3 2.44
  98  0.317  0.975  0.222-  49 1.68  52 2.01   2 2.54
  99  0.492  0.215  0.935-  32 1.64  25 2.28  19 2.57
 100  0.822  0.108  0.109-  46 1.75  13 2.32  27 2.56
 101  0.447  0.709  0.827-  38 1.81  24 2.35  35 2.36   8 2.48
 102  0.149  0.969  0.115-  49 1.50  15 2.55
 103  0.499  0.958  0.770-  53 1.68   6 2.13
 104  0.339  0.525  0.238-  47 1.69
 105  0.072  0.527  0.503-  31 1.56   9 2.04
 106  0.498  0.631  0.630-  35 1.66   8 2.02
 107  0.830  0.413  0.027-  34 1.50  10 2.39  27 2.53
 108  0.827  0.372  0.688-  41 1.66  26 2.14  20 2.44
 109  0.363  0.351  0.521-  33 1.75  45 1.78  21 2.49
 110  0.092  0.979  0.767-  48 1.65  44 1.69
 111  0.310  0.284  0.087-  37 1.59
 112  0.959  0.728  0.799-  39 1.70  42 1.75
 113  0.955  0.740  0.124-  40 1.74
 114  0.700  0.515  0.267-  28 1.77   7 2.30
 115  0.010  0.907  0.917-  44 1.79  39 2.02
 116  0.169  0.143  0.657-  48 1.74  21 2.22   4 2.38
 117  0.305  0.699  0.066-  24 2.08  47 2.28  15 2.35
 118  0.856  0.903  0.386-  30 1.90  43 1.94  14 2.51
 119  0.999  0.231  0.162-  36 1.52  13 2.55
 120  0.152  0.673  0.381-  16 1.96  31 2.08  11 2.19
 121  0.160  0.701  0.887-  42 1.60  24 2.09
 122  0.849  0.901  0.126-  46 1.72  40 1.89
 123  0.409  0.048  0.577-  50 1.61  53 1.75  21 2.18
 124  0.176  0.418  0.700-  51 1.67   4 2.43
 125  0.175  0.178  0.471-  29 1.60  21 2.31
 126  0.367  0.789  0.314-  52 1.67  16 2.15
 127  0.439  0.435  0.691-  45 1.64  35 1.83
 128  0.911  0.321  0.322-  54 1.73  36 1.95  27 2.56
 129  0.207  0.968  0.593-  48 1.58  50 1.60
 130  0.892  0.732  0.489-  43 1.53
 131  0.753  0.681  0.088-  40 1.63  28 2.32
 132  0.764  0.710  0.312-  28 1.54  43 1.92
 133  0.007  0.018  0.602-  48 1.66  22 2.36
 134  0.319  0.604  0.722-  35 1.62  51 1.91
 135  0.002  0.566  0.876-  42 1.64  20 2.29  10 2.38
 

IMPORTANT INFORMATION: All symmetrisations will be switched off!
NOSYMM: (Re-)initialisation of all symmetry stuff for point group C_1.

 
 

Automatic generation of k-mesh.
 generate k-points for:    2    2    2
Space group operators:
 irot       det(A)        alpha          n_x          n_y          n_z        tau_x        tau_y        tau_z
    1     1.000000     0.000001     1.000000     0.000000     0.000000     0.000000     0.000000     0.000000
 
 Subroutine IBZKPT returns following result:
 ===========================================
 
 Found      8 irreducible k-points:
 
 Following reciprocal coordinates:
            Coordinates               Weight
  0.000000  0.000000  0.000000      1.000000
  0.500000  0.000000  0.000000      1.000000
  0.000000  0.500000  0.000000      1.000000
  0.500000  0.500000  0.000000      1.000000
  0.000000  0.000000  0.500000      1.000000
  0.500000  0.000000  0.500000      1.000000
  0.000000  0.500000  0.500000      1.000000
  0.500000  0.500000  0.500000      1.000000
 
 Following cartesian coordinates:
            Coordinates               Weight
  0.000000  0.000000  0.000000      1.000000
  0.037563  0.000000  0.000000      1.000000
  0.000000  0.037563  0.000000      1.000000
  0.037563  0.037563  0.000000      1.000000
  0.000000  0.000000  0.037563      1.000000
  0.037563  0.000000  0.037563      1.000000
  0.000000  0.037563  0.037563      1.000000
  0.037563  0.037563  0.037563      1.000000
 


--------------------------------------------------------------------------------------------------------




 Dimension of arrays:
   k-points           NKPTS =      8   k-points in BZ     NKDIM =      8   number of bands    NBANDS=    520
   number of dos      NEDOS =    301   number of ions     NIONS =    135
   non local maximal  LDIM  =      6   non local SUM 2l+1 LMDIM =     18
   total plane-waves  NPLWV = ******
   max r-space proj   IRMAX =   7167   max aug-charges    IRDMAX= 204049
   dimension x,y,z NGX =   108 NGY =  108 NGZ =  108
   dimension x,y,z NGXF=   216 NGYF=  216 NGZF=  216
   support grid    NGXF=   432 NGYF=  432 NGZF=  432
   ions per type =              27  27  81
   NGX,Y,Z   is equivalent  to a cutoff of  13.49, 13.49, 13.49 a.u.
   NGXF,Y,Z  is equivalent  to a cutoff of  26.98, 26.98, 26.98 a.u.

 SYSTEM =  unknown system                          
 POSCAR =  Ca Si  O                                

 Startparameter for this run:
   NWRITE =      2    write-flag & timer
   PREC   = a         normal or accurate (medium, high low for compatibility)
   ISTART =      0    job   : 0-new  1-cont  2-samecut
   ICHARG =      2    charge: 1-file 2-atom 10-const
   ISPIN  =      1    spin polarized calculation?
   LNONCOLLINEAR =      F non collinear calculations
   LSORBIT =      F    spin-orbit coupling
   INIWAV =      1    electr: 0-lowe 1-rand  2-diag
   LASPH  =      F    aspherical Exc in radial PAW
   METAGGA=      F    non-selfconsistent MetaGGA calc.

 Electronic Relaxation 1
   ENCUT  =  600.0 eV  44.10 Ry    6.64 a.u.  26.59 26.59 26.59*2*pi/ulx,y,z
   ENINI  =  600.0     initial cutoff
   ENAUG  =  605.4 eV  augmentation charge cutoff
   NELM   =     60;   NELMIN=  2; NELMDL= -5     # of ELM steps 
   EDIFF  = 0.1E-05   stopping-criterion for ELM
   LREAL  =      T    real-space projection
   NLSPLINE    = F    spline interpolate recip. space projectors
   LCOMPAT=      F    compatible to vasp.4.4
   GGA_COMPAT  = T    GGA compatible to vasp.4.4-vasp.4.6
   LMAXPAW     = -100 max onsite density
   LMAXMIX     =    2 max onsite mixed and CHGCAR
   VOSKOWN=      0    Vosko Wilk Nusair interpolation
   ROPT   =   -0.00025  -0.00025  -0.00025
 Ionic relaxation
   EDIFFG = -.1E-01   stopping-criterion for IOM
   NSW    =      1    number of steps for IOM
   NBLOCK =      1;   KBLOCK =      1    inner block; outer block 
   IBRION =     -1    ionic relax: 0-MD 1-quasi-New 2-CG
   NFREE  =      0    steps in history (QN), initial steepest desc. (CG)
   ISIF   =      2    stress and relaxation
   IWAVPR =     10    prediction:  0-non 1-charg 2-wave 3-comb
   ISYM   =      0    0-nonsym 1-usesym 2-fastsym
   LCORR  =      T    Harris-Foulkes like correction to forces

   POTIM  = 1.0000    time-step for ionic-motion
   TEIN   =    0.0    initial temperature
   TEBEG  =    0.0;   TEEND  =   0.0 temperature during run
   SMASS  =  -3.00    Nose mass-parameter (am)
   estimated Nose-frequenzy (Omega)   =  0.10E-29 period in steps =****** mass=  -0.405E-26a.u.
   SCALEE = 1.0000    scale energy and forces
   NPACO  =    256;   APACO  = 16.0  distance and # of slots for P.C.
   PSTRESS=    0.0 pullay stress

  Mass of Ions in am
   POMASS =  40.08 28.09 16.00
  Ionic Valenz
   ZVAL   =  10.00  4.00  6.00
  Atomic Wigner-Seitz radii
   RWIGS  =  -1.00 -1.00 -1.00
  virtual crystal weights 
   VCA    =   1.00  1.00  1.00
   NELECT =     864.0000    total number of electrons
   NUPDOWN=      -1.0000    fix difference up-down

 DOS related values:
   EMIN   =  10.00;   EMAX   =-10.00  energy-range for DOS
   EFERMI =   0.00
   ISMEAR =     0;   SIGMA  =   0.05  broadening in eV -4-tet -1-fermi 0-gaus

 Electronic relaxation 2 (details)
   IALGO  =     38    algorithm
   LDIAG  =      T    sub-space diagonalisation (order eigenvalues)
   LSUBROT=      F    optimize rotation matrix (better conditioning)
   TURBO    =      0    0=normal 1=particle mesh
   IRESTART =      0    0=no restart 2=restart with 2 vectors
   NREBOOT  =      0    no. of reboots
   NMIN     =      0    reboot dimension
   EREF     =   0.00    reference energy to select bands
   IMIX   =      4    mixing-type and parameters
     AMIX     =   0.40;   BMIX     =  1.00
     AMIX_MAG =   1.60;   BMIX_MAG =  1.00
     AMIN     =   0.10
     WC   =   100.;   INIMIX=   1;  MIXPRE=   1;  MAXMIX= -45

 Intra band minimization:
   WEIMIN = 0.0000     energy-eigenvalue tresh-hold
   EBREAK =  0.48E-09  absolut break condition
   DEPER  =   0.30     relativ break condition  

   TIME   =   0.40     timestep for ELM

  volume/ion in A,a.u.               =      17.47       117.89
  Fermi-wavevector in a.u.,A,eV,Ry     =   1.171397  2.213620 18.669524  1.372171
  Thomas-Fermi vector in A             =   2.307841
 
 Write flags
   LWAVE        =      F    write WAVECAR
   LDOWNSAMPLE  =      F    k-point downsampling of WAVECAR
   LCHARG       =      F    write CHGCAR
   LVTOT        =      F    write LOCPOT, total local potential
   LVHAR        =      F    write LOCPOT, Hartree potential only
   LELF         =      F    write electronic localiz. function (ELF)
   LORBIT       =      0    0 simple, 1 ext, 2 COOP (PROOUT), +10 PAW based schemes


 Dipole corrections
   LMONO  =      F    monopole corrections only (constant potential shift)
   LDIPOL =      F    correct potential (dipole corrections)
   IDIPOL =      0    1-x, 2-y, 3-z, 4-all directions 
   EPSILON=  1.0000000 bulk dielectric constant

 Exchange correlation treatment:
   GGA     =    --    GGA type
   LEXCH   =     8    internal setting for exchange type
   VOSKOWN=      0    Vosko Wilk Nusair interpolation
   LHFCALC =     F    Hartree Fock is set to
   LHFONE  =     F    Hartree Fock one center treatment
   AEXX    =    0.0000 exact exchange contribution

 Linear response parameters
   LEPSILON=     F    determine dielectric tensor
   LRPA    =     F    only Hartree local field effects (RPA)
   LNABLA  =     F    use nabla operator in PAW spheres
   LVEL    =     F    velocity operator in full k-point grid
   LINTERFAST=   F  fast interpolation
   KINTER  =     0    interpolate to denser k-point grid
   CSHIFT  =0.1000    complex shift for real part using Kramers Kronig
   OMEGAMAX=  -1.0    maximum frequency
   DEG_THRESHOLD= 0.2000000E-02 threshold for treating states as degnerate
   RTIME   =   -0.100 relaxation time in fs
  (WPLASMAI=    0.000 imaginary part of plasma frequency in eV, 0.658/RTIME)
   DFIELD  = 0.0000000 0.0000000 0.0000000 field for delta impulse in time
 
 Orbital magnetization related:
   ORBITALMAG=     F  switch on orbital magnetization
   LCHIMAG   =     F  perturbation theory with respect to B field
   DQ        =  0.001000  dq finite difference perturbation B field
   LLRAUG    =     F  two centre corrections for induced B field



--------------------------------------------------------------------------------------------------------


 Static calculation
 charge density and potential will be updated during run
 non-spin polarized calculation
 Variant of blocked Davidson
 Davidson routine will perform the subspace rotation
 perform sub-space diagonalisation
    after iterative eigenvector-optimisation
 modified Broyden-mixing scheme, WC =      100.0
 initial mixing is a Kerker type mixing with AMIX =  0.4000 and BMIX =      1.0000
 Hartree-type preconditioning will be used
 using additional bands           88
 real space projection scheme for non local part
 use partial core corrections
 calculate Harris-corrections to forces 
   (improved forces if not selfconsistent)
 use gradient corrections 
 use of overlap-Matrix (Vanderbilt PP)
 Gauss-broadening in eV      SIGMA  =   0.05


--------------------------------------------------------------------------------------------------------


  energy-cutoff  :      600.00
  volume of cell :     2358.44
      direct lattice vectors                 reciprocal lattice vectors
    13.310935620  0.000000000  0.000000000     0.075126199  0.000000000  0.000000000
     0.000000000 13.310935620  0.000000000     0.000000000  0.075126199  0.000000000
     0.000000000  0.000000000 13.310935620     0.000000000  0.000000000  0.075126199

  length of vectors
    13.310935620 13.310935620 13.310935620     0.075126199  0.075126199  0.075126199


 
 k-points in units of 2pi/SCALE and weight: read from INCAR                         
   0.00000000  0.00000000  0.00000000       0.125
   0.03756310  0.00000000  0.00000000       0.125
   0.00000000  0.03756310  0.00000000       0.125
   0.03756310  0.03756310  0.00000000       0.125
   0.00000000  0.00000000  0.03756310       0.125
   0.03756310  0.00000000  0.03756310       0.125
   0.00000000  0.03756310  0.03756310       0.125
   0.03756310  0.03756310  0.03756310       0.125
 
 k-points in reciprocal lattice and weights: read from INCAR                         
   0.00000000  0.00000000  0.00000000       0.125
   0.50000000  0.00000000  0.00000000       0.125
   0.00000000  0.50000000  0.00000000       0.125
   0.50000000  0.50000000  0.00000000       0.125
   0.00000000  0.00000000  0.50000000       0.125
   0.50000000  0.00000000  0.50000000       0.125
   0.00000000  0.50000000  0.50000000       0.125
   0.50000000  0.50000000  0.50000000       0.125
 
 position of ions in fractional coordinates (direct lattice) 
   0.60985488  0.95143971  0.23419235
   0.40124467  0.14641143  0.21704700
   0.92690031  0.20076278  0.60217095
   0.15033041  0.26083838  0.78972267
   0.53051421  0.56911582  0.10235528
   0.39309605  0.91610362  0.88337222
   0.61909106  0.42964721  0.39285360
   0.53215449  0.77275860  0.67412902
   0.18021358  0.41992214  0.48177082
   0.95461509  0.54099365  0.04745983
   0.04703779  0.58073382  0.29359602
   0.59873682  0.15361394  0.55253993
   0.92838405  0.07155741  0.24134631
   0.03655630  0.88487347  0.43561261
   0.14977655  0.77810488  0.09359981
   0.29862845  0.66048209  0.38312642
   0.91635394  0.05126164  0.82337738
   0.68456116  0.98659880  0.83893013
   0.66245564  0.15883940  0.00546781
   0.85458784  0.50097467  0.81553878
   0.31175025  0.18046539  0.57825273
   0.89097914  0.88800583  0.63630391
   0.15622732  0.15790726  0.06178832
   0.30608081  0.65311565  0.91695928
   0.54582937  0.33700259  0.82815618
   0.70373661  0.41401154  0.59424563
   0.79961623  0.28957425  0.16852894
   0.78483978  0.61608353  0.24742448
   0.18357097  0.19939659  0.35292418
   0.76512162  0.00912175  0.41482512
   0.10414937  0.63769019  0.52519529
   0.38430470  0.18622383  0.88328911
   0.35692278  0.33909373  0.39093247
   0.77368955  0.33877354  0.96349863
   0.43530695  0.56998004  0.71768419
   0.02507321  0.31893087  0.22965838
   0.28311097  0.34081184  0.98552878
   0.55926212  0.65105367  0.87871942
   0.89790834  0.81901557  0.86494277
   0.83722168  0.76936376  0.07495044
   0.82747113  0.27454470  0.76533981
   0.06665944  0.65743311  0.82480988
   0.80191671  0.77644372  0.43330842
   0.11222449  0.99022080  0.89180754
   0.47253955  0.40584524  0.57591742
   0.77811222  0.99192676  0.06715457
   0.26474032  0.54836707  0.13696099
   0.12074727  0.02111354  0.65395701
   0.19075290  0.98517642  0.21816999
   0.32480633  0.96098727  0.56830451
   0.19905327  0.53929613  0.67740902
   0.37281967  0.91010179  0.34665111
   0.44346551  0.04999132  0.70363421
   0.81491618  0.27109530  0.39315077
   0.80840739  0.24707812  0.90428168
   0.21331728  0.10874553  0.25609843
   0.35452288  0.12221318  0.76350751
   0.46224129  0.99561772  0.30878276
   0.37232113  0.88030448  0.62537765
   0.69119795  0.40343067  0.86515237
   0.71432811  0.83168755  0.52138175
   0.66899597  0.30029424  0.01169014
   0.22302018  0.93107086  0.89355135
   0.04084143  0.41874045  0.17132957
   0.95460336  0.25030003  0.75446765
   0.72537075  0.28375699  0.32137602
   0.46725034  0.33443978  0.33627488
   0.28050510  0.42169018  0.35256776
   0.31424240  0.11266598  0.95124156
   0.87452129  0.10060438  0.39834823
   0.23026538  0.56829170  0.56591179
   0.81062539  0.81889528  0.97006135
   0.68103725  0.63682675  0.83889358
   0.19160198  0.27230064  0.94841823
   0.08765764  0.74298496  0.55847344
   0.80174491  0.14784699  0.71762093
   0.70124537  0.04826585  0.30469585
   0.31719547  0.92507103  0.44699251
   0.14796002  0.59469849  0.15564346
   0.09834474  0.94704545  0.30048284
   0.10511572  0.62608098  0.69258627
   0.53297960  0.66539339  0.99496170
   0.07894737  0.26180377  0.32543497
   0.88672879  0.57854335  0.21640576
   0.56695911  0.31781879  0.58825340
   0.35712108  0.32411847  0.87940381
   0.77103600  0.06985634  0.94120784
   0.49763862  0.52713328  0.80597363
   0.54698404  0.48709835  0.52254414
   0.06908875  0.14181321  0.89857705
   0.54985418  0.08682106  0.69947691
   0.80103440  0.87300489  0.78086872
   0.72962991  0.03878927  0.52362470
   0.30214982  0.24464663  0.34829111
   0.29248301  0.47387205  0.02079366
   0.66560280  0.00115350  0.08653525
   0.81078976  0.31044036  0.51183665
   0.31687107  0.97540798  0.22225823
   0.49185941  0.21477769  0.93544934
   0.82152238  0.10849870  0.10861063
   0.44717759  0.70922180  0.82732226
   0.14887230  0.96870937  0.11471841
   0.49871252  0.95792406  0.77038963
   0.33874631  0.52515614  0.23791299
   0.07225273  0.52698414  0.50276774
   0.49849200  0.63138779  0.62954743
   0.83006151  0.41294164  0.02739225
   0.82739374  0.37199719  0.68776053
   0.36332085  0.35111217  0.52133164
   0.09249177  0.97901046  0.76714597
   0.31037953  0.28433836  0.08703469
   0.95850878  0.72771587  0.79876712
   0.95462910  0.73981809  0.12357942
   0.70023231  0.51524752  0.26659732
   0.00982788  0.90671591  0.91710895
   0.16925720  0.14286756  0.65661669
   0.30546653  0.69907398  0.06619637
   0.85579227  0.90329540  0.38551353
   0.99922713  0.23054334  0.16158818
   0.15213095  0.67293922  0.38091083
   0.15974348  0.70095765  0.88666218
   0.84912597  0.90125263  0.12638341
   0.40857837  0.04829170  0.57715020
   0.17570925  0.41811813  0.70033016
   0.17502162  0.17840235  0.47131497
   0.36678837  0.78925165  0.31350642
   0.43855493  0.43507785  0.69093056
   0.91128415  0.32116964  0.32163667
   0.20740963  0.96830443  0.59274844
   0.89182725  0.73209679  0.48935706
   0.75335008  0.68068397  0.08828901
   0.76369550  0.70957777  0.31168005
   0.00699418  0.01807813  0.60214197
   0.31903117  0.60431543  0.72248639
   0.00159840  0.56603037  0.87637899
 
 position of ions in cartesian coordinates  (Angst):
   8.11773902 12.66455268  3.11731928
   5.34094200  1.94887307  2.88909858
  12.33791033  2.67234039  8.01545871
   2.00103836  3.47200291 10.51194756
   7.06164049  7.57546406  1.36244457
   5.23247616 12.19419636 11.75851080
   8.24068119  5.71900639  5.22924892
   7.08347415 10.28613995  8.97328805
   2.39881130  5.58955659  6.41282034
  12.70682006  7.20113169  0.63173475
   0.62611700  7.73011045  3.90803773
   7.96974726  2.04474527  7.35482343
  12.35766032  0.95249610  3.21254521
   0.48659859 11.77849375  5.79841137
   1.99366605 10.35730399  1.24590111
   3.97502411  8.79163458  5.09977110
  12.19752828  0.68234041 10.95992336
   9.11214958 13.13255317 11.16694494
   8.81790442  2.11430109  0.07278168
  11.37536373  6.66844156 10.85558419
   4.14968754  2.40216313  7.69708481
  11.85976594 11.82018845  8.46980040
   2.07953178  2.10189332  0.82246031
   4.07422198  8.69358043 12.20558594
   7.26549957  4.48581980 11.02353355
   9.36739274  5.51088093  7.90996536
  10.64364021  3.85450425  2.24327785
  10.44695176  8.20064821  3.29345127
   2.44350134  2.65415521  4.69775110
  10.18448466  0.12141904  5.52171047
   1.38632555  8.48825307  6.99084071
   5.11545508  2.47881342 11.75740454
   4.75097618  4.51365479  5.20367700
  10.29853174  4.50939275 12.82506821
   5.79434276  7.58696760  9.55304800
   0.33374792  4.24526823  3.05696788
   3.76847193  4.53652450 13.11831017
   7.44430205  8.66613342 11.69657768
  11.95200014 10.90186359 11.51319756
  11.14420393 10.24095143  0.99766048
  11.01441492  3.65444686 10.18738900
   0.88729951  8.75104983 10.97899117
  10.67426164 10.33519242  5.76774052
   1.49381298 13.18076527 11.87079274
   6.28994352  5.40217992  7.66599966
  10.35740161 13.20347318  0.89389015
   3.52394141  7.29927879  1.82307890
   1.60725916  0.28104094  8.70477967
   2.53909954 13.11361991  2.90404664
   4.32347616 12.79163972  7.56466478
   2.64958530  7.17853604  9.01694784
   4.96257861 12.11430639  4.61425066
   5.90294082  0.66543127  9.36602968
  10.84729678  3.60853208  5.23320464
  10.76065867  3.28884100 12.03683526
   2.83945258  1.44750480  3.40890968
   4.71903124  1.62677176 10.16299929
   6.15286399 13.25260333  4.11018748
   4.95594258 11.71767630  8.32436162
   9.20049138  5.37003965 11.51598751
   9.50837554 11.07053943  6.94007893
   8.90496227  3.99719735  0.15560669
   2.96860724 12.39342428 11.89400455
   0.54363765  5.57382713  2.28055692
  12.70666383  3.33172761 10.04267036
   9.65536333  3.77707107  4.27781554
   6.21953919  4.45170636  4.47613329
   3.73378527  5.61309083  4.69300682
   4.18286029  1.49968959 12.66191513
  11.64069655  1.33913836  5.30238768
   3.06504769  7.56449422  7.53281542
  10.79018243 10.90026229 12.91242416
   9.06524304  8.47675993 11.16645843
   2.55040160  3.62457626 12.62433400
   1.16680515  9.88982497  7.43380403
  10.67197485  1.96798170  9.55220596
   9.33423194  0.64246358  4.05578688
   4.22216848 12.31356098  5.94988846
   1.96948624  7.91599326  2.07176007
   1.30906044 12.60606103  3.99970773
   1.39918861  8.33372360  9.21897128
   7.09445711  8.85700860 13.24387109
   1.05086330  3.48485310  4.33184392
  11.80318980  7.70095323  2.88056310
   7.54675620  4.23046546  7.83020316
   4.75361576  4.31432007 11.70568749
  10.26321050  0.92985318 12.52835701
   6.62403564  7.01663718 10.72826312
   7.28086935  6.48373483  6.95555137
   0.91963588  1.88766645 11.96090120
   7.31907362  1.15566951  9.31069211
  10.66251734 11.62051183 10.39409323
   9.71205673  0.51632150  6.96993468
   4.02189682  3.25647551  4.63608059
   3.89322252  6.30768030  0.27678303
   8.85979608  0.01535420  1.15186518
  10.79237027  4.13225162  6.81302470
   4.21785035 12.98359285  2.95846505
   6.54710895  2.85889201 12.45170593
  10.93523157  1.44421927  1.44570907
   5.95235208  9.44040572 11.01243330
   1.98162959 12.89442801  1.52700937
   6.63833023 12.75086543 10.25460680
   4.50903036  6.99031959  3.16684444
   0.96175141  7.01465196  6.69230908
   6.63539490  8.40436223  8.37986536
  11.04889534  5.49663960  0.36461645
  11.01338481  4.95163069  9.15473614
   4.83614045  4.67363143  6.93941184
   1.23115205 13.03154519 10.21143064
   4.13144194  3.78480967  1.15851318
  12.75864864  9.68657908 10.63233773
  12.70700653  9.84767096  1.64495772
   9.32074724  6.85842659  3.54865980
   0.13081832 12.06923704 12.20757824
   2.25297166  1.90170085  8.74018255
   4.06604536  9.30532878  0.88113564
  11.39139579 12.02370698  5.13154580
  13.30064805  3.06874758  2.15088985
   2.02500532  8.95745065  5.07027950
   2.12633514  9.33040219 11.80230324
  11.30266111 11.99651572  1.68228148
   5.43856042  0.64280773  7.68240919
   2.33885445  5.56554350  9.32204967
   2.32970152  2.37470225  6.27364326
   4.88229633 10.50567794  4.17306376
   5.83757647  5.79129329  9.19693215
  12.13004471  4.27506835  4.28128501
   2.76081629 12.88903788  7.89003627
  11.87105506  9.74489327  6.51380038
  10.02779436  9.06054046  1.17520932
  10.16550157  9.44514406  4.14875306
   0.09309902  0.24063681  8.01507294
   4.24660330  8.04400384  9.61696981
   0.02127625  7.53439380 11.66542436
 


--------------------------------------------------------------------------------------------------------


 k-point  1 :   0.0000 0.0000 0.0000  plane waves:   78805
 k-point  2 :   0.5000 0.0000 0.0000  plane waves:   78774
 k-point  3 :   0.0000 0.5000 0.0000  plane waves:   78774
 k-point  4 :   0.5000 0.5000 0.0000  plane waves:   78724
 k-point  5 :   0.0000 0.0000 0.5000  plane waves:   78774
 k-point  6 :   0.5000 0.0000 0.5000  plane waves:   78724
 k-point  7 :   0.0000 0.5000 0.5000  plane waves:   78724
 k-point  8 :   0.5000 0.5000 0.5000  plane waves:   78792

 maximum and minimum number of plane-waves per node :      6631     6484

 maximum number of plane-waves:     78805
 maximum index in each direction: 
   IXMAX=   26   IYMAX=   26   IZMAX=   26
   IXMIN=  -27   IYMIN=  -27   IZMIN=  -27


 real space projection operators:
  total allocation   :      49152.23 KBytes
  max/ min on nodes  :       4184.56       4021.86


 parallel 3D FFT for wavefunctions:
    minimum data exchange during FFTs selected (reduces bandwidth)
 parallel 3D FFT for charge:
    minimum data exchange during FFTs selected (reduces bandwidth)


 total amount of memory used by VASP MPI-rank0   216956. kBytes
=======================================================================

   base      :      30000. kBytes
   nonlr-proj:      21593. kBytes
   fftplans  :      34308. kBytes
   grid      :      19248. kBytes
   one-center:        186. kBytes
   wavefun   :     111621. kBytes
 
     INWAV:  cpu time    0.0000: real time    0.0003
 Broyden mixing: mesh for mixing (old mesh)
   NGX = 53   NGY = 53   NGZ = 53
  (NGX  =216   NGY  =216   NGZ  =216)
  gives a total of 148877 points

 initial charge density was supplied:
 charge density of overlapping atoms calculated
 number of electron     864.0000000 magnetization 
 keeping initial charge density in first step


--------------------------------------------------------------------------------------------------------


 Maximum index for non-local projection operator          651
 Maximum index for augmentation-charges         4599 (set IRDMAX)


--------------------------------------------------------------------------------------------------------


 First call to EWALD:  gamma=   0.133
 Maximum number of real-space cells 3x 3x 3
 Maximum number of reciprocal cells 3x 3x 3

    FEWALD:  cpu time    0.0066: real time    0.0067


--------------------------------------- Iteration      1(   1)  ---------------------------------------


    POTLOK:  cpu time    0.1745: real time    0.1786
    SETDIJ:  cpu time    0.3241: real time    0.3254
     EDDAV:  cpu time   50.0569: real time   50.9776
       DOS:  cpu time    0.0024: real time    0.0024
    --------------------------------------------
      LOOP:  cpu time   50.5578: real time   51.4839

 eigenvalue-minimisations  :  8320
 total energy-change (2. order) : 0.9263143E+04  (-0.4622022E+05)
 number of electron     864.0000000 magnetization 
 augmentation part      864.0000000 magnetization 

 Free energy of the ion-electron system (eV)
  ---------------------------------------------------
  alpha Z        PSCENC =      2026.14881195
  Ewald energy   TEWEN  =    -35541.45497631
  -Hartree energ DENC   =    -25177.98245624
  -exchange      EXHF   =         0.00000000
  -V(xc)+E(xc)   XCENC  =      3128.44961805
  PAW double counting   =     50594.51003143   -49994.65612350
  entropy T*S    EENTRO =        -0.04485539
  eigenvalues    EBANDS =      -740.36681281
  atomic energy  EATOM  =     64968.54023382
  Solvation  Ediel_sol  =         0.00000000
  ---------------------------------------------------
  free energy    TOTEN  =      9263.14347101 eV

  energy without entropy =     9263.18832640  energy(sigma->0) =     9263.16589870


--------------------------------------------------------------------------------------------------------




--------------------------------------- Iteration      1(   2)  ---------------------------------------


     EDDAV:  cpu time   59.4673: real time   59.7089
       DOS:  cpu time    0.0011: real time    0.0011
    --------------------------------------------
      LOOP:  cpu time   59.4684: real time   59.7100

 eigenvalue-minimisations  : 10208
 total energy-change (2. order) :-0.9258995E+04  (-0.8980593E+04)
 number of electron     864.0000000 magnetization 
 augmentation part      864.0000000 magnetization 

 Free energy of the ion-electron system (eV)
  ---------------------------------------------------
  alpha Z        PSCENC =      2026.14881195
  Ewald energy   TEWEN  =    -35541.45497631
  -Hartree energ DENC   =    -25177.98245624
  -exchange      EXHF   =         0.00000000
  -V(xc)+E(xc)   XCENC  =      3128.44961805
  PAW double counting   =     50594.51003143   -49994.65612350
  entropy T*S    EENTRO =        -0.00000000
  eigenvalues    EBANDS =     -9999.40673364
  atomic energy  EATOM  =     64968.54023382
  Solvation  Ediel_sol  =         0.00000000
  ---------------------------------------------------
  free energy    TOTEN  =         4.14840556 eV

  energy without entropy =        4.14840556  energy(sigma->0) =        4.14840556


--------------------------------------------------------------------------------------------------------




--------------------------------------- Iteration      1(   3)  ---------------------------------------


     EDDAV:  cpu time   59.6296: real time   59.9368
       DOS:  cpu time    0.0010: real time    0.0010
    --------------------------------------------
      LOOP:  cpu time   59.6305: real time   59.9377

 eigenvalue-minimisations  : 10240
 total energy-change (2. order) :-0.1031323E+04  (-0.1025138E+04)
 number of electron     864.0000000 magnetization 
 augmentation part      864.0000000 magnetization 

 Free energy of the ion-electron system (eV)
  ---------------------------------------------------
  alpha Z        PSCENC =      2026.14881195
  Ewald energy   TEWEN  =    -35541.45497631
  -Hartree energ DENC   =    -25177.98245624
  -exchange      EXHF   =         0.00000000
  -V(xc)+E(xc)   XCENC  =      3128.44961805
  PAW double counting   =     50594.51003143   -49994.65612350
  entropy T*S    EENTRO =        -0.00000000
  eigenvalues    EBANDS =    -11030.72942653
  atomic energy  EATOM  =     64968.54023382
  Solvation  Ediel_sol  =         0.00000000
  ---------------------------------------------------
  free energy    TOTEN  =     -1027.17428732 eV

  energy without entropy =    -1027.17428732  energy(sigma->0) =    -1027.17428732


--------------------------------------------------------------------------------------------------------




--------------------------------------- Iteration      1(   4)  ---------------------------------------


     EDDAV:  cpu time   63.0807: real time   63.3781
       DOS:  cpu time    0.0010: real time    0.0010
    --------------------------------------------
      LOOP:  cpu time   63.0817: real time   63.3791

 eigenvalue-minimisations  : 10928
 total energy-change (2. order) :-0.4697568E+02  (-0.4680779E+02)
 number of electron     864.0000000 magnetization 
 augmentation part      864.0000000 magnetization 

 Free energy of the ion-electron system (eV)
  ---------------------------------------------------
  alpha Z        PSCENC =      2026.14881195
  Ewald energy   TEWEN  =    -35541.45497631
  -Hartree energ DENC   =    -25177.98245624
  -exchange      EXHF   =         0.00000000
  -V(xc)+E(xc)   XCENC  =      3128.44961805
  PAW double counting   =     50594.51003143   -49994.65612350
  entropy T*S    EENTRO =        -0.00000000
  eigenvalues    EBANDS =    -11077.70510257
  atomic energy  EATOM  =     64968.54023382
  Solvation  Ediel_sol  =         0.00000000
  ---------------------------------------------------
  free energy    TOTEN  =     -1074.14996336 eV

  energy without entropy =    -1074.14996336  energy(sigma->0) =    -1074.14996336


--------------------------------------------------------------------------------------------------------




--------------------------------------- Iteration      1(   5)  ---------------------------------------


     EDDAV:  cpu time   83.6958: real time   84.0175
       DOS:  cpu time    0.0011: real time    0.0011
    CHARGE:  cpu time    2.4603: real time    2.4681
    MIXING:  cpu time    0.0087: real time    0.0087
    --------------------------------------------
      LOOP:  cpu time   86.1659: real time   86.4954

 eigenvalue-minimisations  : 15424
 total energy-change (2. order) :-0.6455329E+01  (-0.6452105E+01)
 number of electron     864.0000007 magnetization 
 augmentation part      133.8103114 magnetization 

 Broyden mixing:
  rms(total) = 0.85438E+01    rms(broyden)= 0.85430E+01
  rms(prec ) = 0.10000E+02
  weight for this iteration     100.00

 Free energy of the ion-electron system (eV)
  ---------------------------------------------------
  alpha Z        PSCENC =      2026.14881195
  Ewald energy   TEWEN  =    -35541.45497631
  -Hartree energ DENC   =    -25177.98245624
  -exchange      EXHF   =         0.00000000
  -V(xc)+E(xc)   XCENC  =      3128.44961805
  PAW double counting   =     50594.51003143   -49994.65612350
  entropy T*S    EENTRO =        -0.00000000
  eigenvalues    EBANDS =    -11084.16043181
  atomic energy  EATOM  =     64968.54023382
  Solvation  Ediel_sol  =         0.00000000
  ---------------------------------------------------
  free energy    TOTEN  =     -1080.60529261 eV

  energy without entropy =    -1080.60529261  energy(sigma->0) =    -1080.60529261


--------------------------------------------------------------------------------------------------------




--------------------------------------- Iteration      1(   6)  ---------------------------------------


    POTLOK:  cpu time    0.1728: real time    0.1787
    SETDIJ:  cpu time    0.3232: real time    0.3240
     EDDAV:  cpu time   60.4711: real time   60.8330
       DOS:  cpu time    0.0009: real time    0.0009
    CHARGE:  cpu time    2.4763: real time    2.4878
    MIXING:  cpu time    0.0077: real time    0.0079
    --------------------------------------------
      LOOP:  cpu time   63.4521: real time   63.8323

 eigenvalue-minimisations  : 10344
 total energy-change (2. order) : 0.1636673E+03  (-0.8101210E+02)
 number of electron     864.0000006 magnetization 
 augmentation part      118.9979957 magnetization 

 Broyden mixing:
  rms(total) = 0.36829E+01    rms(broyden)= 0.36814E+01
  rms(prec ) = 0.39134E+01
  weight for this iteration     100.00

 eigenvalues of (default mixing * dielectric matrix)
  average eigenvalue GAMMA=   0.9505
  0.9505

 Free energy of the ion-electron system (eV)
  ---------------------------------------------------
  alpha Z        PSCENC =      2026.14881195
  Ewald energy   TEWEN  =    -35541.45497631
  -Hartree energ DENC   =    -26775.17158436
  -exchange      EXHF   =         0.00000000
  -V(xc)+E(xc)   XCENC  =      3229.25745790
  PAW double counting   =     64308.67414132   -63853.12550623
  entropy T*S    EENTRO =        -0.00000000
  eigenvalues    EBANDS =     -9279.80655972
  atomic energy  EATOM  =     64968.54023382
  Solvation  Ediel_sol  =         0.00000000
  ---------------------------------------------------
  free energy    TOTEN  =      -916.93798162 eV

  energy without entropy =     -916.93798162  energy(sigma->0) =     -916.93798162


--------------------------------------------------------------------------------------------------------




--------------------------------------- Iteration      1(   7)  ---------------------------------------


    POTLOK:  cpu time    0.1706: real time    0.1770
    SETDIJ:  cpu time    0.3208: real time    0.3220
     EDDAV:  cpu time   63.1394: real time   63.3911
       DOS:  cpu time    0.0011: real time    0.0011
    CHARGE:  cpu time    2.3637: real time    2.3881
    MIXING:  cpu time    0.0077: real time    0.0078
    --------------------------------------------
      LOOP:  cpu time   66.0034: real time   66.2870

 eigenvalue-minimisations  : 10960
 total energy-change (2. order) :-0.7548562E+00  (-0.8094849E+01)
 number of electron     864.0000006 magnetization 
 augmentation part      118.7612617 magnetization 

 Broyden mixing:
  rms(total) = 0.18733E+01    rms(broyden)= 0.18733E+01
  rms(prec ) = 0.20586E+01
  weight for this iteration     100.00

 eigenvalues of (default mixing * dielectric matrix)
  average eigenvalue GAMMA=   1.1793
  1.1793  1.1793

 Free energy of the ion-electron system (eV)
  ---------------------------------------------------
  alpha Z        PSCENC =      2026.14881195
  Ewald energy   TEWEN  =    -35541.45497631
  -Hartree energ DENC   =    -26839.12598003
  -exchange      EXHF   =         0.00000000
  -V(xc)+E(xc)   XCENC  =      3229.47475122
  PAW double counting   =     74904.12589477   -74501.90456467
  entropy T*S    EENTRO =        -0.00000000
  eigenvalues    EBANDS =     -9163.49700860
  atomic energy  EATOM  =     64968.54023382
  Solvation  Ediel_sol  =         0.00000000
  ---------------------------------------------------
  free energy    TOTEN  =      -917.69283784 eV

  energy without entropy =     -917.69283784  energy(sigma->0) =     -917.69283784


--------------------------------------------------------------------------------------------------------




--------------------------------------- Iteration      1(   8)  ---------------------------------------


    POTLOK:  cpu time    0.1703: real time    0.1771
    SETDIJ:  cpu time    0.3223: real time    0.3234
     EDDAV:  cpu time   64.5521: real time   64.8341
       DOS:  cpu time    0.0011: real time    0.0011
    CHARGE:  cpu time    2.4624: real time    2.4701
    MIXING:  cpu time    0.0075: real time    0.0076
    --------------------------------------------
      LOOP:  cpu time   67.5158: real time   67.8134

 eigenvalue-minimisations  : 11272
 total energy-change (2. order) : 0.2071180E+01  (-0.1212278E+01)
 number of electron     864.0000006 magnetization 
 augmentation part      118.9690765 magnetization 

 Broyden mixing:
  rms(total) = 0.81738E+00    rms(broyden)= 0.81729E+00
  rms(prec ) = 0.94757E+00
  weight for this iteration     100.00

 eigenvalues of (default mixing * dielectric matrix)
  average eigenvalue GAMMA=   1.3267
  2.1289  0.9256  0.9256

 Free energy of the ion-electron system (eV)
  ---------------------------------------------------
  alpha Z        PSCENC =      2026.14881195
  Ewald energy   TEWEN  =    -35541.45497631
  -Hartree energ DENC   =    -26892.12717023
  -exchange      EXHF   =         0.00000000
  -V(xc)+E(xc)   XCENC  =      3229.37014871
  PAW double counting   =     81570.00478656   -81211.16571006
  entropy T*S    EENTRO =        -0.00000000
  eigenvalues    EBANDS =     -9064.93778235
  atomic energy  EATOM  =     64968.54023382
  Solvation  Ediel_sol  =         0.00000000
  ---------------------------------------------------
  free energy    TOTEN  =      -915.62165790 eV

  energy without entropy =     -915.62165790  energy(sigma->0) =     -915.62165790


--------------------------------------------------------------------------------------------------------




--------------------------------------- Iteration      1(   9)  ---------------------------------------


    POTLOK:  cpu time    0.1704: real time    0.1777
    SETDIJ:  cpu time    0.3218: real time    0.3230
     EDDAV:  cpu time   63.9413: real time   64.3142
       DOS:  cpu time    0.0010: real time    0.0010
    CHARGE:  cpu time    2.4670: real time    2.4740
    MIXING:  cpu time    0.0087: real time    0.0087
    --------------------------------------------
      LOOP:  cpu time   66.9101: real time   67.2987

 eigenvalue-minimisations  : 11152
 total energy-change (2. order) : 0.4773338E+00  (-0.2882782E+00)
 number of electron     864.0000006 magnetization 
 augmentation part      118.3573799 magnetization 

 Broyden mixing:
  rms(total) = 0.23487E+00    rms(broyden)= 0.23485E+00
  rms(prec ) = 0.29865E+00
  weight for this iteration     100.00

 eigenvalues of (default mixing * dielectric matrix)
  average eigenvalue GAMMA=   1.3203
  2.3426  1.1331  0.9028  0.9028

 Free energy of the ion-electron system (eV)
  ---------------------------------------------------
  alpha Z        PSCENC =      2026.14881195
  Ewald energy   TEWEN  =    -35541.45497631
  -Hartree energ DENC   =    -27011.32352271
  -exchange      EXHF   =         0.00000000
  -V(xc)+E(xc)   XCENC  =      3234.92836104
  PAW double counting   =     87302.87194557   -86972.07889557
  entropy T*S    EENTRO =        -0.00000000
  eigenvalues    EBANDS =     -8922.77628191
  atomic energy  EATOM  =     64968.54023382
  Solvation  Ediel_sol  =         0.00000000
  ---------------------------------------------------
  free energy    TOTEN  =      -915.14432412 eV

  energy without entropy =     -915.14432412  energy(sigma->0) =     -915.14432412


--------------------------------------------------------------------------------------------------------




--------------------------------------- Iteration      1(  10)  ---------------------------------------


    POTLOK:  cpu time    0.1721: real time    0.1793
    SETDIJ:  cpu time    0.3215: real time    0.3225
     EDDAV:  cpu time   67.6492: real time   67.9467
       DOS:  cpu time    0.0010: real time    0.0010
    CHARGE:  cpu time    2.4557: real time    2.4636
    MIXING:  cpu time    0.0070: real time    0.0070
    --------------------------------------------
      LOOP:  cpu time   70.6065: real time   70.9202

 eigenvalue-minimisations  : 11944
 total energy-change (2. order) :-0.1281301E+00  (-0.1112450E+00)
 number of electron     864.0000006 magnetization 
 augmentation part      118.2475471 magnetization 

 Broyden mixing:
  rms(total) = 0.13108E+00    rms(broyden)= 0.13105E+00
  rms(prec ) = 0.17135E+00
  weight for this iteration     100.00

 eigenvalues of (default mixing * dielectric matrix)
  average eigenvalue GAMMA=   1.2509
  2.4415  1.0718  1.0718  0.8348  0.8348

 Free energy of the ion-electron system (eV)
  ---------------------------------------------------
  alpha Z        PSCENC =      2026.14881195
  Ewald energy   TEWEN  =    -35541.45497631
  -Hartree energ DENC   =    -27044.03469126
  -exchange      EXHF   =         0.00000000
  -V(xc)+E(xc)   XCENC  =      3236.09778032
  PAW double counting   =     88326.01261086   -87998.12659107
  entropy T*S    EENTRO =        -0.00000000
  eigenvalues    EBANDS =     -8888.45563249
  atomic energy  EATOM  =     64968.54023382
  Solvation  Ediel_sol  =         0.00000000
  ---------------------------------------------------
  free energy    TOTEN  =      -915.27245418 eV

  energy without entropy =     -915.27245418  energy(sigma->0) =     -915.27245418


--------------------------------------------------------------------------------------------------------




--------------------------------------- Iteration      1(  11)  ---------------------------------------


    POTLOK:  cpu time    0.1700: real time    0.1779
    SETDIJ:  cpu time    0.3199: real time    0.3210
     EDDAV:  cpu time   64.7870: real time   65.0454
       DOS:  cpu time    0.0010: real time    0.0010
    CHARGE:  cpu time    2.4415: real time    2.4488
    MIXING:  cpu time    0.0101: real time    0.0101
    --------------------------------------------
      LOOP:  cpu time   67.7294: real time   68.0041

 eigenvalue-minimisations  : 11320
 total energy-change (2. order) :-0.3564025E-01  (-0.1585608E-01)
 number of electron     864.0000006 magnetization 
 augmentation part      118.1828203 magnetization 

 Broyden mixing:
  rms(total) = 0.75480E-01    rms(broyden)= 0.75475E-01
  rms(prec ) = 0.10463E+00
  weight for this iteration     100.00

 eigenvalues of (default mixing * dielectric matrix)
  average eigenvalue GAMMA=   1.3249
  2.4788  1.7949  0.9753  0.9753  0.8624  0.8624

 Free energy of the ion-electron system (eV)
  ---------------------------------------------------
  alpha Z        PSCENC =      2026.14881195
  Ewald energy   TEWEN  =    -35541.45497631
  -Hartree energ DENC   =    -27062.88014534
  -exchange      EXHF   =         0.00000000
  -V(xc)+E(xc)   XCENC  =      3236.88310076
  PAW double counting   =     88469.78090191   -88141.11154354
  entropy T*S    EENTRO =        -0.00000000
  eigenvalues    EBANDS =     -8871.21447770
  atomic energy  EATOM  =     64968.54023382
  Solvation  Ediel_sol  =         0.00000000
  ---------------------------------------------------
  free energy    TOTEN  =      -915.30809443 eV

  energy without entropy =     -915.30809443  energy(sigma->0) =     -915.30809443


--------------------------------------------------------------------------------------------------------




--------------------------------------- Iteration      1(  12)  ---------------------------------------


    POTLOK:  cpu time    0.1689: real time    0.1772
    SETDIJ:  cpu time    0.3214: real time    0.3222
     EDDAV:  cpu time   58.4677: real time   58.7293
       DOS:  cpu time    0.0010: real time    0.0010
    CHARGE:  cpu time    2.4553: real time    2.4744
    MIXING:  cpu time    0.0080: real time    0.0081
    --------------------------------------------
      LOOP:  cpu time   61.4224: real time   61.7122

 eigenvalue-minimisations  :  9952
 total energy-change (2. order) :-0.3892271E-01  (-0.7444726E-02)
 number of electron     864.0000006 magnetization 
 augmentation part      118.1870872 magnetization 

 Broyden mixing:
  rms(total) = 0.34449E-01    rms(broyden)= 0.34441E-01
  rms(prec ) = 0.53048E-01
  weight for this iteration     100.00

 eigenvalues of (default mixing * dielectric matrix)
  average eigenvalue GAMMA=   1.3621
  2.5661  2.5089  0.8451  0.8451  0.9730  0.9730  0.8234

 Free energy of the ion-electron system (eV)
  ---------------------------------------------------
  alpha Z        PSCENC =      2026.14881195
  Ewald energy   TEWEN  =    -35541.45497631
  -Hartree energ DENC   =    -27077.19164443
  -exchange      EXHF   =         0.00000000
  -V(xc)+E(xc)   XCENC  =      3237.23140121
  PAW double counting   =     88354.97481891   -88023.66628252
  entropy T*S    EENTRO =        -0.00000000
  eigenvalues    EBANDS =     -8859.92937978
  atomic energy  EATOM  =     64968.54023382
  Solvation  Ediel_sol  =         0.00000000
  ---------------------------------------------------
  free energy    TOTEN  =      -915.34701714 eV

  energy without entropy =     -915.34701714  energy(sigma->0) =     -915.34701714


--------------------------------------------------------------------------------------------------------




--------------------------------------- Iteration      1(  13)  ---------------------------------------


    POTLOK:  cpu time    0.1756: real time    0.1766
    SETDIJ:  cpu time    0.3201: real time    0.3209
     EDDAV:  cpu time   65.2097: real time   65.5705
       DOS:  cpu time    0.0010: real time    0.0010
    CHARGE:  cpu time    2.4741: real time    2.4816
    MIXING:  cpu time    0.0087: real time    0.0088
    --------------------------------------------
      LOOP:  cpu time   68.1892: real time   68.5593

 eigenvalue-minimisations  : 11440
 total energy-change (2. order) :-0.1147948E-01  (-0.2548048E-02)
 number of electron     864.0000006 magnetization 
 augmentation part      118.1809493 magnetization 

 Broyden mixing:
  rms(total) = 0.22006E-01    rms(broyden)= 0.22005E-01
  rms(prec ) = 0.30626E-01
  weight for this iteration     100.00

 eigenvalues of (default mixing * dielectric matrix)
  average eigenvalue GAMMA=   1.3361
  2.8374  2.4872  0.8837  0.8837  0.9832  0.9832  0.8152  0.8152

 Free energy of the ion-electron system (eV)
  ---------------------------------------------------
  alpha Z        PSCENC =      2026.14881195
  Ewald energy   TEWEN  =    -35541.45497631
  -Hartree energ DENC   =    -27086.57173793
  -exchange      EXHF   =         0.00000000
  -V(xc)+E(xc)   XCENC  =      3237.49156357
  PAW double counting   =     88249.25333732   -87916.54327021
  entropy T*S    EENTRO =        -0.00000000
  eigenvalues    EBANDS =     -8852.22245883
  atomic energy  EATOM  =     64968.54023382
  Solvation  Ediel_sol  =         0.00000000
  ---------------------------------------------------
  free energy    TOTEN  =      -915.35849662 eV

  energy without entropy =     -915.35849662  energy(sigma->0) =     -915.35849662


--------------------------------------------------------------------------------------------------------




--------------------------------------- Iteration      1(  14)  ---------------------------------------


    POTLOK:  cpu time    0.1710: real time    0.1781
    SETDIJ:  cpu time    0.3201: real time    0.3210
     EDDAV:  cpu time   64.7885: real time   65.0630
       DOS:  cpu time    0.0011: real time    0.0011
    CHARGE:  cpu time    2.5033: real time    2.5155
    MIXING:  cpu time    0.0095: real time    0.0095
    --------------------------------------------
      LOOP:  cpu time   67.7936: real time   68.0882

 eigenvalue-minimisations  : 11336
 total energy-change (2. order) :-0.2197706E-02  (-0.9849572E-03)
 number of electron     864.0000006 magnetization 
 augmentation part      118.1813422 magnetization 

 Broyden mixing:
  rms(total) = 0.13189E-01    rms(broyden)= 0.13186E-01
  rms(prec ) = 0.18648E-01
  weight for this iteration     100.00

 eigenvalues of (default mixing * dielectric matrix)
  average eigenvalue GAMMA=   1.3226
  2.9504  2.4730  1.0644  0.9820  0.9820  0.8968  0.8968  0.8292  0.8292

 Free energy of the ion-electron system (eV)
  ---------------------------------------------------
  alpha Z        PSCENC =      2026.14881195
  Ewald energy   TEWEN  =    -35541.45497631
  -Hartree energ DENC   =    -27089.76239733
  -exchange      EXHF   =         0.00000000
  -V(xc)+E(xc)   XCENC  =      3237.56975114
  PAW double counting   =     88214.01364944   -87881.10084927
  entropy T*S    EENTRO =        -0.00000000
  eigenvalues    EBANDS =     -8849.31491777
  atomic energy  EATOM  =     64968.54023382
  Solvation  Ediel_sol  =         0.00000000
  ---------------------------------------------------
  free energy    TOTEN  =      -915.36069433 eV

  energy without entropy =     -915.36069433  energy(sigma->0) =     -915.36069433


--------------------------------------------------------------------------------------------------------




--------------------------------------- Iteration      1(  15)  ---------------------------------------


    POTLOK:  cpu time    0.1671: real time    0.1757
    SETDIJ:  cpu time    0.3190: real time    0.3201
     EDDAV:  cpu time   58.7159: real time   59.1101
       DOS:  cpu time    0.0011: real time    0.0011
    CHARGE:  cpu time    2.4533: real time    2.4718
    MIXING:  cpu time    0.0099: real time    0.0099
    --------------------------------------------
      LOOP:  cpu time   61.6663: real time   62.0887

 eigenvalue-minimisations  :  9992
 total energy-change (2. order) :-0.6820975E-03  (-0.2097142E-03)
 number of electron     864.0000006 magnetization 
 augmentation part      118.1793593 magnetization 

 Broyden mixing:
  rms(total) = 0.69433E-02    rms(broyden)= 0.69421E-02
  rms(prec ) = 0.10677E-01
  weight for this iteration     100.00

 eigenvalues of (default mixing * dielectric matrix)
  average eigenvalue GAMMA=   1.4142
  3.3550  2.3400  2.3400  0.8701  0.8701  0.9460  0.9460  0.8661  0.8044  0.8044

 Free energy of the ion-electron system (eV)
  ---------------------------------------------------
  alpha Z        PSCENC =      2026.14881195
  Ewald energy   TEWEN  =    -35541.45497631
  -Hartree energ DENC   =    -27091.63473722
  -exchange      EXHF   =         0.00000000
  -V(xc)+E(xc)   XCENC  =      3237.60656556
  PAW double counting   =     88207.60261740   -87874.78341153
  entropy T*S    EENTRO =        -0.00000000
  eigenvalues    EBANDS =     -8847.38648010
  atomic energy  EATOM  =     64968.54023382
  Solvation  Ediel_sol  =         0.00000000
  ---------------------------------------------------
  free energy    TOTEN  =      -915.36137643 eV

  energy without entropy =     -915.36137643  energy(sigma->0) =     -915.36137643


--------------------------------------------------------------------------------------------------------




--------------------------------------- Iteration      1(  16)  ---------------------------------------


    POTLOK:  cpu time    0.1761: real time    0.1770
    SETDIJ:  cpu time    0.3136: real time    0.3215
     EDDAV:  cpu time   56.9634: real time   57.4876
       DOS:  cpu time    0.0012: real time    0.0012
    CHARGE:  cpu time    2.4963: real time    2.5147
    MIXING:  cpu time    0.0097: real time    0.0097
    --------------------------------------------
      LOOP:  cpu time   59.9603: real time   60.5118

 eigenvalue-minimisations  :  9560
 total energy-change (2. order) :-0.2595758E-03  (-0.1017966E-03)
 number of electron     864.0000006 magnetization 
 augmentation part      118.1797066 magnetization 

 Broyden mixing:
  rms(total) = 0.46259E-02    rms(broyden)= 0.46253E-02
  rms(prec ) = 0.61923E-02
  weight for this iteration     100.00

 eigenvalues of (default mixing * dielectric matrix)
  average eigenvalue GAMMA=   1.4265
  3.6482  2.4347  2.4347  0.9190  0.9190  0.9691  0.9691  0.8638  0.8638  0.8348
  0.8348

 Free energy of the ion-electron system (eV)
  ---------------------------------------------------
  alpha Z        PSCENC =      2026.14881195
  Ewald energy   TEWEN  =    -35541.45497631
  -Hartree energ DENC   =    -27093.05162558
  -exchange      EXHF   =         0.00000000
  -V(xc)+E(xc)   XCENC  =      3237.61943451
  PAW double counting   =     88209.62552162   -87876.96599418
  entropy T*S    EENTRO =        -0.00000000
  eigenvalues    EBANDS =     -8845.82304184
  atomic energy  EATOM  =     64968.54023382
  Solvation  Ediel_sol  =         0.00000000
  ---------------------------------------------------
  free energy    TOTEN  =      -915.36163600 eV

  energy without entropy =     -915.36163600  energy(sigma->0) =     -915.36163600


--------------------------------------------------------------------------------------------------------




--------------------------------------- Iteration      1(  17)  ---------------------------------------


    POTLOK:  cpu time    0.1691: real time    0.1799
    SETDIJ:  cpu time    0.3249: real time    0.3257
     EDDAV:  cpu time   76.0214: real time   77.3470
       DOS:  cpu time    0.0010: real time    0.0010
    CHARGE:  cpu time    2.3933: real time    2.4119
    MIXING:  cpu time    0.0087: real time    0.0087
    --------------------------------------------
      LOOP:  cpu time   78.9184: real time   80.2742

 eigenvalue-minimisations  : 11592
 total energy-change (2. order) :-0.4819631E-04  (-0.8077924E-04)
 number of electron     864.0000006 magnetization 
 augmentation part      118.1809183 magnetization 

 Broyden mixing:
  rms(total) = 0.31864E-02    rms(broyden)= 0.31852E-02
  rms(prec ) = 0.38502E-02
  weight for this iteration     100.00

 eigenvalues of (default mixing * dielectric matrix)
  average eigenvalue GAMMA=   1.3616
  3.7949  2.4365  2.4365  0.9554  0.9554  0.9573  0.9573  0.8197  0.8197  0.8319
  0.8319  0.5431

 Free energy of the ion-electron system (eV)
  ---------------------------------------------------
  alpha Z        PSCENC =      2026.14881195
  Ewald energy   TEWEN  =    -35541.45497631
  -Hartree energ DENC   =    -27093.21021007
  -exchange      EXHF   =         0.00000000
  -V(xc)+E(xc)   XCENC  =      3237.61266740
  PAW double counting   =     88212.05527251   -87879.42967864
  entropy T*S    EENTRO =        -0.00000000
  eigenvalues    EBANDS =     -8845.62380486
  atomic energy  EATOM  =     64968.54023382
  Solvation  Ediel_sol  =         0.00000000
  ---------------------------------------------------
  free energy    TOTEN  =      -915.36168420 eV

  energy without entropy =     -915.36168420  energy(sigma->0) =     -915.36168420


--------------------------------------------------------------------------------------------------------




--------------------------------------- Iteration      1(  18)  ---------------------------------------


    POTLOK:  cpu time    0.1656: real time    0.1782
    SETDIJ:  cpu time    0.3194: real time    0.3202
     EDDAV:  cpu time   61.4369: real time   62.0421
       DOS:  cpu time    0.0013: real time    0.0013
    CHARGE:  cpu time    2.4571: real time    2.4755
    MIXING:  cpu time    0.0107: real time    0.0107
    --------------------------------------------
      LOOP:  cpu time   64.3911: real time   65.0282

 eigenvalue-minimisations  : 10800
 total energy-change (2. order) :-0.8613293E-05  (-0.1214600E-04)
 number of electron     864.0000006 magnetization 
 augmentation part      118.1805182 magnetization 

 Broyden mixing:
  rms(total) = 0.19891E-02    rms(broyden)= 0.19884E-02
  rms(prec ) = 0.25639E-02
  weight for this iteration     100.00

 eigenvalues of (default mixing * dielectric matrix)
  average eigenvalue GAMMA=   1.4013
  3.9898  2.5452  2.4098  1.3508  0.9900  0.9900  0.8874  0.8119  0.8119  0.8896
  0.8896  0.8252  0.8252

 Free energy of the ion-electron system (eV)
  ---------------------------------------------------
  alpha Z        PSCENC =      2026.14881195
  Ewald energy   TEWEN  =    -35541.45497631
  -Hartree energ DENC   =    -27093.21397270
  -exchange      EXHF   =         0.00000000
  -V(xc)+E(xc)   XCENC  =      3237.61024502
  PAW double counting   =     88216.51324981   -87883.90003079
  entropy T*S    EENTRO =        -0.00000000
  eigenvalues    EBANDS =     -8845.60525362
  atomic energy  EATOM  =     64968.54023382
  Solvation  Ediel_sol  =         0.00000000
  ---------------------------------------------------
  free energy    TOTEN  =      -915.36169281 eV

  energy without entropy =     -915.36169281  energy(sigma->0) =     -915.36169281


--------------------------------------------------------------------------------------------------------




--------------------------------------- Iteration      1(  19)  ---------------------------------------


    POTLOK:  cpu time    0.1671: real time    0.1738
    SETDIJ:  cpu time    0.3132: real time    0.3207
     EDDAV:  cpu time   54.6128: real time   55.1113
       DOS:  cpu time    0.0010: real time    0.0010
    CHARGE:  cpu time    2.5137: real time    2.5379
    MIXING:  cpu time    0.0106: real time    0.0106
    --------------------------------------------
      LOOP:  cpu time   57.6184: real time   58.1554

 eigenvalue-minimisations  :  9120
 total energy-change (2. order) :-0.6892195E-05  (-0.3755807E-05)
 number of electron     864.0000006 magnetization 
 augmentation part      118.1806615 magnetization 

 Broyden mixing:
  rms(total) = 0.91761E-03    rms(broyden)= 0.91639E-03
  rms(prec ) = 0.12220E-02
  weight for this iteration     100.00

 eigenvalues of (default mixing * dielectric matrix)
  average eigenvalue GAMMA=   1.4471
  4.2691  2.7153  2.2542  2.2542  0.8260  0.8260  0.9195  0.9195  0.9548  0.9548
  0.9037  0.9037  0.7789  0.7789

 Free energy of the ion-electron system (eV)
  ---------------------------------------------------
[...]
   -.109E+03 -.146E+02 -.149E+03   0.124E+03 -.625E+01 0.166E+03   -.104E+02 0.223E+02 -.103E+02   0.357E-03 -.278E-04 -.928E-04
   -.502E+02 -.306E+03 0.123E+03   0.602E+02 0.332E+03 -.129E+03   -.104E+02 -.266E+02 0.532E+01   0.935E-03 0.157E-02 -.120E-03
   0.643E+02 -.268E+02 -.823E+02   -.683E+02 0.408E+02 0.834E+02   0.417E+01 -.198E+02 -.470E+00   -.720E-03 -.330E-03 0.474E-03
   -.158E+03 -.619E+01 -.801E+01   0.191E+03 0.122E+02 0.128E+02   -.277E+02 0.296E+00 -.746E+01   0.144E-02 0.884E-04 -.321E-03
   0.146E+03 0.192E+03 0.744E+02   -.162E+03 -.194E+03 -.832E+02   0.201E+02 0.107E+01 0.104E+02   0.564E-03 -.116E-03 -.516E-03
   0.896E+02 0.101E+03 -.415E+02   -.956E+02 -.970E+02 0.719E+02   0.498E+01 -.386E+01 -.296E+02   0.976E-03 -.650E-03 -.310E-03
   -.103E+03 0.374E+02 0.912E+02   0.110E+03 -.512E+02 -.105E+03   -.784E+01 0.929E+01 0.123E+02   -.518E-03 -.917E-04 -.593E-03
   -.454E+02 -.382E+02 -.167E+02   0.520E+02 0.461E+02 0.752E+01   -.745E+01 -.766E+01 0.985E+01   -.360E-03 0.289E-03 0.261E-03
   0.266E+03 0.175E+03 -.335E+02   -.296E+03 -.171E+03 0.370E+02   0.251E+02 -.498E+01 -.336E+01   0.526E-03 -.787E-03 0.111E-02
   -.437E+02 -.123E+03 0.534E+02   0.464E+02 0.131E+03 -.301E+02   -.317E+01 -.926E+01 -.256E+02   -.235E-04 -.180E-03 -.634E-03
   -.155E+03 0.167E+03 0.116E+03   0.177E+03 -.166E+03 -.126E+03   -.235E+02 -.334E+01 0.108E+02   0.130E-04 -.835E-03 -.130E-03
   -.454E+02 0.505E+02 -.173E+03   0.628E+02 -.432E+02 0.191E+03   -.158E+02 -.909E+01 -.188E+02   0.338E-03 -.478E-04 -.796E-04
   -.317E+02 -.129E+02 -.507E+02   0.395E+02 0.301E+02 0.514E+02   -.771E+01 -.181E+02 0.597E+00   0.779E-03 -.131E-03 0.103E-02
   -.419E+02 -.133E+03 -.484E+02   0.265E+02 0.139E+03 0.432E+02   0.185E+02 -.514E+01 0.524E+01   0.153E-03 -.194E-03 0.328E-04
   0.159E+02 0.101E+03 0.875E+02   -.297E+02 -.107E+03 -.121E+03   0.120E+02 0.564E+01 0.282E+02   -.982E-03 -.223E-03 -.237E-03
   -.117E+03 0.172E+03 -.555E+02   0.132E+03 -.186E+03 0.602E+02   -.165E+02 0.102E+02 -.255E+01   0.577E-03 -.386E-03 -.234E-03
   -.212E+03 -.547E+02 0.212E+02   0.226E+03 0.438E+02 0.119E+01   -.142E+02 0.132E+02 -.266E+02   -.123E-03 0.864E-03 0.333E-03
   0.322E+03 0.363E+02 -.996E+01   -.334E+03 -.624E+02 0.728E+01   0.851E+01 0.253E+02 0.140E+01   -.151E-02 0.419E-03 -.853E-03
   -.127E+03 -.754E+02 0.244E+03   0.140E+03 0.794E+02 -.268E+03   -.137E+02 -.464E+01 0.249E+02   0.115E-02 -.238E-03 -.135E-02
   -.768E+01 -.162E+03 -.645E+02   0.214E+02 0.186E+03 0.854E+02   -.102E+02 -.213E+02 -.188E+02   0.467E-03 0.500E-03 0.123E-02
   -.800E+02 -.216E+03 0.718E+02   0.879E+02 0.230E+03 -.887E+02   -.868E+01 -.142E+02 0.192E+02   -.615E-04 0.204E-03 -.732E-03
   -.386E+02 -.539E+02 -.222E+02   0.237E+02 0.522E+02 0.353E+02   0.164E+02 0.142E+01 -.130E+02   0.200E-03 0.848E-03 0.159E-03
   -.418E+02 0.161E+03 0.208E+02   0.346E+02 -.175E+03 -.194E+02   0.651E+01 0.148E+02 -.253E+01   -.868E-03 0.143E-03 0.669E-04
   -.148E+03 -.740E+02 -.167E+03   0.155E+03 0.634E+02 0.193E+03   -.573E+01 0.960E+01 -.233E+02   -.866E-03 -.353E-03 0.562E-03
   0.958E+02 0.630E+02 0.106E+03   -.102E+03 -.720E+02 -.126E+03   0.537E+01 0.115E+02 0.210E+02   -.462E-03 0.794E-03 -.183E-03
   -.316E+02 -.204E+02 -.631E+02   0.496E+02 0.171E+02 0.766E+02   -.196E+02 0.315E+01 -.163E+02   -.447E-03 0.225E-03 0.915E-03
   0.115E+03 -.765E+02 0.796E+01   -.124E+03 0.600E+02 -.812E+01   0.985E+01 0.191E+02 -.281E+00   0.833E-03 0.668E-03 0.458E-03
   0.261E+00 0.122E+03 -.111E+03   -.132E+01 -.130E+03 0.125E+03   -.143E+01 0.761E+01 -.143E+02   -.844E-03 -.466E-05 0.558E-03
   0.557E+02 -.644E+02 0.618E+01   -.519E+02 0.811E+02 -.813E+01   -.507E+01 -.182E+02 0.333E+01   -.903E-03 -.200E-04 0.200E-03
   -.185E+03 -.966E+02 -.153E+03   0.192E+03 0.104E+03 0.158E+03   -.761E+01 -.892E+01 -.345E+01   0.314E-03 0.551E-03 0.101E-02
   0.669E+02 0.118E+03 0.748E+02   -.532E+02 -.117E+03 -.848E+02   -.162E+02 -.595E+00 0.111E+02   -.525E-03 -.354E-03 -.229E-03
   -.534E+01 0.166E+02 0.126E+03   -.199E+01 -.403E+02 -.149E+03   0.605E+01 0.199E+02 0.202E+02   -.796E-03 -.907E-03 -.627E-04
   0.463E+02 -.128E+03 0.445E+02   -.477E+02 0.135E+03 -.514E+02   -.171E+01 -.734E+01 0.878E+01   -.112E-02 0.380E-03 -.189E-03
   0.200E+02 -.551E+02 -.714E+01   -.342E+00 0.696E+02 0.206E+02   -.219E+02 -.144E+02 -.139E+02   -.287E-03 0.497E-03 0.420E-03
   -.185E+01 0.944E+02 -.121E+03   0.208E+02 -.975E+02 0.138E+03   -.214E+02 0.374E+01 -.186E+02   -.903E-04 -.970E-04 0.109E-02
   -.174E+03 0.665E+02 0.183E+03   0.194E+03 -.558E+02 -.201E+03   -.194E+02 -.789E+01 0.188E+02   0.309E-03 -.141E-03 -.254E-03
   0.781E+02 0.409E+00 -.605E+02   -.831E+02 -.236E+02 0.654E+02   0.553E+01 0.252E+02 -.544E+01   0.602E-04 0.508E-04 -.293E-03
   0.118E+03 0.335E+02 -.782E+01   -.126E+03 -.406E+02 0.374E+02   0.859E+01 0.713E+01 -.302E+02   -.938E-03 -.175E-03 -.168E-03
   -.213E+03 0.843E+02 0.958E+02   0.213E+03 -.106E+03 -.109E+03   0.554E+00 0.246E+02 0.138E+02   0.735E-03 -.436E-03 -.721E-03
   0.544E+02 0.129E+02 -.189E+02   -.626E+02 -.214E+02 0.439E+02   0.717E+01 0.787E+01 -.282E+02   0.848E-04 0.575E-03 -.864E-04
   0.980E+01 -.173E+03 -.106E+03   -.171E+01 0.184E+03 0.105E+03   -.918E+01 -.115E+02 0.811E+00   -.462E-03 -.672E-05 -.102E-03
   0.291E+02 0.184E+03 0.539E+02   -.352E+02 -.199E+03 -.646E+02   0.593E+01 0.148E+02 0.981E+01   -.115E-02 -.320E-03 -.499E-03
   0.684E+02 0.214E+03 -.585E+02   -.399E+02 -.231E+03 0.771E+02   -.263E+02 0.164E+02 -.178E+02   -.288E-03 -.231E-03 -.411E-03
   0.212E+03 0.482E+02 -.195E+02   -.234E+03 -.673E+02 0.135E+02   0.226E+02 0.192E+02 0.823E+01   0.362E-04 0.186E-03 0.128E-02
   0.188E+03 -.346E+02 -.761E+02   -.200E+03 0.557E+02 0.800E+02   0.113E+02 -.169E+02 0.366E+00   -.382E-04 0.966E-03 0.103E-02
   0.623E+02 0.335E+02 0.121E+03   -.817E+02 -.297E+02 -.133E+03   0.192E+02 -.465E+01 0.119E+02   -.148E-02 -.449E-03 -.857E-03
   0.543E+02 -.962E+02 0.923E+01   -.684E+02 0.117E+03 -.809E+01   0.110E+02 -.223E+02 -.783E-01   -.662E-04 -.536E-03 -.271E-03
   -.160E+02 0.779E+02 0.659E+01   0.912E+01 -.956E+02 0.234E+01   0.652E+01 0.170E+02 -.852E+01   -.472E-03 0.341E-03 0.168E-03
 -----------------------------------------------------------------------------------------------
   0.453E+02 0.185E+01 0.678E+02   0.355E-13 0.426E-12 -.275E-13   -.453E+02 -.183E+01 -.678E+02   -.774E-02 0.521E-03 0.200E-02
 
 
 POSITION                                       TOTAL-FORCE (eV/Angst)
 -----------------------------------------------------------------------------------
      8.11774     12.66455      3.11732        -1.197361     -1.336442      0.195775
      5.34094      1.94887      2.88910        -1.818614      0.269801      0.425332
     12.33791      2.67234      8.01546         0.448815     -1.042584     -1.332125
      2.00104      3.47200     10.51195        -1.054448     -0.031284     -0.105701
      7.06164      7.57546      1.36244        -0.424847     -1.437377      2.598591
      5.23248     12.19420     11.75851        -2.137029     -0.326070      0.772047
      8.24068      5.71901      5.22925        -0.907567     -0.824324     -3.434830
      7.08347     10.28614      8.97329        -0.609181      1.413889     -0.303848
      2.39881      5.58956      6.41282         0.381091     -0.920557      0.809475
     12.70682      7.20113      0.63173         0.686898     -0.040519      2.039021
      0.62612      7.73011      3.90804        -0.117947     -0.339445     -0.671382
      7.96975      2.04475      7.35482         0.990611     -1.014099      0.422672
     12.35766      0.95250      3.21255         0.344175     -0.314682     -0.457204
      0.48660     11.77849      5.79841         0.411640     -0.891825     -0.014736
      1.99367     10.35730      1.24590         0.179367     -0.560016     -0.404836
      3.97502      8.79163      5.09977         2.526039     -1.236607     -0.333582
     12.19753      0.68234     10.95992         0.582054      2.652742      0.910593
      9.11215     13.13255     11.16694        -1.375670     -0.440578     -1.931259
      8.81790      2.11430      0.07278        -2.309875     -2.852768      0.386952
     11.37536      6.66844     10.85558        -1.224605      0.524676     -0.161941
      4.14969      2.40216      7.69708        -2.578593      1.981584     -0.136423
     11.85977     11.82019      8.46980        -0.842007     -1.086725     -1.763559
      2.07953      2.10189      0.82246         0.359764      0.593463     -0.774628
      4.07422      8.69358     12.20559         1.341181     -1.259860     -0.597083
      7.26550      4.48582     11.02353        -0.782784      1.571434      0.179363
      9.36739      5.51088      7.90997        -0.298576      0.382800      0.671787
     10.64364      3.85450      2.24328         0.717870     -0.010361      0.433127
     10.44695      8.20065      3.29345        -4.720468     -3.938408     -2.008694
      2.44350      2.65416      4.69775         0.645090     -1.691309     -0.810745
     10.18448      0.12142      5.52171         3.241130      1.820063     -3.382415
      1.38633      8.48825      6.99084         3.702716     -1.919590     -3.034458
      5.11546      2.47881     11.75740        -1.763143      0.151815      2.646390
      4.75098      4.51365      5.20368         3.127602      3.807542     -2.141594
     10.29853      4.50939     12.82507        -8.035974      3.216456     -3.374719
      5.79434      7.58697      9.55305        -0.164710      0.369127     -3.385770
      0.33375      4.24527      3.05697        -1.723452      0.331016      2.936770
      3.76847      4.53652     13.11831         1.078773      0.871792      1.257064
      7.44430      8.66613     11.69658         0.186132     -2.005057     -3.291236
     11.95200     10.90186     11.51320        -0.949371      1.715081      0.525721
     11.14420     10.24095      0.99766         3.897427     -0.366719      5.344611
     11.01441      3.65445     10.18739         3.040668     -4.344678      1.094204
      0.88730      8.75105     10.97899         0.094337     -0.801348     -1.873560
     10.67426     10.33519      5.76774        -3.686566      3.973665     -0.300952
      1.49381     13.18077     11.87079         1.725022     -0.465261     -1.742779
      6.28994      5.40218      7.66600         0.899302     -0.824064      0.825727
     10.35740     13.20347      0.89389         5.501211      3.910803      0.271109
      3.52394      7.29928      1.82308         1.149069      1.690932      0.028539
      1.60726      0.28104      8.70478        -1.002536      4.850308      1.417370
      2.53910     13.11362      2.90405         1.022135      1.360754      6.033422
      4.32348     12.79164      7.56466        -2.864874     -1.802133     -5.049977
      2.64959      7.17854      9.01695         1.710048     -0.399821      2.315078
      4.96258     12.11431      4.61425         1.607093     -0.438248     -7.437720
      5.90294      0.66543      9.36603        -1.111213     -2.226880      1.918564
     10.84730      3.60853      5.23320         4.991104     -0.226234      0.443021
     10.76066      3.28884     12.03684         3.026187     -2.289285     -5.144787
      2.83945      1.44750      3.40891        -2.018420      2.745260      1.066412
      4.71903      1.62677     10.16300         2.181100      0.414396     -0.649402
      6.15286     13.25260      4.11019         1.030941     -0.887944      1.776255
      4.95594     11.71768      8.32436         3.537192     -5.319611      4.591042
      9.20049      5.37004     11.51599         3.531825     -0.337960     -0.369853
      9.50838     11.07054      6.94008         1.928645     -1.918324     -2.744859
      8.90496      3.99720      0.15561         0.500294      3.215399      3.626431
      2.96861     12.39342     11.89400        -1.495155      0.851293      1.168106
      0.54364      5.57383      2.28056         0.016990      1.763377      0.669195
     12.70666      3.33173     10.04267        -0.664201      0.666400      0.754357
      9.65536      3.77707      4.27782        -3.057633      0.096670     -0.631131
      6.21954      4.45171      4.47613         0.738678     -0.105678      1.463265
      3.73379      5.61309      4.69301        -1.525292      0.706352      2.436821
      4.18286      1.49969     12.66192         1.301413      0.027635     -0.423472
     11.64070      1.33914      5.30239        -1.785797      1.308078      0.285172
      3.06505      7.56449      7.53282         0.016028      1.248774     -2.857039
     10.79018     10.90026     12.91242         2.063958      0.348574     -6.076406
      9.06524      8.47676     11.16646        -2.982301      1.148419      0.582126
      2.55040      3.62458     12.62433        -1.933335      2.154633     -0.763083
      1.16681      9.88982      7.43380        -1.418182      5.453332      0.508148
     10.67197      1.96798      9.55221        -0.762453      2.400769      0.764291
      9.33423      0.64246      4.05579         1.852742     -1.134716      3.586243
      4.22217     12.31356      5.94989        -1.126135      1.817072      2.584258
      1.96949      7.91599      2.07176         1.144256     -0.557862     -0.603543
      1.30906     12.60606      3.99971         1.484601      0.422846     -0.718879
      1.39919      8.33372      9.21897        -0.037499     -1.388851      4.203500
      7.09446      8.85701     13.24387         0.452787      0.716821     -0.966743
      1.05086      3.48485      4.33184         3.193050      0.482261      0.673526
     11.80319      7.70095      2.88056         3.890593     -1.635600     -0.390451
      7.54676      4.23047      7.83020        -0.795535     -1.017164      0.198710
      4.75362      4.31432     11.70569        -0.104991     -1.472280     -0.348047
     10.26321      0.92985     12.52836         1.839870     -4.703652     -0.974790
      6.62404      7.01664     10.72826         3.741511      1.511945      6.700269
      7.28087      6.48373      6.95555        -0.404857     -0.308394     -0.749926
      0.91964      1.88767     11.96090         0.209662     -5.750159      0.617819
      7.31907      1.15567      9.31069         5.793174      6.344733     -2.641733
     10.66252     11.62051     10.39409         3.748644     -0.006027      1.556719
      9.71206      0.51632      6.96993        -1.044980      0.457700      0.683412
      4.02190      3.25648      4.63608        -1.190012     -4.467351     -1.113986
      3.89322      6.30768      0.27678        -0.899960      0.204428      0.627944
      8.85980      0.01535      1.15187        -5.022402     -1.411003      0.193994
     10.79237      4.13225      6.81302        -0.421088     -1.093331     -2.352205
      4.21785     12.98359      2.95847        -1.450109     -2.625826      1.250432
      6.54711      2.85889     12.45171         1.547318     -1.879071     -1.494925
     10.93523      1.44422      1.44571         0.027695     -0.965069      1.317558
      5.95235      9.44041     11.01243         3.114974      1.081311      0.077557
      1.98163     12.89443      1.52701        -1.819025     -0.366456     -4.901492
      6.63833     12.75087     10.25461        -1.914000     -3.119692      2.104462
      4.50903      6.99032      3.16684        -0.709895      2.305578     -4.260017
      0.96175      7.01465      6.69231        -4.214105     -0.741342     -1.286424
      6.63539      8.40436      8.37987        -1.200414     -0.728878      1.270221
     11.04890      5.49664      0.36462         3.509901      2.770124      2.077047
     11.01338      4.95163      9.15474        -0.805271      0.265053      2.334557
      4.83614      4.67363      6.93941         1.449044     -0.340783      0.061715
      1.23115     13.03155     10.21143        -0.694976      0.411245     -1.137570
      4.13144      3.78481      1.15851         1.084096     -0.967466      1.900014
     12.75865      9.68658     10.63234        -0.978216      2.411076      1.155044
     12.70701      9.84767      1.64496        -1.654443     -0.093492     -2.881423
      9.32075      6.85843      3.54866         0.790833      2.625619     -0.448163
      0.13082     12.06924     12.20758        -2.494896     -0.437695     -0.643441
      2.25297      1.90170      8.74018        -1.238575     -1.562295      1.375058
      4.06605      9.30533      0.88114        -0.920269     -1.396516      1.345320
     11.39140     12.02371      5.13155        -2.438512     -0.065788      1.090818
     13.30065      3.06875      2.15089        -1.277412     -3.821887     -2.658970
      2.02501      8.95745      5.07028        -3.118417     -0.328273      1.856771
      2.12634      9.33040     11.80230        -2.320595      0.128760     -0.411139
     11.30266     11.99652      1.68228        -2.446624      0.612812     -1.151010
      5.43856      0.64281      7.68241         0.585889      2.790908      0.436616
      2.33885      5.56554      9.32205         0.510761      2.080004     -0.485343
      2.32970      2.37470      6.27364         0.184055     -0.031778     -0.621659
      4.88230     10.50568      4.17306         1.080498      2.787823      0.872639
      5.83758      5.79129      9.19693        -1.004864     -0.639782     -3.151697
     12.13004      4.27507      4.28129        -1.091379     -0.273962     -0.172205
      2.76082     12.88904      7.89004        -0.171064     -0.527054     -0.804481
     11.87106      9.74489      6.51380         2.216645     -1.050839      0.807474
     10.02779      9.06054      1.17521         0.406324      0.134231      2.203034
     10.16550      9.44514      4.14875        -0.206933      4.119077      4.278853
      0.09310      0.24064      8.01507        -0.232515     -0.890300     -0.214082
      4.24660      8.04400      9.61697        -3.127619     -1.729759      1.053371
      0.02128      7.53439     11.66542        -0.398774     -0.685466      0.413234
 -----------------------------------------------------------------------------------
    total drift:                                0.000408      0.019266      0.014829


--------------------------------------------------------------------------------------------------------



  FREE ENERGIE OF THE ION-ELECTRON SYSTEM (eV)
  ---------------------------------------------------
  free  energy   TOTEN  =      -915.36170653 eV

  energy  without entropy=     -915.36170653  energy(sigma->0) =     -915.36170653
 


--------------------------------------------------------------------------------------------------------


    POTLOK:  cpu time    0.4739: real time    0.4887


--------------------------------------------------------------------------------------------------------


     LOOP+:  cpu time 1463.6812: real time 1475.1802
    4ORBIT:  cpu time    0.0000: real time    0.0000

 total amount of memory used by VASP MPI-rank0   216956. kBytes
=======================================================================

   base      :      30000. kBytes
   nonlr-proj:      21593. kBytes
   fftplans  :      34308. kBytes
   grid      :      19248. kBytes
   one-center:        186. kBytes
   wavefun   :     111621. kBytes
 
  
  
 General timing and accounting informations for this job:
 ========================================================
  
                  Total CPU time used (sec):     1491.769
                            User time (sec):     1486.717
                          System time (sec):        5.052
                         Elapsed time (sec):     1503.454
  
                   Maximum memory used (kb):      354836.
                   Average memory used (kb):           0.
  
                          Minor page faults:       308776
                          Major page faults:            0
                 Voluntary context switches:          413
