 vasp.5.4.4.18Apr17-6-g9f103f2a35 (build Mar 16 2023 09:39:13) complex          
  
 executed on             LinuxIFC date 2024.04.30  01:16:48
 running on   48 total cores
 distrk:  each k-point on   48 cores,    1 groups
 distr:  one band on NCORES_PER_BAND=  12 cores,    4 groups


--------------------------------------------------------------------------------------------------------


 INCAR:
 POTCAR:    PAW_PBE Ca_sv 06Sep2000               
 POTCAR:    PAW_PBE Si 05Jan2001                  
 POTCAR:    PAW_PBE O 08Apr2002                   
 POTCAR:    PAW_PBE Ca_sv 06Sep2000               
   SHA256 =  a47365830e737f14e0e6c5cf1ed81b94e081eecf0a33df105380881bc9da05d5 Ca
   COPYR  = (c) Copyright 06Sep2000 Georg Kresse                                
   COPYR  = This file is part of the software VASP. Any use, copying, and all ot
   COPYR  = If you do not have a valid VASP license, you may not use, copy or di
   VRHFIN =Ca: 3s3p4s                                                           
   LEXCH  = PE                                                                  
   EATOM  =  1006.0909 eV,   73.9456 Ry                                         
                                                                                
   TITEL  = PAW_PBE Ca_sv 06Sep2000                                             
   LULTRA =        F    use ultrasoft PP ?                                      
   IUNSCR =        1    unscreen: 0-lin 1-nonlin 2-no                           
   RPACOR =    2.000    partial core radius                                     
   POMASS =   40.078; ZVAL   =   10.000    mass and valenz                      
   RCORE  =    2.300    outmost cutoff radius                                   
   RWIGS  =    2.500; RWIGS  =    1.323    wigner-seitz radius (au A)           
   ENMAX  =  266.622; ENMIN  =  199.967 eV                                      
   RCLOC  =    1.808    cutoff for local pot                                    
   LCOR   =        T    correct aug charges                                     
   LPAW   =        T    paw PP                                                  
   EAUG   =  420.852                                                            
   RMAX   =    2.359    core radius for proj-oper                               
   RAUG   =    1.300    factor for augmentation sphere                          
   RDEP   =    2.392    radius for radial grids                                 
   RDEPT  =    1.987    core radius for aug-charge                              
                                                                                
   Atomic configuration                                                         
    7 entries                                                                   
     n  l   j            E        occ.                                          
     1  0  0.50     -3949.1705   2.0000                                         
     2  0  0.50      -414.3434   2.0000                                         
     2  1  1.50      -334.7047   6.0000                                         
     3  0  0.50       -47.0896   2.0000                                         
     4  0  0.50        -3.7663   2.0000                                         
     3  1  1.50       -28.0061   6.0000                                         
     3  2  1.50        -4.0817   0.0000                                         
   Description                                                                  
     l       E           TYP  RCUT    TYP  RCUT                                 
     0    -47.0896403     23  2.300                                             
     0     -3.7663320     23  2.300                                             
     1    -28.0060855     23  2.300                                             
     1      6.8029130     23  2.300                                             
     2     -4.0817478     23  2.300                                             
     2      0.4464412     23  2.300                                             
  local pseudopotential read in
  partial core-charges read in
  partial kinetic energy density read in
  atomic valenz-charges read in
  non local Contribution for L=           0  read in
    real space projection operators read in
  non local Contribution for L=           0  read in
    real space projection operators read in
  non local Contribution for L=           1  read in
    real space projection operators read in
  non local Contribution for L=           1  read in
    real space projection operators read in
  non local Contribution for L=           2  read in
    real space projection operators read in
  non local Contribution for L=           2  read in
    real space projection operators read in
    PAW grid and wavefunctions read in
 
   number of l-projection  operators is LMAX  =           6
   number of lm-projection operators is LMMAX =          18
 
 POTCAR:    PAW_PBE Si 05Jan2001                  
   SHA256 =  79d9987ad8750f624c4d6acb2a16d13abf6a777132adc04dc6c8399be72b42bb Si
   COPYR  = (c) Copyright 05Jan2001 Georg Kresse                                
   COPYR  = This file is part of the software VASP. Any use, copying, and all ot
   COPYR  = If you do not have a valid VASP license, you may not use, copy or di
   VRHFIN =Si: s2p2                                                             
   LEXCH  = PE                                                                  
   EATOM  =   103.0669 eV,    7.5752 Ry                                         
                                                                                
   TITEL  = PAW_PBE Si 05Jan2001                                                
   LULTRA =        F    use ultrasoft PP ?                                      
   IUNSCR =        1    unscreen: 0-lin 1-nonlin 2-no                           
   RPACOR =    1.500    partial core radius                                     
   POMASS =   28.085; ZVAL   =    4.000    mass and valenz                      
   RCORE  =    1.900    outmost cutoff radius                                   
   RWIGS  =    2.480; RWIGS  =    1.312    wigner-seitz radius (au A)           
   ENMAX  =  245.345; ENMIN  =  184.009 eV                                      
   ICORE  =        2    local potential                                         
   LCOR   =        T    correct aug charges                                     
   LPAW   =        T    paw PP                                                  
   EAUG   =  322.069                                                            
   DEXC   =    0.000                                                            
   RMAX   =    1.950    core radius for proj-oper                               
   RAUG   =    1.300    factor for augmentation sphere                          
   RDEP   =    1.993    radius for radial grids                                 
   RDEPT  =    1.837    core radius for aug-charge                              
                                                                                
   Atomic configuration                                                         
    6 entries                                                                   
     n  l   j            E        occ.                                          
     1  0  0.50     -1785.8828   2.0000                                         
     2  0  0.50      -139.4969   2.0000                                         
     2  1  1.50       -95.5546   6.0000                                         
     3  0  0.50       -10.8127   2.0000                                         
     3  1  0.50        -4.0811   2.0000                                         
     3  2  1.50        -4.0817   0.0000                                         
   Description                                                                  
     l       E           TYP  RCUT    TYP  RCUT                                 
     0    -10.8127223     23  1.900                                             
     0     -7.6451159     23  1.900                                             
     1     -4.0811372     23  1.900                                             
     1      2.4879257     23  1.900                                             
     2     -4.0817478      7  1.900                                             
  local pseudopotential read in
  partial core-charges read in
  partial kinetic energy density read in
  atomic valenz-charges read in
  non local Contribution for L=           0  read in
    real space projection operators read in
  non local Contribution for L=           0  read in
    real space projection operators read in
  non local Contribution for L=           1  read in
    real space projection operators read in
  non local Contribution for L=           1  read in
    real space projection operators read in
    PAW grid and wavefunctions read in
 
   number of l-projection  operators is LMAX  =           4
   number of lm-projection operators is LMMAX =           8
 
 POTCAR:    PAW_PBE O 08Apr2002                   
   SHA256 =  818f92134a0a090dccd8ba1447fa70422a3b330e708bb4f08108d8ae51209ddf O/
   COPYR  = (c) Copyright 08Apr2002 Georg Kresse                                
   COPYR  = This file is part of the software VASP. Any use, copying, and all ot
   COPYR  = If you do not have a valid VASP license, you may not use, copy or di
   VRHFIN =O: s2p4                                                              
   LEXCH  = PE                                                                  
   EATOM  =   432.3788 eV,   31.7789 Ry                                         
                                                                                
   TITEL  = PAW_PBE O 08Apr2002                                                 
   LULTRA =        F    use ultrasoft PP ?                                      
   IUNSCR =        1    unscreen: 0-lin 1-nonlin 2-no                           
   RPACOR =    1.200    partial core radius                                     
   POMASS =   16.000; ZVAL   =    6.000    mass and valenz                      
   RCORE  =    1.520    outmost cutoff radius                                   
   RWIGS  =    1.550; RWIGS  =    0.820    wigner-seitz radius (au A)           
   ENMAX  =  400.000; ENMIN  =  300.000 eV                                      
   ICORE  =        2    local potential                                         
   LCOR   =        T    correct aug charges                                     
   LPAW   =        T    paw PP                                                  
   EAUG   =  605.392                                                            
   DEXC   =    0.000                                                            
   RMAX   =    1.553    core radius for proj-oper                               
   RAUG   =    1.300    factor for augmentation sphere                          
   RDEP   =    1.550    radius for radial grids                                 
   RDEPT  =    1.329    core radius for aug-charge                              
                                                                                
   Atomic configuration                                                         
    4 entries                                                                   
     n  l   j            E        occ.                                          
     1  0  0.50      -514.6923   2.0000                                         
     2  0  0.50       -23.9615   2.0000                                         
     2  1  0.50        -9.0305   4.0000                                         
     3  2  1.50        -9.5241   0.0000                                         
   Description                                                                  
     l       E           TYP  RCUT    TYP  RCUT                                 
     0    -23.9615318     23  1.200                                             
     0     -9.5240782     23  1.200                                             
     1     -9.0304911     23  1.520                                             
     1      8.1634956     23  1.520                                             
     2     -9.5240782      7  1.500                                             
  local pseudopotential read in
  partial core-charges read in
  partial kinetic energy density read in
  kinetic energy density of atom read in
  atomic valenz-charges read in
  non local Contribution for L=           0  read in
    real space projection operators read in
  non local Contribution for L=           0  read in
    real space projection operators read in
  non local Contribution for L=           1  read in
    real space projection operators read in
  non local Contribution for L=           1  read in
    real space projection operators read in
    PAW grid and wavefunctions read in
 
   number of l-projection  operators is LMAX  =           4
   number of lm-projection operators is LMMAX =           8
 
 Optimization of the real space projectors (new method)

 maximal supplied QI-value         = 16.25
 optimisation between [QCUT,QGAM] = [ 12.51, 25.03] = [ 43.85,175.40] Ry 
 Optimized for a Real-space Cutoff    1.47 Angstroem

   l    n(q)    QCUT    max X(q) W(low)/X(q) W(high)/X(q)  e(spline) 
   0     11    12.514    11.817    0.25E-04    0.32E-05    0.87E-07
   0     11    12.514     8.461    0.39E-04    0.59E-05    0.18E-06
   1     11    12.514     3.957    0.97E-05    0.57E-05    0.28E-07
   1     11    12.514     4.314    0.42E-04    0.14E-04    0.23E-06
   2     10    12.514    14.565    0.79E-04    0.50E-03    0.16E-05
   2     10    12.514    14.552    0.75E-04    0.48E-03    0.15E-05
 Optimization of the real space projectors (new method)

 maximal supplied QI-value         = 19.84
 optimisation between [QCUT,QGAM] = [ 12.50, 25.00] = [ 43.76,175.03] Ry 
 Optimized for a Real-space Cutoff    1.16 Angstroem

   l    n(q)    QCUT    max X(q) W(low)/X(q) W(high)/X(q)  e(spline) 
   0      9    12.501   159.560    0.10E-03    0.83E-04    0.71E-07
   0      9    12.501   115.863    0.99E-04    0.81E-04    0.70E-07
   1      8    12.501    88.339    0.20E-03    0.25E-03    0.76E-07
   1      8    12.501    48.592    0.20E-03    0.24E-03    0.75E-07
 Optimization of the real space projectors (new method)

 maximal supplied QI-value         = 24.76
 optimisation between [QCUT,QGAM] = [ 12.38, 25.00] = [ 42.90,175.06] Ry 
 Optimized for a Real-space Cutoff    1.16 Angstroem

   l    n(q)    QCUT    max X(q) W(low)/X(q) W(high)/X(q)  e(spline) 
   0      9    12.378    20.381    0.16E-03    0.67E-05    0.31E-06
   0      9    12.378    15.268    0.17E-03    0.81E-05    0.33E-06
   1      8    12.378     5.964    0.20E-03    0.16E-03    0.30E-06
   1      8    12.378     5.382    0.18E-03    0.14E-03    0.26E-06
  PAW_PBE Ca_sv 06Sep2000               :
 energy of atom  1       EATOM=-1006.0909
 kinetic energy error for atom=    0.0012 (will be added to EATOM!!)
  PAW_PBE Si 05Jan2001                  :
 energy of atom  2       EATOM= -103.0669
 kinetic energy error for atom=    0.0003 (will be added to EATOM!!)
  PAW_PBE O 08Apr2002                   :
 energy of atom  3       EATOM= -432.3788
 kinetic energy error for atom=    0.0168 (will be added to EATOM!!)
 
 
 POSCAR: Ca Si  O                                
  positions in direct lattice
  No initial velocities read in
 exchange correlation table for  LEXCH =        8
   RHO(1)=    0.500       N(1)  =     2000
   RHO(2)=  100.500       N(2)  =     4000
 


--------------------------------------------------------------------------------------------------------


 ion  position               nearest neighbor table
   1  0.524  0.204  0.637- 114 2.15 100 2.16 101 2.17 110 2.32  22 2.34  75 2.40  58 2.45  68 2.45
                           128 2.50  53 2.55  32 2.91  33 2.99  45 3.06  41 3.06
   2  0.605  0.250  0.115- 119 1.92  82 1.99  91 2.08  60 2.11  72 2.20 129 2.30  98 2.39  17 2.62
                            35 2.75  15 2.86  38 2.88  37 2.95  34 3.01
   3  0.131  0.157  0.969- 117 2.07 109 2.09  55 2.21  83 2.29  73 2.36 130 2.36 103 2.45   9 2.85
                            52 2.96  22 3.03  38 3.05  49 3.10  13 3.14
   4  0.521  0.796  0.428- 108 1.99 124 2.11  88 2.11  86 2.14 132 2.22  97 2.29  99 2.43  42 2.45
                            57 2.46  53 2.71  29 2.83   8 2.91  23 3.05
   5  0.215  0.579  0.252-  70 1.88  92 1.95  95 2.00  93 2.43  78 2.50  57 2.56  25 2.64  24 2.75
                             7 2.78  42 2.86  51 2.99  46 2.99   8 3.05   6 3.12
   6  0.985  0.392  0.186- 105 1.85  94 2.02  78 2.10  60 2.14  87 2.16 103 2.32  62 2.46 117 2.57
                            35 2.67  51 2.74  19 2.84  40 2.91   7 2.97  36 2.98   5 3.12  34 3.13
   7  0.025  0.529  0.438- 105 1.94  94 1.99  70 2.09  66 2.18  81 2.21 106 2.49  63 2.54  10 2.61
                            36 2.64  30 2.74   5 2.78  12 2.79   6 2.97
   8  0.502  0.537  0.315- 107 1.96  57 2.04  95 2.16  89 2.19  92 2.27  82 2.35  68 2.37  72 2.49
                            32 2.61  28 2.86   4 2.91  30 2.97  50 2.98   5 3.05  34 3.10
   9  0.933  0.136  0.776- 128 2.01 127 2.02  83 2.16  56 2.19  73 2.24 113 2.26  80 2.37  45 2.38
                            65 2.39  39 2.75  40 2.83   3 2.85  13 2.93  26 2.98  17 3.09
  10  0.015  0.761  0.542- 126 1.97  80 2.25 111 2.26 106 2.26  70 2.29  66 2.34  63 2.39 131 2.47
                            44 2.59   7 2.61  20 2.93  42 2.95  11 2.99  47 3.02  39 3.02  29 3.15
  11  0.188  0.924  0.710- 111 2.12  71 2.15 120 2.19 109 2.27  90 2.30  80 2.37  83 2.51  52 2.68
                            47 2.79  39 2.87  44 2.99  10 2.99  53 3.07  31 3.09  22 3.11
  12  0.262  0.465  0.554-  58 1.98  85 2.09  96 2.10  57 2.18  66 2.27  68 2.50   7 2.79  13 2.81
                            31 2.84  33 2.89  42 3.02  47 3.09  21 3.15  32 3.15
  13  0.097  0.368  0.750-  83 2.17  85 2.19 123 2.24  56 2.32  66 2.33 117 2.36  96 2.41  58 2.51
                           115 2.54  12 2.81  31 2.82   9 2.93  20 2.97  47 3.09  33 3.10   3 3.14
  14  0.869  0.918  0.032-  77 2.13 113 2.13  73 2.17  79 2.17 134 2.20 135 2.25  69 2.28  65 2.38
                            39 2.49  48 2.61  35 2.85  52 2.95  37 3.00  24 3.01  43 3.05  27 3.13
  15  0.371  0.383  0.046- 123 1.93  72 2.08 125 2.09  87 2.18 129 2.38  55 2.40  25 2.44  50 2.48
                            92 2.52  33 2.58   2 2.86  38 3.05  51 3.11
  16  0.419  0.963  0.928-  71 1.96 109 1.98  59 2.18  55 2.23 119 2.28  84 2.32  22 2.37 100 2.45
                            38 2.63  46 2.87  17 2.95  27 2.95  37 2.99  52 3.01  53 3.12
  17  0.665  0.110  0.910-  65 2.00 100 2.15 113 2.24 119 2.27  98 2.28 128 2.33 135 2.34   2 2.62
                            16 2.95  37 2.95  40 3.04   9 3.09  14 3.13  27 3.16
  18  0.601  0.481  0.839- 118 1.96 116 1.97  98 1.98 125 2.21 101 2.22  33 2.31 112 2.32 122 2.43
                            50 2.67  28 2.74  21 3.09  40 3.11
  19  0.754  0.531  0.123- 107 1.96  64 2.03 134 2.15 122 2.16  72 2.21  60 2.27  94 2.50  48 2.61
                            30 2.72  43 2.82   6 2.84  40 2.87  34 3.05  50 3.08
  20  0.894  0.573  0.720-  66 2.12 116 2.17  63 2.18 115 2.21 131 2.31  56 2.43  69 2.55  64 2.57
                            29 2.74  43 2.80  10 2.93  13 2.97  47 3.04
  21  0.409  0.679  0.718-  90 1.96  96 2.14 118 2.17  71 2.41  67 2.43  47 2.47 125 2.51 108 2.52
                            33 2.90  42 2.95  28 3.08  18 3.09  53 3.11  27 3.11  12 3.15
  22  0.372  0.148  0.798- 101 1.96  55 2.03 114 2.31  58 2.33   1 2.34 100 2.35  16 2.37  83 2.45
                            71 2.49 109 2.56  33 2.68  53 2.79  31 2.80   3 3.03  11 3.11
  23  0.318  0.004  0.366- 121 2.12 124 2.14 120 2.28 133 2.30  86 2.32  76 2.34  84 2.40 114 2.42
                           110 2.49  38 2.59  49 2.81  42 2.87   4 3.05  31 3.08  46 3.16
  24  0.029  0.771  0.228- 106 1.85 133 2.18  78 2.27  77 2.35  93 2.35  79 2.39  70 2.45 134 2.47
                            49 2.67   5 2.75  54 2.88  43 3.00  14 3.01  52 3.14
  25  0.199  0.542  0.998- 115 2.06  67 2.19 123 2.19  78 2.28 125 2.30  15 2.44  92 2.46  87 2.48
                             5 2.64  47 2.67  43 2.69  50 2.93
  26  0.738  0.980  0.629- 128 1.91 132 2.06  97 2.09  61 2.22 100 2.25 113 2.28 131 2.33  80 2.39
                            29 2.46  53 2.72  39 2.89  41 2.90   9 2.98  44 3.01  27 3.03  45 3.09
  27  0.648  0.808  0.852- 135 1.94 122 2.08 113 2.31  97 2.31  69 2.33 131 2.48 116 2.49  59 2.52
                            48 2.59  29 2.63  16 2.95  39 3.00  26 3.03  21 3.11  14 3.13  17 3.16
  28  0.603  0.501  0.572- 112 1.51  89 1.58 108 1.63 118 1.78  68 1.83 116 2.06  18 2.74  29 2.76
                             8 2.86  30 2.90  34 3.02  21 3.08
  29  0.717  0.741  0.614-  97 1.64 131 1.65 108 1.74  63 1.75 116 1.79  88 2.08  26 2.46  27 2.63
                            20 2.74  28 2.76   4 2.83  30 2.87  10 3.15
  30  0.777  0.606  0.376- 107 1.59  63 1.66  89 1.71  94 1.76 106 1.83  88 2.06  34 2.68  19 2.72
                             7 2.74  29 2.87  28 2.90   8 2.97
  31  0.219  0.192  0.578-  58 1.55 120 1.64  85 1.69  76 1.87  83 1.94 114 1.99  36 2.73  22 2.80
                            13 2.82  12 2.84  44 3.01  23 3.08  11 3.09
  32  0.450  0.296  0.379- 110 1.56  68 1.58  82 1.72 129 1.73  76 1.92  95 2.00   8 2.61  51 2.64
                            41 2.88   1 2.91  34 2.99  12 3.15
  33  0.392  0.408  0.797- 118 1.58 101 1.59 123 1.75 125 1.78  96 1.83  58 2.14  18 2.31  15 2.58
                            22 2.68  12 2.89  21 2.90   1 2.99  13 3.10
  34  0.736  0.349  0.358-  82 1.66  75 1.74  89 1.77  62 1.90  94 1.95  60 2.50  30 2.68  41 2.82
                            36 2.97  32 2.99  45 3.00   2 3.01  28 3.02  19 3.05  35 3.09   8 3.10
  35  0.858  0.168  0.151- 103 1.58  91 1.59  60 1.64  65 1.69  62 2.18  77 2.23   6 2.67   2 2.75
                            40 2.77  49 2.83  14 2.85  34 3.09
  36  0.999  0.274  0.452-  62 1.59  85 1.62  81 1.73 105 1.74 104 1.75 127 1.83  45 2.63   7 2.64
                            31 2.73  51 2.77  44 2.77  34 2.97   6 2.98
  37  0.606  0.965  0.152-  74 1.50 135 1.61 119 1.65 102 1.72  99 1.81  91 1.85  48 2.18  84 2.52
                            41 2.77  38 2.81  46 2.90   2 2.95  54 2.95  17 2.95  16 2.99  14 3.00
  38  0.369  0.101  0.138-  55 1.61  84 1.65 121 1.70 119 1.73 129 1.74  23 2.59  16 2.63  37 2.81
                             2 2.88  51 2.94   3 3.05  15 3.05  46 3.14
  39  0.930  0.869  0.803- 131 1.60 113 1.61  73 1.67 111 1.78  80 1.85  69 1.87  79 2.38  14 2.49
                            52 2.72   9 2.75  11 2.87  26 2.89  43 2.96  27 3.00  10 3.02
  40  0.849  0.339  0.943-  64 1.57 117 1.60  98 1.62  56 1.95  60 1.96  65 2.06  35 2.77   9 2.83
                            19 2.87   6 2.91  17 3.04  18 3.11
  41  0.643  0.092  0.387-  61 1.63  74 1.64 110 1.64 132 1.74  75 2.00  91 2.24  54 2.58  37 2.77
                            34 2.82  32 2.88  26 2.90   1 3.06
  42  0.291  0.743  0.464- 124 1.56  57 1.60  70 1.63  90 1.65  86 1.80   4 2.45   5 2.86  23 2.87
                            10 2.95  21 2.95  12 3.02
  43  0.958  0.640  0.976- 115 1.55  69 1.61  79 1.62  78 1.64  64 1.94 134 2.26  25 2.69  20 2.80
                            19 2.82  39 2.96  24 3.00  52 3.03  14 3.05  47 3.09
  44  0.002  0.009  0.503- 126 1.50  80 1.62 104 1.76 120 1.87 127 1.96 133 2.09  61 2.35  10 2.59
                            54 2.67  36 2.77  49 2.86  11 2.99  26 3.01  31 3.01
  45  0.814  0.271  0.629-  56 1.58 128 1.60 127 1.69  81 1.73  75 1.87 112 1.89   9 2.38  36 2.63
                            34 3.00   1 3.06  26 3.09
  46  0.381  0.795  0.148-  84 1.50  86 1.65  93 1.68  99 1.73  59 1.77  92 1.95  50 2.52  16 2.87
                            37 2.90   5 2.99  48 3.05  38 3.14  23 3.16
  47  0.174  0.658  0.767-  67 1.59 111 1.60  96 1.67  66 1.87  90 1.87 115 1.88  21 2.47  25 2.67
                            11 2.79  52 2.96  10 3.02  20 3.04  13 3.09  12 3.09  43 3.09
  48  0.673  0.770  0.100- 134 1.56 122 1.65  99 1.67 135 1.67 102 1.83  37 2.18 107 2.30  59 2.50
                            27 2.59  19 2.61  14 2.61  50 2.76  46 3.05
  49  0.078  0.027  0.236- 130 1.46  77 1.68 103 1.73 133 1.75 121 1.85 104 1.90  24 2.67  23 2.81
                            35 2.83  44 2.86  54 3.06  51 3.07   3 3.10
  50  0.476  0.600  0.033- 125 1.55  92 1.60  59 1.74  72 1.78 122 1.99  15 2.48  46 2.52  18 2.67
                            48 2.76  25 2.93   8 2.98  19 3.08
  51  0.211  0.290  0.285-  76 1.60  87 1.68 105 1.74 121 1.82  95 1.84 129 2.20  32 2.64   6 2.74
                            36 2.77  38 2.94   5 2.99  49 3.07  15 3.11
  52  0.143  0.869  0.961- 109 1.53  79 1.54  73 1.80 130 1.91  93 2.02  67 2.05 111 2.48  11 2.68
                            39 2.72  14 2.95   3 2.96  47 2.96  16 3.01  43 3.03  24 3.14
  53  0.474  0.961  0.629-  71 1.55 114 1.62 100 1.66 132 1.69  97 1.75 124 1.91   1 2.55   4 2.71
                            26 2.72  22 2.79  11 3.07  21 3.11  16 3.12
  54  0.820  0.921  0.339- 102 1.54 126 1.56  61 1.58  77 1.69  88 1.80 106 2.22  41 2.58  44 2.67
                            24 2.88  37 2.95  49 3.06  26 3.14
  55  0.346  0.157  0.994-  38 1.61  22 2.03   3 2.21  16 2.23  15 2.40
  56  0.873  0.340  0.754-  45 1.58  40 1.95   9 2.19  13 2.32  20 2.43
  57  0.370  0.611  0.445-  42 1.60   8 2.04  12 2.18   4 2.46   5 2.56
  58  0.305  0.299  0.642-  31 1.55  12 1.98  33 2.14  22 2.33   1 2.45  13 2.51
  59  0.453  0.764  0.995-  50 1.74  46 1.77  16 2.18  48 2.50  27 2.52
  60  0.800  0.315  0.126-  35 1.64  40 1.96   2 2.11   6 2.14  19 2.27  34 2.50
  61  0.788  0.042  0.428-  54 1.58  41 1.63  26 2.22  44 2.35
  62  0.888  0.244  0.348-  36 1.59  34 1.90  35 2.18   6 2.46
  63  0.820  0.634  0.530-  30 1.66  29 1.75  20 2.18  10 2.39   7 2.54
  64  0.843  0.492  0.951-  40 1.57  43 1.94  19 2.03  20 2.57
  65  0.840  0.144  0.989-  35 1.69  17 2.00  40 2.06  14 2.38   9 2.39
  66  0.084  0.566  0.639-  47 1.87  20 2.12   7 2.18  12 2.27  13 2.33  10 2.34
  67  0.250  0.717  0.888-  47 1.59  52 2.05  25 2.19  21 2.43
  68  0.486  0.391  0.494-  32 1.58  28 1.83   8 2.37   1 2.45  12 2.50
  69  0.857  0.736  0.904-  43 1.61  39 1.87  14 2.28  27 2.33  20 2.55
  70  0.163  0.674  0.400-  42 1.63   5 1.88   7 2.09  10 2.29  24 2.45
  71  0.394  0.911  0.747-  53 1.55  16 1.96  11 2.15  21 2.41  22 2.49
  72  0.554  0.457  0.092-  50 1.78  15 2.08   2 2.20  19 2.21   8 2.49
  73  0.018  0.972  0.893-  39 1.67  52 1.80  14 2.17   9 2.24   3 2.36
  74  0.555  0.012  0.281-  37 1.50  41 1.64
  75  0.699  0.249  0.489-  34 1.74  45 1.87  41 2.00   1 2.40
  76  0.280  0.224  0.409-  51 1.60  31 1.87  32 1.92  23 2.34
  77  0.924  0.974  0.224-  49 1.68  54 1.69  14 2.13  35 2.23  24 2.35
  78  0.014  0.581  0.114-  43 1.64   6 2.10  24 2.27  25 2.28   5 2.50
  79  0.026  0.782  0.995-  52 1.54  43 1.62  14 2.17  39 2.38  24 2.39
  80  0.968  0.949  0.645-  44 1.62  39 1.85  10 2.25  11 2.37   9 2.37  26 2.39
  81  0.908  0.382  0.543-  36 1.73  45 1.73   7 2.21
  82  0.590  0.326  0.293-  34 1.66  32 1.72   2 1.99   8 2.35
  83  0.140  0.161  0.746-  31 1.94   9 2.16  13 2.17   3 2.29  22 2.45  11 2.51
  84  0.362  0.940  0.146-  46 1.50  38 1.65  16 2.32  23 2.40  37 2.52
  85  0.120  0.320  0.543-  36 1.62  31 1.69  12 2.09  13 2.19
  86  0.352  0.789  0.306-  46 1.65  42 1.80   4 2.14  23 2.32
  87  0.181  0.342  0.132-  51 1.68   6 2.16  15 2.18  25 2.48
  88  0.726  0.796  0.419-  54 1.80  30 2.06  29 2.08   4 2.11
  89  0.672  0.490  0.435-  28 1.58  30 1.71  34 1.77   8 2.19
  90  0.253  0.730  0.620-  42 1.65  47 1.87  21 1.96  11 2.30
  91  0.722  0.099  0.184-  35 1.59  37 1.85   2 2.08  41 2.24
  92  0.373  0.606  0.150-  50 1.60  46 1.95   5 1.95   8 2.27  25 2.46  15 2.52
  93  0.224  0.767  0.108-  46 1.68  52 2.02  24 2.35   5 2.43
  94  0.875  0.475  0.327-  30 1.76  34 1.95   7 1.99   6 2.02  19 2.50
  95  0.323  0.427  0.310-  51 1.84  32 2.00   5 2.00   8 2.16
  96  0.269  0.527  0.749-  47 1.67  33 1.83  12 2.10  21 2.14  13 2.41
  97  0.592  0.838  0.636-  29 1.64  53 1.75  26 2.09   4 2.29  27 2.31
  98  0.694  0.330  0.915-  40 1.62  18 1.98  17 2.28   2 2.39
  99  0.543  0.805  0.192-  48 1.67  46 1.73  37 1.81   4 2.43
 100  0.561  0.029  0.748-  53 1.66  17 2.15   1 2.16  26 2.25  22 2.35  16 2.45
 101  0.493  0.294  0.825-  33 1.59  22 1.96   1 2.17  18 2.22
 102  0.723  0.878  0.233-  54 1.54  37 1.72  48 1.83
 103  0.010  0.168  0.174-  35 1.58  49 1.73   6 2.32   3 2.45
 104  0.054  0.126  0.390-  36 1.75  44 1.76  49 1.90
 105  0.076  0.376  0.341-  36 1.74  51 1.74   6 1.85   7 1.94
 106  0.908  0.724  0.353-  30 1.83  24 1.85  54 2.22  10 2.26   7 2.49
 107  0.667  0.622  0.268-  30 1.59  19 1.96   8 1.96  48 2.30
 108  0.585  0.657  0.548-  28 1.63  29 1.74   4 1.99  21 2.52
 109  0.228  0.984  0.919-  52 1.53  16 1.98   3 2.09  11 2.27  22 2.56
 110  0.499  0.157  0.417-  32 1.56  41 1.64   1 2.32  23 2.49
 111  0.063  0.767  0.757-  47 1.60  39 1.78  11 2.12  10 2.26  52 2.48
 112  0.688  0.404  0.644-  28 1.51  45 1.89  18 2.32
 113  0.810  0.963  0.838-  39 1.61  14 2.13  17 2.24   9 2.26  26 2.28  27 2.31
 114  0.370  0.071  0.586-  53 1.62  31 1.99   1 2.15  22 2.31  23 2.42
 115  0.047  0.578  0.872-  43 1.55  47 1.88  25 2.06  20 2.21  13 2.54
 116  0.686  0.607  0.721-  29 1.79  18 1.97  28 2.06  20 2.17  27 2.49
 117  0.002  0.310  0.951-  40 1.60   3 2.07  13 2.36   6 2.57
 118  0.479  0.481  0.692-  33 1.58  28 1.78  18 1.96  21 2.17
 119  0.526  0.084  0.080-  37 1.65  38 1.73   2 1.92  17 2.27  16 2.28
 120  0.178  0.044  0.533-  31 1.64  44 1.87  11 2.19  23 2.28
 121  0.229  0.125  0.224-  38 1.70  51 1.82  49 1.85  23 2.12
 122  0.655  0.657  0.987-  48 1.65  50 1.99  27 2.08  19 2.16  18 2.43
 123  0.259  0.365  0.895-  33 1.75  15 1.93  25 2.19  13 2.24
 124  0.353  0.869  0.521-  42 1.56  53 1.91   4 2.11  23 2.14
 125  0.407  0.535  0.915-  50 1.55  33 1.78  15 2.09  18 2.21  25 2.30  21 2.51
 126  0.918  0.900  0.454-  44 1.50  54 1.56  10 1.97
 127  0.935  0.170  0.582-  45 1.69  36 1.83  44 1.96   9 2.02
 128  0.751  0.150  0.704-  45 1.60  26 1.91   9 2.01  17 2.33   1 2.50
 129  0.410  0.241  0.224-  32 1.73  38 1.74  51 2.20   2 2.30  15 2.38
 130  0.128  0.977  0.112-  49 1.46  52 1.91   3 2.36
 131  0.839  0.791  0.704-  39 1.60  29 1.65  20 2.31  26 2.33  10 2.47  27 2.48
 132  0.579  0.989  0.506-  53 1.69  41 1.74  26 2.06   4 2.22
 133  0.112  0.915  0.360-  49 1.75  44 2.09  24 2.18  23 2.30
 134  0.818  0.730  0.121-  48 1.56  19 2.15  14 2.20  43 2.26  24 2.47
 135  0.651  0.907  0.013-  37 1.61  48 1.67  27 1.94  14 2.25  17 2.34
 

IMPORTANT INFORMATION: All symmetrisations will be switched off!
NOSYMM: (Re-)initialisation of all symmetry stuff for point group C_1.

 
 

Automatic generation of k-mesh.
 generate k-points for:    3    3    3
Space group operators:
 irot       det(A)        alpha          n_x          n_y          n_z        tau_x        tau_y        tau_z
    1     1.000000     0.000001     1.000000     0.000000     0.000000     0.000000     0.000000     0.000000
 
 Subroutine IBZKPT returns following result:
 ===========================================
 
 Found     14 irreducible k-points:
 
 Following reciprocal coordinates:
            Coordinates               Weight
  0.000000  0.000000  0.000000      1.000000
  0.333333  0.000000  0.000000      2.000000
  0.000000  0.333333  0.000000      2.000000
  0.333333  0.333333  0.000000      2.000000
 -0.333333  0.333333  0.000000      2.000000
  0.000000  0.000000  0.333333      2.000000
  0.333333  0.000000  0.333333      2.000000
 -0.333333  0.000000  0.333333      2.000000
  0.000000  0.333333  0.333333      2.000000
  0.333333  0.333333  0.333333      2.000000
 -0.333333  0.333333  0.333333      2.000000
  0.000000 -0.333333  0.333333      2.000000
  0.333333 -0.333333  0.333333      2.000000
 -0.333333 -0.333333  0.333333      2.000000
 
 Following cartesian coordinates:
            Coordinates               Weight
  0.000000  0.000000  0.000000      1.000000
  0.032480  0.000000  0.000000      2.000000
  0.000000  0.032480  0.000000      2.000000
  0.032480  0.032480  0.000000      2.000000
 -0.032480  0.032480  0.000000      2.000000
  0.000000  0.000000  0.032480      2.000000
  0.032480  0.000000  0.032480      2.000000
 -0.032480  0.000000  0.032480      2.000000
  0.000000  0.032480  0.032480      2.000000
  0.032480  0.032480  0.032480      2.000000
 -0.032480  0.032480  0.032480      2.000000
  0.000000 -0.032480  0.032480      2.000000
  0.032480 -0.032480  0.032480      2.000000
 -0.032480 -0.032480  0.032480      2.000000
 


--------------------------------------------------------------------------------------------------------




 Dimension of arrays:
   k-points           NKPTS =     14   k-points in BZ     NKDIM =     14   number of bands    NBANDS=    520
   number of dos      NEDOS =    301   number of ions     NIONS =    135
   non local maximal  LDIM  =      6   non local SUM 2l+1 LMDIM =     18
   total plane-waves  NPLWV = 592704
   max r-space proj   IRMAX =   7356   max aug-charges    IRDMAX= 209463
   dimension x,y,z NGX =    84 NGY =   84 NGZ =   84
   dimension x,y,z NGXF=   168 NGYF=  168 NGZF=  168
   support grid    NGXF=   336 NGYF=  336 NGZF=  336
   ions per type =              27  27  81
   NGX,Y,Z   is equivalent  to a cutoff of  13.61, 13.61, 13.61 a.u.
   NGXF,Y,Z  is equivalent  to a cutoff of  27.21, 27.21, 27.21 a.u.

 SYSTEM =  unknown system                          
 POSCAR =  Ca Si  O                                

 Startparameter for this run:
   NWRITE =      2    write-flag & timer
   PREC   = a         normal or accurate (medium, high low for compatibility)
   ISTART =      0    job   : 0-new  1-cont  2-samecut
   ICHARG =      2    charge: 1-file 2-atom 10-const
   ISPIN  =      1    spin polarized calculation?
   LNONCOLLINEAR =      F non collinear calculations
   LSORBIT =      F    spin-orbit coupling
   INIWAV =      1    electr: 0-lowe 1-rand  2-diag
   LASPH  =      F    aspherical Exc in radial PAW
   METAGGA=      F    non-selfconsistent MetaGGA calc.

 Electronic Relaxation 1
   ENCUT  =  600.0 eV  44.10 Ry    6.64 a.u.  20.50 20.50 20.50*2*pi/ulx,y,z
   ENINI  =  600.0     initial cutoff
   ENAUG  =  605.4 eV  augmentation charge cutoff
   NELM   =     60;   NELMIN=  2; NELMDL= -5     # of ELM steps 
   EDIFF  = 0.1E-05   stopping-criterion for ELM
   LREAL  =      T    real-space projection
   NLSPLINE    = F    spline interpolate recip. space projectors
   LCOMPAT=      F    compatible to vasp.4.4
   GGA_COMPAT  = T    GGA compatible to vasp.4.4-vasp.4.6
   LMAXPAW     = -100 max onsite density
   LMAXMIX     =    2 max onsite mixed and CHGCAR
   VOSKOWN=      0    Vosko Wilk Nusair interpolation
   ROPT   =   -0.00025  -0.00025  -0.00025
 Ionic relaxation
   EDIFFG = -.1E-01   stopping-criterion for IOM
   NSW    =      1    number of steps for IOM
   NBLOCK =      1;   KBLOCK =      1    inner block; outer block 
   IBRION =     -1    ionic relax: 0-MD 1-quasi-New 2-CG
   NFREE  =      0    steps in history (QN), initial steepest desc. (CG)
   ISIF   =      2    stress and relaxation
   IWAVPR =     10    prediction:  0-non 1-charg 2-wave 3-comb
   ISYM   =      0    0-nonsym 1-usesym 2-fastsym
   LCORR  =      T    Harris-Foulkes like correction to forces

   POTIM  = 1.0000    time-step for ionic-motion
   TEIN   =    0.0    initial temperature
   TEBEG  =    0.0;   TEEND  =   0.0 temperature during run
   SMASS  =  -3.00    Nose mass-parameter (am)
   estimated Nose-frequenzy (Omega)   =  0.10E-29 period in steps =****** mass=  -0.241E-26a.u.
   SCALEE = 1.0000    scale energy and forces
   NPACO  =    256;   APACO  = 16.0  distance and # of slots for P.C.
   PSTRESS=    0.0 pullay stress

  Mass of Ions in am
   POMASS =  40.08 28.09 16.00
  Ionic Valenz
   ZVAL   =  10.00  4.00  6.00
  Atomic Wigner-Seitz radii
   RWIGS  =  -1.00 -1.00 -1.00
  virtual crystal weights 
   VCA    =   1.00  1.00  1.00
   NELECT =     864.0000    total number of electrons
   NUPDOWN=      -1.0000    fix difference up-down

 DOS related values:
   EMIN   =  10.00;   EMAX   =-10.00  energy-range for DOS
   EFERMI =   0.00
   ISMEAR =     0;   SIGMA  =   0.05  broadening in eV -4-tet -1-fermi 0-gaus

 Electronic relaxation 2 (details)
   IALGO  =     38    algorithm
   LDIAG  =      T    sub-space diagonalisation (order eigenvalues)
   LSUBROT=      F    optimize rotation matrix (better conditioning)
   TURBO    =      0    0=normal 1=particle mesh
   IRESTART =      0    0=no restart 2=restart with 2 vectors
   NREBOOT  =      0    no. of reboots
   NMIN     =      0    reboot dimension
   EREF     =   0.00    reference energy to select bands
   IMIX   =      4    mixing-type and parameters
     AMIX     =   0.40;   BMIX     =  1.00
     AMIX_MAG =   1.60;   BMIX_MAG =  1.00
     AMIN     =   0.10
     WC   =   100.;   INIMIX=   1;  MIXPRE=   1;  MAXMIX= -45

 Intra band minimization:
   WEIMIN = 0.0000     energy-eigenvalue tresh-hold
   EBREAK =  0.48E-09  absolut break condition
   DEPER  =   0.30     relativ break condition  

   TIME   =   0.40     timestep for ELM

  volume/ion in A,a.u.               =       8.01        54.03
  Fermi-wavevector in a.u.,A,eV,Ry     =   1.519301  2.871062 31.405975  2.308274
  Thomas-Fermi vector in A             =   2.628305
 
 Write flags
   LWAVE        =      F    write WAVECAR
   LDOWNSAMPLE  =      F    k-point downsampling of WAVECAR
   LCHARG       =      F    write CHGCAR
   LVTOT        =      F    write LOCPOT, total local potential
   LVHAR        =      F    write LOCPOT, Hartree potential only
   LELF         =      F    write electronic localiz. function (ELF)
   LORBIT       =      0    0 simple, 1 ext, 2 COOP (PROOUT), +10 PAW based schemes


 Dipole corrections
   LMONO  =      F    monopole corrections only (constant potential shift)
   LDIPOL =      F    correct potential (dipole corrections)
   IDIPOL =      0    1-x, 2-y, 3-z, 4-all directions 
   EPSILON=  1.0000000 bulk dielectric constant

 Exchange correlation treatment:
   GGA     =    --    GGA type
   LEXCH   =     8    internal setting for exchange type
   VOSKOWN=      0    Vosko Wilk Nusair interpolation
   LHFCALC =     F    Hartree Fock is set to
   LHFONE  =     F    Hartree Fock one center treatment
   AEXX    =    0.0000 exact exchange contribution

 Linear response parameters
   LEPSILON=     F    determine dielectric tensor
   LRPA    =     F    only Hartree local field effects (RPA)
   LNABLA  =     F    use nabla operator in PAW spheres
   LVEL    =     F    velocity operator in full k-point grid
   LINTERFAST=   F  fast interpolation
   KINTER  =     0    interpolate to denser k-point grid
   CSHIFT  =0.1000    complex shift for real part using Kramers Kronig
   OMEGAMAX=  -1.0    maximum frequency
   DEG_THRESHOLD= 0.2000000E-02 threshold for treating states as degnerate
   RTIME   =   -0.100 relaxation time in fs
  (WPLASMAI=    0.000 imaginary part of plasma frequency in eV, 0.658/RTIME)
   DFIELD  = 0.0000000 0.0000000 0.0000000 field for delta impulse in time
 
 Orbital magnetization related:
   ORBITALMAG=     F  switch on orbital magnetization
   LCHIMAG   =     F  perturbation theory with respect to B field
   DQ        =  0.001000  dq finite difference perturbation B field
   LLRAUG    =     F  two centre corrections for induced B field



--------------------------------------------------------------------------------------------------------


 Static calculation
 charge density and potential will be updated during run
 non-spin polarized calculation
 Variant of blocked Davidson
 Davidson routine will perform the subspace rotation
 perform sub-space diagonalisation
    after iterative eigenvector-optimisation
 modified Broyden-mixing scheme, WC =      100.0
 initial mixing is a Kerker type mixing with AMIX =  0.4000 and BMIX =      1.0000
 Hartree-type preconditioning will be used
 using additional bands           88
 real space projection scheme for non local part
 use partial core corrections
 calculate Harris-corrections to forces 
   (improved forces if not selfconsistent)
 use gradient corrections 
 use of overlap-Matrix (Vanderbilt PP)
 Gauss-broadening in eV      SIGMA  =   0.05


--------------------------------------------------------------------------------------------------------


  energy-cutoff  :      600.00
  volume of cell :     1080.95
      direct lattice vectors                 reciprocal lattice vectors
    10.262875590  0.000000000  0.000000000     0.097438578  0.000000000  0.000000000
     0.000000000 10.262875590  0.000000000     0.000000000  0.097438578  0.000000000
     0.000000000  0.000000000 10.262875590     0.000000000  0.000000000  0.097438578

  length of vectors
    10.262875590 10.262875590 10.262875590     0.097438578  0.097438578  0.097438578


 
 k-points in units of 2pi/SCALE and weight: read from INCAR                         
   0.00000000  0.00000000  0.00000000       0.037
   0.03247953  0.00000000  0.00000000       0.074
   0.00000000  0.03247953  0.00000000       0.074
   0.03247953  0.03247953  0.00000000       0.074
  -0.03247953  0.03247953  0.00000000       0.074
   0.00000000  0.00000000  0.03247953       0.074
   0.03247953  0.00000000  0.03247953       0.074
  -0.03247953  0.00000000  0.03247953       0.074
   0.00000000  0.03247953  0.03247953       0.074
   0.03247953  0.03247953  0.03247953       0.074
  -0.03247953  0.03247953  0.03247953       0.074
   0.00000000 -0.03247953  0.03247953       0.074
   0.03247953 -0.03247953  0.03247953       0.074
  -0.03247953 -0.03247953  0.03247953       0.074
 
 k-points in reciprocal lattice and weights: read from INCAR                         
   0.00000000  0.00000000  0.00000000       0.037
   0.33333333  0.00000000  0.00000000       0.074
   0.00000000  0.33333333  0.00000000       0.074
   0.33333333  0.33333333  0.00000000       0.074
  -0.33333333  0.33333333  0.00000000       0.074
   0.00000000  0.00000000  0.33333333       0.074
   0.33333333  0.00000000  0.33333333       0.074
  -0.33333333  0.00000000  0.33333333       0.074
   0.00000000  0.33333333  0.33333333       0.074
   0.33333333  0.33333333  0.33333333       0.074
  -0.33333333  0.33333333  0.33333333       0.074
   0.00000000 -0.33333333  0.33333333       0.074
   0.33333333 -0.33333333  0.33333333       0.074
  -0.33333333 -0.33333333  0.33333333       0.074
 
 position of ions in fractional coordinates (direct lattice) 
   0.52388547  0.20391004  0.63705178
   0.60529109  0.24997794  0.11494088
   0.13146669  0.15717857  0.96889388
   0.52083970  0.79630094  0.42787025
   0.21507020  0.57877474  0.25207727
   0.98453506  0.39214670  0.18632687
   0.02471842  0.52922982  0.43814440
   0.50221238  0.53658739  0.31545618
   0.93271285  0.13607215  0.77600490
   0.01468151  0.76050885  0.54231121
   0.18824473  0.92403774  0.70978944
   0.26214043  0.46450873  0.55406198
   0.09673280  0.36806963  0.74981496
   0.86859423  0.91786160  0.03178680
   0.37079139  0.38338264  0.04575808
   0.41892467  0.96310580  0.92830714
   0.66487034  0.10984685  0.90993884
   0.60149074  0.48096968  0.83862729
   0.75356735  0.53079032  0.12346076
   0.89424898  0.57297909  0.72000094
   0.40899412  0.67875331  0.71752157
   0.37223129  0.14788939  0.79817608
   0.31800307  0.00417487  0.36580101
   0.02911781  0.77082816  0.22772696
   0.19918398  0.54151846  0.99780324
   0.73794630  0.97976859  0.62868445
   0.64847984  0.80800810  0.85185299
   0.60278441  0.50105179  0.57239192
   0.71652175  0.74106259  0.61377700
   0.77681313  0.60644870  0.37641004
   0.21872530  0.19229799  0.57755725
   0.45007679  0.29584468  0.37881823
   0.39236364  0.40833155  0.79691704
   0.73591200  0.34928716  0.35799234
   0.85764592  0.16803447  0.15133735
   0.99889891  0.27407423  0.45159107
   0.60599080  0.96534824  0.15188678
   0.36872635  0.10090399  0.13815257
   0.93047975  0.86936549  0.80263301
   0.84876267  0.33914426  0.94268853
   0.64269960  0.09222955  0.38722276
   0.29052009  0.74348000  0.46371940
   0.95767740  0.64032069  0.97624472
   0.00164651  0.00913054  0.50336713
   0.81418166  0.27096158  0.62893987
   0.38068482  0.79516423  0.14838323
   0.17392037  0.65830753  0.76710792
   0.67304624  0.77044886  0.10007953
   0.07825550  0.02656066  0.23566425
   0.47596225  0.60017308  0.03299970
   0.21069715  0.28978243  0.28516335
   0.14276024  0.86941023  0.96104204
   0.47393853  0.96090178  0.62900980
   0.81964621  0.92080062  0.33942693
   0.34556563  0.15700668  0.99398699
   0.87293111  0.33962166  0.75408659
   0.36995457  0.61101208  0.44450664
   0.30506879  0.29850858  0.64237785
   0.45310583  0.76402170  0.99472526
   0.80005443  0.31501493  0.12580773
   0.78798850  0.04218494  0.42811540
   0.88767986  0.24401547  0.34775714
   0.81980276  0.63358973  0.53041306
   0.84318324  0.49171072  0.95109075
   0.83993880  0.14424859  0.98900353
   0.08417440  0.56567041  0.63906131
   0.24969169  0.71715450  0.88826068
   0.48600189  0.39098392  0.49393642
   0.85739008  0.73623754  0.90396556
   0.16298008  0.67355358  0.40012199
   0.39398492  0.91137523  0.74665036
   0.55425139  0.45680837  0.09207134
   0.01789971  0.97246822  0.89296801
   0.55492466  0.01241795  0.28072544
   0.69877403  0.24899208  0.48909723
   0.27981100  0.22426797  0.40903828
   0.92350913  0.97412290  0.22380844
   0.01410651  0.58132876  0.11411009
   0.02610275  0.78158548  0.99521207
   0.96823985  0.94872555  0.64511062
   0.90768104  0.38240191  0.54294545
   0.59011322  0.32643875  0.29266084
   0.13995843  0.16144493  0.74611737
   0.36202083  0.94036782  0.14562609
   0.11960268  0.31962880  0.54286538
   0.35203062  0.78919985  0.30602956
   0.18128909  0.34171573  0.13240051
   0.72621680  0.79576468  0.41926039
   0.67233028  0.49035952  0.43494267
   0.25280242  0.72986805  0.61956730
   0.72231736  0.09916260  0.18404856
   0.37263682  0.60578163  0.14997573
   0.22444700  0.76659361  0.10771287
   0.87542495  0.47482804  0.32729568
   0.32301695  0.42676030  0.30962406
   0.26889349  0.52743026  0.74880564
   0.59177680  0.83840703  0.63569005
   0.69395343  0.33002396  0.91457522
   0.54279685  0.80512477  0.19182870
   0.56084347  0.02912210  0.74753811
   0.49262134  0.29398956  0.82544323
   0.72299974  0.87760985  0.23337794
   0.00988502  0.16812719  0.17434820
   0.05444544  0.12557962  0.38976345
   0.07617382  0.37607477  0.34087544
   0.90812617  0.72438081  0.35330138
   0.66700145  0.62158151  0.26800050
   0.58450903  0.65720666  0.54779590
   0.22756399  0.98417832  0.91933679
   0.49931366  0.15676859  0.41725942
   0.06264504  0.76706086  0.75682466
   0.68775874  0.40449846  0.64374954
   0.81038224  0.96338804  0.83777583
   0.37001187  0.07125658  0.58626329
   0.04728243  0.57810543  0.87179580
   0.68572900  0.60658381  0.72103252
   0.00157245  0.31019379  0.95064940
   0.47851926  0.48108307  0.69208218
   0.52564547  0.08428705  0.08020397
   0.17817429  0.04367255  0.53337934
   0.22917023  0.12494645  0.22374664
   0.65487329  0.65733923  0.98670481
   0.25947688  0.36451655  0.89503236
   0.35327223  0.86906989  0.52124184
   0.40715481  0.53489037  0.91526504
   0.91758426  0.90006289  0.45376608
   0.93538643  0.17020306  0.58176816
   0.75136771  0.14962981  0.70370890
   0.41022158  0.24093587  0.22433747
   0.12830346  0.97674700  0.11199871
   0.83946428  0.79095758  0.70403159
   0.57924177  0.98928346  0.50578596
   0.11237524  0.91477336  0.36021021
   0.81775849  0.72987052  0.12064701
   0.65088259  0.90662468  0.01317939
 
 position of ions in cartesian coordinates  (Angst):
   5.37657142  2.09270338  6.53798321
   6.21202720  2.56549253  1.17962399
   1.34922627  1.61310408  9.94363734
   5.34531307  8.17233749  4.39117917
   2.20723867  5.93989314  2.58703768
  10.10416088  4.02455282  1.91224946
   0.25368209  5.43141982  4.49662151
   5.15414318  5.50692962  3.23748751
   9.57231598  1.39649153  7.96404175
   0.15067446  7.80500776  5.56567246
   1.93193224  9.48328434  7.28448074
   2.69031467  4.76719533  5.68626921
   0.99275670  3.77745284  7.69525760
   8.91427450  9.41989939  0.32622396
   3.80538594  3.93460835  0.46960946
   4.29937178  9.88423505  9.52710066
   6.82348156  1.12734453  9.33858911
   6.17302466  4.93613199  8.60672753
   7.73376794  5.44743504  1.26706242
   9.17756604  5.88041310  7.38928007
   4.19745576  6.96596074  7.36383464
   3.82016346  1.51777040  8.19158179
   3.26362592  0.04284620  3.75417028
   0.29883243  7.91091350  2.33713343
   2.04420039  5.55753661 10.24033051
   7.57345109 10.05524319  6.45211025
   6.65526794  8.29248665  8.74246128
   6.18630145  5.14223216  5.87438708
   7.35357360  7.60543317  6.29911699
   7.97233649  6.22390758  3.86304944
   2.24475050  1.97353030  5.92739825
   4.61908212  3.03621718  3.88776439
   4.02677924  4.19065586  8.17866039
   7.55257331  3.58469066  3.67403087
   8.80191333  1.72451690  1.55315638
  10.25157529  2.81278976  4.63462297
   6.21920820  9.90724891  1.55879515
   3.78419264  1.03556508  1.41784259
   9.54939788  8.92218984  8.23732272
   8.71074566  3.48059537  9.67469506
   6.59594604  0.94654041  3.97401902
   2.98157157  7.63024271  4.75909449
   9.82852403  6.57153161 10.01907806
   0.01689796  0.09370559  5.16599427
   8.35584512  2.78084497  6.45473160
   3.90692098  8.16067154  1.52283861
   1.78492316  6.75612828  7.87273310
   6.90738978  7.90702084  1.02710379
   0.80312643  0.27258878  2.41859291
   4.88474137  6.15950161  0.33867179
   2.16235866  2.97400098  2.92659595
   1.46513061  8.92264900  9.86305485
   4.86397215  9.86161547  6.45544931
   8.41192707  9.45006224  3.48349633
   3.54649710  1.61134005 10.20116478
   8.95878339  3.48549485  7.73909684
   3.79679768  6.27074093  4.56191637
   3.13088304  3.06355646  6.59264395
   4.65016875  7.84105969 10.20874159
   8.21085910  3.23295906  1.29114911
   8.08702795  0.43293877  4.39369510
   9.11014798  2.50430037  3.56898831
   8.41353377  6.50245258  5.44356323
   8.65348471  5.04636598  9.76092600
   8.62018743  1.48040536 10.15002016
   0.86387144  5.80540504  6.55860670
   2.56255479  7.36006740  9.11610889
   4.98777693  4.01261934  5.06920803
   8.79928769  7.55591430  9.27728606
   1.67264425  6.91259663  4.10640217
   4.04341817  9.35333062  7.66277980
   5.68821307  4.68816745  0.94491673
   0.18370248  9.98032039  9.16441958
   5.69512276  0.12744389  2.88105028
   7.17143097  2.55537475  5.01954399
   2.87166550  2.30163423  4.19790900
   9.47785927  9.99730209  2.29691822
   0.14477335  5.96610469  1.17109761
   0.26788932  8.02131456 10.21373771
   9.93692513  9.73665234  6.62069003
   9.31541757  3.92454322  5.57218157
   6.05625859  3.35020029  3.00354178
   1.43637595  1.65688921  7.65730977
   3.71537474  9.65087796  1.49454242
   1.22746741  3.28031063  5.57135984
   3.61284642  8.09945985  3.14074329
   1.86054733  3.50698604  1.35880998
   7.45307266  8.16683393  4.30281724
   6.90004202  5.03249874  4.46376253
   2.59447983  7.49054502  6.35854209
   7.41305322  1.01769339  1.88886752
   3.82432537  6.21706147  1.53918230
   2.30347165  7.86745481  1.10544374
   8.98437733  4.87310106  3.35899481
   3.31508281  4.37978790  3.17763321
   2.75962046  5.41295119  7.68489912
   6.07333172  8.60446708  6.52400788
   7.12195768  3.38699484  9.38617174
   5.57065657  8.26289533  1.96871404
   5.75586680  0.29887649  7.67189062
   5.05571152  3.01717829  8.47142117
   7.42005637  9.00680070  2.39512879
   0.10144868  1.72546845  1.78931392
   0.55876680  1.28880801  4.00009381
   0.78176245  3.85960857  3.49836219
   9.31998586  7.43423017  3.62588815
   6.84535295  6.37921367  2.75045574
   5.99874347  6.74483023  5.62196116
   2.33546088 10.10049962  9.43503913
   5.12439402  1.60889651  4.28228153
   0.64291828  7.87225022  7.76719735
   7.05838235  4.15131737  6.60672149
   8.31685206  9.88713164  8.59798916
   3.79738574  0.73129740  6.01674722
   0.48525371  5.93302415  8.94713182
   7.03755137  6.22529418  7.39986710
   0.01613781  3.18348030  9.75639651
   4.91098364  4.93729572  7.10275330
   5.39463406  0.86502747  0.82312332
   1.82858056  0.44820596  5.47400583
   2.35194552  1.28230985  2.29628398
   6.72088315  6.74619071 10.12642868
   2.66297891  3.74098800  9.18560579
   3.62558894  8.91915612  5.34944018
   4.17857916  5.48951335  9.39325121
   9.41705314  9.23723345  4.65694479
   9.59975455  1.74677280  5.97061428
   7.71119335  1.53563213  7.22207691
   4.21005308  2.47269486  2.30234751
   1.31676244 10.02423291  1.14942882
   8.61531746  8.11749929  7.22538862
   5.94468618 10.15289312  5.19081837
   1.15329310  9.38820516  3.69679260
   8.39255367  7.49057033  1.23818526
   6.67992706  9.30457633  0.13525845
 


--------------------------------------------------------------------------------------------------------


 k-point  1 :   0.0000 0.0000 0.0000  plane waves:   36137
 k-point  2 :   0.3333 0.0000 0.0000  plane waves:   36093
 k-point  3 :   0.0000 0.3333 0.0000  plane waves:   36093
 k-point  4 :   0.3333 0.3333 0.0000  plane waves:   36091
 k-point  5 :  -0.3333 0.3333 0.0000  plane waves:   36091
 k-point  6 :   0.0000 0.0000 0.3333  plane waves:   36093
 k-point  7 :   0.3333 0.0000 0.3333  plane waves:   36091
 k-point  8 :  -0.3333 0.0000 0.3333  plane waves:   36091
 k-point  9 :   0.0000 0.3333 0.3333  plane waves:   36091
 k-point 10 :   0.3333 0.3333 0.3333  plane waves:   36060
 k-point 11 :  -0.3333 0.3333 0.3333  plane waves:   36060
 k-point 12 :   0.0000-0.3333 0.3333  plane waves:   36091
 k-point 13 :   0.3333-0.3333 0.3333  plane waves:   36060
 k-point 14 :  -0.3333-0.3333 0.3333  plane waves:   36060

 maximum and minimum number of plane-waves per node :      3039     2965

 maximum number of plane-waves:     36137
 maximum index in each direction: 
   IXMAX=   20   IYMAX=   20   IZMAX=   20
   IXMIN=  -20   IYMIN=  -20   IZMIN=  -20


 real space projection operators:
  total allocation   :      50447.72 KBytes
  max/ min on nodes  :       4246.22       4163.23


 parallel 3D FFT for wavefunctions:
    minimum data exchange during FFTs selected (reduces bandwidth)
 parallel 3D FFT for charge:
    minimum data exchange during FFTs selected (reduces bandwidth)


 total amount of memory used by VASP MPI-rank0   169873. kBytes
=======================================================================

   base      :      30000. kBytes
   nonlr-proj:      22110. kBytes
   fftplans  :      16051. kBytes
   grid      :       9274. kBytes
   one-center:        186. kBytes
   wavefun   :      92252. kBytes
 
     INWAV:  cpu time    0.0000: real time    0.0003
 Broyden mixing: mesh for mixing (old mesh)
   NGX = 41   NGY = 41   NGZ = 41
  (NGX  =168   NGY  =168   NGZ  =168)
  gives a total of  68921 points

 initial charge density was supplied:
 charge density of overlapping atoms calculated
 number of electron     864.0000000 magnetization 
 keeping initial charge density in first step


--------------------------------------------------------------------------------------------------------


 Maximum index for non-local projection operator          669
 Maximum index for augmentation-charges         4733 (set IRDMAX)


--------------------------------------------------------------------------------------------------------


 First call to EWALD:  gamma=   0.173
 Maximum number of real-space cells 3x 3x 3
 Maximum number of reciprocal cells 3x 3x 3

    FEWALD:  cpu time    0.0056: real time    0.0056


--------------------------------------- Iteration      1(   1)  ---------------------------------------


    POTLOK:  cpu time    0.0736: real time    0.0807
    SETDIJ:  cpu time    0.2870: real time    0.2877
     EDDAV:  cpu time   43.0203: real time   43.1449
       DOS:  cpu time    0.0040: real time    0.0040
    --------------------------------------------
      LOOP:  cpu time   43.3849: real time   43.5174

 eigenvalue-minimisations  : 14560
 total energy-change (2. order) : 0.1060668E+05  (-0.4982243E+05)
 number of electron     864.0000000 magnetization 
 augmentation part      864.0000000 magnetization 

 Free energy of the ion-electron system (eV)
  ---------------------------------------------------
  alpha Z        PSCENC =      4420.68831078
  Ewald energy   TEWEN  =    -58367.79195300
  -Hartree energ DENC   =    -11115.45761928
  -exchange      EXHF   =         0.00000000
  -V(xc)+E(xc)   XCENC  =      3304.87572025
  PAW double counting   =     50594.51003143   -49994.65612350
  entropy T*S    EENTRO =        -0.03005533
  eigenvalues    EBANDS =      6796.00528695
  atomic energy  EATOM  =     64968.54023382
  Solvation  Ediel_sol  =         0.00000000
  ---------------------------------------------------
  free energy    TOTEN  =     10606.68383213 eV

  energy without entropy =    10606.71388745  energy(sigma->0) =    10606.69885979


--------------------------------------------------------------------------------------------------------




--------------------------------------- Iteration      1(   2)  ---------------------------------------


     EDDAV:  cpu time   46.8793: real time   47.1415
       DOS:  cpu time    0.0018: real time    0.0018
    --------------------------------------------
      LOOP:  cpu time   46.8811: real time   47.1433

 eigenvalue-minimisations  : 16264
 total energy-change (2. order) :-0.1029922E+05  (-0.9861311E+04)
 number of electron     864.0000000 magnetization 
 augmentation part      864.0000000 magnetization 

 Free energy of the ion-electron system (eV)
  ---------------------------------------------------
  alpha Z        PSCENC =      4420.68831078
  Ewald energy   TEWEN  =    -58367.79195300
  -Hartree energ DENC   =    -11115.45761928
  -exchange      EXHF   =         0.00000000
  -V(xc)+E(xc)   XCENC  =      3304.87572025
  PAW double counting   =     50594.51003143   -49994.65612350
  entropy T*S    EENTRO =        -0.00000000
  eigenvalues    EBANDS =     -3503.24509776
  atomic energy  EATOM  =     64968.54023382
  Solvation  Ediel_sol  =         0.00000000
  ---------------------------------------------------
  free energy    TOTEN  =       307.46350274 eV

  energy without entropy =      307.46350274  energy(sigma->0) =      307.46350274


--------------------------------------------------------------------------------------------------------




--------------------------------------- Iteration      1(   3)  ---------------------------------------


     EDDAV:  cpu time   48.3951: real time   48.6220
       DOS:  cpu time    0.0019: real time    0.0019
    --------------------------------------------
      LOOP:  cpu time   48.3970: real time   48.6238

 eigenvalue-minimisations  : 16888
 total energy-change (2. order) :-0.1214261E+04  (-0.1202678E+04)
 number of electron     864.0000000 magnetization 
 augmentation part      864.0000000 magnetization 

 Free energy of the ion-electron system (eV)
  ---------------------------------------------------
  alpha Z        PSCENC =      4420.68831078
  Ewald energy   TEWEN  =    -58367.79195300
  -Hartree energ DENC   =    -11115.45761928
  -exchange      EXHF   =         0.00000000
  -V(xc)+E(xc)   XCENC  =      3304.87572025
  PAW double counting   =     50594.51003143   -49994.65612350
  entropy T*S    EENTRO =        -0.00000000
  eigenvalues    EBANDS =     -4717.50648329
  atomic energy  EATOM  =     64968.54023382
  Solvation  Ediel_sol  =         0.00000000
  ---------------------------------------------------
  free energy    TOTEN  =      -906.79788279 eV

  energy without entropy =     -906.79788279  energy(sigma->0) =     -906.79788279


--------------------------------------------------------------------------------------------------------




--------------------------------------- Iteration      1(   4)  ---------------------------------------


     EDDAV:  cpu time   57.2997: real time   57.5969
       DOS:  cpu time    0.0015: real time    0.0015
    --------------------------------------------
      LOOP:  cpu time   57.3012: real time   57.5984

 eigenvalue-minimisations  : 20992
 total energy-change (2. order) :-0.6455405E+02  (-0.6432193E+02)
 number of electron     864.0000000 magnetization 
 augmentation part      864.0000000 magnetization 

 Free energy of the ion-electron system (eV)
  ---------------------------------------------------
  alpha Z        PSCENC =      4420.68831078
  Ewald energy   TEWEN  =    -58367.79195300
  -Hartree energ DENC   =    -11115.45761928
  -exchange      EXHF   =         0.00000000
  -V(xc)+E(xc)   XCENC  =      3304.87572025
  PAW double counting   =     50594.51003143   -49994.65612350
  entropy T*S    EENTRO =        -0.00000000
  eigenvalues    EBANDS =     -4782.06053354
  atomic energy  EATOM  =     64968.54023382
  Solvation  Ediel_sol  =         0.00000000
  ---------------------------------------------------
  free energy    TOTEN  =      -971.35193304 eV

  energy without entropy =     -971.35193304  energy(sigma->0) =     -971.35193304


--------------------------------------------------------------------------------------------------------




--------------------------------------- Iteration      1(   5)  ---------------------------------------


     EDDAV:  cpu time   62.6240: real time   62.9615
       DOS:  cpu time    0.0016: real time    0.0016
    CHARGE:  cpu time    1.2754: real time    1.2785
    MIXING:  cpu time    0.0050: real time    0.0051
    --------------------------------------------
      LOOP:  cpu time   63.9060: real time   64.2467

 eigenvalue-minimisations  : 23552
 total energy-change (2. order) :-0.4576837E+01  (-0.4574038E+01)
 number of electron     864.0000008 magnetization 
 augmentation part      134.2309301 magnetization 

 Broyden mixing:
  rms(total) = 0.91315E+01    rms(broyden)= 0.91309E+01
  rms(prec ) = 0.10773E+02
  weight for this iteration     100.00

 Free energy of the ion-electron system (eV)
  ---------------------------------------------------
  alpha Z        PSCENC =      4420.68831078
  Ewald energy   TEWEN  =    -58367.79195300
  -Hartree energ DENC   =    -11115.45761928
  -exchange      EXHF   =         0.00000000
  -V(xc)+E(xc)   XCENC  =      3304.87572025
  PAW double counting   =     50594.51003143   -49994.65612350
  entropy T*S    EENTRO =        -0.00000000
  eigenvalues    EBANDS =     -4786.63737086
  atomic energy  EATOM  =     64968.54023382
  Solvation  Ediel_sol  =         0.00000000
  ---------------------------------------------------
  free energy    TOTEN  =      -975.92877036 eV

  energy without entropy =     -975.92877036  energy(sigma->0) =     -975.92877036


--------------------------------------------------------------------------------------------------------




--------------------------------------- Iteration      1(   6)  ---------------------------------------


    POTLOK:  cpu time    0.0724: real time    0.0770
    SETDIJ:  cpu time    0.2864: real time    0.2871
     EDDAV:  cpu time   49.2806: real time   49.4475
       DOS:  cpu time    0.0017: real time    0.0017
    CHARGE:  cpu time    1.2651: real time    1.2682
    MIXING:  cpu time    0.0035: real time    0.0035
    --------------------------------------------
      LOOP:  cpu time   50.9097: real time   51.0850

 eigenvalue-minimisations  : 17328
 total energy-change (2. order) : 0.1324988E+03  (-0.5123882E+02)
 number of electron     864.0000007 magnetization 
 augmentation part      123.9732907 magnetization 

 Broyden mixing:
  rms(total) = 0.39016E+01    rms(broyden)= 0.39008E+01
  rms(prec ) = 0.41111E+01
  weight for this iteration     100.00

 eigenvalues of (default mixing * dielectric matrix)
  average eigenvalue GAMMA=   1.2132
  1.2132

 Free energy of the ion-electron system (eV)
  ---------------------------------------------------
  alpha Z        PSCENC =      4420.68831078
  Ewald energy   TEWEN  =    -58367.79195300
  -Hartree energ DENC   =    -12178.97750599
  -exchange      EXHF   =         0.00000000
  -V(xc)+E(xc)   XCENC  =      3382.92769121
  PAW double counting   =     70779.25666835   -70312.83915080
  entropy T*S    EENTRO =        -0.00000000
  eigenvalues    EBANDS =     -3535.23426547
  atomic energy  EATOM  =     64968.54023382
  Solvation  Ediel_sol  =         0.00000000
  ---------------------------------------------------
  free energy    TOTEN  =      -843.42997110 eV

  energy without entropy =     -843.42997110  energy(sigma->0) =     -843.42997110


--------------------------------------------------------------------------------------------------------




--------------------------------------- Iteration      1(   7)  ---------------------------------------


    POTLOK:  cpu time    0.0694: real time    0.0789
    SETDIJ:  cpu time    0.2807: real time    0.2869
     EDDAV:  cpu time   50.0827: real time   51.0539
       DOS:  cpu time    0.0015: real time    0.0015
    CHARGE:  cpu time    1.2603: real time    1.2993
    MIXING:  cpu time    0.0039: real time    0.0039
    --------------------------------------------
      LOOP:  cpu time   51.6986: real time   52.7244

 eigenvalue-minimisations  : 18136
 total energy-change (2. order) :-0.1441651E+01  (-0.7024516E+01)
 number of electron     864.0000007 magnetization 
 augmentation part      121.2883135 magnetization 

 Broyden mixing:
  rms(total) = 0.17080E+01    rms(broyden)= 0.17079E+01
  rms(prec ) = 0.18448E+01
  weight for this iteration     100.00

 eigenvalues of (default mixing * dielectric matrix)
  average eigenvalue GAMMA=   1.3148
  1.3148  1.3148

 Free energy of the ion-electron system (eV)
  ---------------------------------------------------
  alpha Z        PSCENC =      4420.68831078
  Ewald energy   TEWEN  =    -58367.79195300
  -Hartree energ DENC   =    -12334.00330602
  -exchange      EXHF   =         0.00000000
  -V(xc)+E(xc)   XCENC  =      3394.99750582
  PAW double counting   =     92752.75682903   -92350.75878381
  entropy T*S    EENTRO =        -0.00000000
  eigenvalues    EBANDS =     -3329.30045894
  atomic energy  EATOM  =     64968.54023382
  Solvation  Ediel_sol  =         0.00000000
  ---------------------------------------------------
  free energy    TOTEN  =      -844.87162232 eV

  energy without entropy =     -844.87162232  energy(sigma->0) =     -844.87162232


--------------------------------------------------------------------------------------------------------




--------------------------------------- Iteration      1(   8)  ---------------------------------------


    POTLOK:  cpu time    0.0728: real time    0.0960
    SETDIJ:  cpu time    0.2868: real time    0.2875
     EDDAV:  cpu time   54.0729: real time   54.2578
       DOS:  cpu time    0.0015: real time    0.0015
    CHARGE:  cpu time    1.2523: real time    1.2661
    MIXING:  cpu time    0.0033: real time    0.0033
    --------------------------------------------
      LOOP:  cpu time   55.6896: real time   55.9122

 eigenvalue-minimisations  : 19608
 total energy-change (2. order) : 0.5911012E+00  (-0.1049668E+01)
 number of electron     864.0000007 magnetization 
 augmentation part      121.4581737 magnetization 

 Broyden mixing:
  rms(total) = 0.68829E+00    rms(broyden)= 0.68820E+00
  rms(prec ) = 0.78418E+00
  weight for this iteration     100.00

 eigenvalues of (default mixing * dielectric matrix)
  average eigenvalue GAMMA=   1.4269
  2.1760  1.0524  1.0524

 Free energy of the ion-electron system (eV)
  ---------------------------------------------------
  alpha Z        PSCENC =      4420.68831078
  Ewald energy   TEWEN  =    -58367.79195300
  -Hartree energ DENC   =    -12282.43413689
  -exchange      EXHF   =         0.00000000
  -V(xc)+E(xc)   XCENC  =      3392.21557328
  PAW double counting   =    103722.94297685  -103349.46905246
  entropy T*S    EENTRO =        -0.00000000
  eigenvalues    EBANDS =     -3348.97247351
  atomic energy  EATOM  =     64968.54023382
  Solvation  Ediel_sol  =         0.00000000
  ---------------------------------------------------
  free energy    TOTEN  =      -844.28052113 eV

  energy without entropy =     -844.28052113  energy(sigma->0) =     -844.28052113


--------------------------------------------------------------------------------------------------------




--------------------------------------- Iteration      1(   9)  ---------------------------------------


    POTLOK:  cpu time    0.0695: real time    0.0790
    SETDIJ:  cpu time    0.2786: real time    0.2856
     EDDAV:  cpu time   47.9298: real time   48.6156
       DOS:  cpu time    0.0015: real time    0.0015
    CHARGE:  cpu time    1.2581: real time    1.2636
    MIXING:  cpu time    0.0032: real time    0.0032
    --------------------------------------------
      LOOP:  cpu time   49.5408: real time   50.2486

 eigenvalue-minimisations  : 17056
 total energy-change (2. order) : 0.1807092E+00  (-0.2413795E+00)
 number of electron     864.0000007 magnetization 
 augmentation part      120.7627326 magnetization 

 Broyden mixing:
  rms(total) = 0.19990E+00    rms(broyden)= 0.19987E+00
  rms(prec ) = 0.22567E+00
  weight for this iteration     100.00

 eigenvalues of (default mixing * dielectric matrix)
  average eigenvalue GAMMA=   1.4120
  2.2109  1.4484  0.9943  0.9943

 Free energy of the ion-electron system (eV)
  ---------------------------------------------------
  alpha Z        PSCENC =      4420.68831078
  Ewald energy   TEWEN  =    -58367.79195300
  -Hartree energ DENC   =    -12347.60216314
  -exchange      EXHF   =         0.00000000
  -V(xc)+E(xc)   XCENC  =      3397.56298945
  PAW double counting   =    111679.49166469  -111323.72151078
  entropy T*S    EENTRO =        -0.00000000
  eigenvalues    EBANDS =     -3271.26738377
  atomic energy  EATOM  =     64968.54023382
  Solvation  Ediel_sol  =         0.00000000
  ---------------------------------------------------
  free energy    TOTEN  =      -844.09981196 eV

  energy without entropy =     -844.09981196  energy(sigma->0) =     -844.09981196


--------------------------------------------------------------------------------------------------------




--------------------------------------- Iteration      1(  10)  ---------------------------------------


    POTLOK:  cpu time    0.0705: real time    0.0791
    SETDIJ:  cpu time    0.2811: real time    0.2873
     EDDAV:  cpu time   55.7125: real time   56.0400
       DOS:  cpu time    0.0016: real time    0.0016
    CHARGE:  cpu time    1.2611: real time    1.2641
    MIXING:  cpu time    0.0033: real time    0.0033
    --------------------------------------------
      LOOP:  cpu time   57.3301: real time   57.6754

 eigenvalue-minimisations  : 20536
 total energy-change (2. order) :-0.5397900E-01  (-0.7320231E-01)
 number of electron     864.0000007 magnetization 
 augmentation part      120.6153057 magnetization 

 Broyden mixing:
  rms(total) = 0.15246E+00    rms(broyden)= 0.15245E+00
  rms(prec ) = 0.16868E+00
  weight for this iteration     100.00

 eigenvalues of (default mixing * dielectric matrix)
  average eigenvalue GAMMA=   1.3644
  2.2944  1.5705  1.1944  0.8815  0.8815

 Free energy of the ion-electron system (eV)
  ---------------------------------------------------
  alpha Z        PSCENC =      4420.68831078
  Ewald energy   TEWEN  =    -58367.79195300
  -Hartree energ DENC   =    -12349.62640288
  -exchange      EXHF   =         0.00000000
  -V(xc)+E(xc)   XCENC  =      3397.84861280
  PAW double counting   =    112196.33019814  -111838.98611123
  entropy T*S    EENTRO =        -0.00000000
  eigenvalues    EBANDS =     -3271.15667939
  atomic energy  EATOM  =     64968.54023382
  Solvation  Ediel_sol  =         0.00000000
  ---------------------------------------------------
  free energy    TOTEN  =      -844.15379097 eV

  energy without entropy =     -844.15379097  energy(sigma->0) =     -844.15379097


--------------------------------------------------------------------------------------------------------




--------------------------------------- Iteration      1(  11)  ---------------------------------------


    POTLOK:  cpu time    0.0713: real time    0.0790
    SETDIJ:  cpu time    0.2867: real time    0.2874
     EDDAV:  cpu time   49.1115: real time   49.3037
       DOS:  cpu time    0.0016: real time    0.0016
    CHARGE:  cpu time    1.2605: real time    1.2637
    MIXING:  cpu time    0.0040: real time    0.0040
    --------------------------------------------
      LOOP:  cpu time   50.7355: real time   50.9393

 eigenvalue-minimisations  : 17320
 total energy-change (2. order) : 0.1923516E-02  (-0.1036082E-01)
 number of electron     864.0000007 magnetization 
 augmentation part      120.5349005 magnetization 

 Broyden mixing:
  rms(total) = 0.79951E-01    rms(broyden)= 0.79944E-01
  rms(prec ) = 0.88924E-01
  weight for this iteration     100.00

 eigenvalues of (default mixing * dielectric matrix)
  average eigenvalue GAMMA=   1.4563
  2.3483  2.3483  1.0689  1.0689  0.9518  0.9518

 Free energy of the ion-electron system (eV)
  ---------------------------------------------------
  alpha Z        PSCENC =      4420.68831078
  Ewald energy   TEWEN  =    -58367.79195300
  -Hartree energ DENC   =    -12358.63928485
  -exchange      EXHF   =         0.00000000
  -V(xc)+E(xc)   XCENC  =      3398.49922191
  PAW double counting   =    112074.66834813  -111715.59653569
  entropy T*S    EENTRO =        -0.00000000
  eigenvalues    EBANDS =     -3264.52020856
  atomic energy  EATOM  =     64968.54023382
  Solvation  Ediel_sol  =         0.00000000
  ---------------------------------------------------
  free energy    TOTEN  =      -844.15186745 eV

  energy without entropy =     -844.15186745  energy(sigma->0) =     -844.15186745


--------------------------------------------------------------------------------------------------------




--------------------------------------- Iteration      1(  12)  ---------------------------------------


    POTLOK:  cpu time    0.0719: real time    0.0790
    SETDIJ:  cpu time    0.2873: real time    0.2882
     EDDAV:  cpu time   52.1295: real time   52.4049
       DOS:  cpu time    0.0016: real time    0.0016
    CHARGE:  cpu time    1.2581: real time    1.2611
    MIXING:  cpu time    0.0042: real time    0.0042
    --------------------------------------------
      LOOP:  cpu time   53.7525: real time   54.0390

 eigenvalue-minimisations  : 18712
 total energy-change (2. order) : 0.8762032E-03  (-0.4155707E-02)
 number of electron     864.0000007 magnetization 
 augmentation part      120.5787822 magnetization 

 Broyden mixing:
  rms(total) = 0.16611E-01    rms(broyden)= 0.16595E-01
  rms(prec ) = 0.20905E-01
  weight for this iteration     100.00

 eigenvalues of (default mixing * dielectric matrix)
  average eigenvalue GAMMA=   1.4342
  2.4881  2.4881  1.1940  1.0000  1.0000  0.9347  0.9347

 Free energy of the ion-electron system (eV)
  ---------------------------------------------------
  alpha Z        PSCENC =      4420.68831078
  Ewald energy   TEWEN  =    -58367.79195300
  -Hartree energ DENC   =    -12356.44039035
  -exchange      EXHF   =         0.00000000
  -V(xc)+E(xc)   XCENC  =      3398.33024430
  PAW double counting   =    111701.95098903  -111339.99318315
  entropy T*S    EENTRO =        -0.00000000
  eigenvalues    EBANDS =     -3269.43524268
  atomic energy  EATOM  =     64968.54023382
  Solvation  Ediel_sol  =         0.00000000
  ---------------------------------------------------
  free energy    TOTEN  =      -844.15099125 eV

  energy without entropy =     -844.15099125  energy(sigma->0) =     -844.15099125


--------------------------------------------------------------------------------------------------------




--------------------------------------- Iteration      1(  13)  ---------------------------------------


    POTLOK:  cpu time    0.0738: real time    0.0802
    SETDIJ:  cpu time    0.2864: real time    0.2871
     EDDAV:  cpu time   51.2951: real time   51.4920
       DOS:  cpu time    0.0015: real time    0.0015
    CHARGE:  cpu time    1.2588: real time    1.2618
    MIXING:  cpu time    0.0045: real time    0.0045
    --------------------------------------------
      LOOP:  cpu time   52.9201: real time   53.1271

 eigenvalue-minimisations  : 18312
 total energy-change (2. order) :-0.2515518E-03  (-0.6656266E-03)
 number of electron     864.0000007 magnetization 
 augmentation part      120.5647615 magnetization 

 Broyden mixing:
  rms(total) = 0.10238E-01    rms(broyden)= 0.10237E-01
  rms(prec ) = 0.11747E-01
  weight for this iteration     100.00

 eigenvalues of (default mixing * dielectric matrix)
  average eigenvalue GAMMA=   1.3774
  2.5428  2.5428  1.2821  0.9344  0.9344  0.9529  0.9529  0.8770

 Free energy of the ion-electron system (eV)
  ---------------------------------------------------
  alpha Z        PSCENC =      4420.68831078
  Ewald energy   TEWEN  =    -58367.79195300
  -Hartree energ DENC   =    -12359.32069657
  -exchange      EXHF   =         0.00000000
  -V(xc)+E(xc)   XCENC  =      3398.52619962
  PAW double counting   =    111660.10900130  -111297.51480100
  entropy T*S    EENTRO =        -0.00000000
  eigenvalues    EBANDS =     -3267.38753775
  atomic energy  EATOM  =     64968.54023382
  Solvation  Ediel_sol  =         0.00000000
  ---------------------------------------------------
  free energy    TOTEN  =      -844.15124280 eV

  energy without entropy =     -844.15124280  energy(sigma->0) =     -844.15124280


--------------------------------------------------------------------------------------------------------




--------------------------------------- Iteration      1(  14)  ---------------------------------------


    POTLOK:  cpu time    0.0694: real time    0.0783
    SETDIJ:  cpu time    0.2801: real time    0.2874
     EDDAV:  cpu time   54.0273: real time   55.3265
       DOS:  cpu time    0.0015: real time    0.0015
    CHARGE:  cpu time    1.2355: real time    1.2584
    MIXING:  cpu time    0.0061: real time    0.0062
    --------------------------------------------
      LOOP:  cpu time   55.6201: real time   56.9583

 eigenvalue-minimisations  : 20072
 total energy-change (2. order) :-0.8449213E-04  (-0.1323346E-03)
 number of electron     864.0000007 magnetization 
 augmentation part      120.5675379 magnetization 

 Broyden mixing:
  rms(total) = 0.74347E-02    rms(broyden)= 0.74342E-02
  rms(prec ) = 0.84620E-02
  weight for this iteration     100.00

 eigenvalues of (default mixing * dielectric matrix)
  average eigenvalue GAMMA=   1.3437
  2.6505  2.4426  1.3972  0.9893  0.9893  0.8985  0.8985  0.9138  0.9138

 Free energy of the ion-electron system (eV)
  ---------------------------------------------------
  alpha Z        PSCENC =      4420.68831078
  Ewald energy   TEWEN  =    -58367.79195300
  -Hartree energ DENC   =    -12359.62222591
  -exchange      EXHF   =         0.00000000
  -V(xc)+E(xc)   XCENC  =      3398.54363318
  PAW double counting   =    111652.93679639  -111290.17564567
  entropy T*S    EENTRO =        -0.00000000
  eigenvalues    EBANDS =     -3267.27047689
  atomic energy  EATOM  =     64968.54023382
  Solvation  Ediel_sol  =         0.00000000
  ---------------------------------------------------
  free energy    TOTEN  =      -844.15132729 eV

  energy without entropy =     -844.15132729  energy(sigma->0) =     -844.15132729


[...]
   0.986E+01 0.112E+02 0.842E+01   -.137E+02 -.159E+02 -.108E+02   0.190E+01 0.622E+01 0.671E+01   -.433E-03 0.108E-03 -.583E-03
   -.501E+02 0.600E+02 0.407E+01   0.468E+02 -.607E+02 -.992E+01   0.681E+01 -.164E+01 0.250E+01   -.321E-03 0.169E-03 -.715E-03
   0.445E+02 -.574E+01 0.225E+02   -.461E+02 0.102E+02 -.170E+02   -.331E+01 -.592E+01 -.235E+01   0.659E-03 0.275E-03 -.106E-02
   -.656E+02 -.300E+02 -.743E+02   0.535E+02 0.239E+02 0.813E+02   0.128E+02 0.574E+01 -.518E+01   -.285E-03 0.177E-03 -.174E-03
   -.400E+02 -.115E+02 0.109E+02   0.267E+02 0.766E+01 0.627E+01   0.169E+02 0.400E+01 -.189E+02   -.288E-03 -.627E-03 0.939E-03
   0.231E+02 -.111E+02 0.601E+01   -.394E+02 0.747E+01 -.612E+01   0.160E+02 0.328E+01 -.933E+00   -.406E-04 -.111E-03 0.145E-02
   0.855E+02 -.591E+01 0.349E+02   -.732E+02 -.569E+00 -.381E+02   -.199E+02 0.821E+01 0.218E+01   0.930E-03 0.107E-04 -.376E-03
   0.330E+01 0.403E+02 -.247E+01   0.238E+00 -.294E+02 0.252E+01   -.336E+01 -.149E+02 0.119E+01   -.184E-03 0.635E-03 -.397E-03
   0.205E+02 0.159E+02 -.270E+02   -.202E+02 -.252E+02 0.246E+02   -.264E+00 0.860E+01 0.310E+01   0.512E-04 -.148E-04 -.660E-03
   0.536E+02 0.789E+02 -.674E+02   -.641E+02 -.789E+02 0.688E+02   0.983E+01 -.172E+01 0.306E+01   0.570E-03 0.249E-03 -.111E-02
   -.725E-01 0.611E+01 0.152E+02   -.210E+02 -.710E+01 -.219E+02   0.214E+02 -.291E+01 0.834E+01   0.143E-03 0.951E-04 0.614E-03
   0.457E+02 0.805E+02 -.290E+02   -.489E+02 -.867E+02 0.547E+02   0.154E+01 0.481E+01 -.269E+02   0.269E-03 0.151E-03 0.975E-03
   -.257E+02 -.112E+02 -.721E+02   0.383E+02 0.141E+02 0.848E+02   -.117E+02 -.554E+00 -.102E+02   0.150E-03 0.293E-03 -.479E-03
   -.869E+02 0.517E+01 -.796E+02   0.111E+03 -.203E+02 0.884E+02   -.233E+02 0.159E+02 -.673E+01   -.100E-03 -.165E-03 -.755E-04
   -.230E+02 0.912E+01 -.266E+02   0.183E+02 -.249E+02 0.295E+02   0.333E+01 0.171E+02 -.822E+01   0.137E-03 0.152E-03 0.479E-03
   -.204E+02 -.281E+02 0.386E+02   0.422E+02 0.408E+02 -.400E+02   -.207E+02 -.116E+02 -.609E+00   -.215E-03 0.231E-03 0.290E-03
   0.317E+00 -.100E+02 0.315E+02   0.993E+01 0.910E+01 -.394E+02   -.114E+02 0.150E+01 0.705E+01   -.164E-03 -.974E-04 -.642E-03
   -.868E+02 0.357E+02 0.817E+01   0.859E+02 -.233E+02 -.916E+01   0.691E+01 -.160E+02 0.292E+01   -.803E-03 0.865E-03 -.705E-03
   0.211E+02 0.725E+02 0.480E+02   -.197E+02 -.655E+02 -.445E+02   -.301E+01 -.129E+02 -.395E+01   0.678E-03 -.532E-04 -.602E-03
   0.141E+02 -.390E+02 0.256E+02   -.308E+02 0.474E+02 -.372E+02   0.165E+02 -.547E+01 0.102E+02   0.811E-04 -.627E-03 0.120E-03
   0.526E+02 0.608E+02 -.319E+01   -.661E+02 -.480E+02 -.234E+01   0.113E+02 -.164E+02 0.402E+01   0.802E-04 0.654E-03 -.971E-03
   0.744E+01 0.224E+02 -.336E+01   0.307E+01 0.142E+01 -.737E+00   -.682E+01 -.241E+02 0.415E+00   -.513E-04 0.324E-03 0.958E-03
   0.108E+02 -.215E+02 0.142E+02   -.239E+02 0.267E+00 -.432E+01   0.124E+02 0.230E+02 -.853E+01   0.141E-03 -.271E-04 -.509E-03
   -.104E+02 0.114E+02 -.258E+02   0.190E+01 -.915E+01 0.218E+02   0.590E+01 0.953E+00 0.416E+01   0.108E-03 0.430E-04 -.848E-03
   -.569E+02 0.592E+02 -.273E+02   0.717E+02 -.710E+02 0.445E+02   -.120E+02 0.611E+01 -.142E+02   -.316E-03 0.190E-03 -.696E-03
   0.393E+02 -.371E+02 -.120E+02   -.552E+02 0.523E+02 0.158E+02   0.124E+02 -.147E+02 -.418E+01   0.161E-03 0.307E-03 0.327E-03
   0.599E+02 -.370E+02 0.422E+02   -.738E+02 0.422E+02 -.548E+02   0.142E+02 -.114E+01 0.144E+02   0.760E-03 -.260E-03 -.570E-03
   0.241E+02 0.985E+02 -.139E+02   -.190E+02 -.115E+03 -.982E+00   -.200E+01 0.143E+02 0.122E+02   -.513E-03 -.221E-03 0.830E-03
   -.916E+01 -.282E+01 -.660E+02   0.102E+02 -.569E+01 0.738E+02   -.862E+00 0.135E+02 -.662E+01   0.661E-04 -.373E-03 -.163E-03
   -.297E+02 -.641E+02 -.328E+02   0.537E+02 0.636E+02 0.360E+02   -.237E+02 0.164E+01 -.296E+01   -.312E-03 -.571E-03 0.628E-03
   0.578E+01 0.255E+01 0.848E+02   -.399E+01 0.400E+01 -.100E+03   -.323E+01 -.491E+01 0.118E+02   0.522E-03 -.181E-03 0.254E-03
   0.346E+02 -.155E+02 0.254E+02   -.344E+02 0.262E+02 -.383E+02   -.122E+01 -.142E+02 0.101E+02   0.360E-03 0.635E-03 0.484E-03
   0.413E+02 0.219E+02 0.550E+00   -.327E+02 -.408E+02 -.840E+01   -.127E+02 0.176E+02 0.963E+01   0.397E-03 -.171E-03 -.105E-02
   0.384E+02 -.209E+02 0.381E+02   -.469E+02 0.203E+02 -.375E+02   0.693E+01 0.119E+01 -.118E+01   0.354E-03 -.211E-03 0.222E-03
   0.410E+02 0.872E+02 0.455E+02   -.297E+02 -.103E+03 -.640E+02   -.157E+02 0.139E+02 0.196E+02   0.439E-03 -.647E-04 0.591E-03
   0.980E+02 0.801E+02 0.887E+01   -.116E+03 -.888E+02 -.334E+01   0.177E+02 0.654E+01 -.890E+01   0.349E-03 -.858E-04 0.110E-02
   0.522E+02 -.123E+02 -.110E+02   -.529E+02 0.323E+02 0.230E+02   0.384E+01 -.172E+02 -.121E+02   0.173E-03 -.237E-03 -.145E-02
   -.348E+02 -.869E+02 0.656E+01   0.187E+02 0.921E+02 -.230E+02   0.174E+02 -.482E+01 0.139E+02   0.528E-03 -.404E-03 0.113E-02
   -.685E+01 -.234E+02 0.257E+02   0.375E+00 -.327E+01 -.185E+02   0.604E+01 0.252E+02 -.707E+01   0.102E-03 -.111E-03 -.662E-03
   -.314E+02 0.696E+01 0.693E+02   0.386E+02 -.162E+02 -.665E+02   -.515E+01 0.787E+01 -.738E+01   -.578E-03 0.325E-03 -.105E-03
   0.793E+02 -.122E+03 -.144E+02   -.929E+02 0.109E+03 0.271E+02   0.975E+01 0.161E+02 -.115E+02   0.580E-03 -.225E-03 -.476E-03
   0.145E+02 -.146E+02 0.243E+02   -.134E+02 0.237E+02 -.288E+02   -.138E+01 -.107E+02 0.133E+01   0.391E-03 0.175E-04 -.245E-03
   -.237E+02 0.264E+02 0.578E+01   0.409E+02 -.328E+02 -.281E+02   -.170E+02 0.146E+01 0.148E+02   -.432E-03 0.608E-03 0.135E-02
   0.140E+02 0.577E+02 0.267E+02   -.921E+01 -.649E+02 -.271E+02   -.882E+01 0.505E+01 -.472E+01   -.350E-03 0.125E-03 -.472E-03
   0.110E+02 -.423E+02 0.811E+02   -.660E+01 0.350E+02 -.878E+02   -.444E+01 0.903E+01 0.590E+01   0.432E-03 -.297E-03 -.395E-03
   -.726E+02 0.352E+02 -.467E+01   0.778E+02 -.491E+02 0.155E+02   -.341E+01 0.143E+02 -.121E+02   -.134E-03 -.317E-03 -.699E-03
   -.684E+02 0.675E+02 -.513E+02   0.947E+02 -.738E+02 0.619E+02   -.223E+02 0.497E+01 -.110E+02   -.453E-03 0.114E-03 0.860E-03
   0.371E+02 -.296E+02 0.119E+02   -.355E+02 0.404E+02 -.389E+02   -.973E+00 -.917E+01 0.279E+02   0.814E-04 0.169E-03 0.488E-03
 -----------------------------------------------------------------------------------------------
   -.464E+02 -.238E+01 0.723E+02   -.355E-13 0.192E-12 -.504E-12   0.463E+02 0.238E+01 -.723E+02   0.892E-03 0.459E-03 -.277E-02
 
 
 POSITION                                       TOTAL-FORCE (eV/Angst)
 -----------------------------------------------------------------------------------
      5.37657      2.09270      6.53798         4.248266      3.879821     -3.802622
      6.21203      2.56549      1.17962        -0.531946      4.990927     -2.501773
      1.34923      1.61310      9.94364        -0.161184      1.181418      2.094626
      5.34531      8.17234      4.39118         3.018859      1.035608     -3.640113
      2.20724      5.93989      2.58704        -1.669962     -0.691813     -2.116673
     10.10416      4.02455      1.91225        -1.113710     -1.106972     -7.741320
      0.25368      5.43142      4.49662        -1.328300      3.301555      4.258930
      5.15414      5.50693      3.23749        -1.558278     -0.611544     -0.705725
      9.57232      1.39649      7.96404         3.120030     -2.211123      4.816785
      0.15067      7.80501      5.56567         0.776945     -2.368198      0.374866
      1.93193      9.48328      7.28448         1.396011      2.899032     -1.265861
      2.69031      4.76720      5.68627         1.829953      3.312833     -3.397397
      0.99276      3.77745      7.69526        -0.937027      1.137170      1.727921
      8.91427      9.41990      0.32622         0.981676      1.341824      1.327218
      3.80539      3.93461      0.46961         0.124214     -6.001201      5.562038
      4.29937      9.88424      9.52710         2.227532     -2.615042      1.803361
      6.82348      1.12734      9.33859        -0.514306      1.178644     -3.257385
      6.17302      4.93613      8.60673         7.153019      0.174496      3.914481
      7.73377      5.44744      1.26706         1.134441     -2.701305     -0.586760
      9.17757      5.88041      7.38928        -1.675184     -2.456227      1.050024
      4.19746      6.96596      7.36383         4.827495      2.136710      0.880910
      3.82016      1.51777      8.19158        -5.581470     -1.297611     -0.645151
      3.26363      0.04285      3.75417         1.018541     -0.360238      2.579546
      0.29883      7.91091      2.33713         3.099025      0.808735     -3.995089
      2.04420      5.55754     10.24033        -1.230344      0.300203      0.672880
      7.57345     10.05524      6.45211         3.057106     -0.716541     -1.164576
      6.65527      8.29249      8.74246         0.146937     -1.563024     -5.516469
      6.18630      5.14223      5.87439        -3.831476      0.425557      2.197563
      7.35357      7.60543      6.29912        -0.258282     -5.937084     -4.212901
      7.97234      6.22391      3.86305         3.296545      5.689468      1.649622
      2.24475      1.97353      5.92740        -0.879260     -3.867422     -0.101869
      4.61908      3.03622      3.88776        -3.436987     -0.347819     -2.499826
      4.02678      4.19066      8.17866        -8.880601      0.342711     -1.087257
      7.55257      3.58469      3.67403         3.434475     -0.473603      4.213721
      8.80191      1.72452      1.55316         1.347357     -0.479657     -0.688765
     10.25158      2.81279      4.63462        -2.028827     -1.692536      2.285418
      6.21921      9.90725      1.55880         1.562446      2.088808      1.892799
      3.78419      1.03557      1.41784        -0.381519      2.328074      0.298417
      9.54940      8.92219      8.23732         1.450218     -1.805918     -1.184297
      8.71075      3.48060      9.67470        -0.639610     -1.992028     -2.828863
      6.59595      0.94654      3.97402        -2.675717      0.672169      3.546234
      2.98157      7.63024      4.75909        -1.880349     -2.522198     -2.953185
      9.82852      6.57153     10.01908        -3.891915     -1.026366      3.281571
      0.01690      0.09371      5.16599         6.762943      7.729242      0.626048
      8.35585      2.78084      6.45473        -4.040485      5.231662     -4.041981
      3.90692      8.16067      1.52284        -3.251673     -5.871888      0.565459
      1.78492      6.75613      7.87273        -4.183639     -4.178189     -4.333596
      6.90739      7.90702      1.02710         0.987732     -4.428007      3.985367
      0.80313      0.27259      2.41859        -1.312523      4.288907      7.424160
      4.88474      6.15950      0.33867         5.638540      2.427065      1.131260
      2.16236      2.97400      2.92660         1.959665      1.668753     -4.017247
      1.46513      8.92265      9.86305         1.836689     -1.224588      6.270867
      4.86397      9.86162      6.45545         0.405754     -1.669446     -3.143852
      8.41193      9.45006      3.48350         0.889900     -5.767500      0.852419
      3.54650      1.61134     10.20116        -0.691392      1.612026      1.720486
      8.95878      3.48549      7.73910         2.624046      1.197383      4.700567
      3.79680      6.27074      4.56192         1.674864      0.353500      2.240464
      3.13088      3.06356      6.59264         5.515093      0.664806      4.980531
      4.65017      7.84106     10.20874        -0.422441     -1.221859     -0.513426
      8.21086      3.23296      1.29115         0.684397      1.677765      1.591031
      8.08703      0.43294      4.39370        -3.469408      4.081979     -2.066721
      9.11015      2.50430      3.56899        -7.419404      1.364063     -4.092670
      8.41353      6.50245      5.44356         1.640613     -1.406114      2.173374
      8.65348      5.04637      9.76093         1.890091      5.192985     -0.987129
      8.62019      1.48041     10.15002         2.298487     -0.329305      1.281885
      0.86387      5.80541      6.55861        -0.262559      0.298650     -0.635342
      2.56255      7.36007      9.11611         0.204672      3.124513     -0.788237
      4.98778      4.01262      5.06921        -0.749188      1.071485      1.155393
      8.79929      7.55591      9.27729        -2.709270      0.636539     -3.570560
      1.67264      6.91260      4.10640        -3.124293      2.790981      2.760056
      4.04342      9.35333      7.66278        -3.691229     -5.110483      2.141963
      5.68821      4.68817      0.94492        -0.426162      3.371103     -0.854711
      0.18370      9.98032      9.16442         1.150600     -0.994033     -1.100360
      5.69512      0.12744      2.88105        -3.936486      0.180373      5.168430
      7.17143      2.55537      5.01954         0.465798     -1.101884     -1.853202
      2.87167      2.30163      4.19791         1.626873      0.495599      4.399848
      9.47786      9.99730      2.29692        -0.823974     -0.321431      1.394381
      0.14477      5.96610      1.17110         0.905790     -0.435684      0.799862
      0.26789      8.02131     10.21374         1.375552     -0.945365      3.052078
      9.93693      9.73665      6.62069         2.391735      1.229082      3.767863
      9.31542      3.92454      5.57218        -0.873608      0.644260     -1.894820
      6.05626      3.35020      3.00354         3.785378      1.905055      0.580374
      1.43638      1.65689      7.65731         2.260296     -0.674276     -1.596344
      3.71537      9.65088      1.49454        -0.134249      8.435302     -0.889831
      1.22747      3.28031      5.57136         0.028415     -2.271117      0.869925
      3.61285      8.09946      3.14074        -1.249128     -0.097670      1.500573
      1.86055      3.50699      1.35881         0.787080      0.920239      0.625142
      7.45307      8.16683      4.30282        -1.948311      1.472796      4.325515
      6.90004      5.03250      4.46376         3.470204     -2.404622     -3.340789
      2.59448      7.49055      6.35854        -4.922121     -1.429277      3.091573
      7.41305      1.01769      1.88887         0.722953     -0.308559      1.741934
      3.82433      6.21706      1.53918         3.566942      0.206428     -1.662423
      2.30347      7.86745      1.10544        -0.267319     -0.390350     -1.039378
      8.98438      4.87310      3.35899        -7.529631      1.730571     -1.067181
      3.31508      4.37979      3.17763         0.183544     -3.998075      1.238483
      2.75962      5.41295      7.68490         0.003850     -0.694464      0.702689
      6.07333      8.60447      6.52401        -0.676929     -1.779262      4.503434
      7.12196      3.38699      9.38617         0.330050     -3.896415      1.637383
      5.57066      8.26290      1.96871        -1.626397     -1.319540     -1.156157
      5.75587      0.29888      7.67189         0.877461      2.330142      2.504674
      5.05571      3.01718      8.47142         0.853638      0.801574      2.077531
      7.42006      9.00680      2.39513        -1.404771      1.305206     -5.343755
      0.10145      1.72547      1.78931         1.077572      1.188592     -2.016189
      0.55877      1.28881      4.00009        -1.158804      0.594822     -0.862945
      0.78176      3.85961      3.49836         5.994607     -3.613646      1.931189
      9.31999      7.43423      3.62589        -1.613715     -5.917787     -0.390484
      6.84535      6.37921      2.75046        -0.186122      2.984199     -1.377320
      5.99874      6.74483      5.62196        -2.143718     -3.521181     -1.514587
      2.33546     10.10050      9.43504         3.696631     -0.342565     -3.677921
      5.12439      1.60890      4.28228        -0.701618      1.685709      1.338098
      0.64292      7.87225      7.76720        -2.595691      3.239918      0.131238
      7.05838      4.15132      6.60672         2.800677     -5.614736      2.979840
      8.31685      9.88713      8.59799        -3.466029      0.588944     -0.387261
      3.79739      0.73130      6.01675         0.279965      4.023739      1.823964
      0.48525      5.93302      8.94713         3.092966     -2.587813     -2.714293
      7.03755      6.22529      7.39987         0.206037      4.944350      1.219985
      0.01614      3.18348      9.75640         0.354181      1.121889      0.176391
      4.91098      4.93730      7.10275        -1.434185      1.646143     -3.615743
      5.39463      0.86503      0.82312        -1.027461     -3.546516     -2.709634
      1.82858      0.44821      5.47401        -4.197528     -1.291858      1.784785
      2.35195      1.28231      2.29628        -1.578273      0.581032     -0.573632
      6.72088      6.74619     10.12643        -4.333748     -1.915657      1.131452
      2.66298      3.74099      9.18561        -0.194481     -2.206915     -3.370446
      3.62559      8.91916      5.34944         3.083100      2.720292     -0.147277
      4.17858      5.48951      9.39325         1.204754      0.365523     -2.535773
      9.41705      9.23723      4.65694        -0.427913     -1.503772      0.045599
      9.59975      1.74677      5.97061         2.027153     -1.390187     -4.547425
      7.71119      1.53563      7.22208        -3.770046      3.392162      1.221573
      4.21005      2.47269      2.30235        -0.304831     -1.605223     -3.147340
      1.31676     10.02423      1.14943         0.167438     -4.955013     -7.535547
      8.61532      8.11750      7.22539        -3.997684     -2.167562     -5.141357
      5.94469     10.15289      5.19082         0.000792      1.742907     -0.805291
      1.15329      9.38821      3.69679         1.797928      0.447504     -1.276754
      8.39255      7.49057      1.23819         3.941885     -1.263151     -0.472907
      6.67993      9.30458      0.13526         0.588270      1.624928      0.907645
 -----------------------------------------------------------------------------------
    total drift:                               -0.039115      0.003027     -0.034454


--------------------------------------------------------------------------------------------------------



  FREE ENERGIE OF THE ION-ELECTRON SYSTEM (eV)
  ---------------------------------------------------
  free  energy   TOTEN  =      -844.15130047 eV

  energy  without entropy=     -844.15130047  energy(sigma->0) =     -844.15130047
 


--------------------------------------------------------------------------------------------------------


    POTLOK:  cpu time    0.3573: real time    0.3582


--------------------------------------------------------------------------------------------------------


     LOOP+:  cpu time  992.7506: real time 1001.2664
    4ORBIT:  cpu time    0.0000: real time    0.0000

 total amount of memory used by VASP MPI-rank0   169873. kBytes
=======================================================================

   base      :      30000. kBytes
   nonlr-proj:      22110. kBytes
   fftplans  :      16051. kBytes
   grid      :       9274. kBytes
   one-center:        186. kBytes
   wavefun   :      92252. kBytes
 
  
  
 General timing and accounting informations for this job:
 ========================================================
  
                  Total CPU time used (sec):     1014.132
                            User time (sec):     1009.399
                          System time (sec):        4.734
                         Elapsed time (sec):     1022.810
  
                   Maximum memory used (kb):      286432.
                   Average memory used (kb):           0.
  
                          Minor page faults:       170923
                          Major page faults:            0
                 Voluntary context switches:          366
