80
Time=50000.00000004 pbc="T T F" Lattice="13.79398668 0.00000000 0.00000000 -6.89699334 11.94594288 0.00000000 0.00000000 0.00000000 27.81022107" energy=-526.09871674 virial="7.87214280 1.12627389 2.16876989 1.12627389 9.38209646 3.35786844 2.16876989 3.35786844 -5.13732432" stress="0.00231956 0.00024577 0.00047326 0.00024577 0.00264906 0.00073274 0.00047326 0.00073274 -0.00051930" Properties=species:S:1:pos:R:3
Sc -0.04306762 1.92407993 15.20223484
Sc -1.72025467 5.01514939 15.04930557
Sc -3.40699906 7.83069181 15.17752935
Sc -5.18673298 10.91544731 15.21899762
Sc 3.42388832 1.87156142 15.10025967
Sc 1.71031800 4.99028460 15.19463413
Sc -0.12586087 8.01776265 15.21211755
Sc -1.71976067 10.87294294 15.13018652
Sc 6.89945104 2.00769604 15.16134868
Sc 5.08982137 5.04723405 15.08550280
Sc 3.42849946 7.78293900 15.07757362
Sc 1.77239085 11.13972005 15.17505116
Sc 10.33982990 2.05325801 15.19464736
Sc 8.63908553 5.07154876 15.24210708
Sc 6.92038389 7.94922930 15.11428605
Sc 5.20534901 11.03420663 15.09730310
Sc 1.70792185 0.92618049 12.59705233
Sc 0.09120671 4.07253095 12.76514183
Sc -1.73865023 6.99838015 12.49717777
Sc -3.48035999 10.00685599 12.69536795
Sc 5.16915179 0.89911889 12.62637855
Sc 3.50624306 4.00356961 12.62507583
Sc 1.78577531 7.00025830 12.67256410
Sc 0.08296866 9.89619733 12.72913655
Sc 8.57848471 1.02545450 12.64420495
Sc 6.87947116 3.89707678 12.64772930
Sc 5.24634499 7.06450075 12.65070590
Sc 3.52446700 10.00474611 12.60115158
Sc 12.05321568 1.07016211 12.59335807
Sc 10.28452316 3.98282795 12.66436248
Sc 8.62021731 6.84411761 12.72884359
Sc 7.06043367 9.98050746 12.72773833
Cl -0.02705109 2.03357725 10.96654785
Cl -1.80276765 5.02690069 11.06962385
Cl -3.51291851 7.99073286 11.05263356
Cl -5.17405589 11.00369744 11.01254328
Cl 3.50685999 1.99589579 11.03284297
Cl 1.60106948 5.03952862 11.00611951
Cl 0.04313567 7.92813053 10.89437120
Cl -1.85307516 10.75743861 11.14525482
Cl 6.86951210 1.94895204 10.96761691
Cl 5.16430849 5.10524396 10.85399578
Cl 3.44497726 8.00157488 10.98525863
Cl 1.71674940 10.92672462 10.96818910
Cl 10.46114530 1.90470316 10.89228893
Cl 8.69881452 5.08796048 10.89657753
Cl 6.95867231 7.88130604 11.03268935
Cl 5.16703441 11.03560772 10.90436711
Cl 1.79801853 0.97078004 16.99939426
Cl 0.06703211 3.77785417 16.78301493
Cl -1.87247918 6.82447838 16.82264513
Cl -3.35793369 9.93703202 16.72086318
Cl 5.10935212 0.92757716 16.66744200
Cl 3.43875219 4.02699590 16.68448004
Cl 1.71813286 7.11139319 16.80173152
Cl 0.12146420 9.92792341 16.87711715
Cl 8.37806178 0.97817688 16.85838228
Cl 6.76075303 3.99314712 16.88486026
Cl 5.15359966 7.07464527 16.73970018
Cl 3.53378263 9.97919445 16.79336773
Cl 12.07712874 0.86710240 17.03863780
Cl 10.19295950 3.96146547 16.84792329
Cl 8.69744708 6.98884029 16.94237868
Cl 6.91332324 9.98708332 16.91401103
C 13.76454587 0.01885127 13.90147930
C 12.03833720 3.00292278 14.00141846
C 10.28984748 5.88678720 13.90807110
C -5.23381286 9.16326550 14.04258554
C -3.46338804 11.90132409 13.97051492
C 1.77230173 3.03044305 13.78026986
C -0.02876893 6.01318123 13.97893434
C -1.73693920 8.88074876 13.92834099
C 0.04395257 11.91110401 13.80061253
C 5.12662669 3.00088857 13.84168986
C 3.44451079 5.90268662 13.92816429
C 1.78113469 8.82421857 13.87786404
C 10.44951889 0.18577096 13.81462950
C 8.57222688 2.95707457 13.88534767
C 7.02878861 6.09178410 13.91297233
C 5.26358674 8.96140054 13.87468392
80
Time=99999.99999996 pbc="T T F" Lattice="13.79398668 0.00000000 0.00000000 -6.89699334 11.94594288 0.00000000 0.00000000 0.00000000 27.81022107" energy=-526.05055952 virial="5.03627695 0.68367419 0.54874436 0.68367419 9.65985277 0.71749910 0.54874436 0.71749910 -4.35489890" stress="0.00170073 0.00014919 0.00011974 0.00014919 0.00270967 0.00015657 0.00011974 0.00015657 -0.00034857" Properties=species:S:1:pos:R:3
Sc 0.12042352 1.91847991 15.15650504
Sc -1.77173179 5.01124045 15.12050949
Sc -3.61438962 7.90444128 15.25045851
Sc -5.10104164 10.99041279 15.06069859
Sc 3.58077146 1.96085368 15.18989909
Sc 1.73979721 4.85067837 15.24720592
Sc 0.06164289 8.02453948 15.09554504
Sc -1.76717931 10.81218926 15.17060770
Sc 6.89754018 1.98457715 15.03948524
Sc 5.10179197 5.09594551 15.19250190
Sc 3.40750651 8.05084114 15.16917436
Sc 1.66205792 10.99860014 15.14230762
Sc 10.27207235 1.98231992 15.01575810
Sc 8.62662097 4.89028067 14.97172108
Sc 6.92481530 8.00014885 15.14476622
Sc 5.15501872 10.96525781 15.13581722
Sc 1.79157652 0.90552709 12.61263744
Sc 0.06197681 3.99251480 12.69565244
Sc -1.67815366 6.88154047 12.78139361
Sc -3.40286890 9.84637839 12.75883454
Sc 5.14788434 0.93465891 12.56475602
Sc 3.46376959 4.07260448 12.67663243
Sc 1.71117822 6.93822396 12.63641354
Sc -0.10290349 10.04090179 12.68183091
Sc 8.62267596 0.88449900 12.60688550
Sc 6.88588743 4.04626880 12.75782020
Sc 5.06734193 6.91597024 12.68946354
Sc 3.41809991 9.88562696 12.67656901
Sc 12.14694130 1.02601835 12.61589336
Sc 10.42658077 3.90532296 12.58067045
Sc 8.58104578 6.91994242 12.57132100
Sc 6.86483742 9.92796405 12.69029705
Cl 0.15943239 2.02001038 10.90150618
Cl -1.64264170 5.20017206 10.96589470
Cl -3.37248589 7.99432253 11.14057015
Cl -5.12488292 10.98910881 10.99933540
Cl 3.52829981 2.10733525 10.87606838
Cl 1.60539397 5.08485289 10.97746571
Cl -0.19518988 7.90963494 11.08611730
Cl -1.77084598 10.74110118 10.95467607
Cl 6.89279618 1.78372067 11.00669678
Cl 5.17276498 5.08113818 11.00058913
Cl 3.40981095 7.81387843 10.92566824
Cl 1.74563377 11.01559243 10.91793514
Cl 10.42223284 2.08043792 10.90229686
Cl 8.52307452 4.97204833 10.96247732
Cl 6.85781652 8.05492927 11.09140532
Cl 5.26867489 10.99471899 10.95732405
Cl 1.94776521 0.93731635 16.83290319
Cl 0.12730738 3.92794992 16.89203715
Cl -1.68837507 7.00201654 16.94320099
Cl -3.63382700 9.93681080 16.87112929
Cl 5.28159678 1.00481363 16.82992624
Cl 3.47972736 4.04309865 16.93526054
Cl 1.51678841 7.08383882 16.87263300
Cl 0.05218534 9.93428230 16.82965805
Cl 8.66272989 0.91674255 16.83655696
Cl 6.95292968 3.82722380 16.83615586
Cl 5.12606204 7.14892542 17.03380189
Cl 3.33623560 10.04961219 16.88949307
Cl 12.01690814 1.07859152 16.50974644
Cl 10.44480938 4.01749538 16.80057657
Cl 8.52187172 7.10885157 16.89310048
Cl 6.74505037 9.91416304 16.82155602
C -6.81775983 11.91689437 13.78739281
C -1.67984780 2.94863345 13.80476124
C -3.39028690 5.96946072 13.98920886
C -5.18258501 9.02414557 13.90102016
C 3.42059413 0.01067458 13.99825602
C 1.83287764 3.08204691 14.05528342
C -0.05331705 5.86795766 13.96403331
C -1.75306272 9.09857445 13.96599126
C 6.89634860 0.06589706 13.79617792
C 5.18485014 2.97901709 13.86922215
C 3.39041104 6.03031986 13.95213553
C 1.67205297 8.93364413 13.94765912
C 3.51490595 11.85242133 13.92697387
C 8.72666628 2.98215380 13.77234161
C 6.85032376 6.09453908 13.90400245
C 5.11167735 8.95790144 13.85893293
80
Time=149999.99999957 pbc="T T F" Lattice="13.79398668 0.00000000 0.00000000 -6.89699334 11.94594288 0.00000000 0.00000000 0.00000000 27.81022107" energy=-526.37499475 virial="10.86812739 -0.95723917 -1.04924917 -0.95723917 8.57978700 8.38971149 -1.04924917 8.38971149 5.96145497" stress="0.00297333 -0.00020888 -0.00022896 -0.00020888 0.00247398 0.00183076 -0.00022896 0.00183076 0.00190262" Properties=species:S:1:pos:R:3
Sc 0.01452060 1.83149073 15.21407596
Sc -1.65418832 4.83094501 15.25663117
Sc -3.48960954 7.89642281 15.02524419
Sc -5.07249393 10.87762820 15.15978122
Sc 3.53360434 2.03658626 15.05153737
Sc 1.79408144 4.90149372 15.11653703
Sc 0.03883138 7.84714810 15.11577745
Sc -1.78055867 10.93345902 15.21288207
Sc 6.90874891 1.98362232 15.13706336
Sc 5.13456791 5.06578946 14.99162149
Sc 3.33625473 7.98360873 15.04430550
Sc 1.73687951 11.00099259 15.11328744
Sc 10.31869198 2.08097706 15.19439264
Sc 8.65617300 4.94697220 15.14344797
Sc 6.93655247 7.93226752 15.12592004
Sc 5.21198908 10.95227523 15.18855570
Sc 1.68805793 1.07675720 12.71027445
Sc 0.03442818 4.00524591 12.64102801
Sc -1.72515588 6.93537240 12.74320233
Sc -3.44750272 9.97020380 12.55533630
Sc 5.16974294 0.86868381 12.69510672
Sc 3.48970840 4.01728324 12.68144503
Sc 1.76229015 7.02436133 12.57444533
Sc -0.04574685 9.87237565 12.64993665
Sc 8.55828739 1.14366920 12.68225857
Sc 6.92395726 4.11536855 12.73074799
Sc 5.10407219 6.99895409 12.69767895
Sc 3.42941276 10.14040325 12.57938712
Sc 12.00526372 1.02754461 12.73264137
Sc 10.31439142 4.06163757 12.69240601
Sc 8.62157151 6.97826001 12.62398337
Sc 6.96268388 10.00338664 12.69420746
Cl 0.06972829 2.00862046 11.06430889
Cl -1.74595381 4.83278356 10.97468128
Cl -3.38723476 7.89775545 10.98566238
Cl -5.27417759 11.14537457 11.06225057
Cl 3.39437183 1.96750483 11.10671940
Cl 1.59702302 5.13419112 10.91925597
Cl 0.03228781 7.91817833 11.07380496
Cl -1.87077085 10.88477088 10.88296133
Cl 6.82679666 1.88350095 10.99503181
Cl 5.28128164 5.06976753 11.00921820
Cl 3.42105713 8.15196968 10.96479169
Cl 1.79580964 11.14984401 11.12250248
Cl 10.40947356 2.10682855 11.13649307
Cl 8.58451442 4.86813336 10.90769630
Cl 6.89847627 7.86557555 11.03859304
Cl 5.09154195 11.06661676 10.79815452
Cl 2.03131475 0.86034394 16.89025944
Cl 0.07344451 3.91468333 16.71339665
Cl -1.87485636 6.82369038 16.71492069
Cl -3.51070980 9.70451393 16.84453508
Cl 5.16778307 0.96436792 16.78979620
Cl 3.49859558 4.04294215 16.74164230
Cl 1.58904807 7.03988134 16.86378440
Cl 0.08916897 9.85829719 16.76279917
Cl 8.50286577 0.92782698 16.85049189
Cl 6.70857290 3.93986435 16.86103926
Cl 5.21025477 7.04840396 16.64310866
Cl 3.51477402 9.97209321 16.79352770
Cl 12.04459672 0.98389969 16.82282706
Cl 10.56007787 3.99508928 17.07721970
Cl 8.50508269 6.88732111 16.87550990
Cl 6.98170003 9.93625801 16.88010057
C 6.92707494 11.84853905 13.97291402
C -1.69900531 2.98733864 14.04589430
C 10.33982881 5.91812067 13.87242645
C 8.61679670 8.96323108 13.74376880
C -3.36557196 11.87213879 13.92447395
C 1.88023424 2.92594897 13.87187364
C 0.02872166 5.89763709 14.00070366
C -1.80999252 8.87049118 13.96124344
C -0.06860664 11.93451825 13.88914760
C 5.15515211 3.04787476 13.96883835
C 3.39927536 6.03499612 13.92919661
C 1.67548217 9.01737703 13.80289404
C 10.34047988 0.15962052 13.94734558
C 8.62517824 3.01079102 13.86940364
C 6.98359252 6.00721284 13.89330275
C 5.00533764 9.08502580 13.89270670
80
Time=199999.99999918 pbc="T T F" Lattice="13.79398668 0.00000000 0.00000000 -6.89699334 11.94594288 0.00000000 0.00000000 0.00000000 27.81022107" energy=-526.47668314 virial="5.35564356 -1.17664020 1.30217449 -1.17664020 6.62547612 0.24699866 1.30217449 0.24699866 -8.59845560" stress="0.00177042 -0.00025676 0.00028415 -0.00025676 0.00204752 0.00005390 0.00028415 0.00005390 -0.00127458" Properties=species:S:1:pos:R:3
Sc 0.03397068 1.94906056 15.00578314
Sc -1.75015965 4.95422723 15.31854973
Sc -3.45252046 7.94460473 15.15399202
Sc -5.14752350 11.05748717 15.18315217
Sc 3.51239948 2.07896544 15.14422860
Sc 1.60562200 5.08971644 15.26040290
Sc 0.04830670 7.96101692 15.04475761
Sc -1.71235767 10.91816961 15.18364617
Sc 6.79875467 2.00998639 15.21036561
Sc 5.17544894 5.05559545 15.16867352
Sc 3.42990451 8.00891957 15.14276906
Sc 1.76507072 10.97899309 15.16762120
Sc 10.43775465 1.94105950 15.06096993
Sc 8.66122702 4.98244547 15.18448263
Sc 6.90319133 7.91190098 15.22799916
Sc 5.24022639 11.03369534 15.01560289
Sc 1.83091563 0.93657199 12.72312405
Sc 0.02109436 4.04757550 12.76009054
Sc -1.78846342 6.89239374 12.74138288
Sc -3.46333781 9.96021561 12.56099486
Sc 5.19810353 1.06085199 12.66966056
Sc 3.49773117 4.01504658 12.69132770
Sc 1.75670503 6.93458106 12.63937221
Sc -0.07108699 9.90237512 12.61520522
Sc 8.60882960 1.08802568 12.68269366
Sc 6.88990417 4.00241058 12.69514421
Sc 5.18769489 7.06585000 12.68670757
Sc 3.43712444 9.90241472 12.71150170
Sc 12.06755493 1.11716345 12.42503577
Sc 10.24473957 4.03708518 12.67241280
Sc 8.57785299 7.01813492 12.63285557
Sc 6.89176018 9.98506281 12.64180226
Cl 0.11892989 2.14212199 10.93680161
Cl -1.60084816 4.83784394 11.04280906
Cl -3.39653305 7.70103328 10.95337019
Cl -5.22264089 10.92824014 10.87979460
Cl 3.50434147 1.87727792 11.02219035
Cl 1.74995941 4.92571221 11.00577359
Cl 0.07993706 7.82155510 11.05702749
Cl -1.74900461 11.08517586 11.01702622
Cl 6.79933009 2.19631520 11.02671021
Cl 4.98200000 5.02610408 10.87877839
Cl 3.42943201 7.98873693 11.05070593
Cl 1.71074202 10.87786162 11.05697266
Cl 10.29234740 1.91344681 10.68703579
Cl 8.52030057 4.90019985 10.87019959
Cl 6.91472282 7.86079792 10.90917528
Cl 5.24237584 10.91240380 11.07449082
Cl 1.76530084 0.97246468 16.85127845
Cl -0.04358464 3.84504706 16.86068084
Cl -1.65220323 6.89019442 16.84638130
Cl -3.27476350 9.77939876 16.77305578
Cl 5.08039406 0.92339178 16.92915802
Cl 3.46739743 4.01200961 16.80286625
Cl 1.66706606 7.02805623 16.75856897
Cl 0.23311437 9.92983523 16.92484963
Cl 8.57872273 0.96258911 16.88314211
Cl 6.81084857 4.01423677 16.97587880
Cl 4.96593404 7.00151585 16.91994610
Cl 3.48452310 9.94061777 16.70246365
Cl 12.00954310 1.01686333 16.81048828
Cl 10.36305865 4.04667012 16.71991378
Cl 8.42261991 6.91459726 16.81738739
Cl 6.92490382 9.82982080 16.81488304
C -6.75313751 11.90141699 13.88246653
C -1.65111835 2.86935990 13.88950822
C 10.26333599 5.99502831 13.85020659
C 8.59936010 8.92681457 13.89487602
C -3.36884698 11.94008295 13.94711278
C 1.67401323 3.03569324 13.94840949
C 0.04711242 6.04069682 13.96764459
C -1.77817898 9.04130688 13.98658722
C 6.86347582 0.14390822 13.86604668
C 5.07880871 3.03462225 13.96453528
C 3.49039206 5.94876992 13.89761674
C 1.66878023 8.96146819 13.89375676
C 10.43061559 0.07062390 13.93255558
C 8.68189300 3.07381438 13.86475057
C 6.98723385 5.98492187 13.93550159
C 5.13820573 9.00331087 13.84638507
80
Time=249999.99999879 pbc="T T F" Lattice="13.79398668 0.00000000 0.00000000 -6.89699334 11.94594288 0.00000000 0.00000000 0.00000000 27.81022107" energy=-525.36650610 virial="8.97685806 2.49674396 -2.32105997 2.49674396 13.76301538 2.62441309 -2.32105997 2.62441309 2.76561887" stress="0.00256063 0.00054483 -0.00050649 0.00054483 0.00360504 0.00057269 -0.00050649 0.00057269 0.00120524" Properties=species:S:1:pos:R:3
Sc 0.01486044 1.99431504 15.18896291
Sc -1.69526104 4.83110969 15.03787413
Sc -3.42231896 7.94818865 15.28117926
Sc -5.18161684 10.99823569 15.21170442
Sc 3.47395951 2.07779395 15.13700232
Sc 1.54960241 5.11311797 15.15438733
Sc -0.01070917 7.98245515 15.27334431
Sc -1.63872913 10.86850319 15.21285715
Sc 6.99702335 1.91746968 15.10280057
Sc 5.13528531 4.99451552 15.04855543
Sc 3.38570649 7.98695144 14.97944592
Sc 1.81755394 10.87201447 15.09665987
Sc 10.39945766 2.03217025 15.12391346
Sc 8.56323872 5.11411287 15.24239731
Sc 6.83595528 8.04391132 15.10363641
Sc 5.27414114 11.06160989 15.25406930
Sc 1.71662235 1.03723431 12.76927394
Sc 0.08662605 4.01455888 12.51575609
Sc -1.66205524 6.98284532 12.65488441
Sc -3.44728940 9.98960380 12.75774450
Sc 5.17613393 0.99886863 12.64071964
Sc 3.47805169 4.02570885 12.73851910
Sc 1.71932132 6.92205734 12.63370057
Sc -0.17044780 10.06870257 12.69346542
Sc 8.71593184 0.91912672 12.63789177
Sc 7.05842218 4.06488660 12.60992605
Sc 5.12304684 7.02612785 12.58437322
Sc 3.40691706 9.95469859 12.69413389
Sc 12.05035003 0.80997170 12.63278823
Sc 10.40656838 4.04558069 12.77737395
Sc 8.52625125 7.05788868 12.75656309
Sc 7.03946034 9.94048267 12.67484107
Cl 0.16033109 2.08746150 11.04978524
Cl -1.76840186 5.11955842 10.92697614
Cl -3.44883161 7.99261737 11.14739957
Cl -5.12962401 10.96321526 10.88144299
Cl 3.35340253 1.79107614 11.03374875
Cl 1.62746645 5.01055499 11.00008857
Cl -0.06400793 8.09672358 10.95216503
Cl -1.64479659 10.92347514 10.99812285
Cl 6.98089493 2.10441048 10.99271255
Cl 5.11312869 4.86662651 11.08415271
Cl 3.17547085 7.94478477 10.85418023
Cl 1.68693045 10.86398967 10.99731812
Cl 10.38000568 1.83481374 10.84797924
Cl 8.66135681 4.88051137 10.82765069
Cl 6.85189583 8.07193489 10.94074316
Cl 5.10928699 10.76760117 11.10182831
Cl 1.75836738 0.86147975 16.81767568
Cl -0.14455665 3.87142165 16.77896200
Cl -1.61530456 6.95911842 16.86753920
Cl -3.38163835 9.92694905 16.86207233
Cl 5.39191802 1.10702190 16.80096048
Cl 3.23542686 4.00655324 16.90503360
Cl 1.60643202 7.00533944 16.93011711
Cl -0.06903801 9.82671056 16.84612485
Cl 8.77553640 0.89198725 16.83994230
Cl 6.81457383 4.02485672 16.69382175
Cl 5.22737256 6.95073672 16.62138699
Cl 3.48514629 9.97324204 16.68306885
Cl 12.01362833 0.94023077 16.92134940
Cl 10.27051430 3.94727418 16.85829047
Cl 8.52747686 7.03062639 16.79691679
Cl 6.90539630 9.92391488 16.83778077
C 6.90728007 11.91350992 13.84110624
C 12.07901925 2.89340488 13.81841409
C 10.35640351 5.91670079 14.02000602
C -5.10350840 8.95417153 13.86896133
C -3.53991931 11.93226990 13.99017909
C 1.61796733 2.95298281 13.89123010
C 0.05625801 5.97872301 13.72939625
C -1.64351063 8.97987345 14.00116726
C 6.85096864 0.04688959 13.99876331
C 5.18928994 2.96054116 13.90525083
C 3.35880909 5.90460482 13.88952899
C 1.74300808 9.01444342 13.83793127
C 3.50290305 11.87263599 13.89511948
C 8.61680752 2.90862039 13.97996534
C 6.95220378 5.95823319 13.68813173
C 5.23728831 8.90808505 13.94959525
80
Time=299999.99999840 pbc="T T F" Lattice="13.79398668 0.00000000 0.00000000 -6.89699334 11.94594288 0.00000000 0.00000000 0.00000000 27.81022107" energy=-526.15816975 virial="5.88156553 -0.43445683 3.95873032 -0.43445683 6.11030727 4.83385778 3.95873032 4.83385778 -9.01928949" stress="0.00188519 -0.00009481 0.00086386 -0.00009481 0.00193510 0.00105482 0.00086386 0.00105482 -0.00136641" Properties=species:S:1:pos:R:3
Sc -0.04002629 2.05113137 15.25332569
Sc -1.71856791 4.94908016 15.15698861
Sc -3.37682298 7.88480887 14.96363581
Sc -5.15802432 10.77821906 15.06748990
Sc 3.39452117 2.04032693 15.26918815
Sc 1.65317743 5.07937158 15.20069752
Sc 0.00583036 7.87687426 15.21954234
Sc -1.87796110 10.91101386 15.12444512
Sc 6.82944574 2.02966594 15.06611065
Sc 5.21172649 4.95580241 15.12768254
Sc 3.45300322 7.96724881 15.12230392
Sc 1.91219170 10.87788886 15.16955293
Sc 10.29158896 2.00808373 15.12386857
Sc 8.59259288 4.99347286 15.25974048
Sc 6.86948274 7.98029073 15.00981119
Sc 5.20345550 11.00551869 15.18923221
Sc 1.68392994 1.04577399 12.68242043
Sc 0.04718226 4.04059628 12.72690671
Sc -1.61892851 6.92361428 12.82146089
Sc -3.45914766 9.84726440 12.49258692
Sc 5.05714259 1.00637138 12.66790018
Sc 3.42499727 3.95646939 12.68797683
Sc 1.76532605 6.96800574 12.67328849
Sc 0.15994189 10.10992197 12.72082084
Sc 8.62084876 1.03956477 12.66707929
Sc 7.08258982 3.93280220 12.62316252
Sc 5.12996137 6.94857426 12.65194429
Sc 3.57007891 9.94149393 12.68278271
Sc 12.06600071 1.02207186 12.71208909
Sc 10.36910129 3.99176656 12.70550592
Sc 8.45457402 6.88858697 12.63164068
Sc 6.91706256 10.15268763 12.47431511
Cl 0.08505709 1.97659749 10.96906385
Cl -1.69675302 5.04692164 10.96965541
Cl -3.38749379 7.83803584 11.04602128
Cl -5.06219525 11.00591129 10.91283991
Cl 3.41905954 2.01525079 10.95072167
Cl 1.77427550 4.96083916 11.03028991
Cl -0.05870771 8.09457820 11.05801269
Cl -1.82558856 10.96321085 10.98797037
Cl 6.89762692 2.09776417 10.97768225
Cl 5.23635504 5.01195359 10.91729444
Cl 3.38801624 8.09444060 10.94441362
Cl 1.72095246 10.98651459 10.88368057
Cl 10.35128813 1.91133492 10.86756171
Cl 8.68803485 5.00473110 11.10829522
Cl 6.82972863 7.94089001 10.93354682
Cl 5.15999992 10.95170231 10.91597676
Cl 1.61688407 0.96660903 16.80651847
Cl 0.13065823 4.01256825 16.93351777
Cl -1.83798575 6.93733242 16.82829201
Cl -3.51512311 10.02427298 16.77841099
Cl 5.11916341 0.95240781 16.90532333
Cl 3.52781123 4.00689320 16.77363783
Cl 1.77939538 6.88022556 16.98669168
Cl 0.00375238 9.89530395 16.83322742
Cl 8.45299889 1.07686948 16.71571567
Cl 6.74950027 3.88702606 16.82007039
Cl 5.25722394 6.99079763 16.61669615
Cl 3.47581474 9.95721327 17.05487851
Cl 11.93870315 0.94000288 16.90854875
Cl 10.36660700 3.80723835 16.88803097
Cl 8.64720717 6.81398868 16.92305845
Cl 6.95001725 9.97826439 16.77820928
C 13.71159153 0.06321850 13.80546892
C 12.03136108 2.94958729 13.89155431
C 10.27193809 5.90101466 13.94846345
C 8.62960925 8.88033896 13.72485205
C 3.37184294 0.04728147 13.93663415
C 1.57377295 3.12862207 13.97015714
C 0.07079153 6.00111151 13.99094300
C -1.65263761 8.84681530 13.92228019
C 6.74253392 0.05004954 13.90828381
C 5.18016549 2.99013607 13.86005709
C 3.55612570 5.94192282 13.86058202
C 1.82067495 8.99538283 13.76983234
C 3.44484530 11.90268291 13.98928582
C 8.70961211 2.94504629 13.84179072
C 6.86894015 5.93533564 13.90843303
C 5.21506744 9.10072959 14.04265124
80
Time=349999.99999862 pbc="T T F" Lattice="13.79398668 0.00000000 0.00000000 -6.89699334 11.94594288 0.00000000 0.00000000 0.00000000 27.81022107" energy=-526.15824127 virial="11.58440516 3.09232825 -2.27113196 3.09232825 9.54427210 5.65816818 -2.27113196 5.65816818 2.58236727" stress="0.00312963 0.00067479 -0.00049560 0.00067479 0.00268445 0.00123470 -0.00049560 0.00123470 0.00116525" Properties=species:S:1:pos:R:3
Sc -0.12095455 1.82136167 15.33082113
Sc -1.66762218 4.95154001 15.12553527
Sc -3.58328847 7.96098587 15.17972260
Sc -5.29061112 10.87225595 15.19736966
Sc 3.55662165 2.01301776 15.06266654
Sc 1.79314075 4.99541192 15.15767238
Sc -0.14165720 7.83381754 15.12866422
Sc -1.71484517 10.96890694 15.05338451
Sc 6.83310714 2.01304371 15.06405673
Sc 5.16188604 5.02762931 15.15253828
Sc 3.40687916 7.91527415 15.19079251
Sc 1.68156025 10.90119453 15.25290182
Sc 10.37266267 1.96166760 15.16464988
Sc 8.77013659 4.97461967 15.15411414
Sc 6.64002556 7.93716180 15.11011821
Sc 5.10522016 10.90313184 15.05584339
Sc 1.93018071 1.03182689 12.79082277
Sc 0.07848132 3.92284043 12.64096605
Sc -1.76374757 7.01040543 12.65171815
Sc -3.53341466 9.85831595 12.66955051
Sc 5.24658143 0.98756639 12.59865724
Sc 3.52312954 4.07174891 12.70195640
Sc 1.71903910 6.96831208 12.73998918
Sc -0.03907522 9.86972059 12.81225696
Sc 8.72478885 0.98248379 12.59642622
Sc 6.97876011 3.93460452 12.67831360
Sc 5.06009829 7.04858279 12.65528203
Sc 3.38556354 9.95261227 12.67703018
Sc 12.24016814 1.18322816 12.60450362
Sc 10.38935884 4.02760234 12.63262693
Sc 8.49310887 6.95569306 12.58816407
Sc 6.68393421 10.01415730 12.63176728
Cl 0.18978818 2.05189670 11.02050445
Cl -1.60468406 4.83635014 11.09417218
Cl -3.64204779 8.02744285 10.86943047
Cl -5.26301743 10.95623243 11.16745749
Cl 3.72154339 2.21149826 10.95891117
Cl 1.81151778 5.02365898 11.02479940
Cl -0.04392096 7.90371215 11.08888463
Cl -1.76841429 10.90650006 11.03065722
Cl 7.00146813 2.04417236 10.87830922
Cl 5.17148179 5.13801271 11.00802106
Cl 3.36077360 8.07578872 10.85067570
Cl 1.60553441 10.89462091 11.04606451
Cl 10.43599015 2.14564394 10.95233397
Cl 8.48628812 4.94861643 10.95632725
Cl 6.81660966 8.10296126 10.92623730
Cl 4.96066062 10.98888608 10.91975896
Cl 1.69832334 0.92622021 16.79061269
Cl 0.11463830 4.03412080 16.83839356
Cl -1.67247797 6.95174700 16.81996916
Cl -3.44428173 10.04540005 16.86284807
Cl 5.32598245 0.84227359 16.69053484
Cl 3.49885503 3.88530851 16.74709702
Cl 1.60439773 7.05890641 16.83343426
Cl 0.03344408 9.94528085 16.73400194
Cl 8.53235646 0.92753005 16.78781586
Cl 7.17035583 4.02805234 16.90767365
Cl 5.09610379 6.90315094 16.85970143
Cl 3.49567935 9.80103483 16.72223186
Cl 12.08029204 0.88572659 16.96357827
Cl 10.42433191 4.03656592 16.92610786
Cl 8.73870713 6.95835487 16.85083160
Cl 6.83898716 9.93906597 16.74776165
C 6.84258795 11.89506808 13.99118857
C 12.07291813 2.90248452 13.89565771
C -3.35244298 5.90634984 13.92212163
C 8.64729104 8.89105771 13.92120886
C 3.46519747 0.06225372 13.79625526
C 1.80028297 3.02134156 13.88342930
C 0.06721311 5.99871020 13.95018886
C -1.74866017 8.99353208 13.85641483
C 6.82877182 0.02302214 13.82378372
C 5.30252857 3.11216700 13.93897782
C 3.56510168 6.02902588 13.96682203
C 1.71687128 8.88578657 13.97031486
C 10.32509494 0.07520587 13.90256530
C 8.69759623 3.01467909 13.87132633
C 6.98551121 5.99849745 13.90827400
C 5.02094718 8.94702738 13.81721961
80
Time=400000.00000008 pbc="T T F" Lattice="13.79398668 0.00000000 0.00000000 -6.89699334 11.94594288 0.00000000 0.00000000 0.00000000 27.81022107" energy=-526.39202213 virial="5.95784329 -1.31339032 4.16084966 -1.31339032 3.87073355 1.88788076 4.16084966 1.88788076 -12.25167961" stress="0.00190183 -0.00028660 0.00090796 -0.00028660 0.00144639 0.00041196 0.00090796 0.00041196 -0.00207176" Properties=species:S:1:pos:R:3
Sc -0.07347169 1.85014177 15.10515812
Sc -1.68818918 4.93231539 15.12817825
Sc -3.40539489 7.80403378 15.24052774
Sc -5.28241559 10.83805380 15.23129358
Sc 3.47387059 1.95923840 15.13053136
Sc 1.86570636 5.03023385 15.21911224
Sc 0.01273247 8.00535718 15.19323593
Sc -1.83473388 10.91452130 15.06508578
Sc 6.86133933 1.91944522 15.16124921
Sc 5.20272409 4.96608727 15.13391725
Sc 3.54058311 7.96146632 15.21590276
Sc 1.58528013 11.00071923 15.16023792
Sc 10.33890758 2.04140593 15.19725304
Sc 8.55338202 5.04730305 15.01124579
Sc 6.97842401 8.01102656 15.06929717
Sc 5.11327219 10.89665310 15.15859437
Sc 1.64919423 0.98307218 12.61220697
Sc 0.10445636 4.13772596 12.75904887
Sc -1.75629617 7.15330749 12.68637803
Sc -3.58793593 9.97455387 12.69767710
Sc 5.23135034 0.86977762 12.62341658
Sc 3.52660399 3.93316996 12.78255144
Sc 1.86966477 7.11407279 12.62160614
Sc -0.04406934 9.94453029 12.62518451
Sc 8.60900864 1.05415082 12.69735869
Sc 6.97221256 3.92128308 12.59457095
Sc 5.15993088 6.73915609 12.62032294
Sc 3.42254247 10.01244527 12.70012539
Sc 12.01845229 1.05418730 12.62010169
Sc 10.38782782 4.05572093 12.67030903
Sc 8.53949218 6.99191856 12.52344649
Sc 6.81835761 9.87855429 12.66218795
Cl 0.05568411 1.98529493 11.12518758
Cl -1.60641911 5.14318346 10.99312940
Cl -3.48839271 8.01936815 11.03595628
Cl -5.20129561 10.87948861 11.03932803
Cl 3.52479677 2.01589097 10.98041545
Cl 1.87077902 5.10447966 11.11050396
Cl -0.03524485 7.97302433 11.01046790
Cl -1.57004210 10.89550679 10.83437750
Cl 6.91903200 1.85893419 10.97462018
Cl 5.18807574 4.86835812 10.87562712
Cl 3.48321256 8.28220138 10.80401706
Cl 1.70177649 10.86853152 11.00130599
Cl 10.37603798 1.93356928 11.04945923
Cl 8.67002642 4.95999041 10.85081731
Cl 6.86687189 7.88692576 10.93325904
Cl 5.16729687 11.10399969 10.78592057
Cl 1.62637517 0.95500046 16.84063802
Cl 0.03950503 4.05799024 16.70702666
Cl -1.75162037 6.86001582 16.99373104
Cl -3.49559820 9.87213136 16.97540389
Cl 5.18575681 0.88112413 16.90548217
Cl 3.56850146 3.88484036 16.83071363
Cl 1.79826634 6.99087698 16.84427837
Cl -0.00599811 9.98760337 16.82556799
Cl 8.70436272 1.00390604 16.84700825
Cl 6.97263134 3.90966284 16.85098275
Cl 5.21952501 7.00765192 16.82262185
Cl 3.39576430 9.97062416 16.85462740
Cl 12.10200364 1.04752515 16.76718477
Cl 10.33888530 4.18017267 16.72952951
Cl 8.57930221 7.04482535 16.87654325
Cl 6.62198868 9.83721673 16.91862154
C 13.76539317 0.04655672 13.90136961
C 11.91772903 3.03587759 13.88779708
C 10.22955098 5.96366421 13.83888124
C 8.58736370 9.00160625 13.98299914
C -3.43881904 11.86733308 13.88302023
C 1.65490653 2.99432112 13.94664030
C 0.11306125 5.97241401 13.91719515
C -1.71660568 8.92584213 13.95855348
C -0.02089794 11.91331442 14.00465727
C 5.19477403 2.98453728 14.00915722
C 3.47542241 5.99137907 13.82872439
C 1.64291774 8.95354787 13.94680635
C 10.30477884 0.07366447 13.92963469
C 8.42861236 2.95682052 13.83344894
C 6.81308486 6.03628437 13.83229596
C 5.13330947 8.97441288 13.86264464
80
Time=450000.00000155 pbc="T T F" Lattice="13.79398668 0.00000000 0.00000000 -6.89699334 11.94594288 0.00000000 0.00000000 0.00000000 27.81022107" energy=-526.15919018 virial="7.05397903 0.23245934 3.03102313 0.23245934 9.52263602 8.66279144 3.03102313 8.66279144 2.75049196" stress="0.00214103 0.00005073 0.00066142 0.00005073 0.00267973 0.00189035 0.00066142 0.00189035 0.00120194" Properties=species:S:1:pos:R:3
Sc 0.02995619 1.89161458 15.14291847
Sc -1.80415403 4.80827710 15.22170950
Sc -3.43171327 7.86258389 15.16836990
Sc -5.13696306 10.93430333 15.04248241
Sc 3.39774336 2.01777558 15.23963471
Sc 1.75339761 5.06536325 15.13960239
Sc -0.02638460 7.83093169 15.05923739
Sc -1.68499936 10.96605070 15.12440124
Sc 6.91233056 2.01698286 15.09361144
Sc 5.26886418 5.06673528 15.05859761
Sc 3.43967042 7.87635746 15.00418198
Sc 1.73616457 10.91757493 15.32792105
Sc 10.26171644 1.96322921 15.16224564
Sc 8.59745285 5.03705449 15.16652177
Sc 6.90883774 8.11129547 15.03556890
Sc 5.20572372 10.95169052 15.21980732
Sc 1.68815054 1.00294812 12.67595797
Sc 0.10801079 3.88301795 12.77740337
Sc -1.75091069 6.85174252 12.71478688
Sc -3.35491538 9.90382288 12.68256448
Sc 5.21976362 1.06697062 12.68944378
Sc 3.40289466 3.92702403 12.62052024
Sc 1.72792410 7.03213748 12.57190682
Sc 0.01317398 9.95306246 12.72715913
Sc 8.64238046 0.97314016 12.67654394
Sc 6.95724791 4.08732804 12.62814096
Sc 5.15747915 6.96187245 12.64266254
Sc 3.46444496 9.95380130 12.75822675
Sc 12.08048411 1.08832055 12.60815932
Sc 10.32511616 3.88675990 12.76213646
Sc 8.69497214 7.11164229 12.67736253
Sc 6.99166233 9.99164117 12.60695562
Cl -0.01323342 2.10104500 11.06352730
Cl -1.85319743 5.06633207 11.08121337
Cl -3.32103629 8.00021519 11.04164329
Cl -5.25321807 11.08313235 10.85033612
Cl 3.33288673 1.95223914 10.89763076
Cl 1.79639563 4.90678347 10.85919754
Cl -0.18078312 8.00541080 10.95947421
Cl -1.60521226 11.08486564 11.10922761
Cl 6.81854660 1.88222554 10.93715524
Cl 5.24619191 4.92540038 10.99183000
Cl 3.51337941 7.97415162 10.93690130
Cl 1.65841844 10.83854759 11.06516387
Cl 10.44161548 2.15673822 10.91078227
Cl 8.73768529 5.15525004 11.12678838
Cl 6.71525926 8.17988487 10.93240707
Cl 5.17008740 11.11485846 10.95114932
Cl 1.70215768 1.13915086 16.91299286
Cl -0.10302237 3.96873778 16.72006182
Cl -1.86681662 6.92566323 16.77850602
Cl -3.67336351 10.03910935 16.82277383
Cl 5.24917437 0.98629472 16.87806159
Cl 3.55462560 4.00820559 16.69985071
Cl 1.96106590 7.04203541 16.83295626
Cl -0.24295172 9.66623763 16.85227790
Cl 8.52057765 0.84605449 16.86227083
Cl 7.02541134 3.96645418 16.84831905
Cl 5.22796127 6.83661622 16.63564378
Cl 3.38518092 9.83797713 16.83086649
Cl 12.02771693 0.91294601 16.90506904
Cl 10.29559607 3.87990290 16.87417465