<?xml version="1.0" encoding="ISO-8859-1"?>
<modeling>
 <generator>
  <i name="program" type="string">vasp </i>
  <i name="version" type="string">5.4.4.18Apr17-6-g9f103f2a35  </i>
  <i name="subversion" type="string">(build Oct 31 2019 15:01:46) complex            parallel </i>
  <i name="platform" type="string">LinuxIFC </i>
  <i name="date" type="string">2024 04 19 </i>
  <i name="time" type="string">03:28:36 </i>
 </generator>
 <incar>
  <i type="int" name="ISTART">     0</i>
  <i type="string" name="PREC">anormal</i>
  <i type="logical" name="ADDGRID"> T  </i>
  <i type="int" name="IBRION">    -1</i>
  <i name="EDIFF">      0.00000100</i>
  <i name="EDIFFG">     -0.01000000</i>
  <i type="int" name="NSW">     1</i>
  <i type="int" name="ISIF">     2</i>
  <i type="int" name="ISYM">     2</i>
  <i name="ENCUT">    600.00000000</i>
  <i name="POTIM">      1.00000000</i>
  <i type="string" name="LREAL"> Auto.</i>
  <i type="int" name="ISMEAR">     0</i>
  <i name="SIGMA">      0.05000000</i>
  <i name="KSPACING">      0.25000000</i>
  <i type="logical" name="LWAVE"> F  </i>
  <i type="logical" name="LCHARG"> F  </i>
  <i type="logical" name="LSCALAPACK"> F  </i>
  <v type="int" name="KPOINT_BSE">    -1     0     0     0</v>
 </incar>
 <structure name="primitive_cell" >
  <crystal>
   <varray name="basis" >
    <v>      13.12862340       0.00000000       0.00000000 </v>
    <v>      -6.56431170      11.36972138       0.00000000 </v>
    <v>       0.00000000       0.00000000      26.82809424 </v>
   </varray>
   <i name="volume">   4004.59716953 </i>
   <varray name="rec_basis" >
    <v>       0.07616945       0.04397645       0.00000000 </v>
    <v>       0.00000000       0.08795290       0.00000000 </v>
    <v>       0.00000000       0.00000000       0.03727436 </v>
   </varray>
  </crystal>
  <varray name="positions" >
   <v>       0.07908965       0.16815967       0.45594228 </v>
   <v>      -0.08151749       0.08286179       0.41548341 </v>
   <v>       0.00210997       0.25228173      -0.49687187 </v>
   <v>       0.24748814       0.24975699       0.49963431 </v>
   <v>       0.16895102       0.34019992       0.41161080 </v>
   <v>       0.00080866       0.00094520      -0.49616301 </v>
   <v>       0.15359340       0.06593002       0.41138784 </v>
   <v>       0.17139054       0.33000595      -0.45195808 </v>
   <v>      -0.07648285       0.09053621      -0.44904320 </v>
   <v>       0.15873542       0.07820419      -0.45150723 </v>
   <v>       0.08104754       0.41359120       0.45199533 </v>
   <v>      -0.16479361       0.17485349       0.45299014 </v>
   <v>       0.07048144      -0.08499828       0.45510611 </v>
   <v>       0.33011298       0.41826948       0.45564730 </v>
   <v>      -0.17088903      -0.08350916       0.45632783 </v>
   <v>       0.32883659       0.15988747       0.44850347 </v>
   <v>       0.07844572       0.15429714      -0.40675656 </v>
   <v>      -0.08017490       0.33118322       0.40857617 </v>
   <v>       0.23950486       0.49438510      -0.49775880 </v>
   <v>      -0.25512972      -0.00541641      -0.49846769 </v>
   <v>       0.41259770       0.33104258       0.40815187 </v>
   <v>       0.24068446      -0.00999007      -0.49965051 </v>
   <v>      -0.08257818      -0.17704017       0.40854328 </v>
   <v>      -0.08129955       0.34095795      -0.45065824 </v>
   <v>      -0.08959939      -0.17217112      -0.45287551 </v>
   <v>       0.41677429       0.32753827      -0.45038376 </v>
   <v>       0.08878874       0.42164586      -0.41092185 </v>
   <v>       0.32446454       0.15778430      -0.41177473 </v>
   <v>      -0.16486517      -0.07862566      -0.40817623 </v>
   <v>      -0.15969581       0.18108102      -0.40724515 </v>
   <v>      -0.31787318       0.08687909       0.41053572 </v>
   <v>       0.08534521      -0.08284266      -0.40892997 </v>
   <v>      -0.32077935      -0.15818003       0.40854600 </v>
   <v>       0.41266363      -0.42330449       0.41283987 </v>
   <v>       0.49436871       0.49410501      -0.49846349 </v>
   <v>      -0.24968411       0.25713165       0.49639084 </v>
   <v>       0.00668199      -0.49141274       0.49813868 </v>
   <v>      -0.25111821      -0.25169101       0.49945776 </v>
   <v>       0.49318713       0.24134923       0.49992658 </v>
   <v>       0.34883933       0.42774724      -0.40171212 </v>
   <v>      -0.01099309      -0.25554771       0.49676034 </v>
   <v>       0.17387639      -0.16131451       0.40640540 </v>
   <v>       0.42058418       0.08912359       0.40879714 </v>
   <v>       0.18011078      -0.40356926       0.40836426 </v>
   <v>      -0.32752897      -0.16435778      -0.45485354 </v>
   <v>      -0.33102632       0.08699217      -0.45504113 </v>
   <v>       0.40141503       0.07273354      -0.45395113 </v>
   <v>      -0.40898655      -0.07539276       0.45062456 </v>
   <v>       0.17450102      -0.41125269      -0.45486168 </v>
   <v>      -0.42946613       0.40897764       0.45467779 </v>
   <v>       0.42340254      -0.40904064      -0.45061908 </v>
   <v>      -0.17044268       0.42095974       0.45141051 </v>
   <v>       0.16096094      -0.17689102      -0.45078570 </v>
   <v>       0.34022855      -0.32588555       0.45299305 </v>
   <v>      -0.17500087      -0.33774901       0.44995795 </v>
   <v>       0.33490495      -0.08734999       0.45035527 </v>
   <v>       0.08089485      -0.34175579       0.44811186 </v>
   <v>      -0.41519443       0.16919890       0.44982712 </v>
   <v>      -0.41508053      -0.33740080       0.45182867 </v>
   <v>      -0.40448711      -0.07262602      -0.40925479 </v>
   <v>      -0.16104335       0.42023054      -0.40991487 </v>
   <v>       0.31786135      -0.08622097      -0.40903117 </v>
   <v>      -0.17425577      -0.33520146      -0.41040049 </v>
   <v>      -0.08345899      -0.42340393       0.40585694 </v>
   <v>      -0.49798130      -0.25951312       0.49689441 </v>
   <v>       0.35985212      -0.32369244      -0.40806698 </v>
   <v>      -0.34569881       0.33260003       0.41037910 </v>
   <v>      -0.49804339       0.00307946       0.49827491 </v>
   <v>       0.25243267      -0.24760476      -0.49846520 </v>
   <v>      -0.40700480       0.42838306      -0.40451727 </v>
   <v>      -0.33767908      -0.41737854       0.40851673 </v>
   <v>      -0.33478761       0.33331198      -0.45610273 </v>
   <v>      -0.33583138      -0.42032076      -0.45586125 </v>
   <v>      -0.08151454      -0.41033282      -0.45080116 </v>
   <v>      -0.40693863      -0.32570737      -0.40906373 </v>
   <v>       0.09104661      -0.33247900      -0.41146637 </v>
   <v>      -0.42273855       0.16015135      -0.41141277 </v>
   <v>       0.42576451      -0.16603731       0.40874558 </v>
   <v>      -0.25271341       0.49639203      -0.49938595 </v>
   <v>       0.42652888      -0.16567739      -0.45302000 </v>
  </varray>
 </structure>
 <varray name="primitive_index" >
  <v type="int" >        1 </v>
  <v type="int" >       61 </v>
  <v type="int" >       66 </v>
  <v type="int" >       70 </v>
  <v type="int" >       50 </v>
  <v type="int" >       65 </v>
  <v type="int" >       49 </v>
  <v type="int" >       18 </v>
  <v type="int" >       29 </v>
  <v type="int" >       17 </v>
  <v type="int" >        2 </v>
  <v type="int" >       13 </v>
  <v type="int" >        4 </v>
  <v type="int" >        6 </v>
  <v type="int" >       16 </v>
  <v type="int" >        5 </v>
  <v type="int" >       33 </v>
  <v type="int" >       62 </v>
  <v type="int" >       71 </v>
  <v type="int" >       77 </v>
  <v type="int" >       54 </v>
  <v type="int" >       69 </v>
  <v type="int" >       64 </v>
  <v type="int" >       30 </v>
  <v type="int" >       32 </v>
  <v type="int" >       22 </v>
  <v type="int" >       34 </v>
  <v type="int" >       37 </v>
  <v type="int" >       48 </v>
  <v type="int" >       45 </v>
  <v type="int" >       57 </v>
  <v type="int" >       36 </v>
  <v type="int" >       60 </v>
  <v type="int" >       55 </v>
  <v type="int" >       75 </v>
  <v type="int" >       78 </v>
  <v type="int" >       67 </v>
  <v type="int" >       80 </v>
  <v type="int" >       74 </v>
  <v type="int" >       38 </v>
  <v type="int" >       68 </v>
  <v type="int" >       52 </v>
  <v type="int" >       53 </v>
  <v type="int" >       51 </v>
  <v type="int" >       28 </v>
  <v type="int" >       25 </v>
  <v type="int" >       21 </v>
  <v type="int" >       12 </v>
  <v type="int" >       19 </v>
  <v type="int" >       10 </v>
  <v type="int" >       23 </v>
  <v type="int" >       14 </v>
  <v type="int" >       20 </v>
  <v type="int" >        7 </v>
  <v type="int" >       15 </v>
  <v type="int" >        8 </v>
  <v type="int" >        3 </v>
  <v type="int" >        9 </v>
  <v type="int" >       11 </v>
  <v type="int" >       44 </v>
  <v type="int" >       46 </v>
  <v type="int" >       40 </v>
  <v type="int" >       47 </v>
  <v type="int" >       63 </v>
  <v type="int" >       76 </v>
  <v type="int" >       39 </v>
  <v type="int" >       58 </v>
  <v type="int" >       73 </v>
  <v type="int" >       72 </v>
  <v type="int" >       42 </v>
  <v type="int" >       59 </v>
  <v type="int" >       26 </v>
  <v type="int" >       27 </v>
  <v type="int" >       31 </v>
  <v type="int" >       43 </v>
  <v type="int" >       35 </v>
  <v type="int" >       41 </v>
  <v type="int" >       56 </v>
  <v type="int" >       79 </v>
  <v type="int" >       24 </v>
 </varray>
 <kpoints>
  <generation param="Gamma">
   <v type="int" name="divisions">       3        3        1 </v>
   <v name="usershift">      0.00000000       0.00000000       0.00000000 </v>
   <v name="genvec1">      0.33333333       0.00000000       0.00000000 </v>
   <v name="genvec2">      0.00000000       0.33333333       0.00000000 </v>
   <v name="genvec3">      0.00000000       0.00000000       1.00000000 </v>
   <v name="shift">      0.00000000       0.00000000       0.00000000 </v>
  </generation>
  <varray name="kpointlist" >
   <v>       0.00000000       0.00000000       0.00000000 </v>
   <v>       0.33333333      -0.00000000       0.00000000 </v>
   <v>       0.00000000       0.33333333       0.00000000 </v>
   <v>       0.33333333       0.33333333       0.00000000 </v>
   <v>      -0.33333333       0.33333333       0.00000000 </v>
  </varray>
  <varray name="weights" >
   <v>       0.11111111 </v>
   <v>       0.22222222 </v>
   <v>       0.22222222 </v>
   <v>       0.22222222 </v>
   <v>       0.22222222 </v>
  </varray>
 </kpoints>
 <parameters>
  <separator name="general" >
   <i type="string" name="SYSTEM">unknown system</i>
   <i type="logical" name="LCOMPAT"> F  </i>
  </separator>
  <separator name="electronic" >
   <i type="string" name="PREC">anorma</i>
   <i name="ENMAX">    600.00000000</i>
   <i name="ENAUG">    644.87300000</i>
   <i name="EDIFF">      0.00000100</i>
   <i type="int" name="IALGO">    38</i>
   <i type="int" name="IWAVPR">    10</i>
   <i type="int" name="NBANDS">   384</i>
   <i name="NELECT">    640.00000000</i>
   <i type="int" name="TURBO">     0</i>
   <i type="int" name="IRESTART">     0</i>
   <i type="int" name="NREBOOT">     0</i>
   <i type="int" name="NMIN">     0</i>
   <i name="EREF">      0.00000000</i>
   <separator name="electronic smearing" >
    <i type="int" name="ISMEAR">     0</i>
    <i name="SIGMA">      0.05000000</i>
    <i name="KSPACING">      0.25000000</i>
    <i type="logical" name="KGAMMA"> T  </i>
   </separator>
   <separator name="electronic projectors" >
    <i type="logical" name="LREAL"> T  </i>
    <v name="ROPT">     -0.00025000     -0.00025000     -0.00025000</v>
    <i type="int" name="LMAXPAW">  -100</i>
    <i type="int" name="LMAXMIX">     2</i>
    <i type="logical" name="NLSPLINE"> F  </i>
   </separator>
   <separator name="electronic startup" >
    <i type="int" name="ISTART">     0</i>
    <i type="int" name="ICHARG">     2</i>
    <i type="int" name="INIWAV">     1</i>
   </separator>
   <separator name="electronic spin" >
    <i type="int" name="ISPIN">     1</i>
    <i type="logical" name="LNONCOLLINEAR"> F  </i>
    <v name="MAGMOM">      1.00000000      1.00000000      1.00000000      1.00000000      1.00000000      1.00000000      1.00000000      1.00000000      1.00000000      1.00000000      1.00000000      1.00000000      1.00000000      1.00000000      1.00000000      1.00000000      1.00000000      1.00000000      1.00000000      1.00000000
      1.00000000      1.00000000      1.00000000      1.00000000      1.00000000      1.00000000      1.00000000      1.00000000      1.00000000      1.00000000      1.00000000      1.00000000      1.00000000      1.00000000      1.00000000      1.00000000      1.00000000      1.00000000      1.00000000      1.00000000
      1.00000000      1.00000000      1.00000000      1.00000000      1.00000000      1.00000000      1.00000000      1.00000000      1.00000000      1.00000000      1.00000000      1.00000000      1.00000000      1.00000000      1.00000000      1.00000000      1.00000000      1.00000000      1.00000000      1.00000000
      1.00000000      1.00000000      1.00000000      1.00000000      1.00000000      1.00000000      1.00000000      1.00000000      1.00000000      1.00000000      1.00000000      1.00000000      1.00000000      1.00000000      1.00000000      1.00000000      1.00000000      1.00000000      1.00000000      1.00000000
</v>
    <i name="NUPDOWN">     -1.00000000</i>
    <i type="logical" name="LSORBIT"> F  </i>
    <v name="SAXIS">      0.00000000      0.00000000      1.00000000</v>
    <i type="logical" name="LSPIRAL"> F  </i>
    <v name="QSPIRAL">      0.00000000      0.00000000      0.00000000</v>
    <i type="logical" name="LZEROZ"> F  </i>
   </separator>
   <separator name="electronic exchange-correlation" >
    <i type="logical" name="LASPH"> F  </i>
    <i type="logical" name="LMETAGGA"> F  </i>
   </separator>
   <separator name="electronic convergence" >
    <i type="int" name="NELM">    60</i>
    <i type="int" name="NELMDL">    -5</i>
    <i type="int" name="NELMIN">     2</i>
    <i name="ENINI">    600.00000000</i>
    <separator name="electronic convergence detail" >
     <i type="logical" name="LDIAG"> T  </i>
     <i type="logical" name="LSUBROT"> F  </i>
     <i name="WEIMIN">      0.00000000</i>
     <i name="EBREAK">      0.00000000</i>
     <i name="DEPER">      0.30000000</i>
     <i type="int" name="NRMM">     4</i>
     <i name="TIME">      0.40000000</i>
    </separator>
   </separator>
   <separator name="electronic mixer" >
    <i name="AMIX">      0.40000000</i>
    <i name="BMIX">      1.00000000</i>
    <i name="AMIN">      0.10000000</i>
    <i name="AMIX_MAG">      1.60000000</i>
    <i name="BMIX_MAG">      1.00000000</i>
    <separator name="electronic mixer details" >
     <i type="int" name="IMIX">     4</i>
     <i type="logical" name="MIXFIRST"> F  </i>
     <i type="int" name="MAXMIX">   -45</i>
     <i name="WC">    100.00000000</i>
     <i type="int" name="INIMIX">     1</i>
     <i type="int" name="MIXPRE">     1</i>
     <i type="int" name="MREMOVE">     5</i>
    </separator>
   </separator>
   <separator name="electronic dipolcorrection" >
    <i type="logical" name="LDIPOL"> F  </i>
    <i type="logical" name="LMONO"> F  </i>
    <i type="int" name="IDIPOL">     0</i>
    <i name="EPSILON">      1.00000000</i>
    <v name="DIPOL">   -100.00000000   -100.00000000   -100.00000000</v>
    <i name="EFIELD">      0.00000000</i>
   </separator>
  </separator>
  <separator name="grids" >
   <i type="int" name="NGX">   108</i>
   <i type="int" name="NGY">   108</i>
   <i type="int" name="NGZ">   216</i>
   <i type="int" name="NGXF">   216</i>
   <i type="int" name="NGYF">   216</i>
   <i type="int" name="NGZF">   432</i>
   <i type="logical" name="ADDGRID"> T  </i>
  </separator>
  <separator name="ionic" >
   <i type="int" name="NSW">     1</i>
   <i type="int" name="IBRION">    -1</i>
   <i type="int" name="MDALGO">     0</i>
   <i type="int" name="ISIF">     2</i>
   <i name="PSTRESS">      0.00000000</i>
   <i name="EDIFFG">     -0.01000000</i>
   <i type="int" name="NFREE">     0</i>
   <i name="POTIM">      1.00000000</i>
   <i name="SMASS">     -3.00000000</i>
   <i name="SCALEE">      1.00000000</i>
  </separator>
  <separator name="ionic md" >
   <i name="TEBEG">      0.00010000</i>
   <i name="TEEND">      0.00010000</i>
   <i type="int" name="NBLOCK">     1</i>
   <i type="int" name="KBLOCK">     1</i>
   <i type="int" name="NPACO">   256</i>
   <i name="APACO">     16.00000000</i>
  </separator>
  <separator name="symmetry" >
   <i type="int" name="ISYM">     2</i>
   <i name="SYMPREC">      0.00001000</i>
  </separator>
  <separator name="dos" >
   <i type="int" name="LORBIT">     0</i>
   <v name="RWIGS">     -1.00000000     -1.00000000     -1.00000000</v>
   <i type="int" name="NEDOS">   301</i>
   <i name="EMIN">     10.00000000</i>
   <i name="EMAX">    -10.00000000</i>
   <i name="EFERMI">      0.00000000</i>
  </separator>
  <separator name="writing" >
   <i type="int" name="NWRITE">     2</i>
   <i type="logical" name="LWAVE"> F  </i>
   <i type="logical" name="LDOWNSAMPLE"> F  </i>
   <i type="logical" name="LCHARG"> F  </i>
   <i type="logical" name="LPARD"> F  </i>
   <i type="logical" name="LVTOT"> F  </i>
   <i type="logical" name="LVHAR"> F  </i>
   <i type="logical" name="LELF"> F  </i>
   <i type="logical" name="LOPTICS"> F  </i>
   <v name="STM">      0.00000000      0.00000000      0.00000000      0.00000000      0.00000000      0.00000000      0.00000000</v>
  </separator>
  <separator name="performance" >
   <i type="int" name="NPAR">     4</i>
   <i type="int" name="NSIM">     4</i>
   <i type="int" name="NBLK">    -1</i>
   <i type="logical" name="LPLANE"> T  </i>
   <i type="logical" name="LSCALAPACK"> F  </i>
   <i type="logical" name="LSCAAWARE"> F  </i>
   <i type="logical" name="LSCALU"> F  </i>
   <i type="logical" name="LASYNC"> F  </i>
   <i type="logical" name="LORBITALREAL"> F  </i>
  </separator>
  <separator name="miscellaneous" >
   <i type="int" name="IDIOT">     3</i>
   <i type="int" name="ISPECIAL">     0</i>
   <i type="logical" name="LMUSIC"> F  </i>
   <v name="POMASS">     44.95600000     18.99800000     12.01100000</v>
   <v name="DARWINR">      0.00000000      0.00000000      0.00000000</v>
   <v name="DARWINV">      1.00000000      1.00000000      1.00000000</v>
   <i type="logical" name="LCORR"> T  </i>
  </separator>
  <i type="logical" name="GGA_COMPAT"> T  </i>
  <i type="logical" name="LBERRY"> F  </i>
  <i type="int" name="ICORELEVEL">     0</i>
  <i type="logical" name="LDAU"> F  </i>
  <i type="int" name="I_CONSTRAINED_M">     0</i>
  <separator name="electronic exchange-correlation" >
   <i type="string" name="GGA">--</i>
   <i type="int" name="VOSKOWN">     0</i>
   <i type="logical" name="LHFCALC"> F  </i>
   <i type="string" name="PRECFOCK"></i>
   <i type="logical" name="LSYMGRAD"> F  </i>
   <i type="logical" name="LHFONE"> F  </i>
   <i type="logical" name="LRHFCALC"> F  </i>
   <i type="logical" name="LTHOMAS"> F  </i>
   <i type="logical" name="LMODELHF"> F  </i>
   <i name="ENCUT4O">     -1.00000000</i>
   <i type="int" name="EXXOEP">     0</i>
   <i type="int" name="FOURORBIT">     0</i>
   <i name="AEXX">      0.00000000</i>
   <i name="HFALPHA">      0.00000000</i>
   <i name="MCALPHA">      0.00000000</i>
   <i name="ALDAX">      1.00000000</i>
   <i name="AGGAX">      1.00000000</i>
   <i name="ALDAC">      1.00000000</i>
   <i name="AGGAC">      1.00000000</i>
   <i type="int" name="NKREDX">     1</i>
   <i type="int" name="NKREDY">     1</i>
   <i type="int" name="NKREDZ">     1</i>
   <i type="logical" name="SHIFTRED"> F  </i>
   <i type="logical" name="ODDONLY"> F  </i>
   <i type="logical" name="EVENONLY"> F  </i>
   <i type="int" name="LMAXFOCK">     0</i>
   <i type="int" name="NMAXFOCKAE">     0</i>
   <i type="logical" name="LFOCKAEDFT"> F  </i>
   <i name="HFSCREEN">      0.00000000</i>
   <i name="HFSCREENC">      0.00000000</i>
   <i type="int" name="NBANDSGWLOW">     0</i>
  </separator>
  <separator name="vdW DFT" >
   <i type="logical" name="LUSE_VDW"> F  </i>
   <i name="Zab_VDW">     -0.84910000</i>
   <i name="PARAM1">      0.12340000</i>
   <i name="PARAM2">      1.00000000</i>
   <i name="PARAM3">      0.00000000</i>
  </separator>
  <separator name="model GW" >
   <i type="int" name="MODEL_GW">     0</i>
   <i name="MODEL_EPS0">     30.03447877</i>
   <i name="MODEL_ALPHA">      1.00000000</i>
  </separator>
  <separator name="linear response parameters" >
   <i type="logical" name="LEPSILON"> F  </i>
   <i type="logical" name="LRPA"> F  </i>
   <i type="logical" name="LNABLA"> F  </i>
   <i type="logical" name="LVEL"> F  </i>
   <i type="int" name="KINTER">     0</i>
   <i name="CSHIFT">      0.10000000</i>
   <i name="OMEGAMAX">     -1.00000000</i>
   <i name="DEG_THRESHOLD">      0.00200000</i>
   <i name="RTIME">     -0.10000000</i>
   <i name="WPLASMAI">      0.00000000</i>
   <v name="DFIELD">      0.00000000      0.00000000      0.00000000</v>
   <v name="WPLASMA">      0.00000000      0.00000000      0.00000000      0.00000000      0.00000000      0.00000000      0.00000000      0.00000000      0.00000000</v>
  </separator>
  <separator name="orbital magnetization" >
   <i type="logical" name="NUCIND"> F  </i>
   <v name="MAGPOS">      0.00000000      0.00000000      0.00000000</v>
   <i type="logical" name="LNICSALL"> T  </i>
   <i type="logical" name="ORBITALMAG"> F  </i>
   <i type="logical" name="LMAGBLOCH"> F  </i>
   <i type="logical" name="LCHIMAG"> F  </i>
   <i type="logical" name="LGAUGE"> T  </i>
   <i type="int" name="MAGATOM">     0</i>
   <v name="MAGDIPOL">      0.00000000      0.00000000      0.00000000</v>
   <v name="AVECCONST">      0.00000000      0.00000000      0.00000000</v>
  </separator>
  <separator name="response functions" >
   <i type="logical" name="LADDER"> F  </i>
   <i type="logical" name="LRPAFORCE"> F  </i>
   <i type="logical" name="LFXC"> F  </i>
   <i type="logical" name="LHARTREE"> T  </i>
   <i type="int" name="IBSE">     0</i>
   <v type="int" name="KPOINT">    -1     0     0     0</v>
   <i type="logical" name="LTCTE"> F  </i>
   <i type="logical" name="LTETE"> F  </i>
   <i type="logical" name="LTRIPLET"> F  </i>
   <i type="logical" name="LFXCEPS"> F  </i>
   <i type="logical" name="LFXHEG"> F  </i>
   <i type="int" name="NATURALO">     2</i>
   <i type="logical" name="L2ORDER"> F  </i>
   <i type="logical" name="LMP2LT"> F  </i>
   <i type="logical" name="LUSEW"> F  </i>
   <i name="ENCUTGW">     -2.00000000</i>
   <i name="ENCUTGWSOFT">     -2.00000000</i>
   <i name="ENCUTLF">     -1.00000000</i>
   <i type="int" name="LMAXMP2">    -1</i>
   <i name="SCISSOR">      0.00000000</i>
   <i type="int" name="NOMEGA">     0</i>
   <i type="int" name="NOMEGAR">     0</i>
   <i type="int" name="NBANDSGW">    -1</i>
   <i type="int" name="NBANDSO">    -1</i>
   <i type="int" name="NBANDSV">    -1</i>
   <i type="int" name="NELM">     1</i>
   <i type="int" name="NELMHF">     1</i>
   <i type="int" name="DIM">     3</i>
   <i type="int" name="ANTIRES">     0</i>
   <i name="OMEGAMAX">    -30.00000000</i>
   <i name="OMEGAMIN">    -30.00000000</i>
   <i name="OMEGATL">   -200.00000000</i>
   <i type="int" name="OMEGAGRID">   140</i>
   <i name="CSHIFT">     -0.10000000</i>
   <i type="logical" name="SELFENERGY"> F  </i>
   <i type="logical" name="LSPECTRAL"> F  </i>
   <i type="logical" name="LSPECTRALGW"> F  </i>
   <i type="logical" name="LSINGLES"> F  </i>
   <i type="logical" name="LFERMIGW"> F  </i>
   <i type="logical" name="ODDONLYGW"> F  </i>
   <i type="logical" name="EVENONLYGW"> F  </i>
   <i type="int" name="NKREDLFX">     1</i>
   <i type="int" name="NKREDLFY">     1</i>
   <i type="int" name="NKREDLFZ">     1</i>
   <i type="int" name="MAXMEM">  2800</i>
   <i type="int" name="TELESCOPE">     0</i>
   <i type="int" name="TAUPAR">     1</i>
   <i type="int" name="OMEGAPAR">    -1</i>
   <i name="LAMBDA">      1.00000000</i>
  </separator>
  <separator name="External order field" >
   <i name="OFIELD_KAPPA">      0.00000000</i>
   <v name="OFIELD_K">      0.00000000      0.00000000      0.00000000</v>
   <i name="OFIELD_Q6_NEAR">      0.00000000</i>
   <i name="OFIELD_Q6_FAR">      0.00000000</i>
   <i name="OFIELD_A">      0.00000000</i>
  </separator>
 </parameters>
 <atominfo>
  <atoms>      80 </atoms>
  <types>       3 </types>
  <array name="atoms" >
   <dimension dim="1">ion</dimension>
   <field type="string">element</field>
   <field type="int">atomtype</field>
   <set>
    <rc><c>Sc</c><c>   1</c></rc>
    <rc><c>Sc</c><c>   1</c></rc>
    <rc><c>Sc</c><c>   1</c></rc>
    <rc><c>Sc</c><c>   1</c></rc>
    <rc><c>Sc</c><c>   1</c></rc>
    <rc><c>Sc</c><c>   1</c></rc>
    <rc><c>Sc</c><c>   1</c></rc>
    <rc><c>Sc</c><c>   1</c></rc>
    <rc><c>Sc</c><c>   1</c></rc>
    <rc><c>Sc</c><c>   1</c></rc>
    <rc><c>Sc</c><c>   1</c></rc>
    <rc><c>Sc</c><c>   1</c></rc>
    <rc><c>Sc</c><c>   1</c></rc>
    <rc><c>Sc</c><c>   1</c></rc>
    <rc><c>Sc</c><c>   1</c></rc>
    <rc><c>Sc</c><c>   1</c></rc>
    <rc><c>Sc</c><c>   1</c></rc>
    <rc><c>Sc</c><c>   1</c></rc>
    <rc><c>Sc</c><c>   1</c></rc>
    <rc><c>Sc</c><c>   1</c></rc>
    <rc><c>Sc</c><c>   1</c></rc>
    <rc><c>Sc</c><c>   1</c></rc>
    <rc><c>Sc</c><c>   1</c></rc>
    <rc><c>Sc</c><c>   1</c></rc>
    <rc><c>Sc</c><c>   1</c></rc>
    <rc><c>Sc</c><c>   1</c></rc>
    <rc><c>Sc</c><c>   1</c></rc>
    <rc><c>Sc</c><c>   1</c></rc>
    <rc><c>Sc</c><c>   1</c></rc>
    <rc><c>Sc</c><c>   1</c></rc>
    <rc><c>Sc</c><c>   1</c></rc>
    <rc><c>Sc</c><c>   1</c></rc>
    <rc><c>F </c><c>   2</c></rc>
    <rc><c>F </c><c>   2</c></rc>
    <rc><c>F </c><c>   2</c></rc>
    <rc><c>F </c><c>   2</c></rc>
    <rc><c>F </c><c>   2</c></rc>
    <rc><c>F </c><c>   2</c></rc>
    <rc><c>F </c><c>   2</c></rc>
    <rc><c>F </c><c>   2</c></rc>
    <rc><c>F </c><c>   2</c></rc>
    <rc><c>F </c><c>   2</c></rc>
    <rc><c>F </c><c>   2</c></rc>
    <rc><c>F </c><c>   2</c></rc>
    <rc><c>F </c><c>   2</c></rc>
    <rc><c>F </c><c>   2</c></rc>
    <rc><c>F </c><c>   2</c></rc>
    <rc><c>F </c><c>   2</c></rc>
    <rc><c>F </c><c>   2</c></rc>
    <rc><c>F </c><c>   2</c></rc>
    <rc><c>F </c><c>   2</c></rc>
    <rc><c>F </c><c>   2</c></rc>
    <rc><c>F </c><c>   2</c></rc>
    <rc><c>F </c><c>   2</c></rc>
    <rc><c>F </c><c>   2</c></rc>
    <rc><c>F </c><c>   2</c></rc>
    <rc><c>F </c><c>   2</c></rc>
    <rc><c>F </c><c>   2</c></rc>
    <rc><c>F </c><c>   2</c></rc>
    <rc><c>F </c><c>   2</c></rc>
    <rc><c>F </c><c>   2</c></rc>
    <rc><c>F </c><c>   2</c></rc>
    <rc><c>F </c><c>   2</c></rc>
    <rc><c>F </c><c>   2</c></rc>
    <rc><c>C </c><c>   3</c></rc>
    <rc><c>C </c><c>   3</c></rc>
    <rc><c>C </c><c>   3</c></rc>
    <rc><c>C </c><c>   3</c></rc>
    <rc><c>C </c><c>   3</c></rc>
    <rc><c>C </c><c>   3</c></rc>
    <rc><c>C </c><c>   3</c></rc>
    <rc><c>C </c><c>   3</c></rc>
    <rc><c>C </c><c>   3</c></rc>
    <rc><c>C </c><c>   3</c></rc>
    <rc><c>C </c><c>   3</c></rc>
    <rc><c>C </c><c>   3</c></rc>
    <rc><c>C </c><c>   3</c></rc>
    <rc><c>C </c><c>   3</c></rc>
    <rc><c>C </c><c>   3</c></rc>
    <rc><c>C </c><c>   3</c></rc>
   </set>
  </array>
  <array name="atomtypes" >
   <dimension dim="1">type</dimension>
   <field type="int">atomspertype</field>
   <field type="string">element</field>
   <field>mass</field>
   <field>valence</field>
   <field type="string">pseudopotential</field>
   <set>
    <rc><c>  32</c><c>Sc</c><c>     44.95600000</c><c>     11.00000000</c><c>  PAW_PBE Sc_sv 07Sep2000               </c></rc>
    <rc><c>  32</c><c>F </c><c>     18.99800000</c><c>      7.00000000</c><c>  PAW_PBE F 08Apr2002                   </c></rc>
    <rc><c>  16</c><c>C </c><c>     12.01100000</c><c>      4.00000000</c><c>  PAW_PBE C 08Apr2002                   </c></rc>
   </set>
  </array>
 </atominfo>
 <structure name="initialpos" >
  <crystal>
   <varray name="basis" >
    <v>      13.12862340       0.00000000       0.00000000 </v>
    <v>      -6.56431170      11.36972138       0.00000000 </v>
    <v>       0.00000000       0.00000000      26.82809424 </v>
   </varray>
   <i name="volume">   4004.59716953 </i>
   <varray name="rec_basis" >
    <v>       0.07616945       0.04397645       0.00000000 </v>
    <v>       0.00000000       0.08795290       0.00000000 </v>
    <v>       0.00000000       0.00000000       0.03727436 </v>
   </varray>
  </crystal>
  <varray name="positions" >
   <v>       0.07908965       0.16815967       0.45594228 </v>
   <v>       0.08104754       0.41359120       0.45199533 </v>
   <v>       0.08089485       0.65824421       0.44811186 </v>
   <v>       0.07048144       0.91500172       0.45510611 </v>
   <v>       0.32883659       0.15988747       0.44850347 </v>
   <v>       0.33011298       0.41826948       0.45564730 </v>
   <v>       0.34022855       0.67411445       0.45299305 </v>
   <v>       0.33490495       0.91265001       0.45035527 </v>
   <v>       0.58480557       0.16919890       0.44982712 </v>
   <v>       0.57053387       0.40897764       0.45467779 </v>
   <v>       0.58491947       0.66259920       0.45182867 </v>
   <v>       0.59101345       0.92460724       0.45062456 </v>
   <v>       0.83520639       0.17485349       0.45299014 </v>
   <v>       0.82955732       0.42095974       0.45141051 </v>
   <v>       0.82499913       0.66225099       0.44995795 </v>
   <v>       0.82911097       0.91649084       0.45632783 </v>
   <v>       0.15873542       0.07820419       0.54849277 </v>
   <v>       0.17139054       0.33000595       0.54804192 </v>
   <v>       0.17450102       0.58874731       0.54513832 </v>
   <v>       0.16096094       0.82310898       0.54921430 </v>
   <v>       0.40141503       0.07273354       0.54604887 </v>
   <v>       0.41677429       0.32753827       0.54961624 </v>
   <v>       0.42340254       0.59095936       0.54938092 </v>
   <v>       0.42652888       0.83432261       0.54698000 </v>
   <v>       0.66897368       0.08699217       0.54495887 </v>
   <v>       0.66521239       0.33331198       0.54389727 </v>
   <v>       0.66416862       0.57967924       0.54413875 </v>
   <v>       0.67247103       0.83564222       0.54514646 </v>
   <v>       0.92351715       0.09053621       0.55095680 </v>
   <v>       0.91870045       0.34095795       0.54934176 </v>
   <v>       0.91848546       0.58966718       0.54919884 </v>
   <v>       0.91040061       0.82782888       0.54712449 </v>
   <v>       0.07844572       0.15429714       0.59324344 </v>
   <v>       0.08878874       0.42164586       0.58907815 </v>
   <v>       0.09104661       0.66752100       0.58853363 </v>
   <v>       0.08534521       0.91715734       0.59107003 </v>
   <v>       0.32446454       0.15778430       0.58822527 </v>
   <v>       0.34883933       0.42774724       0.59828788 </v>
   <v>       0.35985212       0.67630756       0.59193302 </v>
   <v>       0.31786135       0.91377903       0.59096883 </v>
   <v>       0.57726145       0.16015135       0.58858723 </v>
   <v>       0.59299520       0.42838306       0.59548273 </v>
   <v>       0.59306137       0.67429263       0.59093627 </v>
   <v>       0.59551289       0.92737398       0.59074521 </v>
   <v>       0.84030419       0.18108102       0.59275485 </v>
   <v>       0.83895665       0.42023054       0.59008513 </v>
   <v>       0.82574423       0.66479854       0.58959951 </v>
   <v>       0.83513483       0.92137434       0.59182377 </v>
   <v>       0.15359340       0.06593002       0.41138784 </v>
   <v>       0.16895102       0.34019992       0.41161080 </v>
   <v>       0.18011078       0.59643074       0.40836426 </v>
   <v>       0.17387639       0.83868549       0.40640540 </v>
   <v>       0.42058418       0.08912359       0.40879714 </v>
   <v>       0.41259770       0.33104258       0.40815187 </v>
   <v>       0.41266363       0.57669551       0.41283987 </v>
   <v>       0.42576451       0.83396269       0.40874558 </v>
   <v>       0.68212682       0.08687909       0.41053572 </v>
   <v>       0.65430119       0.33260003       0.41037910 </v>
   <v>       0.66232092       0.58262146       0.40851673 </v>
   <v>       0.67922065       0.84181997       0.40854600 </v>
   <v>       0.91848251       0.08286179       0.41548341 </v>
   <v>       0.91982510       0.33118322       0.40857617 </v>
   <v>       0.91654101       0.57659607       0.40585694 </v>
   <v>       0.91742182       0.82295983       0.40854328 </v>
   <v>       0.00080866       0.00094520       0.50383699 </v>
   <v>       0.00210997       0.25228173       0.50312813 </v>
   <v>       0.00668199       0.50858726       0.49813868 </v>
   <v>       0.98900691       0.74445229       0.49676034 </v>
   <v>       0.24068446       0.99000993       0.50034949 </v>
   <v>       0.24748814       0.24975699       0.49963431 </v>
   <v>       0.23950486       0.49438510       0.50224120 </v>
   <v>       0.25243267       0.75239524       0.50153480 </v>
   <v>       0.50195661       0.00307946       0.49827491 </v>
   <v>       0.49318713       0.24134923       0.49992658 </v>
   <v>       0.49436871       0.49410501       0.50153651 </v>
   <v>       0.50201870       0.74048688       0.49689441 </v>
   <v>       0.74487028       0.99458359       0.50153231 </v>
   <v>       0.75031589       0.25713165       0.49639084 </v>
   <v>       0.74728659       0.49639203       0.50061405 </v>
   <v>       0.74888179       0.74830899       0.49945776 </v>
  </varray>
  <varray name="velocities" >
   <v>       0.00000000       0.00000000       0.00000000 </v>
   <v>       0.00000000       0.00000000       0.00000000 </v>
   <v>       0.00000000       0.00000000       0.00000000 </v>
   <v>       0.00000000       0.00000000       0.00000000 </v>
   <v>       0.00000000       0.00000000       0.00000000 </v>
   <v>       0.00000000       0.00000000       0.00000000 </v>
   <v>       0.00000000       0.00000000       0.00000000 </v>
   <v>       0.00000000       0.00000000       0.00000000 </v>
   <v>       0.00000000       0.00000000       0.00000000 </v>
   <v>       0.00000000       0.00000000       0.00000000 </v>
   <v>       0.00000000       0.00000000       0.00000000 </v>
   <v>       0.00000000       0.00000000       0.00000000 </v>
   <v>       0.00000000       0.00000000       0.00000000 </v>
   <v>       0.00000000       0.00000000       0.00000000 </v>
   <v>       0.00000000       0.00000000       0.00000000 </v>
   <v>       0.00000000       0.00000000       0.00000000 </v>
   <v>       0.00000000       0.00000000       0.00000000 </v>
   <v>       0.00000000       0.00000000       0.00000000 </v>
   <v>       0.00000000       0.00000000       0.00000000 </v>
   <v>       0.00000000       0.00000000       0.00000000 </v>
   <v>       0.00000000       0.00000000       0.00000000 </v>
   <v>       0.00000000       0.00000000       0.00000000 </v>
   <v>       0.00000000       0.00000000       0.00000000 </v>
   <v>       0.00000000       0.00000000       0.00000000 </v>
   <v>       0.00000000       0.00000000       0.00000000 </v>
   <v>       0.00000000       0.00000000       0.00000000 </v>
   <v>       0.00000000       0.00000000       0.00000000 </v>
   <v>       0.00000000       0.00000000       0.00000000 </v>
   <v>       0.00000000       0.00000000       0.00000000 </v>
   <v>       0.00000000       0.00000000       0.00000000 </v>
   <v>       0.00000000       0.00000000       0.00000000 </v>
   <v>       0.00000000       0.00000000       0.00000000 </v>
   <v>       0.00000000       0.00000000       0.00000000 </v>
   <v>       0.00000000       0.00000000       0.00000000 </v>
   <v>       0.00000000       0.00000000       0.00000000 </v>
   <v>       0.00000000       0.00000000       0.00000000 </v>
   <v>       0.00000000       0.00000000       0.00000000 </v>
   <v>       0.00000000       0.00000000       0.00000000 </v>
   <v>       0.00000000       0.00000000       0.00000000 </v>
   <v>       0.00000000       0.00000000       0.00000000 </v>
   <v>       0.00000000       0.00000000       0.00000000 </v>
   <v>       0.00000000       0.00000000       0.00000000 </v>
   <v>       0.00000000       0.00000000       0.00000000 </v>
   <v>       0.00000000       0.00000000       0.00000000 </v>
   <v>       0.00000000       0.00000000       0.00000000 </v>
   <v>       0.00000000       0.00000000       0.00000000 </v>
   <v>       0.00000000       0.00000000       0.00000000 </v>
   <v>       0.00000000       0.00000000       0.00000000 </v>
   <v>       0.00000000       0.00000000       0.00000000 </v>
   <v>       0.00000000       0.00000000       0.00000000 </v>
   <v>       0.00000000       0.00000000       0.00000000 </v>
   <v>       0.00000000       0.00000000       0.00000000 </v>
   <v>       0.00000000       0.00000000       0.00000000 </v>
   <v>       0.00000000       0.00000000       0.00000000 </v>
   <v>       0.00000000       0.00000000       0.00000000 </v>
   <v>       0.00000000       0.00000000       0.00000000 </v>
   <v>       0.00000000       0.00000000       0.00000000 </v>
   <v>       0.00000000       0.00000000       0.00000000 </v>
   <v>       0.00000000       0.00000000       0.00000000 </v>
   <v>       0.00000000       0.00000000       0.00000000 </v>
   <v>       0.00000000       0.00000000       0.00000000 </v>
   <v>       0.00000000       0.00000000       0.00000000 </v>
   <v>       0.00000000       0.00000000       0.00000000 </v>
   <v>       0.00000000       0.00000000       0.00000000 </v>
   <v>       0.00000000       0.00000000       0.00000000 </v>
   <v>       0.00000000       0.00000000       0.00000000 </v>
   <v>       0.00000000       0.00000000       0.00000000 </v>
   <v>       0.00000000       0.00000000       0.00000000 </v>
   <v>       0.00000000       0.00000000       0.00000000 </v>
   <v>       0.00000000       0.00000000       0.00000000 </v>
   <v>       0.00000000       0.00000000       0.00000000 </v>
   <v>       0.00000000       0.00000000       0.00000000 </v>
   <v>       0.00000000       0.00000000       0.00000000 </v>
   <v>       0.00000000       0.00000000       0.00000000 </v>
   <v>       0.00000000       0.00000000       0.00000000 </v>
   <v>       0.00000000       0.00000000       0.00000000 </v>
   <v>       0.00000000       0.00000000       0.00000000 </v>
   <v>       0.00000000       0.00000000       0.00000000 </v>
   <v>       0.00000000       0.00000000       0.00000000 </v>
   <v>       0.00000000       0.00000000       0.00000000 </v>
  </varray>
 </structure>
 <calculation>
  <scstep>
   <time name="dav">   46.54   46.54</time>
   <time name="total">   47.42   47.44</time>
   <energy>
    <i name="alphaZ">    871.83850952 </i>
    <i name="ewald"> 286564.53997734 </i>
    <i name="hartreedc">-340918.94863695 </i>
    <i name="XCdc">   3042.88773432 </i>
    <i name="pawpsdc">  50525.51240023 </i>
    <i name="pawaedc"> -50422.77561733 </i>
    <i name="eentropy">     -0.07938044 </i>
    <i name="bandstr">   -211.51208993 </i>
    <i name="atom">  64207.43592568 </i>
    <i name="e_fr_energy">  13658.89882244 </i>
    <i name="e_wo_entrp">  13658.97820288 </i>
    <i name="e_0_energy">  13658.93851266 </i>
   </energy>
  </scstep>
  <scstep>
   <time name="dav">   50.97   50.99</time>
   <time name="total">   50.97   50.99</time>
   <energy>
    <i name="e_fr_energy">   2485.66203265 </i>
    <i name="e_wo_entrp">   2485.70575593 </i>
    <i name="e_0_energy">   2485.68389429 </i>
   </energy>
  </scstep>
  <scstep>
   <time name="dav">   68.65   68.66</time>
   <time name="total">   68.65   68.66</time>
   <energy>
    <i name="e_fr_energy">   -382.82933919 </i>
    <i name="e_wo_entrp">   -382.82933919 </i>
    <i name="e_0_energy">   -382.82933919 </i>
   </energy>
  </scstep>
  <scstep>
   <time name="dav">   62.51   62.52</time>
   <time name="total">   62.51   62.52</time>
   <energy>
    <i name="e_fr_energy">   -740.55787170 </i>
    <i name="e_wo_entrp">   -740.55787170 </i>
    <i name="e_0_energy">   -740.55787170 </i>
   </energy>
  </scstep>
  <scstep>
   <time name="dav">   62.83   62.84</time>
   <time name="total">   66.56   66.57</time>
   <energy>
    <i name="e_fr_energy">   -755.06937164 </i>
    <i name="e_wo_entrp">   -755.06937164 </i>
    <i name="e_0_energy">   -755.06937164 </i>
   </energy>
  </scstep>
  <scstep>
   <time name="dav">   60.19   60.20</time>
   <time name="total">   64.72   64.74</time>
   <energy>
    <i name="e_fr_energy">   -599.69009122 </i>
    <i name="e_wo_entrp">   -599.69009122 </i>
    <i name="e_0_energy">   -599.69009122 </i>
   </energy>
  </scstep>
  <scstep>
   <time name="dav">   61.93   61.94</time>
   <time name="total">   66.43   66.45</time>
   <energy>
    <i name="e_fr_energy">   -599.69419855 </i>
    <i name="e_wo_entrp">   -599.69419855 </i>
    <i name="e_0_energy">   -599.69419855 </i>
   </energy>
  </scstep>
  <scstep>
   <time name="dav">   58.19   58.19</time>
   <time name="total">   62.78   62.79</time>
   <energy>
    <i name="e_fr_energy">   -598.15114861 </i>
    <i name="e_wo_entrp">   -598.15114861 </i>
    <i name="e_0_energy">   -598.15114861 </i>
   </energy>
  </scstep>
  <scstep>
   <time name="dav">   57.66   57.66</time>
   <time name="total">   62.11   62.13</time>
   <energy>
    <i name="e_fr_energy">   -597.61792308 </i>
    <i name="e_wo_entrp">   -597.61792308 </i>
    <i name="e_0_energy">   -597.61792308 </i>
   </energy>
  </scstep>
  <scstep>
   <time name="dav">   61.15   61.15</time>
   <time name="total">   65.66   65.67</time>
   <energy>
    <i name="e_fr_energy">   -597.58172213 </i>
    <i name="e_wo_entrp">   -597.58172213 </i>
    <i name="e_0_energy">   -597.58172213 </i>
   </energy>
  </scstep>
  <scstep>
   <time name="dav">   58.10   58.10</time>
   <time name="total">   62.62   62.63</time>
   <energy>
    <i name="e_fr_energy">   -597.45496355 </i>
    <i name="e_wo_entrp">   -597.45496355 </i>
    <i name="e_0_energy">   -597.45496355 </i>
   </energy>
  </scstep>
  <scstep>
   <time name="dav">   60.69   60.69</time>
   <time name="total">   65.22   65.23</time>
   <energy>
    <i name="e_fr_energy">   -597.43163338 </i>
    <i name="e_wo_entrp">   -597.43163338 </i>
    <i name="e_0_energy">   -597.43163338 </i>
   </energy>
  </scstep>
  <scstep>
   <time name="dav">   58.59   58.60</time>
   <time name="total">   63.10   63.12</time>
   <energy>
    <i name="e_fr_energy">   -597.42256225 </i>
    <i name="e_wo_entrp">   -597.42256225 </i>
    <i name="e_0_energy">   -597.42256225 </i>
   </energy>
  </scstep>
  <scstep>
   <time name="dav">   59.27   59.27</time>
   <time name="total">   63.85   63.87</time>
   <energy>
    <i name="e_fr_energy">   -597.41955643 </i>
    <i name="e_wo_entrp">   -597.41955643 </i>
    <i name="e_0_energy">   -597.41955643 </i>
   </energy>
  </scstep>
  <scstep>
   <time name="dav">   60.60   60.61</time>
   <time name="total">   65.15   65.17</time>
   <energy>
    <i name="e_fr_energy">   -597.42559878 </i>
    <i name="e_wo_entrp">   -597.42559878 </i>
    <i name="e_0_energy">   -597.42559878 </i>
   </energy>
  </scstep>
  <scstep>
   <time name="dav">   56.54   56.55</time>
   <time name="total">   61.13   61.14</time>
   <energy>
    <i name="e_fr_energy">   -597.42922824 </i>
    <i name="e_wo_entrp">   -597.42922824 </i>
    <i name="e_0_energy">   -597.42922824 </i>
   </energy>
  </scstep>
  <scstep>
   <time name="dav">   61.87   61.88</time>
   <time name="total">   66.41   66.43</time>
   <energy>
    <i name="e_fr_energy">   -597.43476070 </i>
    <i name="e_wo_entrp">   -597.43476070 </i>
    <i name="e_0_energy">   -597.43476070 </i>
   </energy>
  </scstep>
  <scstep>
   <time name="dav">   57.70   57.70</time>
   <time name="total">   62.23   62.25</time>
   <energy>
    <i name="e_fr_energy">   -597.43766275 </i>
    <i name="e_wo_entrp">   -597.43766275 </i>
    <i name="e_0_energy">   -597.43766275 </i>
   </energy>
  </scstep>
  <scstep>
   <time name="dav">   59.33   59.34</time>
   <time name="total">   63.89   63.92</time>
   <energy>
    <i name="e_fr_energy">   -597.43935077 </i>
    <i name="e_wo_entrp">   -597.43935077 </i>
    <i name="e_0_energy">   -597.43935077 </i>
   </energy>
  </scstep>
  <scstep>
   <time name="dav">   56.72   56.73</time>
   <time name="total">   61.29   61.32</time>
   <energy>
    <i name="e_fr_energy">   -597.44233028 </i>
    <i name="e_wo_entrp">   -597.44233028 </i>
    <i name="e_0_energy">   -597.44233028 </i>
   </energy>
  </scstep>
  <scstep>
   <time name="dav">   53.76   53.76</time>
   <time name="total">   58.32   58.33</time>
   <energy>
    <i name="e_fr_energy">   -597.44453648 </i>
    <i name="e_wo_entrp">   -597.44453648 </i>
    <i name="e_0_energy">   -597.44453648 </i>
   </energy>
  </scstep>
  <scstep>
   <time name="dav">   51.70   51.71</time>
   <time name="total">   56.23   56.24</time>
   <energy>
    <i name="e_fr_energy">   -597.44548263 </i>
    <i name="e_wo_entrp">   -597.44548263 </i>
    <i name="e_0_energy">   -597.44548263 </i>
   </energy>
  </scstep>
  <scstep>
   <time name="dav">   50.84   50.85</time>
   <time name="total">   55.37   55.38</time>
   <energy>
    <i name="e_fr_energy">   -597.44592511 </i>
    <i name="e_wo_entrp">   -597.44592511 </i>
    <i name="e_0_energy">   -597.44592511 </i>
   </energy>
  </scstep>
  <scstep>
   <time name="dav">   47.78   47.78</time>
   <time name="total">   52.30   52.32</time>
   <energy>
    <i name="e_fr_energy">   -597.44621337 </i>
    <i name="e_wo_entrp">   -597.44621337 </i>
    <i name="e_0_energy">   -597.44621337 </i>
   </energy>
  </scstep>
  <scstep>
   <time name="dav">   45.65   45.66</time>
   <time name="total">   50.18   50.19</time>
   <energy>
    <i name="e_fr_energy">   -597.44640959 </i>
    <i name="e_wo_entrp">   -597.44640959 </i>
    <i name="e_0_energy">   -597.44640959 </i>
   </energy>
  </scstep>
  <scstep>
   <time name="dav">   37.10   37.11</time>
   <time name="total">   41.65   41.66</time>
   <energy>
    <i name="e_fr_energy">   -597.44649143 </i>
    <i name="e_wo_entrp">   -597.44649143 </i>
    <i name="e_0_energy">   -597.44649143 </i>
   </energy>
  </scstep>
  <scstep>
   <time name="dav">   33.69   33.70</time>
   <time name="total">   38.22   38.23</time>
   <energy>
    <i name="e_fr_energy">   -597.44652097 </i>
    <i name="e_wo_entrp">   -597.44652097 </i>
    <i name="e_0_energy">   -597.44652097 </i>
   </energy>
  </scstep>
  <scstep>
   <time name="dav">   35.01   35.01</time>
   <time name="total">   39.52   39.53</time>
   <energy>
    <i name="e_fr_energy">   -597.44653973 </i>
    <i name="e_wo_entrp">   -597.44653973 </i>
    <i name="e_0_energy">   -597.44653973 </i>
   </energy>
  </scstep>
  <scstep>
   <time name="dav">   33.31   33.31</time>
   <time name="total">   37.83   37.84</time>
   <energy>
    <i name="e_fr_energy">   -597.44654676 </i>
    <i name="e_wo_entrp">   -597.44654676 </i>
    <i name="e_0_energy">   -597.44654676 </i>
   </energy>
  </scstep>
  <scstep>
   <time name="dav">   33.23   33.23</time>
   <time name="total">   37.82   37.82</time>
   <energy>
    <i name="e_fr_energy">   -597.44655185 </i>
    <i name="e_wo_entrp">   -597.44655185 </i>
    <i name="e_0_energy">   -597.44655185 </i>
   </energy>
  </scstep>
  <scstep>
   <time name="dav">   33.07   33.07</time>
   <time name="total">   37.60   37.63</time>
   <energy>
    <i name="e_fr_energy">   -597.44655444 </i>
    <i name="e_wo_entrp">   -597.44655444 </i>
    <i name="e_0_energy">   -597.44655444 </i>
   </energy>
  </scstep>
  <scstep>
   <time name="dav">   32.69   32.70</time>
   <time name="total">   37.24   37.25</time>
   <energy>
    <i name="e_fr_energy">   -597.44655566 </i>
    <i name="e_wo_entrp">   -597.44655566 </i>
    <i name="e_0_energy">   -597.44655566 </i>
   </energy>
  </scstep>
  <scstep>
   <time name="dav">   32.71   32.71</time>
   <time name="total">   33.50   33.51</time>
   <energy>
    <i name="alphaZ">    871.83850952 </i>
    <i name="ewald"> 286564.53997734 </i>
    <i name="hartreedc">-342116.14180009 </i>
    <i name="XCdc">   3053.90314664 </i>
    <i name="pawpsdc">  66062.24435618 </i>
    <i name="pawaedc"> -66055.31997597 </i>
    <i name="eentropy">     -0.00000000 </i>
    <i name="bandstr"> -13185.94669549 </i>
    <i name="atom">  64207.43592568 </i>
    <i name="e_fr_energy">   -597.44655617 </i>
    <i name="e_wo_entrp">   -597.44655617 </i>
    <i name="e_0_energy">   -597.44655617 </i>
   </energy>
  </scstep>
  <structure>
   <crystal>
    <varray name="basis" >
     <v>      13.12862340       0.00000000       0.00000000 </v>
     <v>      -6.56431170      11.36972138       0.00000000 </v>
     <v>       0.00000000       0.00000000      26.82809424 </v>
    </varray>
    <i name="volume">   4004.59716953 </i>
    <varray name="rec_basis" >
     <v>       0.07616945       0.04397645       0.00000000 </v>
     <v>       0.00000000       0.08795290       0.00000000 </v>
     <v>       0.00000000       0.00000000       0.03727436 </v>
    </varray>
   </crystal>
   <varray name="positions" >
    <v>       0.07908965       0.16815967       0.45594228 </v>
    <v>       0.08104754       0.41359120       0.45199533 </v>
    <v>       0.08089485       0.65824421       0.44811186 </v>
    <v>       0.07048144       0.91500172       0.45510611 </v>
    <v>       0.32883659       0.15988747       0.44850347 </v>
    <v>       0.33011298       0.41826948       0.45564730 </v>
    <v>       0.34022855       0.67411445       0.45299305 </v>
    <v>       0.33490495       0.91265001       0.45035527 </v>
    <v>       0.58480557       0.16919890       0.44982712 </v>
    <v>       0.57053387       0.40897764       0.45467779 </v>
    <v>       0.58491947       0.66259920       0.45182867 </v>
    <v>       0.59101345       0.92460724       0.45062456 </v>
    <v>       0.83520639       0.17485349       0.45299014 </v>
    <v>       0.82955732       0.42095974       0.45141051 </v>
    <v>       0.82499913       0.66225099       0.44995795 </v>
    <v>       0.82911097       0.91649084       0.45632783 </v>
    <v>       0.15873542       0.07820419       0.54849277 </v>
    <v>       0.17139054       0.33000595       0.54804192 </v>
    <v>       0.17450102       0.58874731       0.54513832 </v>
    <v>       0.16096094       0.82310898       0.54921430 </v>
    <v>       0.40141503       0.07273354       0.54604887 </v>
    <v>       0.41677429       0.32753827       0.54961624 </v>
    <v>       0.42340254       0.59095936       0.54938092 </v>
    <v>       0.42652888       0.83432261       0.54698000 </v>
    <v>       0.66897368       0.08699217       0.54495887 </v>
    <v>       0.66521239       0.33331198       0.54389727 </v>
    <v>       0.66416862       0.57967924       0.54413875 </v>
    <v>       0.67247103       0.83564222       0.54514646 </v>
    <v>       0.92351715       0.09053621       0.55095680 </v>
    <v>       0.91870045       0.34095795       0.54934176 </v>
    <v>       0.91848546       0.58966718       0.54919884 </v>
    <v>       0.91040061       0.82782888       0.54712449 </v>
    <v>       0.07844572       0.15429714       0.59324344 </v>
    <v>       0.08878874       0.42164586       0.58907815 </v>
    <v>       0.09104661       0.66752100       0.58853363 </v>
    <v>       0.08534521       0.91715734       0.59107003 </v>
    <v>       0.32446454       0.15778430       0.58822527 </v>
    <v>       0.34883933       0.42774724       0.59828788 </v>
    <v>       0.35985212       0.67630756       0.59193302 </v>
    <v>       0.31786135       0.91377903       0.59096883 </v>
    <v>       0.57726145       0.16015135       0.58858723 </v>
    <v>       0.59299520       0.42838306       0.59548273 </v>
    <v>       0.59306137       0.67429263       0.59093627 </v>
    <v>       0.59551289       0.92737398       0.59074521 </v>
    <v>       0.84030419       0.18108102       0.59275485 </v>
    <v>       0.83895665       0.42023054       0.59008513 </v>
    <v>       0.82574423       0.66479854       0.58959951 </v>
    <v>       0.83513483       0.92137434       0.59182377 </v>
    <v>       0.15359340       0.06593002       0.41138784 </v>
    <v>       0.16895102       0.34019992       0.41161080 </v>
    <v>       0.18011078       0.59643074       0.40836426 </v>
    <v>       0.17387639       0.83868549       0.40640540 </v>
    <v>       0.42058418       0.08912359       0.40879714 </v>
    <v>       0.41259770       0.33104258       0.40815187 </v>
    <v>       0.41266363       0.57669551       0.41283987 </v>
    <v>       0.42576451       0.83396269       0.40874558 </v>
    <v>       0.68212682       0.08687909       0.41053572 </v>
    <v>       0.65430119       0.33260003       0.41037910 </v>
    <v>       0.66232092       0.58262146       0.40851673 </v>
    <v>       0.67922065       0.84181997       0.40854600 </v>
    <v>       0.91848251       0.08286179       0.41548341 </v>
    <v>       0.91982510       0.33118322       0.40857617 </v>
    <v>       0.91654101       0.57659607       0.40585694 </v>
    <v>       0.91742182       0.82295983       0.40854328 </v>
    <v>       0.00080866       0.00094520       0.50383699 </v>
    <v>       0.00210997       0.25228173       0.50312813 </v>
    <v>       0.00668199       0.50858726       0.49813868 </v>
    <v>       0.98900691       0.74445229       0.49676034 </v>
    <v>       0.24068446       0.99000993       0.50034949 </v>
    <v>       0.24748814       0.24975699       0.49963431 </v>
    <v>       0.23950486       0.49438510       0.50224120 </v>
    <v>       0.25243267       0.75239524       0.50153480 </v>
    <v>       0.50195661       0.00307946       0.49827491 </v>
    <v>       0.49318713       0.24134923       0.49992658 </v>
    <v>       0.49436871       0.49410501       0.50153651 </v>
    <v>       0.50201870       0.74048688       0.49689441 </v>
    <v>       0.74487028       0.99458359       0.50153231 </v>
    <v>       0.75031589       0.25713165       0.49639084 </v>
    <v>       0.74728659       0.49639203       0.50061405 </v>
    <v>       0.74888179       0.74830899       0.49945776 </v>
   </varray>
  </structure>
  <varray name="forces" >
   <v>       0.69432667      -0.16097069      -0.28118524 </v>
   <v>       0.27562327       0.78497385       0.68122290 </v>
   <v>      -0.39607113       1.21007669       0.51572872 </v>
   <v>       1.51665936      -0.60037441      -0.49588993 </v>
   <v>      -0.55428758      -0.10817136       1.04574914 </v>
   <v>       0.05453315      -0.35190467      -0.18477557 </v>
   <v>      -0.03102553      -0.90508759      -0.07021694 </v>
   <v>      -1.03069416       0.10275648       0.58688063 </v>
   <v>      -0.40246709      -0.28316752       0.65336214 </v>
   <v>       0.29382475       0.12770974      -0.50274457 </v>
   <v>      -0.73769300       0.14756953      -0.10202870 </v>
   <v>       0.07619271      -0.71087327       0.38765572 </v>
   <v>       0.73890023      -0.20837591       0.54246788 </v>
   <v>       0.47694144      -0.02420319       0.21380672 </v>
   <v>       0.89448205       0.41177279       0.27258617 </v>
   <v>       0.45279720       0.31937007      -0.80409093 </v>
   <v>       0.97507479      -0.16115710      -0.13311425 </v>
   <v>      -0.59145118       1.10886300       0.63143588 </v>
   <v>      -0.33356762      -0.89794849       0.37041910 </v>
   <v>      -0.15790780       1.47032284      -1.24040975 </v>
   <v>       0.82831556       0.31025674      -0.00941416 </v>
   <v>      -0.51163150       0.42079779       0.03709845 </v>
   <v>       0.52787286      -1.21326995       0.01756959 </v>
   <v>      -0.58922291       0.38189709      -0.21578990 </v>
   <v>      -0.51700923      -0.12849299       0.71751007 </v>
   <v>      -0.17439226      -0.32821127       1.26609308 </v>
   <v>      -0.17703297      -0.10483789       1.46188606 </v>
   <v>      -0.44157292      -0.31333754       1.17827508 </v>
   <v>      -0.82040690      -0.65021146       0.00379743 </v>
   <v>       0.56848420       0.10620051      -0.41438624 </v>
   <v>      -0.09474521      -0.64610424      -1.10759921 </v>
   <v>       0.31879454       0.34983188       0.37887630 </v>
   <v>       0.01307257       0.56443540       0.08009591 </v>
   <v>      -0.26249230      -0.10966550       0.15982867 </v>
   <v>      -0.48999396      -0.43543168       0.62076382 </v>
   <v>      -0.22656027      -0.43570755      -0.02300600 </v>
   <v>       0.17199481       0.30142417       0.33473093 </v>
   <v>      -0.18190589      -0.45541704      -1.04727913 </v>
   <v>      -0.87690680       0.25651169       0.09820210 </v>
   <v>       0.68437957       0.01130787       0.05340597 </v>
   <v>       0.14758549       0.22534910      -0.24919732 </v>
   <v>      -0.06654765      -0.52691177      -0.98987625 </v>
   <v>      -0.16416733      -0.17818910      -0.41760669 </v>
   <v>      -0.31874012      -0.36904506      -0.39837361 </v>
   <v>      -0.07502624      -0.31919130      -0.47576035 </v>
   <v>      -0.24969973      -0.00306044      -0.05442271 </v>
   <v>       0.38092392       0.08823509       0.00459229 </v>
   <v>       0.04103858      -0.24689410      -0.29804978 </v>
   <v>      -0.04997304       0.95519598      -0.26561777 </v>
   <v>      -0.05482221      -0.43228763      -0.23799237 </v>
   <v>      -0.15678710      -0.41893425      -0.04513535 </v>
   <v>       0.05913087      -0.30151478       0.45965824 </v>
   <v>       0.01606237      -0.29191167      -0.24744017 </v>
   <v>      -0.00289321      -0.09430230       0.33118432 </v>
   <v>       0.01340811       0.26607945      -0.35522618 </v>
   <v>      -0.25790591       0.05655841      -0.02950313 </v>
   <v>      -0.64520120      -0.06725941      -0.54343838 </v>
   <v>       0.38920894       0.16692720      -0.33746136 </v>
   <v>       0.08897155      -0.29215372      -0.02806316 </v>
   <v>      -0.26551096      -0.25286617       0.12232159 </v>
   <v>      -0.23553311       0.04042340      -0.46718185 </v>
   <v>      -0.15488885       0.05035049       0.01450999 </v>
   <v>      -0.19752972       0.11492002       0.15214466 </v>
   <v>      -0.53519140       0.29955392       0.04694797 </v>
   <v>      -0.92657939      -0.20760321      -0.54961167 </v>
   <v>      -0.38599971      -0.25886760      -0.42034385 </v>
   <v>      -0.48601771      -0.75976380       0.13016738 </v>
   <v>       0.48070504      -0.18061583       1.17812854 </v>
   <v>       0.31048844       0.59389876      -0.53852640 </v>
   <v>       0.35100630      -0.23752769       0.44763059 </v>
   <v>       1.36285971       0.56919464      -0.43671523 </v>
   <v>       0.74429906       0.12206477      -0.64854113 </v>
   <v>       0.44391603      -0.55710836      -0.18154377 </v>
   <v>      -0.17452591       0.67663961      -0.15723450 </v>
   <v>       0.51500820       0.32059671      -0.16873843 </v>
   <v>      -0.59205652       1.42021589       0.83305766 </v>
   <v>       0.31854723       1.12066049      -0.44064370 </v>
   <v>       0.50242396      -0.44573176       0.55081462 </v>
   <v>      -0.16161213       0.19537199      -0.64479774 </v>
   <v>       0.02839386       0.00634718      -0.32163296 </v>
  </varray>
  <varray name="stress" >
   <v>       1.59630960      -0.14164001      -1.15635894 </v>
   <v>      -0.14163999       1.71248669      -1.45561930 </v>
   <v>      -1.15635892      -1.45561929      -2.57608487 </v>
  </varray>
  <energy>
   <i name="e_fr_energy">   -597.44655617 </i>
   <i name="e_wo_entrp">   -597.44655617 </i>
   <i name="e_0_energy">     -0.00000000 </i>
  </energy>
  <time name="totalsc"> 1894.66 1895.15</time>
  <eigenvalues>
   <array>
    <dimension dim="1">band</dimension>
    <dimension dim="2">kpoint</dimension>
    <dimension dim="3">spin</dimension>
    <field>eigene</field>
    <field>occ</field>
    <set>
     <set comment="spin 1">
      <set comment="kpoint 1">
       <r>  -51.8285    1.0000 </r>
       <r>  -51.7861    1.0000 </r>
       <r>  -51.7808    1.0000 </r>
       <r>  -51.6985    1.0000 </r>
       <r>  -51.6743    1.0000 </r>
       <r>  -51.6612    1.0000 </r>
       <r>  -51.6543    1.0000 </r>
       <r>  -51.6423    1.0000 </r>
       <r>  -51.6279    1.0000 </r>
       <r>  -51.6210    1.0000 </r>
       <r>  -51.5730    1.0000 </r>
       <r>  -51.5254    1.0000 </r>
       <r>  -51.5091    1.0000 </r>
       <r>  -51.4999    1.0000 </r>
       <r>  -51.4988    1.0000 </r>
       <r>  -51.4890    1.0000 </r>
       <r>  -51.4802    1.0000 </r>
       <r>  -51.4780    1.0000 </r>
       <r>  -51.4740    1.0000 </r>
       <r>  -51.4506    1.0000 </r>
       <r>  -51.4247    1.0000 </r>
       <r>  -51.4082    1.0000 </r>
       <r>  -51.3950    1.0000 </r>
       <r>  -51.3471    1.0000 </r>
       <r>  -51.3255    1.0000 </r>
       <r>  -51.2979    1.0000 </r>
       <r>  -51.2836    1.0000 </r>
       <r>  -51.2790    1.0000 </r>
       <r>  -51.2317    1.0000 </r>
       <r>  -51.2247    1.0000 </r>
       <r>  -51.0960    1.0000 </r>
       <r>  -51.0802    1.0000 </r>
       <r>  -30.8130    1.0000 </r>
       <r>  -30.7394    1.0000 </r>
       <r>  -30.7044    1.0000 </r>
       <r>  -30.6849    1.0000 </r>
       <r>  -30.6724    1.0000 </r>
       <r>  -30.6424    1.0000 </r>
       <r>  -30.6264    1.0000 </r>
       <r>  -30.6190    1.0000 </r>
       <r>  -30.6138    1.0000 </r>
       <r>  -30.5900    1.0000 </r>
       <r>  -30.5884    1.0000 </r>
       <r>  -30.5778    1.0000 </r>
       <r>  -30.5641    1.0000 </r>
       <r>  -30.5582    1.0000 </r>
       <r>  -30.5431    1.0000 </r>
       <r>  -30.5251    1.0000 </r>
       <r>  -30.5187    1.0000 </r>
       <r>  -30.5139    1.0000 </r>
       <r>  -30.5049    1.0000 </r>
       <r>  -30.4891    1.0000 </r>
       <r>  -30.4754    1.0000 </r>
       <r>  -30.4683    1.0000 </r>
       <r>  -30.4383    1.0000 </r>
       <r>  -30.4230    1.0000 </r>
       <r>  -30.4162    1.0000 </r>
       <r>  -30.4009    1.0000 </r>
       <r>  -30.3882    1.0000 </r>
       <r>  -30.3748    1.0000 </r>
       <r>  -30.3734    1.0000 </r>
       <r>  -30.3645    1.0000 </r>
       <r>  -30.3611    1.0000 </r>
       <r>  -30.3509    1.0000 </r>
       <r>  -30.3396    1.0000 </r>
       <r>  -30.3297    1.0000 </r>
       <r>  -30.3218    1.0000 </r>
       <r>  -30.3084    1.0000 </r>
       <r>  -30.3055    1.0000 </r>
       <r>  -30.3023    1.0000 </r>
       <r>  -30.2840    1.0000 </r>
       <r>  -30.2751    1.0000 </r>
       <r>  -30.2723    1.0000 </r>
       <r>  -30.2632    1.0000 </r>
       <r>  -30.2493    1.0000 </r>
       <r>  -30.2460    1.0000 </r>
       <r>  -30.2338    1.0000 </r>
       <r>  -30.2247    1.0000 </r>
       <r>  -30.2159    1.0000 </r>
       <r>  -30.2094    1.0000 </r>
       <r>  -30.2047    1.0000 </r>
       <r>  -30.1993    1.0000 </r>
       <r>  -30.1951    1.0000 </r>
       <r>  -30.1921    1.0000 </r>
       <r>  -30.1870    1.0000 </r>
       <r>  -30.1708    1.0000 </r>
       <r>  -30.1684    1.0000 </r>
       <r>  -30.1590    1.0000 </r>
       <r>  -30.1518    1.0000 </r>
       <r>  -30.1428    1.0000 </r>
       <r>  -30.1338    1.0000 </r>
       <r>  -30.1280    1.0000 </r>
       <r>  -30.1177    1.0000 </r>
       <r>  -30.1075    1.0000 </r>
       <r>  -30.1044    1.0000 </r>
       <r>  -30.0976    1.0000 </r>
       <r>  -30.0884    1.0000 </r>
       <r>  -30.0839    1.0000 </r>
       <r>  -30.0759    1.0000 </r>
       <r>  -30.0655    1.0000 </r>
       <r>  -30.0594    1.0000 </r>
       <r>  -30.0482    1.0000 </r>
       <r>  -30.0451    1.0000 </r>
       <r>  -30.0309    1.0000 </r>
       <r>  -30.0265    1.0000 </r>
       <r>  -30.0100    1.0000 </r>
       <r>  -29.9902    1.0000 </r>
       <r>  -29.9878    1.0000 </r>
       <r>  -29.9817    1.0000 </r>
       <r>  -29.9798    1.0000 </r>
       <r>  -29.9710    1.0000 </r>
       <r>  -29.9583    1.0000 </r>
       <r>  -29.9464    1.0000 </r>
       <r>  -29.9403    1.0000 </r>
       <r>  -29.9365    1.0000 </r>
       <r>  -29.9179    1.0000 </r>
       <r>  -29.9087    1.0000 </r>
       <r>  -29.9032    1.0000 </r>
       <r>  -29.8924    1.0000 </r>
       <r>  -29.8722    1.0000 </r>
       <r>  -29.8521    1.0000 </r>
       <r>  -29.8497    1.0000 </r>
       <r>  -29.8411    1.0000 </r>
       <r>  -29.8238    1.0000 </r>
       <r>  -29.7958    1.0000 </r>
       <r>  -29.7858    1.0000 </r>
       <r>  -29.7566    1.0000 </r>
       <r>  -29.7420    1.0000 </r>
       <r>  -27.1130    1.0000 </r>
       <r>  -26.9977    1.0000 </r>
       <r>  -26.9182    1.0000 </r>
       <r>  -26.8931    1.0000 </r>
       <r>  -26.8523    1.0000 </r>
       <r>  -26.8233    1.0000 </r>
       <r>  -26.8209    1.0000 </r>
       <r>  -26.8031    1.0000 </r>
       <r>  -26.7817    1.0000 </r>
       <r>  -26.7579    1.0000 </r>
       <r>  -26.7327    1.0000 </r>
       <r>  -26.7244    1.0000 </r>
       <r>  -26.7042    1.0000 </r>
       <r>  -26.6947    1.0000 </r>
       <r>  -26.6858    1.0000 </r>
       <r>  -26.6567    1.0000 </r>
       <r>  -26.6027    1.0000 </r>
       <r>  -26.5722    1.0000 </r>
       <r>  -26.5464    1.0000 </r>
       <r>  -26.5343    1.0000 </r>
       <r>  -26.5176    1.0000 </r>
       <r>  -26.4594    1.0000 </r>
       <r>  -26.4387    1.0000 </r>
       <r>  -26.3990    1.0000 </r>
       <r>  -26.3889    1.0000 </r>
       <r>  -26.3812    1.0000 </r>
       <r>  -26.3220    1.0000 </r>
       <r>  -26.2831    1.0000 </r>
       <r>  -26.1298    1.0000 </r>
       <r>  -26.0075    1.0000 </r>
       <r>  -25.9368    1.0000 </r>
       <r>  -25.8333    1.0000 </r>
       <r>  -12.0879    1.0000 </r>
       <r>  -11.7189    1.0000 </r>
       <r>  -11.6725    1.0000 </r>
       <r>  -11.6410    1.0000 </r>
       <r>  -11.6231    1.0000 </r>
       <r>  -11.5978    1.0000 </r>
       <r>  -11.5554    1.0000 </r>
       <r>  -11.1430    1.0000 </r>
       <r>  -11.1397    1.0000 </r>
       <r>  -11.0655    1.0000 </r>
       <r>  -11.0412    1.0000 </r>
       <r>  -11.0061    1.0000 </r>
       <r>  -10.9972    1.0000 </r>
       <r>  -10.9812    1.0000 </r>
       <r>  -10.8872    1.0000 </r>
       <r>  -10.8317    1.0000 </r>
       <r>   -9.4305    1.0000 </r>
       <r>   -9.4056    1.0000 </r>
       <r>   -9.3320    1.0000 </r>
       <r>   -9.2795    1.0000 </r>
       <r>   -9.2543    1.0000 </r>
       <r>   -9.1860    1.0000 </r>
       <r>   -9.1576    1.0000 </r>
       <r>   -9.1339    1.0000 </r>
       <r>   -9.1169    1.0000 </r>
       <r>   -9.0909    1.0000 </r>
       <r>   -9.0763    1.0000 </r>
       <r>   -9.0601    1.0000 </r>
       <r>   -9.0243    1.0000 </r>
       <r>   -9.0163    1.0000 </r>
       <r>   -8.9935    1.0000 </r>
       <r>   -8.9870    1.0000 </r>
       <r>   -8.9827    1.0000 </r>
       <r>   -8.9731    1.0000 </r>
       <r>   -8.9513    1.0000 </r>
       <r>   -8.9314    1.0000 </r>
       <r>   -8.9177    1.0000 </r>
       <r>   -8.8907    1.0000 </r>
       <r>   -8.8827    1.0000 </r>
       <r>   -8.8571    1.0000 </r>
       <r>   -8.8446    1.0000 </r>
       <r>   -8.8320    1.0000 </r>
       <r>   -8.7881    1.0000 </r>
       <r>   -8.7832    1.0000 </r>
       <r>   -8.7801    1.0000 </r>
       <r>   -8.7701    1.0000 </r>
       <r>   -8.7479    1.0000 </r>
       <r>   -8.7260    1.0000 </r>
       <r>   -8.7212    1.0000 </r>
       <r>   -8.7140    1.0000 </r>
       <r>   -8.6898    1.0000 </r>
       <r>   -8.6733    1.0000 </r>
       <r>   -8.6636    1.0000 </r>
       <r>   -8.6567    1.0000 </r>
       <r>   -8.6449    1.0000 </r>
       <r>   -8.6205    1.0000 </r>
       <r>   -8.6140    1.0000 </r>
       <r>   -8.6012    1.0000 </r>
       <r>   -8.5965    1.0000 </r>
       <r>   -8.5811    1.0000 </r>
       <r>   -8.5765    1.0000 </r>
       <r>   -8.5584    1.0000 </r>
       <r>   -8.5577    1.0000 </r>
       <r>   -8.5457    1.0000 </r>
       <r>   -8.5282    1.0000 </r>
       <r>   -8.5179    1.0000 </r>
       <r>   -8.4943    1.0000 </r>
       <r>   -8.4806    1.0000 </r>
       <r>   -8.4722    1.0000 </r>
       <r>   -8.4647    1.0000 </r>
       <r>   -8.4472    1.0000 </r>
       <r>   -8.4425    1.0000 </r>
       <r>   -8.4343    1.0000 </r>
       <r>   -8.4160    1.0000 </r>
       <r>   -8.4129    1.0000 </r>
       <r>   -8.3932    1.0000 </r>
       <r>   -8.3918    1.0000 </r>
       <r>   -8.3719    1.0000 </r>
       <r>   -8.3627    1.0000 </r>
       <r>   -8.3567    1.0000 </r>
       <r>   -8.3468    1.0000 </r>
       <r>   -8.3442    1.0000 </r>
       <r>   -8.3082    1.0000 </r>
       <r>   -8.3004    1.0000 </r>
       <r>   -8.2925    1.0000 </r>
       <r>   -8.2705    1.0000 </r>
       <r>   -8.2602    1.0000 </r>
       <r>   -8.2439    1.0000 </r>
       <r>   -8.2420    1.0000 </r>
       <r>   -8.1990    1.0000 </r>
       <r>   -8.1826    1.0000 </r>
       <r>   -8.1712    1.0000 </r>
       <r>   -8.1586    1.0000 </r>
       <r>   -8.1475    1.0000 </r>
       <r>   -8.1383    1.0000 </r>
       <r>   -8.0981    1.0000 </r>
       <r>   -8.0743    1.0000 </r>
       <r>   -8.0612    1.0000 </r>
       <r>   -8.0454    1.0000 </r>
       <r>   -8.0124    1.0000 </r>
       <r>   -7.9862    1.0000 </r>
       <r>   -7.9716    1.0000 </r>
       <r>   -7.8652    1.0000 </r>
       <r>   -7.8592    1.0000 </r>
       <r>   -7.8043    1.0000 </r>
       <r>   -7.7907    1.0000 </r>
       <r>   -7.7714    1.0000 </r>
       <r>   -7.7239    1.0000 </r>
       <r>   -7.7079    1.0000 </r>
       <r>   -7.6110    1.0000 </r>
       <r>   -7.5598    1.0000 </r>
       <r>   -7.4762    1.0000 </r>
       <r>   -5.1934    1.0000 </r>
       <r>   -5.1442    1.0000 </r>
       <r>   -5.1002    1.0000 </r>
       <r>   -4.9104    1.0000 </r>
       <r>   -4.8896    1.0000 </r>
       <r>   -4.8655    1.0000 </r>
       <r>   -4.8439    1.0000 </r>
       <r>   -4.7812    1.0000 </r>
       <r>   -4.7612    1.0000 </r>
       <r>   -4.4832    1.0000 </r>
       <r>   -4.3930    1.0000 </r>
       <r>   -4.3550    1.0000 </r>
       <r>   -4.3298    1.0000 </r>
       <r>   -4.3161    1.0000 </r>
       <r>   -4.2851    1.0000 </r>
       <r>   -4.2770    1.0000 </r>
       <r>   -4.2410    1.0000 </r>
       <r>   -4.2226    1.0000 </r>
       <r>   -4.2043    1.0000 </r>
       <r>   -4.1835    1.0000 </r>
       <r>   -4.1628    1.0000 </r>
       <r>   -4.1450    1.0000 </r>
       <r>   -4.1228    1.0000 </r>
       <r>   -4.1137    1.0000 </r>
       <r>   -4.0910    1.0000 </r>
       <r>   -4.0635    1.0000 </r>
       <r>   -4.0452    1.0000 </r>
       <r>   -4.0255    1.0000 </r>
       <r>   -3.9799    1.0000 </r>
       <r>   -3.9542    1.0000 </r>
       <r>   -3.9404    1.0000 </r>
       <r>   -3.9214    1.0000 </r>
       <r>   -3.9038    1.0000 </r>
       <r>   -3.8979    1.0000 </r>
       <r>   -3.8401    1.0000 </r>
       <r>   -3.7108    1.0000 </r>
       <r>   -3.6372    1.0000 </r>
       <r>   -3.4120    1.0000 </r>
       <r>   -3.3214    1.0000 </r>
       <r>   -3.2605    1.0000 </r>
       <r>   -3.2085    1.0000 </r>
       <r>   -3.1987    1.0000 </r>
       <r>   -3.1381    1.0000 </r>
       <r>   -3.1258    1.0000 </r>
       <r>   -3.0906    1.0000 </r>
       <r>   -3.0353    1.0000 </r>
       <r>   -2.8764    1.0000 </r>
       <r>   -2.8066    1.0000 </r>
       <r>   -1.9032    0.0000 </r>
       <r>   -1.8780    0.0000 </r>
       <r>   -1.8367    0.0000 </r>
       <r>   -1.3117    0.0000 </r>
       <r>   -1.2536    0.0000 </r>
       <r>   -1.2321    0.0000 </r>
       <r>   -1.2029    0.0000 </r>
       <r>   -1.1628    0.0000 </r>
       <r>   -1.1347    0.0000 </r>
       <r>   -0.5154    0.0000 </r>
       <r>   -0.4791    0.0000 </r>
       <r>   -0.4667    0.0000 </r>
       <r>   -0.4358    0.0000 </r>
       <r>   -0.3730    0.0000 </r>
       <r>   -0.3413    0.0000 </r>
       <r>   -0.3385    0.0000 </r>
       <r>   -0.2826    0.0000 </r>
       <r>   -0.2312    0.0000 </r>
       <r>   -0.1949    0.0000 </r>
       <r>   -0.1653    0.0000 </r>
       <r>   -0.1170    0.0000 </r>
       <r>   -0.0801    0.0000 </r>
       <r>   -0.0448    0.0000 </r>
       <r>    0.0050    0.0000 </r>
       <r>    0.2786    0.0000 </r>
       <r>    0.3240    0.0000 </r>
       <r>    0.3455    0.0000 </r>
       <r>    0.3826    0.0000 </r>
       <r>    0.4080    0.0000 </r>
       <r>    0.4283    0.0000 </r>
       <r>    0.4513    0.0000 </r>
       <r>    0.4685    0.0000 </r>
       <r>    0.5030    0.0000 </r>
       <r>    0.5213    0.0000 </r>
       <r>    0.5449    0.0000 </r>
       <r>    0.5551    0.0000 </r>
       <r>    0.5682    0.0000 </r>
       <r>    0.6380    0.0000 </r>
       <r>    0.6434    0.0000 </r>
       <r>    0.6778    0.0000 </r>
       <r>    0.7140    0.0000 </r>
       <r>    0.7392    0.0000 </r>
       <r>    0.7502    0.0000 </r>
       <r>    0.7829    0.0000 </r>
       <r>    0.8032    0.0000 </r>
       <r>    0.8095    0.0000 </r>
       <r>    0.8587    0.0000 </r>
       <r>    0.8824    0.0000 </r>
       <r>    0.9150    0.0000 </r>
       <r>    0.9457    0.0000 </r>
       <r>    0.9576    0.0000 </r>
       <r>    0.9736    0.0000 </r>
       <r>    0.9876    0.0000 </r>
       <r>    1.0044    0.0000 </r>
       <r>    1.0162    0.0000 </r>
       <r>    1.0378    0.0000 </r>
       <r>    1.0481    0.0000 </r>
       <r>    1.0763    0.0000 </r>
       <r>    1.0812    0.0000 </r>
       <r>    1.0901    0.0000 </r>
       <r>    1.1342    0.0000 </r>
       <r>    1.1465    0.0000 </r>
       <r>    1.1586    0.0000 </r>
       <r>    1.1978    0.0000 </r>
      </set>
      <set comment="kpoint 2">
       <r>  -51.8285    1.0000 </r>
       <r>  -51.7861    1.0000 </r>
       <r>  -51.7808    1.0000 </r>
       <r>  -51.6985    1.0000 </r>
       <r>  -51.6743    1.0000 </r>
       <r>  -51.6612    1.0000 </r>
       <r>  -51.6543    1.0000 </r>
       <r>  -51.6423    1.0000 </r>
       <r>  -51.6278    1.0000 </r>
       <r>  -51.6210    1.0000 </r>
       <r>  -51.5730    1.0000 </r>
       <r>  -51.5254    1.0000 </r>
       <r>  -51.5093    1.0000 </r>
       <r>  -51.4997    1.0000 </r>
       <r>  -51.4986    1.0000 </r>
       <r>  -51.4892    1.0000 </r>
       <r>  -51.4802    1.0000 </r>
       <r>  -51.4780    1.0000 </r>
       <r>  -51.4740    1.0000 </r>
       <r>  -51.4506    1.0000 </r>
       <r>  -51.4247    1.0000 </r>
       <r>  -51.4082    1.0000 </r>
       <r>  -51.3950    1.0000 </r>
       <r>  -51.3471    1.0000 </r>
       <r>  -51.3255    1.0000 </r>
       <r>  -51.2979    1.0000 </r>
       <r>  -51.2836    1.0000 </r>
       <r>  -51.2790    1.0000 </r>
       <r>  -51.2317    1.0000 </r>
       <r>  -51.2247    1.0000 </r>
       <r>  -51.0960    1.0000 </r>
       <r>  -51.0802    1.0000 </r>
       <r>  -30.8085    1.0000 </r>
       <r>  -30.7358    1.0000 </r>
       <r>  -30.6989    1.0000 </r>
       <r>  -30.6836    1.0000 </r>
       <r>  -30.6743    1.0000 </r>
       <r>  -30.6421    1.0000 </r>
       <r>  -30.6288    1.0000 </r>
       <r>  -30.6203    1.0000 </r>
       <r>  -30.6094    1.0000 </r>
       <r>  -30.5921    1.0000 </r>
       <r>  -30.5842    1.0000 </r>
       <r>  -30.5825    1.0000 </r>
       <r>  -30.5633    1.0000 </r>
       <r>  -30.5528    1.0000 </r>
       <r>  -30.5469    1.0000 </r>
       <r>  -30.5349    1.0000 </r>
       <r>  -30.5215    1.0000 </r>
       <r>  -30.5181    1.0000 </r>
       <r>  -30.5034    1.0000 </r>
       <r>  -30.4964    1.0000 </r>
       <r>  -30.4814    1.0000 </r>
       <r>  -30.4617    1.0000 </r>
       <r>  -30.4462    1.0000 </r>
       <r>  -30.4215    1.0000 </r>
       <r>  -30.4075    1.0000 </r>
       <r>  -30.4044    1.0000 </r>
       <r>  -30.3961    1.0000 </r>
       <r>  -30.3886    1.0000 </r>
       <r>  -30.3825    1.0000 </r>
       <r>  -30.3634    1.0000 </r>
       <r>  -30.3602    1.0000 </r>
       <r>  -30.3543    1.0000 </r>
       <r>  -30.3371    1.0000 </r>
       <r>  -30.3295    1.0000 </r>
       <r>  -30.3233    1.0000 </r>
       <r>  -30.3104    1.0000 </r>
       <r>  -30.3018    1.0000 </r>
       <r>  -30.2920    1.0000 </r>
       <r>  -30.2860    1.0000 </r>
       <r>  -30.2800    1.0000 </r>
       <r>  -30.2686    1.0000 </r>
       <r>  -30.2573    1.0000 </r>
       <r>  -30.2500    1.0000 </r>
       <r>  -30.2383    1.0000 </r>
       <r>  -30.2354    1.0000 </r>
       <r>  -30.2244    1.0000 </r>
       <r>  -30.2184    1.0000 </r>
       <r>  -30.2065    1.0000 </r>
       <r>  -30.2054    1.0000 </r>
       <r>  -30.1969    1.0000 </r>
       <r>  -30.1919    1.0000 </r>
       <r>  -30.1879    1.0000 </r>
       <r>  -30.1812    1.0000 </r>
       <r>  -30.1698    1.0000 </r>
       <r>  -30.1651    1.0000 </r>
       <r>  -30.1587    1.0000 </r>
       <r>  -30.1490    1.0000 </r>
       <r>  -30.1414    1.0000 </r>
       <r>  -30.1357    1.0000 </r>
       <r>  -30.1256    1.0000 </r>
       <r>  -30.1160    1.0000 </r>
       <r>  -30.1060    1.0000 </r>
       <r>  -30.1005    1.0000 </r>
       <r>  -30.0938    1.0000 </r>
       <r>  -30.0873    1.0000 </r>
       <r>  -30.0825    1.0000 </r>
       <r>  -30.0762    1.0000 </r>
       <r>  -30.0649    1.0000 </r>
       <r>  -30.0595    1.0000 </r>
       <r>  -30.0499    1.0000 </r>
       <r>  -30.0444    1.0000 </r>
       <r>  -30.0309    1.0000 </r>
       <r>  -30.0211    1.0000 </r>
       <r>  -30.0052    1.0000 </r>
       <r>  -29.9966    1.0000 </r>
       <r>  -29.9867    1.0000 </r>
       <r>  -29.9858    1.0000 </r>
       <r>  -29.9803    1.0000 </r>
       <r>  -29.9650    1.0000 </r>
       <r>  -29.9533    1.0000 </r>
       <r>  -29.9481    1.0000 </r>
       <r>  -29.9405    1.0000 </r>
       <r>  -29.9354    1.0000 </r>
       <r>  -29.9222    1.0000 </r>
       <r>  -29.9109    1.0000 </r>
       <r>  -29.9067    1.0000 </r>
       <r>  -29.8976    1.0000 </r>
       <r>  -29.8774    1.0000 </r>
       <r>  -29.8550    1.0000 </r>
       <r>  -29.8503    1.0000 </r>
       <r>  -29.8402    1.0000 </r>
       <r>  -29.8243    1.0000 </r>
       <r>  -29.7973    1.0000 </r>
       <r>  -29.7880    1.0000 </r>
       <r>  -29.7568    1.0000 </r>
       <r>  -29.7424    1.0000 </r>
       <r>  -27.1125    1.0000 </r>
       <r>  -26.9976    1.0000 </r>
       <r>  -26.9181    1.0000 </r>
       <r>  -26.8934    1.0000 </r>
       <r>  -26.8510    1.0000 </r>
       <r>  -26.8244    1.0000 </r>
       <r>  -26.8199    1.0000 </r>
       <r>  -26.8036    1.0000 </r>
       <r>  -26.7812    1.0000 </r>
       <r>  -26.7579    1.0000 </r>
       <r>  -26.7332    1.0000 </r>
       <r>  -26.7259    1.0000 </r>
       <r>  -26.7043    1.0000 </r>
       <r>  -26.6946    1.0000 </r>
       <r>  -26.6855    1.0000 </r>
       <r>  -26.6564    1.0000 </r>
       <r>  -26.6027    1.0000 </r>
       <r>  -26.5724    1.0000 </r>
       <r>  -26.5460    1.0000 </r>
       <r>  -26.5345    1.0000 </r>
       <r>  -26.5176    1.0000 </r>
       <r>  -26.4583    1.0000 </r>
       <r>  -26.4404    1.0000 </r>
       <r>  -26.3984    1.0000 </r>
       <r>  -26.3889    1.0000 </r>
       <r>  -26.3814    1.0000 </r>
       <r>  -26.3220    1.0000 </r>
       <r>  -26.2831    1.0000 </r>
       <r>  -26.1298    1.0000 </r>
[...]
       <r>   -32.3050     0.0000    64.0000 </r>
       <r>   -32.1105     0.0000    64.0000 </r>
       <r>   -31.9159     0.0000    64.0000 </r>
       <r>   -31.7214     0.0000    64.0000 </r>
       <r>   -31.5269     0.0000    64.0000 </r>
       <r>   -31.3324     0.0000    64.0000 </r>
       <r>   -31.1378     0.0000    64.0000 </r>
       <r>   -30.9433     0.0008    64.0002 </r>
       <r>   -30.7488    14.7540    66.8702 </r>
       <r>   -30.5542   126.2501    91.4293 </r>
       <r>   -30.3597   169.9356   124.4865 </r>
       <r>   -30.1652   247.1022   172.5547 </r>
       <r>   -29.9707   241.9445   219.6196 </r>
       <r>   -29.7761   163.2223   251.3708 </r>
       <r>   -29.5816    23.7969   256.0000 </r>
       <r>   -29.3871     0.0000   256.0000 </r>
       <r>   -29.1926     0.0000   256.0000 </r>
       <r>   -28.9980     0.0000   256.0000 </r>
       <r>   -28.8035     0.0000   256.0000 </r>
       <r>   -28.6090     0.0000   256.0000 </r>
       <r>   -28.4144     0.0000   256.0000 </r>
       <r>   -28.2199     0.0000   256.0000 </r>
       <r>   -28.0254     0.0000   256.0000 </r>
       <r>   -27.8309     0.0000   256.0000 </r>
       <r>   -27.6363     0.0000   256.0000 </r>
       <r>   -27.4418     0.0000   256.0000 </r>
       <r>   -27.2473     0.0007   256.0001 </r>
       <r>   -27.0527    10.4232   258.0277 </r>
       <r>   -26.8582    36.9361   265.2128 </r>
       <r>   -26.6637   104.9621   285.6309 </r>
       <r>   -26.4692    68.6531   298.9858 </r>
       <r>   -26.2746    61.7823   311.0041 </r>
       <r>   -26.0801    14.7875   313.8807 </r>
       <r>   -25.8856    21.1307   317.9912 </r>
       <r>   -25.6911    10.3261   319.9999 </r>
       <r>   -25.4965     0.0003   320.0000 </r>
       <r>   -25.3020     0.0000   320.0000 </r>
       <r>   -25.1075     0.0000   320.0000 </r>
       <r>   -24.9129     0.0000   320.0000 </r>
       <r>   -24.7184     0.0000   320.0000 </r>
       <r>   -24.5239     0.0000   320.0000 </r>
       <r>   -24.3294     0.0000   320.0000 </r>
       <r>   -24.1348     0.0000   320.0000 </r>
       <r>   -23.9403     0.0000   320.0000 </r>
       <r>   -23.7458     0.0000   320.0000 </r>
       <r>   -23.5513     0.0000   320.0000 </r>
       <r>   -23.3567     0.0000   320.0000 </r>
       <r>   -23.1622     0.0000   320.0000 </r>
       <r>   -22.9677     0.0000   320.0000 </r>
       <r>   -22.7731     0.0000   320.0000 </r>
       <r>   -22.5786     0.0000   320.0000 </r>
       <r>   -22.3841     0.0000   320.0000 </r>
       <r>   -22.1896     0.0000   320.0000 </r>
       <r>   -21.9950     0.0000   320.0000 </r>
       <r>   -21.8005     0.0000   320.0000 </r>
       <r>   -21.6060     0.0000   320.0000 </r>
       <r>   -21.4114     0.0000   320.0000 </r>
       <r>   -21.2169     0.0000   320.0000 </r>
       <r>   -21.0224     0.0000   320.0000 </r>
       <r>   -20.8279     0.0000   320.0000 </r>
       <r>   -20.6333     0.0000   320.0000 </r>
       <r>   -20.4388     0.0000   320.0000 </r>
       <r>   -20.2443     0.0000   320.0000 </r>
       <r>   -20.0498     0.0000   320.0000 </r>
       <r>   -19.8552     0.0000   320.0000 </r>
       <r>   -19.6607     0.0000   320.0000 </r>
       <r>   -19.4662     0.0000   320.0000 </r>
       <r>   -19.2716     0.0000   320.0000 </r>
       <r>   -19.0771     0.0000   320.0000 </r>
       <r>   -18.8826     0.0000   320.0000 </r>
       <r>   -18.6881     0.0000   320.0000 </r>
       <r>   -18.4935     0.0000   320.0000 </r>
       <r>   -18.2990     0.0000   320.0000 </r>
       <r>   -18.1045     0.0000   320.0000 </r>
       <r>   -17.9100     0.0000   320.0000 </r>
       <r>   -17.7154     0.0000   320.0000 </r>
       <r>   -17.5209     0.0000   320.0000 </r>
       <r>   -17.3264     0.0000   320.0000 </r>
       <r>   -17.1318     0.0000   320.0000 </r>
       <r>   -16.9373     0.0000   320.0000 </r>
       <r>   -16.7428     0.0000   320.0000 </r>
       <r>   -16.5483     0.0000   320.0000 </r>
       <r>   -16.3537     0.0000   320.0000 </r>
       <r>   -16.1592     0.0000   320.0000 </r>
       <r>   -15.9647     0.0000   320.0000 </r>
       <r>   -15.7701     0.0000   320.0000 </r>
       <r>   -15.5756     0.0000   320.0000 </r>
       <r>   -15.3811     0.0000   320.0000 </r>
       <r>   -15.1866     0.0000   320.0000 </r>
       <r>   -14.9920     0.0000   320.0000 </r>
       <r>   -14.7975     0.0000   320.0000 </r>
       <r>   -14.6030     0.0000   320.0000 </r>
       <r>   -14.4085     0.0000   320.0000 </r>
       <r>   -14.2139     0.0000   320.0000 </r>
       <r>   -14.0194     0.0000   320.0000 </r>
       <r>   -13.8249     0.0000   320.0000 </r>
       <r>   -13.6303     0.0000   320.0000 </r>
       <r>   -13.4358     0.0000   320.0000 </r>
       <r>   -13.2413     0.0000   320.0000 </r>
       <r>   -13.0468     0.0000   320.0000 </r>
       <r>   -12.8522     0.0000   320.0000 </r>
       <r>   -12.6577     0.0000   320.0000 </r>
       <r>   -12.4632     0.0000   320.0000 </r>
       <r>   -12.2686     0.0000   320.0000 </r>
       <r>   -12.0741     1.7552   320.3414 </r>
       <r>   -11.8796    14.7531   323.2113 </r>
       <r>   -11.6851    17.9632   326.7057 </r>
       <r>   -11.4905    16.9421   330.0014 </r>
       <r>   -11.2960    21.7536   334.2330 </r>
       <r>   -11.1015    31.4288   340.3468 </r>
       <r>   -10.9070    36.9104   347.5269 </r>
       <r>   -10.7124    22.9035   351.9823 </r>
       <r>   -10.5179     0.0911   352.0000 </r>
       <r>   -10.3234     0.0000   352.0000 </r>
       <r>   -10.1288     0.0000   352.0000 </r>
       <r>    -9.9343     0.0000   352.0000 </r>
       <r>    -9.7398     0.0000   352.0000 </r>
       <r>    -9.5453     0.0017   352.0003 </r>
       <r>    -9.3507    20.3005   355.9493 </r>
       <r>    -9.1562    48.5968   365.4028 </r>
       <r>    -8.9617   112.5778   387.3023 </r>
       <r>    -8.7672   120.6557   410.7731 </r>
       <r>    -8.5726   158.0391   441.5161 </r>
       <r>    -8.3781   171.7028   474.9170 </r>
       <r>    -8.1836   139.6181   502.0766 </r>
       <r>    -7.9890    95.8186   520.7160 </r>
       <r>    -7.7945    49.5367   530.3522 </r>
       <r>    -7.6000    46.6392   539.4248 </r>
       <r>    -7.4055    23.2698   543.9515 </r>
       <r>    -7.2109     0.2496   544.0000 </r>
       <r>    -7.0164     0.0000   544.0000 </r>
       <r>    -6.8219     0.0000   544.0000 </r>
       <r>    -6.6273     0.0000   544.0000 </r>
       <r>    -6.4328     0.0000   544.0000 </r>
       <r>    -6.2383     0.0000   544.0000 </r>
       <r>    -6.0438     0.0000   544.0000 </r>
       <r>    -5.8492     0.0000   544.0000 </r>
       <r>    -5.6547     0.0000   544.0000 </r>
       <r>    -5.4602     0.0000   544.0000 </r>
       <r>    -5.2657     0.0244   544.0048 </r>
       <r>    -5.0711    17.3090   547.3718 </r>
       <r>    -4.8766    45.7991   556.2810 </r>
       <r>    -4.6821    34.8272   563.0559 </r>
       <r>    -4.4875    19.3186   566.8139 </r>
       <r>    -4.2930    40.0487   574.6044 </r>
       <r>    -4.0985    46.9402   583.7356 </r>
       <r>    -3.9040   101.1880   603.4195 </r>
       <r>    -3.7094    47.1921   612.5996 </r>
       <r>    -3.5149    37.9609   619.9841 </r>
       <r>    -3.3204    37.0883   627.1988 </r>
       <r>    -3.1259    32.2211   633.4667 </r>
       <r>    -2.9313    24.4671   638.2262 </r>
       <r>    -2.7368     9.0883   639.9941 </r>
       <r>    -2.5423     0.0301   640.0000 </r>
       <r>    -2.3477     0.0000   640.0000 </r>
       <r>    -2.1532     0.0000   640.0000 </r>
       <r>    -1.9587     0.0800   640.0156 </r>
       <r>    -1.7642     8.9246   641.7516 </r>
       <r>    -1.5696    12.7255   644.2271 </r>
       <r>    -1.3751    20.6071   648.2357 </r>
       <r>    -1.1806    14.7064   651.0965 </r>
       <r>    -0.9860    20.9093   655.1640 </r>
       <r>    -0.7915    26.1396   660.2489 </r>
       <r>    -0.5970    21.0250   664.3388 </r>
       <r>    -0.4025    34.0456   670.9616 </r>
       <r>    -0.2079    30.6418   676.9223 </r>
       <r>    -0.0134    34.6616   683.6649 </r>
       <r>     0.1811    25.8139   688.6864 </r>
       <r>     0.3756    29.6713   694.4583 </r>
       <r>     0.5702    44.5464   703.1238 </r>
       <r>     0.7647    95.7779   721.7553 </r>
       <r>     0.9592   108.2569   742.8142 </r>
       <r>     1.1538   100.1096   762.2883 </r>
       <r>     1.3483    29.3611   767.9998 </r>
       <r>     1.5428     0.0008   768.0000 </r>
       <r>     1.7373     0.0000   768.0000 </r>
       <r>     1.9319     0.0000   768.0000 </r>
       <r>     2.1264     0.0000   768.0000 </r>
       <r>     2.3209     0.0000   768.0000 </r>
       <r>     2.5154     0.0000   768.0000 </r>
       <r>     2.7100     0.0000   768.0000 </r>
       <r>     2.9045     0.0000   768.0000 </r>
       <r>     3.0990     0.0000   768.0000 </r>
       <r>     3.2936     0.0000   768.0000 </r>
       <r>     3.4881     0.0000   768.0000 </r>
       <r>     3.6826     0.0000   768.0000 </r>
       <r>     3.8771     0.0000   768.0000 </r>
      </set>
     </set>
    </array>
   </total>
  </dos>
 </calculation>
 <structure name="finalpos" >
  <crystal>
   <varray name="basis" >
    <v>      13.12862340       0.00000000       0.00000000 </v>
    <v>      -6.56431170      11.36972138       0.00000000 </v>
    <v>       0.00000000       0.00000000      26.82809424 </v>
   </varray>
   <i name="volume">   4004.59716953 </i>
   <varray name="rec_basis" >
    <v>       0.07616945       0.04397645       0.00000000 </v>
    <v>       0.00000000       0.08795290       0.00000000 </v>
    <v>       0.00000000       0.00000000       0.03727436 </v>
   </varray>
  </crystal>
  <varray name="positions" >
   <v>       0.07908965       0.16815967       0.45594228 </v>
   <v>       0.08104754       0.41359120       0.45199533 </v>
   <v>       0.08089485       0.65824421       0.44811186 </v>
   <v>       0.07048144       0.91500172       0.45510611 </v>
   <v>       0.32883659       0.15988747       0.44850347 </v>
   <v>       0.33011298       0.41826948       0.45564730 </v>
   <v>       0.34022855       0.67411445       0.45299305 </v>
   <v>       0.33490495       0.91265001       0.45035527 </v>
   <v>       0.58480557       0.16919890       0.44982712 </v>
   <v>       0.57053387       0.40897764       0.45467779 </v>
   <v>       0.58491947       0.66259920       0.45182867 </v>
   <v>       0.59101345       0.92460724       0.45062456 </v>
   <v>       0.83520639       0.17485349       0.45299014 </v>
   <v>       0.82955732       0.42095974       0.45141051 </v>
   <v>       0.82499913       0.66225099       0.44995795 </v>
   <v>       0.82911097       0.91649084       0.45632783 </v>
   <v>       0.15873542       0.07820419       0.54849277 </v>
   <v>       0.17139054       0.33000595       0.54804192 </v>
   <v>       0.17450102       0.58874731       0.54513832 </v>
   <v>       0.16096094       0.82310898       0.54921430 </v>
   <v>       0.40141503       0.07273354       0.54604887 </v>
   <v>       0.41677429       0.32753827       0.54961624 </v>
   <v>       0.42340254       0.59095936       0.54938092 </v>
   <v>       0.42652888       0.83432261       0.54698000 </v>
   <v>       0.66897368       0.08699217       0.54495887 </v>
   <v>       0.66521239       0.33331198       0.54389727 </v>
   <v>       0.66416862       0.57967924       0.54413875 </v>
   <v>       0.67247103       0.83564222       0.54514646 </v>
   <v>       0.92351715       0.09053621       0.55095680 </v>
   <v>       0.91870045       0.34095795       0.54934176 </v>
   <v>       0.91848546       0.58966718       0.54919884 </v>
   <v>       0.91040061       0.82782888       0.54712449 </v>
   <v>       0.07844572       0.15429714       0.59324344 </v>
   <v>       0.08878874       0.42164586       0.58907815 </v>
   <v>       0.09104661       0.66752100       0.58853363 </v>
   <v>       0.08534521       0.91715734       0.59107003 </v>
   <v>       0.32446454       0.15778430       0.58822527 </v>
   <v>       0.34883933       0.42774724       0.59828788 </v>
   <v>       0.35985212       0.67630756       0.59193302 </v>
   <v>       0.31786135       0.91377903       0.59096883 </v>
   <v>       0.57726145       0.16015135       0.58858723 </v>
   <v>       0.59299520       0.42838306       0.59548273 </v>
   <v>       0.59306137       0.67429263       0.59093627 </v>
   <v>       0.59551289       0.92737398       0.59074521 </v>
   <v>       0.84030419       0.18108102       0.59275485 </v>
   <v>       0.83895665       0.42023054       0.59008513 </v>
   <v>       0.82574423       0.66479854       0.58959951 </v>
   <v>       0.83513483       0.92137434       0.59182377 </v>
   <v>       0.15359340       0.06593002       0.41138784 </v>
   <v>       0.16895102       0.34019992       0.41161080 </v>
   <v>       0.18011078       0.59643074       0.40836426 </v>
   <v>       0.17387639       0.83868549       0.40640540 </v>
   <v>       0.42058418       0.08912359       0.40879714 </v>
   <v>       0.41259770       0.33104258       0.40815187 </v>
   <v>       0.41266363       0.57669551       0.41283987 </v>
   <v>       0.42576451       0.83396269       0.40874558 </v>
   <v>       0.68212682       0.08687909       0.41053572 </v>
   <v>       0.65430119       0.33260003       0.41037910 </v>
   <v>       0.66232092       0.58262146       0.40851673 </v>
   <v>       0.67922065       0.84181997       0.40854600 </v>
   <v>       0.91848251       0.08286179       0.41548341 </v>
   <v>       0.91982510       0.33118322       0.40857617 </v>
   <v>       0.91654101       0.57659607       0.40585694 </v>
   <v>       0.91742182       0.82295983       0.40854328 </v>
   <v>       0.00080866       0.00094520       0.50383699 </v>
   <v>       0.00210997       0.25228173       0.50312813 </v>
   <v>       0.00668199       0.50858726       0.49813868 </v>
   <v>       0.98900691       0.74445229       0.49676034 </v>
   <v>       0.24068446       0.99000993       0.50034949 </v>
   <v>       0.24748814       0.24975699       0.49963431 </v>
   <v>       0.23950486       0.49438510       0.50224120 </v>
   <v>       0.25243267       0.75239524       0.50153480 </v>
   <v>       0.50195661       0.00307946       0.49827491 </v>
   <v>       0.49318713       0.24134923       0.49992658 </v>
   <v>       0.49436871       0.49410501       0.50153651 </v>
   <v>       0.50201870       0.74048688       0.49689441 </v>
   <v>       0.74487028       0.99458359       0.50153231 </v>
   <v>       0.75031589       0.25713165       0.49639084 </v>
   <v>       0.74728659       0.49639203       0.50061405 </v>
   <v>       0.74888179       0.74830899       0.49945776 </v>
  </varray>
  <varray name="velocities" >
   <v>       0.00000000       0.00000000       0.00000000 </v>
   <v>       0.00000000       0.00000000       0.00000000 </v>
   <v>       0.00000000       0.00000000       0.00000000 </v>
   <v>       0.00000000       0.00000000       0.00000000 </v>
   <v>       0.00000000       0.00000000       0.00000000 </v>
   <v>       0.00000000       0.00000000       0.00000000 </v>
   <v>       0.00000000       0.00000000       0.00000000 </v>
   <v>       0.00000000       0.00000000       0.00000000 </v>
   <v>       0.00000000       0.00000000       0.00000000 </v>
   <v>       0.00000000       0.00000000       0.00000000 </v>
   <v>       0.00000000       0.00000000       0.00000000 </v>
   <v>       0.00000000       0.00000000       0.00000000 </v>
   <v>       0.00000000       0.00000000       0.00000000 </v>
   <v>       0.00000000       0.00000000       0.00000000 </v>
   <v>       0.00000000       0.00000000       0.00000000 </v>
   <v>       0.00000000       0.00000000       0.00000000 </v>
   <v>       0.00000000       0.00000000       0.00000000 </v>
   <v>       0.00000000       0.00000000       0.00000000 </v>
   <v>       0.00000000       0.00000000       0.00000000 </v>
   <v>       0.00000000       0.00000000       0.00000000 </v>
   <v>       0.00000000       0.00000000       0.00000000 </v>
   <v>       0.00000000       0.00000000       0.00000000 </v>
   <v>       0.00000000       0.00000000       0.00000000 </v>
   <v>       0.00000000       0.00000000       0.00000000 </v>
   <v>       0.00000000       0.00000000       0.00000000 </v>
   <v>       0.00000000       0.00000000       0.00000000 </v>
   <v>       0.00000000       0.00000000       0.00000000 </v>
   <v>       0.00000000       0.00000000       0.00000000 </v>
   <v>       0.00000000       0.00000000       0.00000000 </v>
   <v>       0.00000000       0.00000000       0.00000000 </v>
   <v>       0.00000000       0.00000000       0.00000000 </v>
   <v>       0.00000000       0.00000000       0.00000000 </v>
   <v>       0.00000000       0.00000000       0.00000000 </v>
   <v>       0.00000000       0.00000000       0.00000000 </v>
   <v>       0.00000000       0.00000000       0.00000000 </v>
   <v>       0.00000000       0.00000000       0.00000000 </v>
   <v>       0.00000000       0.00000000       0.00000000 </v>
   <v>       0.00000000       0.00000000       0.00000000 </v>
   <v>       0.00000000       0.00000000       0.00000000 </v>
   <v>       0.00000000       0.00000000       0.00000000 </v>
   <v>       0.00000000       0.00000000       0.00000000 </v>
   <v>       0.00000000       0.00000000       0.00000000 </v>
   <v>       0.00000000       0.00000000       0.00000000 </v>
   <v>       0.00000000       0.00000000       0.00000000 </v>
   <v>       0.00000000       0.00000000       0.00000000 </v>
   <v>       0.00000000       0.00000000       0.00000000 </v>
   <v>       0.00000000       0.00000000       0.00000000 </v>
   <v>       0.00000000       0.00000000       0.00000000 </v>
   <v>       0.00000000       0.00000000       0.00000000 </v>
   <v>       0.00000000       0.00000000       0.00000000 </v>
   <v>       0.00000000       0.00000000       0.00000000 </v>
   <v>       0.00000000       0.00000000       0.00000000 </v>
   <v>       0.00000000       0.00000000       0.00000000 </v>
   <v>       0.00000000       0.00000000       0.00000000 </v>
   <v>       0.00000000       0.00000000       0.00000000 </v>
   <v>       0.00000000       0.00000000       0.00000000 </v>
   <v>       0.00000000       0.00000000       0.00000000 </v>
   <v>       0.00000000       0.00000000       0.00000000 </v>
   <v>       0.00000000       0.00000000       0.00000000 </v>
   <v>       0.00000000       0.00000000       0.00000000 </v>
   <v>       0.00000000       0.00000000       0.00000000 </v>
   <v>       0.00000000       0.00000000       0.00000000 </v>
   <v>       0.00000000       0.00000000       0.00000000 </v>
   <v>       0.00000000       0.00000000       0.00000000 </v>
   <v>       0.00000000       0.00000000       0.00000000 </v>
   <v>       0.00000000       0.00000000       0.00000000 </v>
   <v>       0.00000000       0.00000000       0.00000000 </v>
   <v>       0.00000000       0.00000000       0.00000000 </v>
   <v>       0.00000000       0.00000000       0.00000000 </v>
   <v>       0.00000000       0.00000000       0.00000000 </v>
   <v>       0.00000000       0.00000000       0.00000000 </v>
   <v>       0.00000000       0.00000000       0.00000000 </v>
   <v>       0.00000000       0.00000000       0.00000000 </v>
   <v>       0.00000000       0.00000000       0.00000000 </v>
   <v>       0.00000000       0.00000000       0.00000000 </v>
   <v>       0.00000000       0.00000000       0.00000000 </v>
   <v>       0.00000000       0.00000000       0.00000000 </v>
   <v>       0.00000000       0.00000000       0.00000000 </v>
   <v>       0.00000000       0.00000000       0.00000000 </v>
   <v>       0.00000000       0.00000000       0.00000000 </v>
  </varray>
 </structure>
</modeling>
