<?xml version="1.0" encoding="ISO-8859-1"?>
<modeling>
 <generator>
  <i name="program" type="string">vasp </i>
  <i name="version" type="string">5.4.4.18Apr17-6-g9f103f2a35  </i>
  <i name="subversion" type="string">(build Mar 16 2023 09:39:13) complex            parallel </i>
  <i name="platform" type="string">LinuxIFC </i>
  <i name="date" type="string">2024 04 29 </i>
  <i name="time" type="string">20:58:08 </i>
 </generator>
 <incar>
  <i type="int" name="ISTART">     0</i>
  <i type="string" name="PREC">a</i>
  <i type="logical" name="ADDGRID"> T  </i>
  <i type="int" name="IBRION">    -1</i>
  <i name="EDIFF">      0.00000100</i>
  <i name="EDIFFG">     -0.01000000</i>
  <i type="int" name="NSW">     1</i>
  <i type="int" name="ISIF">     2</i>
  <i type="int" name="ISYM">     0</i>
  <i name="ENCUT">    600.00000000</i>
  <i name="POTIM">      1.00000000</i>
  <i type="string" name="LREAL">  A</i>
  <i type="int" name="ISMEAR">     0</i>
  <i name="SIGMA">      0.05000000</i>
  <i name="KSPACING">      0.30000000</i>
  <i type="logical" name="KGAMMA"> T  </i>
  <i type="logical" name="LWAVE"> F  </i>
  <i type="logical" name="LCHARG"> F  </i>
  <i type="logical" name="LSCALAPACK"> F  </i>
  <v type="int" name="KPOINT_BSE">    -1     0     0     0</v>
 </incar>
 <structure name="primitive_cell" >
  <crystal>
   <varray name="basis" >
    <v>      11.12194768       0.00000000       0.00000000 </v>
    <v>       0.00000000      11.12194768       0.00000000 </v>
    <v>       0.00000000       0.00000000      11.12194768 </v>
   </varray>
   <i name="volume">   1375.75957216 </i>
   <varray name="rec_basis" >
    <v>       0.08991231       0.00000000       0.00000000 </v>
    <v>       0.00000000       0.08991231       0.00000000 </v>
    <v>       0.00000000       0.00000000       0.08991231 </v>
   </varray>
  </crystal>
  <varray name="positions" >
   <v>       0.12091308      -0.33519566      -0.18047419 </v>
   <v>      -0.02497426      -0.40236057      -0.28273553 </v>
   <v>       0.07794910      -0.20938599      -0.31897612 </v>
   <v>       0.11800580       0.49178053      -0.06924655 </v>
   <v>       0.19207390      -0.19624623      -0.03475627 </v>
   <v>       0.26601015      -0.46049704      -0.27489078 </v>
   <v>       0.34173381      -0.27613897      -0.15582160 </v>
   <v>       0.23314244      -0.09061386      -0.20826494 </v>
   <v>       0.14062258       0.39902107      -0.25641061 </v>
   <v>       0.24139162      -0.49741978       0.00968036 </v>
   <v>      -0.00205375      -0.30930163       0.06703204 </v>
   <v>       0.39354011      -0.39710868      -0.19234124 </v>
   <v>      -0.09394350      -0.47515077      -0.05637434 </v>
   <v>       0.12540760      -0.24693725       0.09950973 </v>
   <v>       0.09876754      -0.34969255      -0.47313789 </v>
   <v>       0.06045768      -0.04542237      -0.16927853 </v>
   <v>       0.22619502      -0.37287328       0.09583774 </v>
   <v>       0.32644989      -0.13143523      -0.09548074 </v>
   <v>       0.35744010      -0.49508338      -0.07743000 </v>
   <v>      -0.18554022      -0.32567086      -0.09982519 </v>
   <v>      -0.17237716      -0.25516062      -0.28896162 </v>
   <v>       0.29023904      -0.15820700      -0.39105952 </v>
   <v>      -0.11833337      -0.22591784       0.01353367 </v>
   <v>      -0.11207818       0.49842883      -0.33930304 </v>
   <v>       0.00426728      -0.10593142      -0.40155870 </v>
   <v>      -0.07176900       0.38584892      -0.24792619 </v>
   <v>       0.34683542      -0.45461686      -0.41709005 </v>
   <v>      -0.12078064      -0.10776825      -0.06811979 </v>
   <v>       0.22004246       0.46285245      -0.45899565 </v>
   <v>       0.28148945      -0.33375109       0.49666116 </v>
   <v>       0.44428489      -0.38767341      -0.33430885 </v>
   <v>      -0.00287174       0.46717044      -0.47758191 </v>
   <v>      -0.07764696      -0.20450421      -0.47441429 </v>
   <v>      -0.16620708      -0.41207606      -0.42860229 </v>
   <v>       0.41277399      -0.16048549       0.01228222 </v>
   <v>      -0.23577628       0.49582835      -0.19257841 </v>
   <v>       0.07391226       0.02217162      -0.35507182 </v>
   <v>       0.41060245      -0.31820630       0.10085136 </v>
   <v>      -0.02459433      -0.09599659       0.11171704 </v>
   <v>      -0.13351473      -0.06175971      -0.33650990 </v>
   <v>       0.19916884      -0.15752745       0.19045076 </v>
   <v>       0.14931850      -0.16328592       0.43674160 </v>
   <v>       0.47770596      -0.10752772      -0.20655951 </v>
   <v>       0.28159612       0.41072320       0.12525067 </v>
   <v>       0.34692582       0.29713562      -0.25418324 </v>
   <v>       0.18355642       0.02085984       0.06993728 </v>
   <v>       0.33345219       0.03183237      -0.05584361 </v>
   <v>       0.01507637       0.29451867       0.05416984 </v>
   <v>       0.08615379      -0.33690747       0.27080839 </v>
   <v>      -0.09636894       0.49917372       0.18113153 </v>
   <v>      -0.45526556      -0.49573962      -0.19541942 </v>
   <v>      -0.21706214      -0.23594497       0.10776889 </v>
   <v>       0.12937047       0.26323423      -0.40787466 </v>
   <v>      -0.00514469       0.23500452      -0.06493280 </v>
   <v>       0.13351238       0.36288670       0.46666843 </v>
   <v>      -0.43838313      -0.35240673      -0.02082262 </v>
   <v>      -0.02410244       0.08567309      -0.02441423 </v>
   <v>      -0.23189363       0.33920523      -0.21568856 </v>
   <v>       0.05783813       0.18719066      -0.17530480 </v>
   <v>      -0.21080632       0.37144357      -0.37251321 </v>
   <v>      -0.19076184       0.03588576      -0.19192078 </v>
   <v>       0.23899327       0.12940951      -0.25919933 </v>
   <v>      -0.09508226      -0.36492639       0.38304136 </v>
   <v>       0.32059275       0.01078631      -0.46178322 </v>
   <v>      -0.36000001      -0.29282341      -0.26057504 </v>
   <v>      -0.35372084      -0.42734420      -0.10069440 </v>
   <v>      -0.00135029      -0.45013449       0.28023608 </v>
   <v>      -0.22364061      -0.32275483       0.46331781 </v>
   <v>       0.42857005       0.49046266       0.47099152 </v>
   <v>       0.25675762      -0.20105428       0.35485281 </v>
   <v>       0.21472758       0.19639176      -0.01363053 </v>
   <v>      -0.30935055       0.48455001       0.02397333 </v>
   <v>       0.49105566       0.43222048       0.08447381 </v>
   <v>       0.34353906      -0.30949949       0.27969374 </v>
   <v>      -0.49417672      -0.11757208      -0.44387366 </v>
   <v>      -0.16618536       0.23735666      -0.10922611 </v>
   <v>      -0.18171235       0.32718845       0.07472951 </v>
   <v>       0.13958517       0.28872429       0.17912104 </v>
   <v>      -0.08979552       0.04868876       0.10304848 </v>
   <v>      -0.04425928       0.21238369      -0.39095059 </v>
   <v>      -0.31570928      -0.23461647      -0.45770271 </v>
   <v>       0.38912802       0.29980481      -0.45201684 </v>
   <v>      -0.40109742      -0.18022769      -0.34573457 </v>
   <v>      -0.06413154      -0.18244228       0.29316228 </v>
   <v>       0.48395096       0.27156264      -0.22048609 </v>
   <v>       0.28647518      -0.48661230       0.31295251 </v>
   <v>       0.45343133       0.24999551      -0.07178811 </v>
   <v>      -0.33662067      -0.06061956      -0.28367189 </v>
   <v>       0.09117590       0.44325093       0.31872895 </v>
   <v>       0.15953610       0.05682115       0.43879353 </v>
   <v>      -0.37803805      -0.17836950      -0.00754567 </v>
   <v>      -0.44058778       0.01139525      -0.20782969 </v>
   <v>      -0.15801131       0.40877772       0.40502223 </v>
   <v>      -0.28117502      -0.40473219       0.20527907 </v>
   <v>      -0.37554549      -0.48533775      -0.39762128 </v>
   <v>       0.35446573       0.18343782      -0.00192430 </v>
   <v>       0.42131495      -0.02312320       0.18519229 </v>
   <v>      -0.06140005       0.03904739       0.43097887 </v>
   <v>       0.46574895       0.11321196      -0.26351049 </v>
   <v>      -0.49312060      -0.28942577       0.39682303 </v>
   <v>      -0.25713779      -0.01322056      -0.47751364 </v>
   <v>       0.25703705       0.29425990       0.39606315 </v>
   <v>      -0.21377940       0.08043813       0.04693201 </v>
   <v>       0.34898673      -0.09562976       0.33483271 </v>
   <v>      -0.47826246      -0.43943389       0.23554825 </v>
   <v>      -0.43596863      -0.19635540       0.18001482 </v>
   <v>      -0.31785171      -0.44750552       0.44259025 </v>
   <v>      -0.43975052       0.31205119      -0.35629571 </v>
   <v>       0.02911881       0.11402584       0.19340903 </v>
   <v>       0.02879031       0.24848969       0.39083016 </v>
   <v>      -0.37732422       0.31643165      -0.17815070 </v>
   <v>       0.47414947       0.02143821       0.46274272 </v>
   <v>      -0.24708252      -0.23948476       0.31042830 </v>
   <v>      -0.24323586       0.14708798      -0.33500870 </v>
   <v>      -0.39779675       0.04726739      -0.06628646 </v>
   <v>      -0.20381995      -0.04875721       0.27294693 </v>
   <v>       0.43740708       0.35252623       0.26285628 </v>
   <v>       0.24558485       0.12863873       0.24767496 </v>
   <v>       0.41086978       0.17015605       0.12886625 </v>
   <v>      -0.32983573       0.24144903      -0.42429648 </v>
   <v>      -0.32289277       0.40963732       0.24941997 </v>
   <v>      -0.33422797      -0.12392072       0.26422830 </v>
   <v>      -0.15096100       0.22886210       0.25282561 </v>
   <v>      -0.43008878       0.33341991       0.43829681 </v>
   <v>       0.35864156       0.22269340       0.27446425 </v>
   <v>      -0.39920817       0.01439625       0.15119659 </v>
   <v>      -0.46040770       0.43671388       0.32842913 </v>
   <v>      -0.35368406       0.10873154       0.04001179 </v>
   <v>      -0.24814158       0.21077431       0.45183198 </v>
   <v>      -0.42263757      -0.06859814       0.37304599 </v>
   <v>      -0.43576393       0.11385552      -0.47023359 </v>
   <v>      -0.36369592       0.24092844       0.08410354 </v>
   <v>      -0.05873762       0.13831468       0.32550378 </v>
   <v>       0.43512540       0.13718567       0.36899256 </v>
   <v>      -0.34943367       0.19857337       0.28386324 </v>
  </varray>
 </structure>
 <varray name="primitive_index" >
  <v type="int" >        1 </v>
  <v type="int" >      117 </v>
  <v type="int" >      109 </v>
  <v type="int" >       69 </v>
  <v type="int" >      108 </v>
  <v type="int" >       85 </v>
  <v type="int" >       86 </v>
  <v type="int" >       76 </v>
  <v type="int" >       25 </v>
  <v type="int" >       50 </v>
  <v type="int" >      133 </v>
  <v type="int" >       37 </v>
  <v type="int" >       21 </v>
  <v type="int" >       44 </v>
  <v type="int" >        2 </v>
  <v type="int" >        6 </v>
  <v type="int" >      106 </v>
  <v type="int" >       52 </v>
  <v type="int" >      118 </v>
  <v type="int" >      132 </v>
  <v type="int" >       13 </v>
  <v type="int" >       27 </v>
  <v type="int" >       46 </v>
  <v type="int" >       35 </v>
  <v type="int" >       30 </v>
  <v type="int" >      129 </v>
  <v type="int" >       31 </v>
  <v type="int" >      103 </v>
  <v type="int" >       66 </v>
  <v type="int" >       93 </v>
  <v type="int" >       77 </v>
  <v type="int" >      102 </v>
  <v type="int" >       92 </v>
  <v type="int" >       88 </v>
  <v type="int" >       74 </v>
  <v type="int" >       84 </v>
  <v type="int" >      105 </v>
  <v type="int" >       18 </v>
  <v type="int" >       73 </v>
  <v type="int" >       60 </v>
  <v type="int" >       58 </v>
  <v type="int" >      111 </v>
  <v type="int" >      116 </v>
  <v type="int" >       87 </v>
  <v type="int" >      101 </v>
  <v type="int" >       19 </v>
  <v type="int" >       55 </v>
  <v type="int" >       94 </v>
  <v type="int" >       56 </v>
  <v type="int" >      112 </v>
  <v type="int" >      123 </v>
  <v type="int" >       61 </v>
  <v type="int" >      130 </v>
  <v type="int" >       54 </v>
  <v type="int" >       51 </v>
  <v type="int" >       68 </v>
  <v type="int" >       98 </v>
  <v type="int" >       48 </v>
  <v type="int" >       80 </v>
  <v type="int" >       67 </v>
  <v type="int" >       22 </v>
  <v type="int" >        8 </v>
  <v type="int" >      122 </v>
  <v type="int" >      107 </v>
  <v type="int" >      119 </v>
  <v type="int" >       28 </v>
  <v type="int" >       38 </v>
  <v type="int" >       42 </v>
  <v type="int" >       71 </v>
  <v type="int" >       39 </v>
  <v type="int" >       82 </v>
  <v type="int" >       95 </v>
  <v type="int" >       24 </v>
  <v type="int" >       64 </v>
  <v type="int" >       65 </v>
  <v type="int" >      135 </v>
  <v type="int" >        7 </v>
  <v type="int" >        3 </v>
  <v type="int" >       36 </v>
  <v type="int" >       20 </v>
  <v type="int" >       63 </v>
  <v type="int" >        4 </v>
  <v type="int" >       29 </v>
  <v type="int" >       16 </v>
  <v type="int" >       43 </v>
  <v type="int" >       10 </v>
  <v type="int" >       78 </v>
  <v type="int" >       72 </v>
  <v type="int" >       57 </v>
  <v type="int" >       11 </v>
  <v type="int" >        5 </v>
  <v type="int" >       34 </v>
  <v type="int" >        9 </v>
  <v type="int" >       23 </v>
  <v type="int" >       26 </v>
  <v type="int" >       41 </v>
  <v type="int" >       17 </v>
  <v type="int" >       99 </v>
  <v type="int" >      126 </v>
  <v type="int" >       14 </v>
  <v type="int" >       15 </v>
  <v type="int" >      131 </v>
  <v type="int" >      100 </v>
  <v type="int" >       97 </v>
  <v type="int" >       79 </v>
  <v type="int" >      104 </v>
  <v type="int" >       91 </v>
  <v type="int" >       96 </v>
  <v type="int" >      134 </v>
  <v type="int" >      115 </v>
  <v type="int" >       70 </v>
  <v type="int" >       49 </v>
  <v type="int" >      110 </v>
  <v type="int" >      125 </v>
  <v type="int" >      124 </v>
  <v type="int" >      113 </v>
  <v type="int" >      127 </v>
  <v type="int" >       83 </v>
  <v type="int" >       89 </v>
  <v type="int" >       47 </v>
  <v type="int" >       62 </v>
  <v type="int" >       45 </v>
  <v type="int" >      128 </v>
  <v type="int" >       75 </v>
  <v type="int" >       32 </v>
  <v type="int" >       59 </v>
  <v type="int" >       33 </v>
  <v type="int" >       53 </v>
  <v type="int" >      120 </v>
  <v type="int" >      121 </v>
  <v type="int" >       90 </v>
  <v type="int" >       81 </v>
  <v type="int" >       40 </v>
  <v type="int" >      114 </v>
  <v type="int" >       12 </v>
 </varray>
 <kpoints>
  <generation param="Gamma">
   <v type="int" name="divisions">       2        2        2 </v>
   <v name="usershift">      0.00000000       0.00000000       0.00000000 </v>
   <v name="genvec1">      0.50000000       0.00000000       0.00000000 </v>
   <v name="genvec2">      0.00000000       0.50000000       0.00000000 </v>
   <v name="genvec3">      0.00000000       0.00000000       0.50000000 </v>
   <v name="shift">      0.00000000       0.00000000       0.00000000 </v>
  </generation>
  <varray name="kpointlist" >
   <v>       0.00000000       0.00000000       0.00000000 </v>
   <v>       0.50000000       0.00000000       0.00000000 </v>
   <v>       0.00000000       0.50000000       0.00000000 </v>
   <v>       0.50000000       0.50000000       0.00000000 </v>
   <v>       0.00000000       0.00000000       0.50000000 </v>
   <v>       0.50000000       0.00000000       0.50000000 </v>
   <v>       0.00000000       0.50000000       0.50000000 </v>
   <v>       0.50000000       0.50000000       0.50000000 </v>
  </varray>
  <varray name="weights" >
   <v>       0.12500000 </v>
   <v>       0.12500000 </v>
   <v>       0.12500000 </v>
   <v>       0.12500000 </v>
   <v>       0.12500000 </v>
   <v>       0.12500000 </v>
   <v>       0.12500000 </v>
   <v>       0.12500000 </v>
  </varray>
 </kpoints>
 <parameters>
  <separator name="general" >
   <i type="string" name="SYSTEM">unknown system</i>
   <i type="logical" name="LCOMPAT"> F  </i>
  </separator>
  <separator name="electronic" >
   <i type="string" name="PREC">a</i>
   <i name="ENMAX">    600.00000000</i>
   <i name="ENAUG">    605.39200000</i>
   <i name="EDIFF">      0.00000100</i>
   <i type="int" name="IALGO">    38</i>
   <i type="int" name="IWAVPR">    10</i>
   <i type="int" name="NBANDS">   520</i>
   <i name="NELECT">    864.00000000</i>
   <i type="int" name="TURBO">     0</i>
   <i type="int" name="IRESTART">     0</i>
   <i type="int" name="NREBOOT">     0</i>
   <i type="int" name="NMIN">     0</i>
   <i name="EREF">      0.00000000</i>
   <separator name="electronic smearing" >
    <i type="int" name="ISMEAR">     0</i>
    <i name="SIGMA">      0.05000000</i>
    <i name="KSPACING">      0.30000000</i>
    <i type="logical" name="KGAMMA"> T  </i>
   </separator>
   <separator name="electronic projectors" >
    <i type="logical" name="LREAL"> T  </i>
    <v name="ROPT">     -0.00025000     -0.00025000     -0.00025000</v>
    <i type="int" name="LMAXPAW">  -100</i>
    <i type="int" name="LMAXMIX">     2</i>
    <i type="logical" name="NLSPLINE"> F  </i>
   </separator>
   <separator name="electronic startup" >
    <i type="int" name="ISTART">     0</i>
    <i type="int" name="ICHARG">     2</i>
    <i type="int" name="INIWAV">     1</i>
   </separator>
   <separator name="electronic spin" >
    <i type="int" name="ISPIN">     1</i>
    <i type="logical" name="LNONCOLLINEAR"> F  </i>
    <v name="MAGMOM">      1.00000000      1.00000000      1.00000000      1.00000000      1.00000000      1.00000000      1.00000000      1.00000000      1.00000000      1.00000000      1.00000000      1.00000000      1.00000000      1.00000000      1.00000000      1.00000000      1.00000000      1.00000000      1.00000000      1.00000000
      1.00000000      1.00000000      1.00000000      1.00000000      1.00000000      1.00000000      1.00000000      1.00000000      1.00000000      1.00000000      1.00000000      1.00000000      1.00000000      1.00000000      1.00000000      1.00000000      1.00000000      1.00000000      1.00000000      1.00000000
      1.00000000      1.00000000      1.00000000      1.00000000      1.00000000      1.00000000      1.00000000      1.00000000      1.00000000      1.00000000      1.00000000      1.00000000      1.00000000      1.00000000      1.00000000      1.00000000      1.00000000      1.00000000      1.00000000      1.00000000
      1.00000000      1.00000000      1.00000000      1.00000000      1.00000000      1.00000000      1.00000000      1.00000000      1.00000000      1.00000000      1.00000000      1.00000000      1.00000000      1.00000000      1.00000000      1.00000000      1.00000000      1.00000000      1.00000000      1.00000000
      1.00000000      1.00000000      1.00000000      1.00000000      1.00000000      1.00000000      1.00000000      1.00000000      1.00000000      1.00000000      1.00000000      1.00000000      1.00000000      1.00000000      1.00000000      1.00000000      1.00000000      1.00000000      1.00000000      1.00000000
      1.00000000      1.00000000      1.00000000      1.00000000      1.00000000      1.00000000      1.00000000      1.00000000      1.00000000      1.00000000      1.00000000      1.00000000      1.00000000      1.00000000      1.00000000      1.00000000      1.00000000      1.00000000      1.00000000      1.00000000
      1.00000000      1.00000000      1.00000000      1.00000000      1.00000000      1.00000000      1.00000000      1.00000000      1.00000000      1.00000000      1.00000000      1.00000000      1.00000000      1.00000000      1.00000000</v>
    <i name="NUPDOWN">     -1.00000000</i>
    <i type="logical" name="LSORBIT"> F  </i>
    <v name="SAXIS">      0.00000000      0.00000000      1.00000000</v>
    <i type="logical" name="LSPIRAL"> F  </i>
    <v name="QSPIRAL">      0.00000000      0.00000000      0.00000000</v>
    <i type="logical" name="LZEROZ"> F  </i>
   </separator>
   <separator name="electronic exchange-correlation" >
    <i type="logical" name="LASPH"> F  </i>
    <i type="logical" name="LMETAGGA"> F  </i>
   </separator>
   <separator name="electronic convergence" >
    <i type="int" name="NELM">    60</i>
    <i type="int" name="NELMDL">    -5</i>
    <i type="int" name="NELMIN">     2</i>
    <i name="ENINI">    600.00000000</i>
    <separator name="electronic convergence detail" >
     <i type="logical" name="LDIAG"> T  </i>
     <i type="logical" name="LSUBROT"> F  </i>
     <i name="WEIMIN">      0.00000000</i>
     <i name="EBREAK">      0.00000000</i>
     <i name="DEPER">      0.30000000</i>
     <i type="int" name="NRMM">     4</i>
     <i name="TIME">      0.40000000</i>
    </separator>
   </separator>
   <separator name="electronic mixer" >
    <i name="AMIX">      0.40000000</i>
    <i name="BMIX">      1.00000000</i>
    <i name="AMIN">      0.10000000</i>
    <i name="AMIX_MAG">      1.60000000</i>
    <i name="BMIX_MAG">      1.00000000</i>
    <separator name="electronic mixer details" >
     <i type="int" name="IMIX">     4</i>
     <i type="logical" name="MIXFIRST"> F  </i>
     <i type="int" name="MAXMIX">   -45</i>
     <i name="WC">    100.00000000</i>
     <i type="int" name="INIMIX">     1</i>
     <i type="int" name="MIXPRE">     1</i>
     <i type="int" name="MREMOVE">     5</i>
    </separator>
   </separator>
   <separator name="electronic dipolcorrection" >
    <i type="logical" name="LDIPOL"> F  </i>
    <i type="logical" name="LMONO"> F  </i>
    <i type="int" name="IDIPOL">     0</i>
    <i name="EPSILON">      1.00000000</i>
    <v name="DIPOL">   -100.00000000   -100.00000000   -100.00000000</v>
    <i name="EFIELD">      0.00000000</i>
   </separator>
  </separator>
  <separator name="grids" >
   <i type="int" name="NGX">    90</i>
   <i type="int" name="NGY">    90</i>
   <i type="int" name="NGZ">    90</i>
   <i type="int" name="NGXF">   180</i>
   <i type="int" name="NGYF">   180</i>
   <i type="int" name="NGZF">   180</i>
   <i type="logical" name="ADDGRID"> T  </i>
  </separator>
  <separator name="ionic" >
   <i type="int" name="NSW">     1</i>
   <i type="int" name="IBRION">    -1</i>
   <i type="int" name="MDALGO">     0</i>
   <i type="int" name="ISIF">     2</i>
   <i name="PSTRESS">      0.00000000</i>
   <i name="EDIFFG">     -0.01000000</i>
   <i type="int" name="NFREE">     0</i>
   <i name="POTIM">      1.00000000</i>
   <i name="SMASS">     -3.00000000</i>
   <i name="SCALEE">      1.00000000</i>
  </separator>
  <separator name="ionic md" >
   <i name="TEBEG">      0.00010000</i>
   <i name="TEEND">      0.00010000</i>
   <i type="int" name="NBLOCK">     1</i>
   <i type="int" name="KBLOCK">     1</i>
   <i type="int" name="NPACO">   256</i>
   <i name="APACO">     16.00000000</i>
  </separator>
  <separator name="symmetry" >
   <i type="int" name="ISYM">     0</i>
   <i name="SYMPREC">      0.00001000</i>
  </separator>
  <separator name="dos" >
   <i type="int" name="LORBIT">     0</i>
   <v name="RWIGS">     -1.00000000     -1.00000000     -1.00000000</v>
   <i type="int" name="NEDOS">   301</i>
   <i name="EMIN">     10.00000000</i>
   <i name="EMAX">    -10.00000000</i>
   <i name="EFERMI">      0.00000000</i>
  </separator>
  <separator name="writing" >
   <i type="int" name="NWRITE">     2</i>
   <i type="logical" name="LWAVE"> F  </i>
   <i type="logical" name="LDOWNSAMPLE"> F  </i>
   <i type="logical" name="LCHARG"> F  </i>
   <i type="logical" name="LPARD"> F  </i>
   <i type="logical" name="LVTOT"> F  </i>
   <i type="logical" name="LVHAR"> F  </i>
   <i type="logical" name="LELF"> F  </i>
   <i type="logical" name="LOPTICS"> F  </i>
   <v name="STM">      0.00000000      0.00000000      0.00000000      0.00000000      0.00000000      0.00000000      0.00000000</v>
  </separator>
  <separator name="performance" >
   <i type="int" name="NPAR">     4</i>
   <i type="int" name="NSIM">     4</i>
   <i type="int" name="NBLK">    -1</i>
   <i type="logical" name="LPLANE"> T  </i>
   <i type="logical" name="LSCALAPACK"> F  </i>
   <i type="logical" name="LSCAAWARE"> F  </i>
   <i type="logical" name="LSCALU"> F  </i>
   <i type="logical" name="LASYNC"> F  </i>
   <i type="logical" name="LORBITALREAL"> F  </i>
  </separator>
  <separator name="miscellaneous" >
   <i type="int" name="IDIOT">     3</i>
   <i type="int" name="ISPECIAL">     0</i>
   <i type="logical" name="LMUSIC"> F  </i>
   <v name="POMASS">     40.07800000     28.08500000     16.00000000</v>
   <v name="DARWINR">      0.00000000      0.00000000      0.00000000</v>
   <v name="DARWINV">      1.00000000      1.00000000      1.00000000</v>
   <i type="logical" name="LCORR"> T  </i>
  </separator>
  <i type="logical" name="GGA_COMPAT"> T  </i>
  <i type="logical" name="LBERRY"> F  </i>
  <i type="int" name="ICORELEVEL">     0</i>
  <i type="logical" name="LDAU"> F  </i>
  <i type="int" name="I_CONSTRAINED_M">     0</i>
  <separator name="electronic exchange-correlation" >
   <i type="string" name="GGA">--</i>
   <i type="int" name="VOSKOWN">     0</i>
   <i type="logical" name="LHFCALC"> F  </i>
   <i type="string" name="PRECFOCK"></i>
   <i type="logical" name="LSYMGRAD"> F  </i>
   <i type="logical" name="LHFONE"> F  </i>
   <i type="logical" name="LRHFCALC"> F  </i>
   <i type="logical" name="LTHOMAS"> F  </i>
   <i type="logical" name="LMODELHF"> F  </i>
   <i name="ENCUT4O">     -1.00000000</i>
   <i type="int" name="EXXOEP">     0</i>
   <i type="int" name="FOURORBIT">     0</i>
   <i name="AEXX">      0.00000000</i>
   <i name="HFALPHA">      0.00000000</i>
   <i name="MCALPHA">      0.00000000</i>
   <i name="ALDAX">      1.00000000</i>
   <i name="AGGAX">      1.00000000</i>
   <i name="ALDAC">      1.00000000</i>
   <i name="AGGAC">      1.00000000</i>
   <i type="int" name="NKREDX">     1</i>
   <i type="int" name="NKREDY">     1</i>
   <i type="int" name="NKREDZ">     1</i>
   <i type="logical" name="SHIFTRED"> F  </i>
   <i type="logical" name="ODDONLY"> F  </i>
   <i type="logical" name="EVENONLY"> F  </i>
   <i type="int" name="LMAXFOCK">     0</i>
   <i type="int" name="NMAXFOCKAE">     0</i>
   <i type="logical" name="LFOCKAEDFT"> F  </i>
   <i name="HFSCREEN">      0.00000000</i>
   <i name="HFSCREENC">      0.00000000</i>
   <i type="int" name="NBANDSGWLOW">     0</i>
  </separator>
  <separator name="vdW DFT" >
   <i type="logical" name="LUSE_VDW"> F  </i>
   <i name="Zab_VDW">     -0.84910000</i>
   <i name="PARAM1">      0.12340000</i>
   <i name="PARAM2">      1.00000000</i>
   <i name="PARAM3">      0.00000000</i>
  </separator>
  <separator name="model GW" >
   <i type="int" name="MODEL_GW">     0</i>
   <i name="MODEL_EPS0">      6.11448699</i>
   <i name="MODEL_ALPHA">      1.00000000</i>
  </separator>
  <separator name="linear response parameters" >
   <i type="logical" name="LEPSILON"> F  </i>
   <i type="logical" name="LRPA"> F  </i>
   <i type="logical" name="LNABLA"> F  </i>
   <i type="logical" name="LVEL"> F  </i>
   <i type="int" name="KINTER">     0</i>
   <i name="CSHIFT">      0.10000000</i>
   <i name="OMEGAMAX">     -1.00000000</i>
   <i name="DEG_THRESHOLD">      0.00200000</i>
   <i name="RTIME">     -0.10000000</i>
   <i name="WPLASMAI">      0.00000000</i>
   <v name="DFIELD">      0.00000000      0.00000000      0.00000000</v>
   <v name="WPLASMA">      0.00000000      0.00000000      0.00000000      0.00000000      0.00000000      0.00000000      0.00000000      0.00000000      0.00000000</v>
  </separator>
  <separator name="orbital magnetization" >
   <i type="logical" name="NUCIND"> F  </i>
   <v name="MAGPOS">      0.00000000      0.00000000      0.00000000</v>
   <i type="logical" name="LNICSALL"> T  </i>
   <i type="logical" name="ORBITALMAG"> F  </i>
   <i type="logical" name="LMAGBLOCH"> F  </i>
   <i type="logical" name="LCHIMAG"> F  </i>
   <i type="logical" name="LGAUGE"> T  </i>
   <i type="int" name="MAGATOM">     0</i>
   <v name="MAGDIPOL">      0.00000000      0.00000000      0.00000000</v>
   <v name="AVECCONST">      0.00000000      0.00000000      0.00000000</v>
  </separator>
  <separator name="response functions" >
   <i type="logical" name="LADDER"> F  </i>
   <i type="logical" name="LRPAFORCE"> F  </i>
   <i type="logical" name="LFXC"> F  </i>
   <i type="logical" name="LHARTREE"> T  </i>
   <i type="int" name="IBSE">     0</i>
   <v type="int" name="KPOINT">    -1     0     0     0</v>
   <i type="logical" name="LTCTE"> F  </i>
   <i type="logical" name="LTETE"> F  </i>
   <i type="logical" name="LTRIPLET"> F  </i>
   <i type="logical" name="LFXCEPS"> F  </i>
   <i type="logical" name="LFXHEG"> F  </i>
   <i type="int" name="NATURALO">     2</i>
   <i type="logical" name="L2ORDER"> F  </i>
   <i type="logical" name="LMP2LT"> F  </i>
   <i type="logical" name="LUSEW"> F  </i>
   <i name="ENCUTGW">     -2.00000000</i>
   <i name="ENCUTGWSOFT">     -2.00000000</i>
   <i name="ENCUTLF">     -1.00000000</i>
   <i type="int" name="LMAXMP2">    -1</i>
   <i name="SCISSOR">      0.00000000</i>
   <i type="int" name="NOMEGA">     0</i>
   <i type="int" name="NOMEGAR">     0</i>
   <i type="int" name="NBANDSGW">    -1</i>
   <i type="int" name="NBANDSO">    -1</i>
   <i type="int" name="NBANDSV">    -1</i>
   <i type="int" name="NELM">     1</i>
   <i type="int" name="NELMHF">     1</i>
   <i type="int" name="DIM">     3</i>
   <i type="int" name="ANTIRES">     0</i>
   <i name="OMEGAMAX">    -30.00000000</i>
   <i name="OMEGAMIN">    -30.00000000</i>
   <i name="OMEGATL">   -200.00000000</i>
   <i type="int" name="OMEGAGRID">   140</i>
   <i name="CSHIFT">     -0.10000000</i>
   <i type="logical" name="SELFENERGY"> F  </i>
   <i type="logical" name="LSPECTRAL"> F  </i>
   <i type="logical" name="LSPECTRALGW"> F  </i>
   <i type="logical" name="LSINGLES"> F  </i>
   <i type="logical" name="LFERMIGW"> F  </i>
   <i type="logical" name="ODDONLYGW"> F  </i>
   <i type="logical" name="EVENONLYGW"> F  </i>
   <i type="int" name="NKREDLFX">     1</i>
   <i type="int" name="NKREDLFY">     1</i>
   <i type="int" name="NKREDLFZ">     1</i>
   <i type="int" name="MAXMEM">  2800</i>
   <i type="int" name="TELESCOPE">     0</i>
   <i type="int" name="TAUPAR">     1</i>
   <i type="int" name="OMEGAPAR">    -1</i>
   <i name="LAMBDA">      1.00000000</i>
  </separator>
  <separator name="External order field" >
   <i name="OFIELD_KAPPA">      0.00000000</i>
   <v name="OFIELD_K">      0.00000000      0.00000000      0.00000000</v>
   <i name="OFIELD_Q6_NEAR">      0.00000000</i>
   <i name="OFIELD_Q6_FAR">      0.00000000</i>
   <i name="OFIELD_A">      0.00000000</i>
  </separator>
 </parameters>
 <atominfo>
  <atoms>     135 </atoms>
  <types>       3 </types>
  <array name="atoms" >
   <dimension dim="1">ion</dimension>
   <field type="string">element</field>
   <field type="int">atomtype</field>
   <set>
    <rc><c>Ca</c><c>   1</c></rc>
    <rc><c>Ca</c><c>   1</c></rc>
    <rc><c>Ca</c><c>   1</c></rc>
    <rc><c>Ca</c><c>   1</c></rc>
    <rc><c>Ca</c><c>   1</c></rc>
    <rc><c>Ca</c><c>   1</c></rc>
    <rc><c>Ca</c><c>   1</c></rc>
    <rc><c>Ca</c><c>   1</c></rc>
    <rc><c>Ca</c><c>   1</c></rc>
    <rc><c>Ca</c><c>   1</c></rc>
    <rc><c>Ca</c><c>   1</c></rc>
    <rc><c>Ca</c><c>   1</c></rc>
    <rc><c>Ca</c><c>   1</c></rc>
    <rc><c>Ca</c><c>   1</c></rc>
    <rc><c>Ca</c><c>   1</c></rc>
    <rc><c>Ca</c><c>   1</c></rc>
    <rc><c>Ca</c><c>   1</c></rc>
    <rc><c>Ca</c><c>   1</c></rc>
    <rc><c>Ca</c><c>   1</c></rc>
    <rc><c>Ca</c><c>   1</c></rc>
    <rc><c>Ca</c><c>   1</c></rc>
    <rc><c>Ca</c><c>   1</c></rc>
    <rc><c>Ca</c><c>   1</c></rc>
    <rc><c>Ca</c><c>   1</c></rc>
    <rc><c>Ca</c><c>   1</c></rc>
    <rc><c>Ca</c><c>   1</c></rc>
    <rc><c>Ca</c><c>   1</c></rc>
    <rc><c>Si</c><c>   2</c></rc>
    <rc><c>Si</c><c>   2</c></rc>
    <rc><c>Si</c><c>   2</c></rc>
    <rc><c>Si</c><c>   2</c></rc>
    <rc><c>Si</c><c>   2</c></rc>
    <rc><c>Si</c><c>   2</c></rc>
    <rc><c>Si</c><c>   2</c></rc>
    <rc><c>Si</c><c>   2</c></rc>
    <rc><c>Si</c><c>   2</c></rc>
    <rc><c>Si</c><c>   2</c></rc>
    <rc><c>Si</c><c>   2</c></rc>
    <rc><c>Si</c><c>   2</c></rc>
    <rc><c>Si</c><c>   2</c></rc>
    <rc><c>Si</c><c>   2</c></rc>
    <rc><c>Si</c><c>   2</c></rc>
    <rc><c>Si</c><c>   2</c></rc>
    <rc><c>Si</c><c>   2</c></rc>
    <rc><c>Si</c><c>   2</c></rc>
    <rc><c>Si</c><c>   2</c></rc>
    <rc><c>Si</c><c>   2</c></rc>
    <rc><c>Si</c><c>   2</c></rc>
    <rc><c>Si</c><c>   2</c></rc>
    <rc><c>Si</c><c>   2</c></rc>
    <rc><c>Si</c><c>   2</c></rc>
    <rc><c>Si</c><c>   2</c></rc>
    <rc><c>Si</c><c>   2</c></rc>
    <rc><c>Si</c><c>   2</c></rc>
    <rc><c>O </c><c>   3</c></rc>
    <rc><c>O </c><c>   3</c></rc>
    <rc><c>O </c><c>   3</c></rc>
    <rc><c>O </c><c>   3</c></rc>
    <rc><c>O </c><c>   3</c></rc>
    <rc><c>O </c><c>   3</c></rc>
    <rc><c>O </c><c>   3</c></rc>
    <rc><c>O </c><c>   3</c></rc>
    <rc><c>O </c><c>   3</c></rc>
    <rc><c>O </c><c>   3</c></rc>
    <rc><c>O </c><c>   3</c></rc>
    <rc><c>O </c><c>   3</c></rc>
    <rc><c>O </c><c>   3</c></rc>
    <rc><c>O </c><c>   3</c></rc>
    <rc><c>O </c><c>   3</c></rc>
    <rc><c>O </c><c>   3</c></rc>
    <rc><c>O </c><c>   3</c></rc>
    <rc><c>O </c><c>   3</c></rc>
    <rc><c>O </c><c>   3</c></rc>
    <rc><c>O </c><c>   3</c></rc>
    <rc><c>O </c><c>   3</c></rc>
    <rc><c>O </c><c>   3</c></rc>
    <rc><c>O </c><c>   3</c></rc>
    <rc><c>O </c><c>   3</c></rc>
    <rc><c>O </c><c>   3</c></rc>
    <rc><c>O </c><c>   3</c></rc>
    <rc><c>O </c><c>   3</c></rc>
    <rc><c>O </c><c>   3</c></rc>
    <rc><c>O </c><c>   3</c></rc>
    <rc><c>O </c><c>   3</c></rc>
    <rc><c>O </c><c>   3</c></rc>
    <rc><c>O </c><c>   3</c></rc>
    <rc><c>O </c><c>   3</c></rc>
    <rc><c>O </c><c>   3</c></rc>
    <rc><c>O </c><c>   3</c></rc>
    <rc><c>O </c><c>   3</c></rc>
    <rc><c>O </c><c>   3</c></rc>
    <rc><c>O </c><c>   3</c></rc>
    <rc><c>O </c><c>   3</c></rc>
    <rc><c>O </c><c>   3</c></rc>
    <rc><c>O </c><c>   3</c></rc>
    <rc><c>O </c><c>   3</c></rc>
    <rc><c>O </c><c>   3</c></rc>
    <rc><c>O </c><c>   3</c></rc>
    <rc><c>O </c><c>   3</c></rc>
    <rc><c>O </c><c>   3</c></rc>
    <rc><c>O </c><c>   3</c></rc>
    <rc><c>O </c><c>   3</c></rc>
    <rc><c>O </c><c>   3</c></rc>
    <rc><c>O </c><c>   3</c></rc>
    <rc><c>O </c><c>   3</c></rc>
    <rc><c>O </c><c>   3</c></rc>
    <rc><c>O </c><c>   3</c></rc>
    <rc><c>O </c><c>   3</c></rc>
    <rc><c>O </c><c>   3</c></rc>
    <rc><c>O </c><c>   3</c></rc>
    <rc><c>O </c><c>   3</c></rc>
    <rc><c>O </c><c>   3</c></rc>
    <rc><c>O </c><c>   3</c></rc>
    <rc><c>O </c><c>   3</c></rc>
    <rc><c>O </c><c>   3</c></rc>
    <rc><c>O </c><c>   3</c></rc>
    <rc><c>O </c><c>   3</c></rc>
    <rc><c>O </c><c>   3</c></rc>
    <rc><c>O </c><c>   3</c></rc>
    <rc><c>O </c><c>   3</c></rc>
    <rc><c>O </c><c>   3</c></rc>
    <rc><c>O </c><c>   3</c></rc>
    <rc><c>O </c><c>   3</c></rc>
    <rc><c>O </c><c>   3</c></rc>
    <rc><c>O </c><c>   3</c></rc>
    <rc><c>O </c><c>   3</c></rc>
    <rc><c>O </c><c>   3</c></rc>
    <rc><c>O </c><c>   3</c></rc>
    <rc><c>O </c><c>   3</c></rc>
    <rc><c>O </c><c>   3</c></rc>
    <rc><c>O </c><c>   3</c></rc>
    <rc><c>O </c><c>   3</c></rc>
    <rc><c>O </c><c>   3</c></rc>
    <rc><c>O </c><c>   3</c></rc>
    <rc><c>O </c><c>   3</c></rc>
   </set>
  </array>
  <array name="atomtypes" >
   <dimension dim="1">type</dimension>
   <field type="int">atomspertype</field>
   <field type="string">element</field>
   <field>mass</field>
   <field>valence</field>
   <field type="string">pseudopotential</field>
   <set>
    <rc><c>  27</c><c>Ca</c><c>     40.07800000</c><c>     10.00000000</c><c>  PAW_PBE Ca_sv 06Sep2000               </c></rc>
    <rc><c>  27</c><c>Si</c><c>     28.08500000</c><c>      4.00000000</c><c>  PAW_PBE Si 05Jan2001                  </c></rc>
    <rc><c>  81</c><c>O </c><c>     16.00000000</c><c>      6.00000000</c><c>  PAW_PBE O 08Apr2002                   </c></rc>
   </set>
  </array>
 </atominfo>
 <structure name="initialpos" >
  <crystal>
   <varray name="basis" >
    <v>      11.12194768       0.00000000       0.00000000 </v>
    <v>       0.00000000      11.12194768       0.00000000 </v>
    <v>       0.00000000       0.00000000      11.12194768 </v>
   </varray>
   <i name="volume">   1375.75957216 </i>
   <varray name="rec_basis" >
    <v>       0.08991231       0.00000000       0.00000000 </v>
    <v>       0.00000000       0.08991231       0.00000000 </v>
    <v>       0.00000000       0.00000000       0.08991231 </v>
   </varray>
  </crystal>
  <varray name="positions" >
   <v>       0.12091308       0.66480434       0.81952581 </v>
   <v>       0.09876754       0.65030745       0.52686211 </v>
   <v>       0.13958517       0.28872429       0.17912104 </v>
   <v>       0.38912802       0.29980481       0.54798316 </v>
   <v>       0.62196195       0.82163050       0.99245433 </v>
   <v>       0.06045768       0.95457763       0.83072147 </v>
   <v>       0.81828765       0.32718845       0.07472951 </v>
   <v>       0.23899327       0.12940951       0.74080067 </v>
   <v>       0.84198869       0.40877772       0.40502223 </v>
   <v>       0.28647518       0.51338770       0.31295251 </v>
   <v>       0.15953610       0.05682115       0.43879353 </v>
   <v>       0.65056633       0.19857337       0.28386324 </v>
   <v>       0.82762284       0.74483938       0.71103838 </v>
   <v>       0.50687940       0.71057423       0.39682303 </v>
   <v>       0.74286221       0.98677944       0.52248636 </v>
   <v>       0.93586846       0.81755772       0.29316228 </v>
   <v>       0.42131495       0.97687680       0.18519229 </v>
   <v>       0.41060245       0.68179370       0.10085136 </v>
   <v>       0.18355642       0.02085984       0.06993728 </v>
   <v>       0.95574072       0.21238369       0.60904941 </v>
   <v>       0.90605650       0.52484923       0.94362566 </v>
   <v>       0.80923816       0.03588576       0.80807922 </v>
   <v>       0.71882498       0.59526781       0.20527907 </v>
   <v>       0.49105566       0.43222048       0.08447381 </v>
   <v>       0.14062258       0.39902107       0.74358939 </v>
   <v>       0.62445451       0.51466225       0.60237872 </v>
   <v>       0.29023904       0.84179300       0.60894048 </v>
   <v>       0.64627916       0.57265580       0.89930560 </v>
   <v>       0.59890258       0.81977231       0.65426543 </v>
   <v>       0.00426728       0.89406858       0.59844130 </v>
   <v>       0.34683542       0.54538314       0.58290995 </v>
   <v>       0.35864156       0.22269340       0.27446425 </v>
   <v>       0.53959230       0.43671388       0.32842913 </v>
   <v>       0.55941222       0.01139525       0.79217031 </v>
   <v>       0.88792182       0.49842883       0.66069696 </v>
   <v>       0.91020448       0.04868876       0.10304848 </v>
   <v>       0.39354011       0.60289132       0.80765876 </v>
   <v>       0.99864971       0.54986551       0.28023608 </v>
   <v>       0.25675762       0.79894572       0.35485281 </v>
   <v>       0.94126238       0.13831468       0.32550378 </v>
   <v>       0.35446573       0.18343782       0.99807570 </v>
   <v>       0.77635939       0.67724517       0.46331781 </v>
   <v>       0.48395096       0.27156264       0.77951391 </v>
   <v>       0.12540760       0.75306275       0.09950973 </v>
   <v>       0.66577203       0.87607928       0.26422830 </v>
   <v>       0.88166663       0.77408216       0.01353367 </v>
   <v>       0.67016427       0.24144903       0.57570352 </v>
   <v>       0.76810637       0.33920523       0.78431144 </v>
   <v>       0.47414947       0.02143821       0.46274272 </v>
   <v>       0.24139162       0.50258022       0.00968036 </v>
   <v>       0.13351238       0.36288670       0.46666843 </v>
   <v>       0.32644989       0.86856477       0.90451926 </v>
   <v>       0.64631594       0.10873154       0.04001179 </v>
   <v>       0.99485531       0.23500452       0.93506720 </v>
   <v>       0.33345219       0.03183237       0.94415639 </v>
   <v>       0.08615379       0.66309253       0.27080839 </v>
   <v>       0.09117590       0.44325093       0.31872895 </v>
   <v>       0.19916884       0.84247255       0.19045076 </v>
   <v>       0.60079183       0.01439625       0.15119659 </v>
   <v>       0.86648527       0.93824029       0.66349010 </v>
   <v>       0.78293786       0.76405503       0.10776889 </v>
   <v>       0.67710723       0.40963732       0.24941997 </v>
   <v>       0.68429072       0.76538353       0.54229729 </v>
   <v>       0.34353906       0.69050051       0.27969374 </v>
   <v>       0.50582328       0.88242792       0.55612634 </v>
   <v>       0.22004246       0.46285245       0.54100435 </v>
   <v>       0.78919368       0.37144357       0.62748679 </v>
   <v>       0.56161687       0.64759327       0.97917738 </v>
   <v>       0.11800580       0.49178053       0.93075345 </v>
   <v>       0.62267578       0.31643165       0.82184930 </v>
   <v>       0.42857005       0.49046266       0.47099152 </v>
   <v>       0.66337933       0.93938044       0.71632811 </v>
   <v>       0.97540567       0.90400341       0.11171704 </v>
   <v>       0.41277399       0.83951451       0.01228222 </v>
   <v>       0.56991122       0.33341991       0.43829681 </v>
   <v>       0.23314244       0.90938614       0.79173506 </v>
   <v>       0.44428489       0.61232659       0.66569115 </v>
   <v>       0.45343133       0.24999551       0.92821189 </v>
   <v>       0.52173754       0.56056611       0.23554825 </v>
   <v>       0.05783813       0.18719066       0.82469520 </v>
   <v>       0.63630408       0.24092844       0.08410354 </v>
   <v>       0.21472758       0.19639176       0.98636947 </v>
   <v>       0.24558485       0.12863873       0.24767496 </v>
   <v>       0.76422372       0.49582835       0.80742159 </v>
   <v>       0.26601015       0.53950296       0.72510922 </v>
   <v>       0.34173381       0.72386103       0.84417840 </v>
   <v>       0.28159612       0.41072320       0.12525067 </v>
   <v>       0.83379292       0.58792394       0.57139771 </v>
   <v>       0.41086978       0.17015605       0.12886625 </v>
   <v>       0.56423607       0.11385552       0.52976641 </v>
   <v>       0.68214829       0.55249448       0.44259025 </v>
   <v>       0.92235304       0.79549579       0.52558571 </v>
   <v>       0.28148945       0.66624891       0.49666116 </v>
   <v>       0.01507637       0.29451867       0.05416984 </v>
   <v>       0.69064945       0.48455001       0.02397333 </v>
   <v>       0.56024948       0.31205119       0.64370429 </v>
   <v>       0.34898673       0.90437024       0.33483271 </v>
   <v>       0.97589756       0.08567309       0.97558577 </v>
   <v>       0.93859995       0.03904739       0.43097887 </v>
   <v>       0.78622060       0.08043813       0.04693201 </v>
   <v>       0.34692582       0.29713562       0.74581676 </v>
   <v>       0.99712826       0.46717044       0.52241809 </v>
   <v>       0.87921936       0.89223175       0.93188021 </v>
   <v>       0.56403137       0.80364460       0.18001482 </v>
   <v>       0.07391226       0.02217162       0.64492818 </v>
   <v>       0.22619502       0.62712672       0.09583774 </v>
   <v>       0.32059275       0.01078631       0.53821678 </v>
   <v>       0.19207390       0.80375377       0.96524373 </v>
   <v>       0.07794910       0.79061401       0.68102388 </v>
   <v>       0.75291748       0.76051524       0.31042830 </v>
   <v>       0.14931850       0.83671408       0.43674160 </v>
   <v>       0.90363106       0.49917372       0.18113153 </v>
   <v>       0.79618005       0.95124279       0.27294693 </v>
   <v>       0.43512540       0.13718567       0.36899256 </v>
   <v>       0.02879031       0.24848969       0.39083016 </v>
   <v>       0.47770596       0.89247228       0.79344049 </v>
   <v>       0.97502574       0.59763943       0.71726447 </v>
   <v>       0.35744010       0.50491662       0.92257000 </v>
   <v>       0.63999999       0.70717659       0.73942496 </v>
   <v>       0.75185842       0.21077431       0.45183198 </v>
   <v>       0.57736243       0.93140186       0.37304599 </v>
   <v>       0.90491774       0.63507361       0.38304136 </v>
   <v>       0.54473444       0.50426038       0.80458058 </v>
   <v>       0.60220325       0.04726739       0.93371354 </v>
   <v>       0.75676414       0.14708798       0.66499130 </v>
   <v>       0.46574895       0.11321196       0.73648951 </v>
   <v>       0.43740708       0.35252623       0.26285628 </v>
   <v>       0.84903900       0.22886210       0.25282561 </v>
   <v>       0.92823100       0.38584892       0.75207381 </v>
   <v>       0.12937047       0.26323423       0.59212534 </v>
   <v>       0.25703705       0.29425990       0.39606315 </v>
   <v>       0.81445978       0.67432914       0.90017481 </v>
   <v>       0.99794625       0.69069837       0.06703204 </v>
   <v>       0.02911881       0.11402584       0.19340903 </v>
   <v>       0.83381464       0.23735666       0.89077389 </v>
  </varray>
  <varray name="velocities" >
   <v>       0.00000000       0.00000000       0.00000000 </v>
   <v>       0.00000000       0.00000000       0.00000000 </v>
   <v>       0.00000000       0.00000000       0.00000000 </v>
   <v>       0.00000000       0.00000000       0.00000000 </v>
   <v>       0.00000000       0.00000000       0.00000000 </v>
   <v>       0.00000000       0.00000000       0.00000000 </v>
   <v>       0.00000000       0.00000000       0.00000000 </v>
   <v>       0.00000000       0.00000000       0.00000000 </v>
   <v>       0.00000000       0.00000000       0.00000000 </v>
   <v>       0.00000000       0.00000000       0.00000000 </v>
   <v>       0.00000000       0.00000000       0.00000000 </v>
   <v>       0.00000000       0.00000000       0.00000000 </v>
   <v>       0.00000000       0.00000000       0.00000000 </v>
   <v>       0.00000000       0.00000000       0.00000000 </v>
   <v>       0.00000000       0.00000000       0.00000000 </v>
   <v>       0.00000000       0.00000000       0.00000000 </v>
   <v>       0.00000000       0.00000000       0.00000000 </v>
   <v>       0.00000000       0.00000000       0.00000000 </v>
   <v>       0.00000000       0.00000000       0.00000000 </v>
   <v>       0.00000000       0.00000000       0.00000000 </v>
   <v>       0.00000000       0.00000000       0.00000000 </v>
   <v>       0.00000000       0.00000000       0.00000000 </v>
   <v>       0.00000000       0.00000000       0.00000000 </v>
   <v>       0.00000000       0.00000000       0.00000000 </v>
   <v>       0.00000000       0.00000000       0.00000000 </v>
   <v>       0.00000000       0.00000000       0.00000000 </v>
   <v>       0.00000000       0.00000000       0.00000000 </v>
   <v>       0.00000000       0.00000000       0.00000000 </v>
   <v>       0.00000000       0.00000000       0.00000000 </v>
   <v>       0.00000000       0.00000000       0.00000000 </v>
   <v>       0.00000000       0.00000000       0.00000000 </v>
   <v>       0.00000000       0.00000000       0.00000000 </v>
   <v>       0.00000000       0.00000000       0.00000000 </v>
   <v>       0.00000000       0.00000000       0.00000000 </v>
   <v>       0.00000000       0.00000000       0.00000000 </v>
   <v>       0.00000000       0.00000000       0.00000000 </v>
   <v>       0.00000000       0.00000000       0.00000000 </v>
   <v>       0.00000000       0.00000000       0.00000000 </v>
   <v>       0.00000000       0.00000000       0.00000000 </v>
   <v>       0.00000000       0.00000000       0.00000000 </v>
   <v>       0.00000000       0.00000000       0.00000000 </v>
   <v>       0.00000000       0.00000000       0.00000000 </v>
   <v>       0.00000000       0.00000000       0.00000000 </v>
   <v>       0.00000000       0.00000000       0.00000000 </v>
   <v>       0.00000000       0.00000000       0.00000000 </v>
   <v>       0.00000000       0.00000000       0.00000000 </v>
   <v>       0.00000000       0.00000000       0.00000000 </v>
   <v>       0.00000000       0.00000000       0.00000000 </v>
   <v>       0.00000000       0.00000000       0.00000000 </v>
   <v>       0.00000000       0.00000000       0.00000000 </v>
   <v>       0.00000000       0.00000000       0.00000000 </v>
   <v>       0.00000000       0.00000000       0.00000000 </v>
   <v>       0.00000000       0.00000000       0.00000000 </v>
   <v>       0.00000000       0.00000000       0.00000000 </v>
   <v>       0.00000000       0.00000000       0.00000000 </v>
   <v>       0.00000000       0.00000000       0.00000000 </v>
   <v>       0.00000000       0.00000000       0.00000000 </v>
   <v>       0.00000000       0.00000000       0.00000000 </v>
   <v>       0.00000000       0.00000000       0.00000000 </v>
   <v>       0.00000000       0.00000000       0.00000000 </v>
   <v>       0.00000000       0.00000000       0.00000000 </v>
   <v>       0.00000000       0.00000000       0.00000000 </v>
   <v>       0.00000000       0.00000000       0.00000000 </v>
   <v>       0.00000000       0.00000000       0.00000000 </v>
   <v>       0.00000000       0.00000000       0.00000000 </v>
   <v>       0.00000000       0.00000000       0.00000000 </v>
   <v>       0.00000000       0.00000000       0.00000000 </v>
   <v>       0.00000000       0.00000000       0.00000000 </v>
   <v>       0.00000000       0.00000000       0.00000000 </v>
   <v>       0.00000000       0.00000000       0.00000000 </v>
   <v>       0.00000000       0.00000000       0.00000000 </v>
   <v>       0.00000000       0.00000000       0.00000000 </v>
   <v>       0.00000000       0.00000000       0.00000000 </v>
   <v>       0.00000000       0.00000000       0.00000000 </v>
   <v>       0.00000000       0.00000000       0.00000000 </v>
   <v>       0.00000000       0.00000000       0.00000000 </v>
   <v>       0.00000000       0.00000000       0.00000000 </v>
   <v>       0.00000000       0.00000000       0.00000000 </v>
   <v>       0.00000000       0.00000000       0.00000000 </v>
   <v>       0.00000000       0.00000000       0.00000000 </v>
   <v>       0.00000000       0.00000000       0.00000000 </v>
   <v>       0.00000000       0.00000000       0.00000000 </v>
   <v>       0.00000000       0.00000000       0.00000000 </v>
   <v>       0.00000000       0.00000000       0.00000000 </v>
   <v>       0.00000000       0.00000000       0.00000000 </v>
   <v>       0.00000000       0.00000000       0.00000000 </v>
   <v>       0.00000000       0.00000000       0.00000000 </v>
   <v>       0.00000000       0.00000000       0.00000000 </v>
   <v>       0.00000000       0.00000000       0.00000000 </v>
   <v>       0.00000000       0.00000000       0.00000000 </v>
   <v>       0.00000000       0.00000000       0.00000000 </v>
   <v>       0.00000000       0.00000000       0.00000000 </v>
   <v>       0.00000000       0.00000000       0.00000000 </v>
   <v>       0.00000000       0.00000000       0.00000000 </v>
   <v>       0.00000000       0.00000000       0.00000000 </v>
   <v>       0.00000000       0.00000000       0.00000000 </v>
   <v>       0.00000000       0.00000000       0.00000000 </v>
   <v>       0.00000000       0.00000000       0.00000000 </v>
   <v>       0.00000000       0.00000000       0.00000000 </v>
   <v>       0.00000000       0.00000000       0.00000000 </v>
   <v>       0.00000000       0.00000000       0.00000000 </v>
   <v>       0.00000000       0.00000000       0.00000000 </v>
   <v>       0.00000000       0.00000000       0.00000000 </v>
   <v>       0.00000000       0.00000000       0.00000000 </v>
   <v>       0.00000000       0.00000000       0.00000000 </v>
   <v>       0.00000000       0.00000000       0.00000000 </v>
   <v>       0.00000000       0.00000000       0.00000000 </v>
   <v>       0.00000000       0.00000000       0.00000000 </v>
   <v>       0.00000000       0.00000000       0.00000000 </v>
   <v>       0.00000000       0.00000000       0.00000000 </v>
   <v>       0.00000000       0.00000000       0.00000000 </v>
   <v>       0.00000000       0.00000000       0.00000000 </v>
   <v>       0.00000000       0.00000000       0.00000000 </v>
   <v>       0.00000000       0.00000000       0.00000000 </v>
   <v>       0.00000000       0.00000000       0.00000000 </v>
   <v>       0.00000000       0.00000000       0.00000000 </v>
   <v>       0.00000000       0.00000000       0.00000000 </v>
   <v>       0.00000000       0.00000000       0.00000000 </v>
   <v>       0.00000000       0.00000000       0.00000000 </v>
   <v>       0.00000000       0.00000000       0.00000000 </v>
   <v>       0.00000000       0.00000000       0.00000000 </v>
   <v>       0.00000000       0.00000000       0.00000000 </v>
   <v>       0.00000000       0.00000000       0.00000000 </v>
   <v>       0.00000000       0.00000000       0.00000000 </v>
   <v>       0.00000000       0.00000000       0.00000000 </v>
   <v>       0.00000000       0.00000000       0.00000000 </v>
   <v>       0.00000000       0.00000000       0.00000000 </v>
   <v>       0.00000000       0.00000000       0.00000000 </v>
   <v>       0.00000000       0.00000000       0.00000000 </v>
   <v>       0.00000000       0.00000000       0.00000000 </v>
   <v>       0.00000000       0.00000000       0.00000000 </v>
   <v>       0.00000000       0.00000000       0.00000000 </v>
   <v>       0.00000000       0.00000000       0.00000000 </v>
   <v>       0.00000000       0.00000000       0.00000000 </v>
   <v>       0.00000000       0.00000000       0.00000000 </v>
  </varray>
 </structure>
 <calculation>
  <scstep>
   <time name="dav">   29.74   29.83</time>
   <time name="total">   30.12   30.21</time>
   <energy>
    <i name="alphaZ">   3473.39795963 </i>
    <i name="ewald"> -52918.15291083 </i>
    <i name="hartreedc"> -13519.92087750 </i>
    <i name="XCdc">   3221.51090629 </i>
    <i name="pawpsdc">  50594.51003143 </i>
    <i name="pawaedc"> -49994.65612350 </i>
    <i name="eentropy">     -0.03242724 </i>
    <i name="bandstr">   4090.88618885 </i>
    <i name="atom">  64968.54023382 </i>
    <i name="e_fr_energy">   9916.08298095 </i>
    <i name="e_wo_entrp">   9916.11540819 </i>
    <i name="e_0_energy">   9916.09919457 </i>
   </energy>
  </scstep>
  <scstep>
   <time name="dav">   33.21   33.33</time>
   <time name="total">   33.21   33.33</time>
   <energy>
    <i name="e_fr_energy">     75.18355845 </i>
    <i name="e_wo_entrp">     75.18355845 </i>
    <i name="e_0_energy">     75.18355845 </i>
   </energy>
  </scstep>
  <scstep>
   <time name="dav">   35.99   36.23</time>
   <time name="total">   35.99   36.23</time>
   <energy>
    <i name="e_fr_energy">  -1003.80696228 </i>
    <i name="e_wo_entrp">  -1003.80696228 </i>
    <i name="e_0_energy">  -1003.80696228 </i>
   </energy>
  </scstep>
  <scstep>
   <time name="dav">   47.67   48.32</time>
   <time name="total">   47.67   48.32</time>
   <energy>
    <i name="e_fr_energy">  -1054.73824117 </i>
    <i name="e_wo_entrp">  -1054.73824117 </i>
    <i name="e_0_energy">  -1054.73824117 </i>
   </energy>
  </scstep>
  <scstep>
   <time name="dav">   46.03   46.16</time>
   <time name="total">   47.12   47.26</time>
   <energy>
    <i name="e_fr_energy">  -1059.18959495 </i>
    <i name="e_wo_entrp">  -1059.18959495 </i>
    <i name="e_0_energy">  -1059.18959495 </i>
   </energy>
  </scstep>
  <scstep>
   <time name="dav">   33.67   34.38</time>
   <time name="total">   35.10   35.83</time>
   <energy>
    <i name="e_fr_energy">   -927.47328788 </i>
    <i name="e_wo_entrp">   -927.47328788 </i>
    <i name="e_0_energy">   -927.47328788 </i>
   </energy>
  </scstep>
  <scstep>
   <time name="dav">   37.43   37.52</time>
   <time name="total">   38.87   38.97</time>
   <energy>
    <i name="e_fr_energy">   -930.03738888 </i>
    <i name="e_wo_entrp">   -930.03738888 </i>
    <i name="e_0_energy">   -930.03738888 </i>
   </energy>
  </scstep>
  <scstep>
   <time name="dav">   35.81   35.91</time>
   <time name="total">   37.25   37.36</time>
   <energy>
    <i name="e_fr_energy">   -929.21384316 </i>
    <i name="e_wo_entrp">   -929.21384316 </i>
    <i name="e_0_energy">   -929.21384316 </i>
   </energy>
  </scstep>
  <scstep>
   <time name="dav">   33.85   33.94</time>
   <time name="total">   35.36   35.46</time>
   <energy>
    <i name="e_fr_energy">   -928.95679852 </i>
    <i name="e_wo_entrp">   -928.95679852 </i>
    <i name="e_0_energy">   -928.95679852 </i>
   </energy>
  </scstep>
  <scstep>
   <time name="dav">   36.94   37.08</time>
   <time name="total">   38.37   38.53</time>
   <energy>
    <i name="e_fr_energy">   -929.02887698 </i>
    <i name="e_wo_entrp">   -929.02887698 </i>
    <i name="e_0_energy">   -929.02887698 </i>
   </energy>
  </scstep>
  <scstep>
   <time name="dav">   37.10   37.24</time>
   <time name="total">   38.54   38.69</time>
   <energy>
    <i name="e_fr_energy">   -929.02331254 </i>
    <i name="e_wo_entrp">   -929.02331254 </i>
    <i name="e_0_energy">   -929.02331254 </i>
   </energy>
  </scstep>
  <scstep>
   <time name="dav">   34.76   35.52</time>
   <time name="total">   36.17   36.98</time>
   <energy>
    <i name="e_fr_energy">   -929.02560777 </i>
    <i name="e_wo_entrp">   -929.02560777 </i>
    <i name="e_0_energy">   -929.02560777 </i>
   </energy>
  </scstep>
  <scstep>
   <time name="dav">   38.89   39.78</time>
   <time name="total">   40.31   41.24</time>
   <energy>
    <i name="e_fr_energy">   -929.02658255 </i>
    <i name="e_wo_entrp">   -929.02658255 </i>
    <i name="e_0_energy">   -929.02658255 </i>
   </energy>
  </scstep>
  <scstep>
   <time name="dav">   38.79   38.91</time>
   <time name="total">   40.23   40.35</time>
   <energy>
    <i name="e_fr_energy">   -929.02664814 </i>
    <i name="e_wo_entrp">   -929.02664814 </i>
    <i name="e_0_energy">   -929.02664814 </i>
   </energy>
  </scstep>
  <scstep>
   <time name="dav">   35.62   35.72</time>
   <time name="total">   37.06   37.17</time>
   <energy>
    <i name="e_fr_energy">   -929.02665921 </i>
    <i name="e_wo_entrp">   -929.02665921 </i>
    <i name="e_0_energy">   -929.02665921 </i>
   </energy>
  </scstep>
  <scstep>
   <time name="dav">   35.60   35.70</time>
   <time name="total">   37.05   37.16</time>
   <energy>
    <i name="e_fr_energy">   -929.02665216 </i>
    <i name="e_wo_entrp">   -929.02665216 </i>
    <i name="e_0_energy">   -929.02665216 </i>
   </energy>
  </scstep>
  <scstep>
   <time name="dav">   39.09   39.21</time>
   <time name="total">   40.53   40.66</time>
   <energy>
    <i name="e_fr_energy">   -929.02665295 </i>
    <i name="e_wo_entrp">   -929.02665295 </i>
    <i name="e_0_energy">   -929.02665295 </i>
   </energy>
  </scstep>
  <scstep>
   <time name="dav">   32.12   32.85</time>
   <time name="total">   32.49   33.23</time>
   <energy>
    <i name="alphaZ">   3473.39795963 </i>
    <i name="ewald"> -52918.15291083 </i>
    <i name="hartreedc"> -14805.22594030 </i>
    <i name="XCdc">   3312.68417441 </i>
    <i name="pawpsdc">  94256.46168602 </i>
    <i name="pawaedc"> -93915.86969833 </i>
    <i name="eentropy">     -0.00000000 </i>
    <i name="bandstr">  -5300.86215688 </i>
    <i name="atom">  64968.54023382 </i>
    <i name="e_fr_energy">   -929.02665247 </i>
    <i name="e_wo_entrp">   -929.02665247 </i>
    <i name="e_0_energy">   -929.02665247 </i>
   </energy>
  </scstep>
  <structure>
   <crystal>
    <varray name="basis" >
     <v>      11.12194768       0.00000000       0.00000000 </v>
     <v>       0.00000000      11.12194768       0.00000000 </v>
     <v>       0.00000000       0.00000000      11.12194768 </v>
    </varray>
    <i name="volume">   1375.75957216 </i>
    <varray name="rec_basis" >
     <v>       0.08991231       0.00000000       0.00000000 </v>
     <v>       0.00000000       0.08991231       0.00000000 </v>
     <v>       0.00000000       0.00000000       0.08991231 </v>
    </varray>
   </crystal>
   <varray name="positions" >
    <v>       0.12091308       0.66480434       0.81952581 </v>
    <v>       0.09876754       0.65030745       0.52686211 </v>
    <v>       0.13958517       0.28872429       0.17912104 </v>
    <v>       0.38912802       0.29980481       0.54798316 </v>
    <v>       0.62196195       0.82163050       0.99245433 </v>
    <v>       0.06045768       0.95457763       0.83072147 </v>
    <v>       0.81828765       0.32718845       0.07472951 </v>
    <v>       0.23899327       0.12940951       0.74080067 </v>
    <v>       0.84198869       0.40877772       0.40502223 </v>
    <v>       0.28647518       0.51338770       0.31295251 </v>
    <v>       0.15953610       0.05682115       0.43879353 </v>
    <v>       0.65056633       0.19857337       0.28386324 </v>
    <v>       0.82762284       0.74483938       0.71103838 </v>
    <v>       0.50687940       0.71057423       0.39682303 </v>
    <v>       0.74286221       0.98677944       0.52248636 </v>
    <v>       0.93586846       0.81755772       0.29316228 </v>
    <v>       0.42131495       0.97687680       0.18519229 </v>
    <v>       0.41060245       0.68179370       0.10085136 </v>
    <v>       0.18355642       0.02085984       0.06993728 </v>
    <v>       0.95574072       0.21238369       0.60904941 </v>
    <v>       0.90605650       0.52484923       0.94362566 </v>
    <v>       0.80923816       0.03588576       0.80807922 </v>
    <v>       0.71882498       0.59526781       0.20527907 </v>
    <v>       0.49105566       0.43222048       0.08447381 </v>
    <v>       0.14062258       0.39902107       0.74358939 </v>
    <v>       0.62445451       0.51466225       0.60237872 </v>
    <v>       0.29023904       0.84179300       0.60894048 </v>
    <v>       0.64627916       0.57265580       0.89930560 </v>
    <v>       0.59890258       0.81977231       0.65426543 </v>
    <v>       0.00426728       0.89406858       0.59844130 </v>
    <v>       0.34683542       0.54538314       0.58290995 </v>
    <v>       0.35864156       0.22269340       0.27446425 </v>
    <v>       0.53959230       0.43671388       0.32842913 </v>
    <v>       0.55941222       0.01139525       0.79217031 </v>
    <v>       0.88792182       0.49842883       0.66069696 </v>
    <v>       0.91020448       0.04868876       0.10304848 </v>
    <v>       0.39354011       0.60289132       0.80765876 </v>
    <v>       0.99864971       0.54986551       0.28023608 </v>
    <v>       0.25675762       0.79894572       0.35485281 </v>
    <v>       0.94126238       0.13831468       0.32550378 </v>
    <v>       0.35446573       0.18343782       0.99807570 </v>
    <v>       0.77635939       0.67724517       0.46331781 </v>
    <v>       0.48395096       0.27156264       0.77951391 </v>
    <v>       0.12540760       0.75306275       0.09950973 </v>
    <v>       0.66577203       0.87607928       0.26422830 </v>
    <v>       0.88166663       0.77408216       0.01353367 </v>
    <v>       0.67016427       0.24144903       0.57570352 </v>
    <v>       0.76810637       0.33920523       0.78431144 </v>
    <v>       0.47414947       0.02143821       0.46274272 </v>
    <v>       0.24139162       0.50258022       0.00968036 </v>
    <v>       0.13351238       0.36288670       0.46666843 </v>
    <v>       0.32644989       0.86856477       0.90451926 </v>
    <v>       0.64631594       0.10873154       0.04001179 </v>
    <v>       0.99485531       0.23500452       0.93506720 </v>
    <v>       0.33345219       0.03183237       0.94415639 </v>
    <v>       0.08615379       0.66309253       0.27080839 </v>
    <v>       0.09117590       0.44325093       0.31872895 </v>
    <v>       0.19916884       0.84247255       0.19045076 </v>
    <v>       0.60079183       0.01439625       0.15119659 </v>
    <v>       0.86648527       0.93824029       0.66349010 </v>
    <v>       0.78293786       0.76405503       0.10776889 </v>
    <v>       0.67710723       0.40963732       0.24941997 </v>
    <v>       0.68429072       0.76538353       0.54229729 </v>
    <v>       0.34353906       0.69050051       0.27969374 </v>
    <v>       0.50582328       0.88242792       0.55612634 </v>
    <v>       0.22004246       0.46285245       0.54100435 </v>
    <v>       0.78919368       0.37144357       0.62748679 </v>
    <v>       0.56161687       0.64759327       0.97917738 </v>
    <v>       0.11800580       0.49178053       0.93075345 </v>
    <v>       0.62267578       0.31643165       0.82184930 </v>
    <v>       0.42857005       0.49046266       0.47099152 </v>
    <v>       0.66337933       0.93938044       0.71632811 </v>
    <v>       0.97540567       0.90400341       0.11171704 </v>
    <v>       0.41277399       0.83951451       0.01228222 </v>
    <v>       0.56991122       0.33341991       0.43829681 </v>
    <v>       0.23314244       0.90938614       0.79173506 </v>
    <v>       0.44428489       0.61232659       0.66569115 </v>
    <v>       0.45343133       0.24999551       0.92821189 </v>
    <v>       0.52173754       0.56056611       0.23554825 </v>
    <v>       0.05783813       0.18719066       0.82469520 </v>
    <v>       0.63630408       0.24092844       0.08410354 </v>
    <v>       0.21472758       0.19639176       0.98636947 </v>
    <v>       0.24558485       0.12863873       0.24767496 </v>
    <v>       0.76422372       0.49582835       0.80742159 </v>
    <v>       0.26601015       0.53950296       0.72510922 </v>
    <v>       0.34173381       0.72386103       0.84417840 </v>
    <v>       0.28159612       0.41072320       0.12525067 </v>
    <v>       0.83379292       0.58792394       0.57139771 </v>
    <v>       0.41086978       0.17015605       0.12886625 </v>
    <v>       0.56423607       0.11385552       0.52976641 </v>
    <v>       0.68214829       0.55249448       0.44259025 </v>
    <v>       0.92235304       0.79549579       0.52558571 </v>
    <v>       0.28148945       0.66624891       0.49666116 </v>
    <v>       0.01507637       0.29451867       0.05416984 </v>
    <v>       0.69064945       0.48455001       0.02397333 </v>
    <v>       0.56024948       0.31205119       0.64370429 </v>
    <v>       0.34898673       0.90437024       0.33483271 </v>
    <v>       0.97589756       0.08567309       0.97558577 </v>
    <v>       0.93859995       0.03904739       0.43097887 </v>
    <v>       0.78622060       0.08043813       0.04693201 </v>
    <v>       0.34692582       0.29713562       0.74581676 </v>
    <v>       0.99712826       0.46717044       0.52241809 </v>
    <v>       0.87921936       0.89223175       0.93188021 </v>
    <v>       0.56403137       0.80364460       0.18001482 </v>
    <v>       0.07391226       0.02217162       0.64492818 </v>
    <v>       0.22619502       0.62712672       0.09583774 </v>
    <v>       0.32059275       0.01078631       0.53821678 </v>
    <v>       0.19207390       0.80375377       0.96524373 </v>
    <v>       0.07794910       0.79061401       0.68102388 </v>
    <v>       0.75291748       0.76051524       0.31042830 </v>
    <v>       0.14931850       0.83671408       0.43674160 </v>
    <v>       0.90363106       0.49917372       0.18113153 </v>
    <v>       0.79618005       0.95124279       0.27294693 </v>
    <v>       0.43512540       0.13718567       0.36899256 </v>
    <v>       0.02879031       0.24848969       0.39083016 </v>
    <v>       0.47770596       0.89247228       0.79344049 </v>
    <v>       0.97502574       0.59763943       0.71726447 </v>
    <v>       0.35744010       0.50491662       0.92257000 </v>
    <v>       0.63999999       0.70717659       0.73942496 </v>
    <v>       0.75185842       0.21077431       0.45183198 </v>
    <v>       0.57736243       0.93140186       0.37304599 </v>
    <v>       0.90491774       0.63507361       0.38304136 </v>
    <v>       0.54473444       0.50426038       0.80458058 </v>
    <v>       0.60220325       0.04726739       0.93371354 </v>
    <v>       0.75676414       0.14708798       0.66499130 </v>
    <v>       0.46574895       0.11321196       0.73648951 </v>
    <v>       0.43740708       0.35252623       0.26285628 </v>
    <v>       0.84903900       0.22886210       0.25282561 </v>
    <v>       0.92823100       0.38584892       0.75207381 </v>
    <v>       0.12937047       0.26323423       0.59212534 </v>
    <v>       0.25703705       0.29425990       0.39606315 </v>
    <v>       0.81445978       0.67432914       0.90017481 </v>
    <v>       0.99794625       0.69069837       0.06703204 </v>
    <v>       0.02911881       0.11402584       0.19340903 </v>
    <v>       0.83381464       0.23735666       0.89077389 </v>
   </varray>
  </structure>
  <varray name="forces" >
   <v>       1.47949441       1.08531657       0.87072772 </v>
   <v>      -3.59081175      -0.52323862       0.02879279 </v>
   <v>       0.02037629      -0.35537209       2.13662887 </v>
   <v>       0.34436410      -1.94503452      -1.81350122 </v>
   <v>       0.12254568       1.85487118      -0.15697621 </v>
   <v>      -1.47810480      -0.26644802       1.34145543 </v>
   <v>      -2.91347409       0.58560162       3.11192579 </v>
   <v>       0.56980491      -1.31662688      -0.40514265 </v>
   <v>      -1.69058431      -1.89628360      -0.98117615 </v>
   <v>      -0.39846084      -0.00025584      -0.45591812 </v>
   <v>       0.81254783       0.87423935      -0.74907645 </v>
   <v>      -0.49605625      -0.00367333       0.63197415 </v>
   <v>       1.81631882       0.15720462       1.08182663 </v>
   <v>      -0.24874646       0.61218894      -0.84860758 </v>
   <v>       0.42474460       1.29542274      -2.17514274 </v>
   <v>       1.41194814       0.95800559       0.61532096 </v>
   <v>      -0.16856223      -1.07464226      -1.40428757 </v>
   <v>       1.12324830       0.20462868       0.91234836 </v>
   <v>      -2.34342728      -0.76077979       2.01575899 </v>
   <v>      -1.68107112      -1.27314641      -0.22567545 </v>
   <v>       1.69024331      -1.44461154       1.01925365 </v>
   <v>       1.05643411       1.25825443       3.11814136 </v>
   <v>      -0.07802281      -0.11239080      -1.42799170 </v>
   <v>       2.28579247      -2.10067446      -2.23682187 </v>
   <v>      -0.36633553      -1.41349346       0.02951655 </v>
   <v>      -1.96037415      -1.22556480       4.18920440 </v>
   <v>       0.66687050       0.10652288       1.98460713 </v>
   <v>       2.57860828      -4.66192394      -1.85837885 </v>
   <v>      -3.04908406      -0.96882675       1.15454074 </v>
   <v>      -2.24048632       0.54552371       1.37706665 </v>
   <v>      -4.72130908       2.26952017      -2.12769734 </v>
   <v>      -0.40237202      -2.03794829       1.15514249 </v>
   <v>       5.27496771      -1.11797210       1.32197761 </v>
   <v>      -4.98981734       1.11431625      -0.06694730 </v>
   <v>       3.34616130      -3.41739839       0.50801898 </v>
   <v>       4.07126946      -3.80956595       1.32169641 </v>
   <v>       2.67210130      -5.97071817      -0.70645241 </v>
   <v>      -1.42669502       1.99575179      -0.39219463 </v>
   <v>       1.69847827      -2.50750998      -6.32009089 </v>
   <v>       0.27863153       3.39512398      -0.73742049 </v>
   <v>      -1.05266867      -3.53154012      -0.78665032 </v>
   <v>       1.71791029      -0.86816661      -2.85432851 </v>
   <v>       2.98395924      -1.28839507       0.87808968 </v>
   <v>       4.34211312      -0.83804685       0.70106955 </v>
   <v>       0.20302905       2.10870316      -2.28078486 </v>
   <v>       0.69451192       1.17088688      -1.55422077 </v>
   <v>      -0.39814524      -3.00206582      -3.85183760 </v>
   <v>      -0.37236883      -0.20916026       1.40074366 </v>
   <v>      -2.29029778      -1.48219468       0.88139079 </v>
   <v>      -2.14780450      -0.30180183       2.46970442 </v>
   <v>      -2.60298902      -2.41579840       0.05485636 </v>
   <v>      -0.01959205       0.94012575      -3.04260324 </v>
   <v>       1.18164599       2.16193461       9.90655156 </v>
   <v>      -2.88561341      -5.01822536      -1.74528491 </v>
   <v>       1.23019975       0.38938864       0.28207754 </v>
   <v>       1.01132745       0.86072918      -0.61769002 </v>
   <v>       0.67276980      -0.34629076       1.25555375 </v>
   <v>      -0.79224175       0.43495452       0.89846647 </v>
   <v>       1.65558572       1.44612344      -0.73190219 </v>
   <v>       3.66905377      -0.65032161       0.21434581 </v>
   <v>      -2.15061774      -0.18569525       1.28110926 </v>
   <v>      -1.44030497      -1.14182647       1.56847763 </v>
   <v>       0.91595670       0.54780734      -1.00946425 </v>
   <v>      -1.48265428       1.60431858       3.08311288 </v>
   <v>      -1.05808156      -1.41137502       1.42170783 </v>
   <v>       0.29697323      -0.22168626      -0.60382073 </v>
   <v>      -3.40470567      -0.85939812      -1.92352685 </v>
   <v>      -2.25267286       1.47885193       0.90441824 </v>
   <v>       0.46292644      -0.38436097       0.21163227 </v>
   <v>       3.71326953      -1.98725810       2.24964030 </v>
   <v>       0.80778675       1.05233908      -0.02304168 </v>
   <v>       0.84326001       0.90809555       0.08972548 </v>
   <v>       0.12269605       1.03081816       0.78013502 </v>
   <v>       1.38450649       1.92672905       1.73825813 </v>
   <v>       0.26691762       1.21666273      -0.80628373 </v>
   <v>       2.48705857       1.17652914      -0.55125092 </v>
   <v>       1.50432085       2.08065831      -2.38973413 </v>
   <v>       1.24233120       1.76536520      -1.00909509 </v>
   <v>      -1.51509070      -0.79973561       2.38510832 </v>
   <v>       2.67719428       0.71278980      -5.79856011 </v>
   <v>      -0.47138753       1.35990862      -0.36429799 </v>
   <v>      -1.17222696       2.56515759       0.56886259 </v>
   <v>      -0.66225942      -0.01210413      -0.05067144 </v>
   <v>      -0.68078917      -0.49845024      -1.05846049 </v>
   <v>       1.48827234       1.93730537      -0.19751205 </v>
   <v>      -0.78136688       1.52116271      -0.20909523 </v>
   <v>      -0.31420789       1.37430084      -2.43233785 </v>
   <v>      -3.92637100       2.95516813      -0.44324797 </v>
   <v>       0.70688891       1.49326885       1.77882461 </v>
   <v>       1.53082202      -0.32680723       1.19955806 </v>
   <v>       0.01500354       3.00726097      -4.85516946 </v>
   <v>      -0.01421297      -0.40058486      -2.57251098 </v>
   <v>       2.62968754       0.45138048       0.80363593 </v>
   <v>      -2.24166025       3.88195875       0.07208379 </v>
   <v>       1.06778186       0.67144495      -2.14281228 </v>
   <v>      -1.84230388       0.09329209      -0.42257909 </v>
   <v>       1.03281927       0.68503523       3.65595518 </v>
   <v>       1.81325010       0.55995362       0.23659275 </v>
   <v>       0.87928200      -0.51462594       0.06696796 </v>
   <v>      -0.33763698      -0.10524690       0.01883971 </v>
   <v>      -1.53578046       1.88695507      -1.43243910 </v>
   <v>       0.91444731      -2.83986284       0.99025879 </v>
   <v>      -0.51827760      -0.86324691      -3.46996457 </v>
   <v>       0.56400029      -0.61814978       2.26989577 </v>
   <v>       0.05159755      -0.83740883      -2.51733557 </v>
   <v>      -1.74095479      -1.04786330      -1.58591555 </v>
   <v>       2.40083841       2.59944283      -0.55330201 </v>
   <v>      -3.60509285       1.15075909       2.09547209 </v>
   <v>      -0.16090051       1.79045741      -0.97912089 </v>
   <v>      -2.75094956      -2.37887743       5.44781277 </v>
   <v>      -2.32812869       1.28122216       1.68190112 </v>
   <v>       1.02607669      -0.03299019       0.67354179 </v>
   <v>      -0.57702527       2.91219755      -0.83982841 </v>
   <v>       0.40491848      -0.04445273      -1.48207173 </v>
   <v>      -0.19426558      -0.46295532       0.73537011 </v>
   <v>      -0.60093626      -1.18409872       0.78688605 </v>
   <v>       1.61871840       0.09900860       2.19335459 </v>
   <v>       0.34322601       0.48389792       1.26094308 </v>
   <v>      -1.02610906       0.37645940       0.83426274 </v>
   <v>       1.48244108       0.56635773       1.78157203 </v>
   <v>       0.27467723       1.06559959      -0.18574423 </v>
   <v>       0.50984056      -2.75673304      -1.97483152 </v>
   <v>      -1.85183111       2.46605369       1.99095487 </v>
   <v>      -2.49394492      -4.40044732     -10.39425145 </v>
   <v>      -1.47565291       2.76513361       0.26017468 </v>
   <v>       2.36111751       1.08266216       1.64046658 </v>
   <v>      -1.23816857      -1.20447382      -0.13520852 </v>
   <v>       0.05938549      -1.21934573      -0.21045654 </v>
   <v>       2.31769919      -1.67067972       2.43123312 </v>
   <v>       2.54945319       1.01068065      -1.03173118 </v>
   <v>       0.21906675       0.70673451      -1.31351577 </v>
   <v>      -0.32338070       2.44451614       1.66704103 </v>
   <v>      -0.72578480      -0.33091218      -2.68195379 </v>
   <v>      -3.12469199      -2.22981669       1.41776261 </v>
   <v>       0.73237618       2.55653715      -0.93637986 </v>
  </varray>
  <varray name="stress" >
   <v>     199.56717409      18.92573869      11.06115965 </v>
   <v>      18.92573866     179.73300179      -6.89116383 </v>
   <v>      11.06115970      -6.89116386     204.73280296 </v>
  </varray>
  <energy>
   <i name="e_fr_energy">   -929.02665247 </i>
   <i name="e_wo_entrp">   -929.02665247 </i>
   <i name="e_0_energy">     -0.00000000 </i>
  </energy>
  <time name="totalsc">  717.99  723.65</time>
  <eigenvalues>
   <array>
    <dimension dim="1">band</dimension>
    <dimension dim="2">kpoint</dimension>
    <dimension dim="3">spin</dimension>
    <field>eigene</field>
    <field>occ</field>
    <set>
     <set comment="spin 1">
      <set comment="kpoint 1">
       <r>  -33.9082    1.0000 </r>
       <r>  -33.4584    1.0000 </r>
       <r>  -33.3620    1.0000 </r>
       <r>  -33.3418    1.0000 </r>
       <r>  -33.3120    1.0000 </r>
       <r>  -33.2123    1.0000 </r>
       <r>  -33.2047    1.0000 </r>
       <r>  -33.1873    1.0000 </r>
       <r>  -33.1615    1.0000 </r>
       <r>  -33.1559    1.0000 </r>
       <r>  -33.1375    1.0000 </r>
       <r>  -33.1091    1.0000 </r>
       <r>  -33.0539    1.0000 </r>
       <r>  -32.9661    1.0000 </r>
       <r>  -32.9620    1.0000 </r>
       <r>  -32.9612    1.0000 </r>
       <r>  -32.8175    1.0000 </r>
       <r>  -32.7614    1.0000 </r>
       <r>  -32.6703    1.0000 </r>
       <r>  -32.5966    1.0000 </r>
       <r>  -32.5939    1.0000 </r>
       <r>  -32.4094    1.0000 </r>
       <r>  -32.3053    1.0000 </r>
       <r>  -32.0604    1.0000 </r>
       <r>  -31.9922    1.0000 </r>
       <r>  -31.7791    1.0000 </r>
       <r>  -31.7602    1.0000 </r>
       <r>  -16.7627    1.0000 </r>
       <r>  -16.4413    1.0000 </r>
       <r>  -16.3692    1.0000 </r>
       <r>  -16.0909    1.0000 </r>
       <r>  -16.0192    1.0000 </r>
       <r>  -15.7832    1.0000 </r>
       <r>  -15.7126    1.0000 </r>
       <r>  -15.6429    1.0000 </r>
       <r>  -15.5991    1.0000 </r>
       <r>  -15.5254    1.0000 </r>
       <r>  -15.4482    1.0000 </r>
       <r>  -15.3799    1.0000 </r>
       <r>  -15.3595    1.0000 </r>
       <r>  -15.3461    1.0000 </r>
       <r>  -15.2901    1.0000 </r>
[...]
       <r>     7.5944     0.0000   864.0000 </r>
       <r>     7.7656     0.0000   864.0000 </r>
       <r>     7.9369     0.0000   864.0000 </r>
       <r>     8.1081     0.0000   864.0000 </r>
       <r>     8.2794     0.0000   864.0000 </r>
       <r>     8.4506     0.0825   864.0141 </r>
       <r>     8.6218     1.3825   864.2509 </r>
       <r>     8.7931     4.4801   865.0181 </r>
       <r>     8.9643    12.7251   867.1971 </r>
       <r>     9.1356    12.0239   869.2561 </r>
       <r>     9.3068    17.0564   872.1768 </r>
       <r>     9.4780    10.6891   874.0073 </r>
       <r>     9.6493    11.8685   876.0396 </r>
       <r>     9.8205    17.4155   879.0219 </r>
       <r>     9.9918    23.0249   882.9647 </r>
       <r>    10.1630    19.1615   886.2459 </r>
       <r>    10.3342    27.7899   891.0047 </r>
       <r>    10.5055    33.4256   896.7285 </r>
       <r>    10.6767    39.0519   903.4158 </r>
       <r>    10.8480    42.8259   910.7493 </r>
       <r>    11.0192    51.7738   919.6151 </r>
       <r>    11.1905    54.7610   928.9925 </r>
       <r>    11.3617    54.1954   938.2729 </r>
       <r>    11.5329    58.2815   948.2531 </r>
       <r>    11.7042    63.2513   959.0843 </r>
       <r>    11.8754    69.2457   970.9420 </r>
       <r>    12.0467    72.7890   983.4065 </r>
       <r>    12.2179    71.9083   995.7201 </r>
       <r>    12.3891    81.5021  1009.6766 </r>
       <r>    12.5604    83.3800  1023.9547 </r>
       <r>    12.7316    77.0094  1037.1418 </r>
       <r>    12.9029    16.6877  1039.9994 </r>
       <r>    13.0741     0.0033  1040.0000 </r>
       <r>    13.2453     0.0000  1040.0000 </r>
       <r>    13.4166     0.0000  1040.0000 </r>
       <r>    13.5878     0.0000  1040.0000 </r>
       <r>    13.7591     0.0000  1040.0000 </r>
       <r>    13.9303     0.0000  1040.0000 </r>
       <r>    14.1015     0.0000  1040.0000 </r>
       <r>    14.2728     0.0000  1040.0000 </r>
       <r>    14.4440     0.0000  1040.0000 </r>
       <r>    14.6153     0.0000  1040.0000 </r>
       <r>    14.7865     0.0000  1040.0000 </r>
       <r>    14.9578     0.0000  1040.0000 </r>
       <r>    15.1290     0.0000  1040.0000 </r>
      </set>
     </set>
    </array>
   </total>
  </dos>
 </calculation>
 <structure name="finalpos" >
  <crystal>
   <varray name="basis" >
    <v>      11.12194768       0.00000000       0.00000000 </v>
    <v>       0.00000000      11.12194768       0.00000000 </v>
    <v>       0.00000000       0.00000000      11.12194768 </v>
   </varray>
   <i name="volume">   1375.75957216 </i>
   <varray name="rec_basis" >
    <v>       0.08991231       0.00000000       0.00000000 </v>
    <v>       0.00000000       0.08991231       0.00000000 </v>
    <v>       0.00000000       0.00000000       0.08991231 </v>
   </varray>
  </crystal>
  <varray name="positions" >
   <v>       0.12091308       0.66480434       0.81952581 </v>
   <v>       0.09876754       0.65030745       0.52686211 </v>
   <v>       0.13958517       0.28872429       0.17912104 </v>
   <v>       0.38912802       0.29980481       0.54798316 </v>
   <v>       0.62196195       0.82163050       0.99245433 </v>
   <v>       0.06045768       0.95457763       0.83072147 </v>
   <v>       0.81828765       0.32718845       0.07472951 </v>
   <v>       0.23899327       0.12940951       0.74080067 </v>
   <v>       0.84198869       0.40877772       0.40502223 </v>
   <v>       0.28647518       0.51338770       0.31295251 </v>
   <v>       0.15953610       0.05682115       0.43879353 </v>
   <v>       0.65056633       0.19857337       0.28386324 </v>
   <v>       0.82762284       0.74483938       0.71103838 </v>
   <v>       0.50687940       0.71057423       0.39682303 </v>
   <v>       0.74286221       0.98677944       0.52248636 </v>
   <v>       0.93586846       0.81755772       0.29316228 </v>
   <v>       0.42131495       0.97687680       0.18519229 </v>
   <v>       0.41060245       0.68179370       0.10085136 </v>
   <v>       0.18355642       0.02085984       0.06993728 </v>
   <v>       0.95574072       0.21238369       0.60904941 </v>
   <v>       0.90605650       0.52484923       0.94362566 </v>
   <v>       0.80923816       0.03588576       0.80807922 </v>
   <v>       0.71882498       0.59526781       0.20527907 </v>
   <v>       0.49105566       0.43222048       0.08447381 </v>
   <v>       0.14062258       0.39902107       0.74358939 </v>
   <v>       0.62445451       0.51466225       0.60237872 </v>
   <v>       0.29023904       0.84179300       0.60894048 </v>
   <v>       0.64627916       0.57265580       0.89930560 </v>
   <v>       0.59890258       0.81977231       0.65426543 </v>
   <v>       0.00426728       0.89406858       0.59844130 </v>
   <v>       0.34683542       0.54538314       0.58290995 </v>
   <v>       0.35864156       0.22269340       0.27446425 </v>
   <v>       0.53959230       0.43671388       0.32842913 </v>
   <v>       0.55941222       0.01139525       0.79217031 </v>
   <v>       0.88792182       0.49842883       0.66069696 </v>
   <v>       0.91020448       0.04868876       0.10304848 </v>
   <v>       0.39354011       0.60289132       0.80765876 </v>
   <v>       0.99864971       0.54986551       0.28023608 </v>
   <v>       0.25675762       0.79894572       0.35485281 </v>
   <v>       0.94126238       0.13831468       0.32550378 </v>
   <v>       0.35446573       0.18343782       0.99807570 </v>
   <v>       0.77635939       0.67724517       0.46331781 </v>
   <v>       0.48395096       0.27156264       0.77951391 </v>
   <v>       0.12540760       0.75306275       0.09950973 </v>
   <v>       0.66577203       0.87607928       0.26422830 </v>
   <v>       0.88166663       0.77408216       0.01353367 </v>
   <v>       0.67016427       0.24144903       0.57570352 </v>
   <v>       0.76810637       0.33920523       0.78431144 </v>
   <v>       0.47414947       0.02143821       0.46274272 </v>
   <v>       0.24139162       0.50258022       0.00968036 </v>
   <v>       0.13351238       0.36288670       0.46666843 </v>
   <v>       0.32644989       0.86856477       0.90451926 </v>
   <v>       0.64631594       0.10873154       0.04001179 </v>
   <v>       0.99485531       0.23500452       0.93506720 </v>
   <v>       0.33345219       0.03183237       0.94415639 </v>
   <v>       0.08615379       0.66309253       0.27080839 </v>
   <v>       0.09117590       0.44325093       0.31872895 </v>
   <v>       0.19916884       0.84247255       0.19045076 </v>
   <v>       0.60079183       0.01439625       0.15119659 </v>
   <v>       0.86648527       0.93824029       0.66349010 </v>
   <v>       0.78293786       0.76405503       0.10776889 </v>
   <v>       0.67710723       0.40963732       0.24941997 </v>
   <v>       0.68429072       0.76538353       0.54229729 </v>
   <v>       0.34353906       0.69050051       0.27969374 </v>
   <v>       0.50582328       0.88242792       0.55612634 </v>
   <v>       0.22004246       0.46285245       0.54100435 </v>
   <v>       0.78919368       0.37144357       0.62748679 </v>
   <v>       0.56161687       0.64759327       0.97917738 </v>
   <v>       0.11800580       0.49178053       0.93075345 </v>
   <v>       0.62267578       0.31643165       0.82184930 </v>
   <v>       0.42857005       0.49046266       0.47099152 </v>
   <v>       0.66337933       0.93938044       0.71632811 </v>
   <v>       0.97540567       0.90400341       0.11171704 </v>
   <v>       0.41277399       0.83951451       0.01228222 </v>
   <v>       0.56991122       0.33341991       0.43829681 </v>
   <v>       0.23314244       0.90938614       0.79173506 </v>
   <v>       0.44428489       0.61232659       0.66569115 </v>
   <v>       0.45343133       0.24999551       0.92821189 </v>
   <v>       0.52173754       0.56056611       0.23554825 </v>
   <v>       0.05783813       0.18719066       0.82469520 </v>
   <v>       0.63630408       0.24092844       0.08410354 </v>
   <v>       0.21472758       0.19639176       0.98636947 </v>
   <v>       0.24558485       0.12863873       0.24767496 </v>
   <v>       0.76422372       0.49582835       0.80742159 </v>
   <v>       0.26601015       0.53950296       0.72510922 </v>
   <v>       0.34173381       0.72386103       0.84417840 </v>
   <v>       0.28159612       0.41072320       0.12525067 </v>
   <v>       0.83379292       0.58792394       0.57139771 </v>
   <v>       0.41086978       0.17015605       0.12886625 </v>
   <v>       0.56423607       0.11385552       0.52976641 </v>
   <v>       0.68214829       0.55249448       0.44259025 </v>
   <v>       0.92235304       0.79549579       0.52558571 </v>
   <v>       0.28148945       0.66624891       0.49666116 </v>
   <v>       0.01507637       0.29451867       0.05416984 </v>
   <v>       0.69064945       0.48455001       0.02397333 </v>
   <v>       0.56024948       0.31205119       0.64370429 </v>
   <v>       0.34898673       0.90437024       0.33483271 </v>
   <v>       0.97589756       0.08567309       0.97558577 </v>
   <v>       0.93859995       0.03904739       0.43097887 </v>
   <v>       0.78622060       0.08043813       0.04693201 </v>
   <v>       0.34692582       0.29713562       0.74581676 </v>
   <v>       0.99712826       0.46717044       0.52241809 </v>
   <v>       0.87921936       0.89223175       0.93188021 </v>
   <v>       0.56403137       0.80364460       0.18001482 </v>
   <v>       0.07391226       0.02217162       0.64492818 </v>
   <v>       0.22619502       0.62712672       0.09583774 </v>
   <v>       0.32059275       0.01078631       0.53821678 </v>
   <v>       0.19207390       0.80375377       0.96524373 </v>
   <v>       0.07794910       0.79061401       0.68102388 </v>
   <v>       0.75291748       0.76051524       0.31042830 </v>
   <v>       0.14931850       0.83671408       0.43674160 </v>
   <v>       0.90363106       0.49917372       0.18113153 </v>
   <v>       0.79618005       0.95124279       0.27294693 </v>
   <v>       0.43512540       0.13718567       0.36899256 </v>
   <v>       0.02879031       0.24848969       0.39083016 </v>
   <v>       0.47770596       0.89247228       0.79344049 </v>
   <v>       0.97502574       0.59763943       0.71726447 </v>
   <v>       0.35744010       0.50491662       0.92257000 </v>
   <v>       0.63999999       0.70717659       0.73942496 </v>
   <v>       0.75185842       0.21077431       0.45183198 </v>
   <v>       0.57736243       0.93140186       0.37304599 </v>
   <v>       0.90491774       0.63507361       0.38304136 </v>
   <v>       0.54473444       0.50426038       0.80458058 </v>
   <v>       0.60220325       0.04726739       0.93371354 </v>
   <v>       0.75676414       0.14708798       0.66499130 </v>
   <v>       0.46574895       0.11321196       0.73648951 </v>
   <v>       0.43740708       0.35252623       0.26285628 </v>
   <v>       0.84903900       0.22886210       0.25282561 </v>
   <v>       0.92823100       0.38584892       0.75207381 </v>
   <v>       0.12937047       0.26323423       0.59212534 </v>
   <v>       0.25703705       0.29425990       0.39606315 </v>
   <v>       0.81445978       0.67432914       0.90017481 </v>
   <v>       0.99794625       0.69069837       0.06703204 </v>
   <v>       0.02911881       0.11402584       0.19340903 </v>
   <v>       0.83381464       0.23735666       0.89077389 </v>
  </varray>
  <varray name="velocities" >
   <v>       0.00000000       0.00000000       0.00000000 </v>
   <v>       0.00000000       0.00000000       0.00000000 </v>
   <v>       0.00000000       0.00000000       0.00000000 </v>
   <v>       0.00000000       0.00000000       0.00000000 </v>
   <v>       0.00000000       0.00000000       0.00000000 </v>
   <v>       0.00000000       0.00000000       0.00000000 </v>
   <v>       0.00000000       0.00000000       0.00000000 </v>
   <v>       0.00000000       0.00000000       0.00000000 </v>
   <v>       0.00000000       0.00000000       0.00000000 </v>
   <v>       0.00000000       0.00000000       0.00000000 </v>
   <v>       0.00000000       0.00000000       0.00000000 </v>
   <v>       0.00000000       0.00000000       0.00000000 </v>
   <v>       0.00000000       0.00000000       0.00000000 </v>
   <v>       0.00000000       0.00000000       0.00000000 </v>
   <v>       0.00000000       0.00000000       0.00000000 </v>
   <v>       0.00000000       0.00000000       0.00000000 </v>
   <v>       0.00000000       0.00000000       0.00000000 </v>
   <v>       0.00000000       0.00000000       0.00000000 </v>
   <v>       0.00000000       0.00000000       0.00000000 </v>
   <v>       0.00000000       0.00000000       0.00000000 </v>
   <v>       0.00000000       0.00000000       0.00000000 </v>
   <v>       0.00000000       0.00000000       0.00000000 </v>
   <v>       0.00000000       0.00000000       0.00000000 </v>
   <v>       0.00000000       0.00000000       0.00000000 </v>
   <v>       0.00000000       0.00000000       0.00000000 </v>
   <v>       0.00000000       0.00000000       0.00000000 </v>
   <v>       0.00000000       0.00000000       0.00000000 </v>
   <v>       0.00000000       0.00000000       0.00000000 </v>
   <v>       0.00000000       0.00000000       0.00000000 </v>
   <v>       0.00000000       0.00000000       0.00000000 </v>
   <v>       0.00000000       0.00000000       0.00000000 </v>
   <v>       0.00000000       0.00000000       0.00000000 </v>
   <v>       0.00000000       0.00000000       0.00000000 </v>
   <v>       0.00000000       0.00000000       0.00000000 </v>
   <v>       0.00000000       0.00000000       0.00000000 </v>
   <v>       0.00000000       0.00000000       0.00000000 </v>
   <v>       0.00000000       0.00000000       0.00000000 </v>
   <v>       0.00000000       0.00000000       0.00000000 </v>
   <v>       0.00000000       0.00000000       0.00000000 </v>
   <v>       0.00000000       0.00000000       0.00000000 </v>
   <v>       0.00000000       0.00000000       0.00000000 </v>
   <v>       0.00000000       0.00000000       0.00000000 </v>
   <v>       0.00000000       0.00000000       0.00000000 </v>
   <v>       0.00000000       0.00000000       0.00000000 </v>
   <v>       0.00000000       0.00000000       0.00000000 </v>
   <v>       0.00000000       0.00000000       0.00000000 </v>
   <v>       0.00000000       0.00000000       0.00000000 </v>
   <v>       0.00000000       0.00000000       0.00000000 </v>
   <v>       0.00000000       0.00000000       0.00000000 </v>
   <v>       0.00000000       0.00000000       0.00000000 </v>
   <v>       0.00000000       0.00000000       0.00000000 </v>
   <v>       0.00000000       0.00000000       0.00000000 </v>
   <v>       0.00000000       0.00000000       0.00000000 </v>
   <v>       0.00000000       0.00000000       0.00000000 </v>
   <v>       0.00000000       0.00000000       0.00000000 </v>
   <v>       0.00000000       0.00000000       0.00000000 </v>
   <v>       0.00000000       0.00000000       0.00000000 </v>
   <v>       0.00000000       0.00000000       0.00000000 </v>
   <v>       0.00000000       0.00000000       0.00000000 </v>
   <v>       0.00000000       0.00000000       0.00000000 </v>
   <v>       0.00000000       0.00000000       0.00000000 </v>
   <v>       0.00000000       0.00000000       0.00000000 </v>
   <v>       0.00000000       0.00000000       0.00000000 </v>
   <v>       0.00000000       0.00000000       0.00000000 </v>
   <v>       0.00000000       0.00000000       0.00000000 </v>
   <v>       0.00000000       0.00000000       0.00000000 </v>
   <v>       0.00000000       0.00000000       0.00000000 </v>
   <v>       0.00000000       0.00000000       0.00000000 </v>
   <v>       0.00000000       0.00000000       0.00000000 </v>
   <v>       0.00000000       0.00000000       0.00000000 </v>
   <v>       0.00000000       0.00000000       0.00000000 </v>
   <v>       0.00000000       0.00000000       0.00000000 </v>
   <v>       0.00000000       0.00000000       0.00000000 </v>
   <v>       0.00000000       0.00000000       0.00000000 </v>
   <v>       0.00000000       0.00000000       0.00000000 </v>
   <v>       0.00000000       0.00000000       0.00000000 </v>
   <v>       0.00000000       0.00000000       0.00000000 </v>
   <v>       0.00000000       0.00000000       0.00000000 </v>
   <v>       0.00000000       0.00000000       0.00000000 </v>
   <v>       0.00000000       0.00000000       0.00000000 </v>
   <v>       0.00000000       0.00000000       0.00000000 </v>
   <v>       0.00000000       0.00000000       0.00000000 </v>
   <v>       0.00000000       0.00000000       0.00000000 </v>
   <v>       0.00000000       0.00000000       0.00000000 </v>
   <v>       0.00000000       0.00000000       0.00000000 </v>
   <v>       0.00000000       0.00000000       0.00000000 </v>
   <v>       0.00000000       0.00000000       0.00000000 </v>
   <v>       0.00000000       0.00000000       0.00000000 </v>
   <v>       0.00000000       0.00000000       0.00000000 </v>
   <v>       0.00000000       0.00000000       0.00000000 </v>
   <v>       0.00000000       0.00000000       0.00000000 </v>
   <v>       0.00000000       0.00000000       0.00000000 </v>
   <v>       0.00000000       0.00000000       0.00000000 </v>
   <v>       0.00000000       0.00000000       0.00000000 </v>
   <v>       0.00000000       0.00000000       0.00000000 </v>
   <v>       0.00000000       0.00000000       0.00000000 </v>
   <v>       0.00000000       0.00000000       0.00000000 </v>
   <v>       0.00000000       0.00000000       0.00000000 </v>
   <v>       0.00000000       0.00000000       0.00000000 </v>
   <v>       0.00000000       0.00000000       0.00000000 </v>
   <v>       0.00000000       0.00000000       0.00000000 </v>
   <v>       0.00000000       0.00000000       0.00000000 </v>
   <v>       0.00000000       0.00000000       0.00000000 </v>
   <v>       0.00000000       0.00000000       0.00000000 </v>
   <v>       0.00000000       0.00000000       0.00000000 </v>
   <v>       0.00000000       0.00000000       0.00000000 </v>
   <v>       0.00000000       0.00000000       0.00000000 </v>
   <v>       0.00000000       0.00000000       0.00000000 </v>
   <v>       0.00000000       0.00000000       0.00000000 </v>
   <v>       0.00000000       0.00000000       0.00000000 </v>
   <v>       0.00000000       0.00000000       0.00000000 </v>
   <v>       0.00000000       0.00000000       0.00000000 </v>
   <v>       0.00000000       0.00000000       0.00000000 </v>
   <v>       0.00000000       0.00000000       0.00000000 </v>
   <v>       0.00000000       0.00000000       0.00000000 </v>
   <v>       0.00000000       0.00000000       0.00000000 </v>
   <v>       0.00000000       0.00000000       0.00000000 </v>
   <v>       0.00000000       0.00000000       0.00000000 </v>
   <v>       0.00000000       0.00000000       0.00000000 </v>
   <v>       0.00000000       0.00000000       0.00000000 </v>
   <v>       0.00000000       0.00000000       0.00000000 </v>
   <v>       0.00000000       0.00000000       0.00000000 </v>
   <v>       0.00000000       0.00000000       0.00000000 </v>
   <v>       0.00000000       0.00000000       0.00000000 </v>
   <v>       0.00000000       0.00000000       0.00000000 </v>
   <v>       0.00000000       0.00000000       0.00000000 </v>
   <v>       0.00000000       0.00000000       0.00000000 </v>
   <v>       0.00000000       0.00000000       0.00000000 </v>
   <v>       0.00000000       0.00000000       0.00000000 </v>
   <v>       0.00000000       0.00000000       0.00000000 </v>
   <v>       0.00000000       0.00000000       0.00000000 </v>
   <v>       0.00000000       0.00000000       0.00000000 </v>
   <v>       0.00000000       0.00000000       0.00000000 </v>
   <v>       0.00000000       0.00000000       0.00000000 </v>
   <v>       0.00000000       0.00000000       0.00000000 </v>
  </varray>
 </structure>
</modeling>
