 vasp.5.4.4.18Apr17-6-g9f103f2a35 (build Oct 31 2019 15:01:46) complex          
  
 executed on             LinuxIFC date 2024.04.20  07:03:12
 running on   52 total cores
 distrk:  each k-point on   52 cores,    1 groups
 distr:  one band on NCORES_PER_BAND=  13 cores,    4 groups


--------------------------------------------------------------------------------------------------------


 INCAR:
 POTCAR:    PAW_PBE Sc_sv 07Sep2000               
 POTCAR:    PAW_PBE F 08Apr2002                   
 POTCAR:    PAW_PBE C 08Apr2002                   
 POTCAR:    PAW_PBE Sc_sv 07Sep2000               
   VRHFIN =Sc: 3p4s3d                                                           
   LEXCH  = PE                                                                  
   EATOM  =  1273.2868 eV,   93.5839 Ry                                         
                                                                                
   TITEL  = PAW_PBE Sc_sv 07Sep2000                                             
   LULTRA =        F    use ultrasoft PP ?                                      
   IUNSCR =        1    unscreen: 0-lin 1-nonlin 2-no                           
   RPACOR =    2.200    partial core radius                                     
   POMASS =   44.956; ZVAL   =   11.000    mass and valenz                      
   RCORE  =    2.500    outmost cutoff radius                                   
   RWIGS  =    2.700; RWIGS  =    1.429    wigner-seitz radius (au A)           
   ENMAX  =  222.660; ENMIN  =  166.995 eV                                      
   RCLOC  =    1.805    cutoff for local pot                                    
   LCOR   =        T    correct aug charges                                     
   LPAW   =        T    paw PP                                                  
   EAUG   =  443.063                                                            
   RMAX   =    2.551    core radius for proj-oper                               
   RAUG   =    1.300    factor for augmentation sphere                          
   RDEP   =    2.650    radius for radial grids                                 
   RDEPT  =    2.038    core radius for aug-charge                              
                                                                                
   Atomic configuration                                                         
    8 entries                                                                   
     n  l   j            E        occ.                                          
     1  0  0.50     -4394.2533   2.0000                                         
     2  0  0.50      -471.0040   2.0000                                         
     2  1  1.50      -384.9788   6.0000                                         
     3  0  0.50       -52.1410   2.0000                                         
     4  0  0.50        -3.5584   1.0000                                         
     3  1  1.50       -30.8841   6.0000                                         
     3  2  2.50        -1.3655   2.0000                                         
     4  3  2.50        -1.3606   0.0000                                         
   Description                                                                  
     l       E           TYP  RCUT    TYP  RCUT                                 
     0    -52.1409870     23  1.800                                             
     0     -3.5583698     23  2.500                                             
     1    -30.8840697     23  2.300                                             
     1      4.0817478     23  2.300                                             
     2     -1.3655397     23  2.500                                             
     2      0.3564476     23  2.500                                             
  local pseudopotential read in
  partial core-charges read in
  partial kinetic energy density read in
  atomic valenz-charges read in
  non local Contribution for L=           0  read in
    real space projection operators read in
  non local Contribution for L=           0  read in
    real space projection operators read in
  non local Contribution for L=           1  read in
    real space projection operators read in
  non local Contribution for L=           1  read in
    real space projection operators read in
  non local Contribution for L=           2  read in
    real space projection operators read in
  non local Contribution for L=           2  read in
    real space projection operators read in
    PAW grid and wavefunctions read in
 
   number of l-projection  operators is LMAX  =           6
   number of lm-projection operators is LMMAX =          18
 
 POTCAR:    PAW_PBE F 08Apr2002                   
   VRHFIN =F: s2p5                                                              
   LEXCH  = PE                                                                  
   EATOM  =   659.6475 eV,   48.4827 Ry                                         
                                                                                
   TITEL  = PAW_PBE F 08Apr2002                                                 
   LULTRA =        F    use ultrasoft PP ?                                      
   IUNSCR =        1    unscreen: 0-lin 1-nonlin 2-no                           
   RPACOR =    1.200    partial core radius                                     
   POMASS =   18.998; ZVAL   =    7.000    mass and valenz                      
   RCORE  =    1.520    outmost cutoff radius                                   
   RWIGS  =    1.500; RWIGS  =    0.794    wigner-seitz radius (au A)           
   ENMAX  =  400.000; ENMIN  =  300.000 eV                                      
   ICORE  =        2    local potential                                         
   LCOR   =        T    correct aug charges                                     
   LPAW   =        T    paw PP                                                  
   EAUG   =  613.614                                                            
   RMAX   =    1.555    core radius for proj-oper                               
   RAUG   =    1.300    factor for augmentation sphere                          
   RDEP   =    1.539    radius for radial grids                                 
   RDEPT  =    1.299    core radius for aug-charge                              
                                                                                
   Atomic configuration                                                         
    4 entries                                                                   
     n  l   j            E        occ.                                          
     1  0  0.50      -663.3661   2.0000                                         
     2  0  0.50       -29.8995   2.0000                                         
     2  1  0.50       -11.1114   5.0000                                         
     3  2  1.50       -10.8847   0.0000                                         
   Description                                                                  
     l       E           TYP  RCUT    TYP  RCUT                                 
     0    -29.8995018     23  1.200                                             
     0     -9.5240782     23  1.200                                             
     1    -11.1113914     23  1.520                                             
     1      1.3605826     23  1.520                                             
     2    -10.8846608      7  1.500                                             
  local pseudopotential read in
  partial core-charges read in
  partial kinetic energy density read in
  atomic valenz-charges read in
  non local Contribution for L=           0  read in
    real space projection operators read in
  non local Contribution for L=           0  read in
    real space projection operators read in
  non local Contribution for L=           1  read in
    real space projection operators read in
  non local Contribution for L=           1  read in
    real space projection operators read in
    PAW grid and wavefunctions read in
 
   number of l-projection  operators is LMAX  =           4
   number of lm-projection operators is LMMAX =           8
 
 POTCAR:    PAW_PBE C 08Apr2002                   
   VRHFIN =C: s2p2                                                              
   LEXCH  = PE                                                                  
   EATOM  =   147.1560 eV,   10.8157 Ry                                         
                                                                                
   TITEL  = PAW_PBE C 08Apr2002                                                 
   LULTRA =        F    use ultrasoft PP ?                                      
   IUNSCR =        1    unscreen: 0-lin 1-nonlin 2-no                           
   RPACOR =    1.200    partial core radius                                     
   POMASS =   12.011; ZVAL   =    4.000    mass and valenz                      
   RCORE  =    1.500    outmost cutoff radius                                   
   RWIGS  =    1.630; RWIGS  =    0.863    wigner-seitz radius (au A)           
   ENMAX  =  400.000; ENMIN  =  300.000 eV                                      
   ICORE  =        2    local potential                                         
   LCOR   =        T    correct aug charges                                     
   LPAW   =        T    paw PP                                                  
   EAUG   =  644.873                                                            
   DEXC   =    0.000                                                            
   RMAX   =    1.529    core radius for proj-oper                               
   RAUG   =    1.300    factor for augmentation sphere                          
   RDEP   =    1.501    radius for radial grids                                 
   RDEPT  =    1.300    core radius for aug-charge                              
                                                                                
   Atomic configuration                                                         
    4 entries                                                                   
     n  l   j            E        occ.                                          
     1  0  0.50      -273.3789   2.0000                                         
     2  0  0.50       -13.7508   2.0000                                         
     2  1  0.50        -5.2854   2.0000                                         
     3  2  1.50        -5.4423   0.0000                                         
   Description                                                                  
     l       E           TYP  RCUT    TYP  RCUT                                 
     0    -13.7508458     23  1.200                                             
     0     -8.2022199     23  1.200                                             
     1     -5.2854383     23  1.500                                             
     1     34.0145650     23  1.500                                             
     2     -5.4423304      7  1.500                                             
  local pseudopotential read in
  partial core-charges read in
  partial kinetic energy density read in
  atomic valenz-charges read in
  non local Contribution for L=           0  read in
    real space projection operators read in
  non local Contribution for L=           0  read in
    real space projection operators read in
  non local Contribution for L=           1  read in
    real space projection operators read in
  non local Contribution for L=           1  read in
    real space projection operators read in
    PAW grid and wavefunctions read in
 
   number of l-projection  operators is LMAX  =           4
   number of lm-projection operators is LMMAX =           8
 
 Optimization of the real space projectors (new method)

 maximal supplied QI-value         = 15.12
 optimisation between [QCUT,QGAM] = [ 12.55, 25.10] = [ 44.09,176.36] Ry 
 Optimized for a Real-space Cutoff    1.56 Angstroem

   l    n(q)    QCUT    max X(q) W(low)/X(q) W(high)/X(q)  e(spline) 
   0     12    12.548     2.962    0.12E-05    0.11E-06    0.46E-07
   0     12    12.548    26.414    0.30E-04    0.15E-05    0.76E-07
   1     11    12.548     3.969    0.45E-05    0.12E-05    0.60E-07
   1     11    12.548     5.137    0.15E-04    0.18E-04    0.36E-06
   2     11    12.548   143.970    0.20E-03    0.19E-03    0.76E-06
   2     11    12.548   121.201    0.20E-03    0.19E-03    0.76E-06
 Optimization of the real space projectors (new method)

 maximal supplied QI-value         = 24.76
 optimisation between [QCUT,QGAM] = [ 12.38, 25.00] = [ 42.90,175.06] Ry 
 Optimized for a Real-space Cutoff    1.16 Angstroem

   l    n(q)    QCUT    max X(q) W(low)/X(q) W(high)/X(q)  e(spline) 
   0      9    12.378    14.049    0.11E-03    0.38E-05    0.23E-06
   0      9    12.378     8.945    0.15E-03    0.56E-05    0.30E-06
   1      8    12.378     7.086    0.18E-03    0.14E-03    0.29E-06
   1      8    12.378     6.747    0.16E-03    0.13E-03    0.26E-06
 Optimization of the real space projectors (new method)

 maximal supplied QI-value         = 25.13
 optimisation between [QCUT,QGAM] = [ 12.32, 24.88] = [ 42.47,173.37] Ry 
 Optimized for a Real-space Cutoff    1.16 Angstroem

   l    n(q)    QCUT    max X(q) W(low)/X(q) W(high)/X(q)  e(spline) 
   0      9    12.315   115.676    0.19E-03    0.80E-05    0.34E-06
   0      9    12.315    87.132    0.19E-03    0.82E-05    0.34E-06
   1      8    12.315     4.429    0.18E-03    0.13E-03    0.22E-06
   1      8    12.315     2.733    0.14E-03    0.10E-03    0.18E-06
  PAW_PBE Sc_sv 07Sep2000               :
 energy of atom  1       EATOM=-1273.2868
 kinetic energy error for atom=    0.0014 (will be added to EATOM!!)
  PAW_PBE F 08Apr2002                   :
 energy of atom  2       EATOM= -659.6475
 kinetic energy error for atom=    0.0256 (will be added to EATOM!!)
  PAW_PBE C 08Apr2002                   :
 energy of atom  3       EATOM= -147.1560
 kinetic energy error for atom=    0.0057 (will be added to EATOM!!)
 
 
 POSCAR: Sc  F  C                                
  positions in cartesian coordinates
  No initial velocities read in
 exchange correlation table for  LEXCH =        8
   RHO(1)=    0.500       N(1)  =     2000
   RHO(2)=  100.500       N(2)  =     4000
 


--------------------------------------------------------------------------------------------------------


 ion  position               nearest neighbor table
   1  0.083  0.165  0.452-  49 2.16  65 2.22  61 2.22  70 2.24  50 2.31  66 2.38  18 3.00  17 3.05
                            29 3.07   4 3.29   6 3.29  13 3.37   5 3.38  16 3.38   2 3.41
   2  0.075  0.420  0.451-  62 2.16  67 2.25  66 2.28  71 2.29  50 2.31  51 2.36  18 3.01  30 3.05
                            14 3.07   3 3.23   7 3.27  13 3.29  19 3.29   6 3.36   1 3.41
   3  0.084  0.671  0.457-  51 2.15  67 2.17  52 2.18  63 2.22  68 2.25  72 2.25  31 3.08  19 3.12
                            20 3.12  15 3.17   4 3.21   2 3.23  14 3.25   7 3.27   8 3.29
   4  0.079  0.913  0.453-  52 2.08  49 2.12  64 2.13  65 2.26  68 2.27  69 2.38  20 3.08  17 3.12
                             3 3.21  32 3.22  15 3.23   1 3.29  16 3.35   8 3.36
   5  0.343  0.171  0.449-  54 2.13  53 2.18  74 2.25  70 2.35  49 2.38  69 2.42  21 3.20  17 3.25
                             9 3.26  22 3.29   8 3.29  10 3.30   6 3.33   1 3.38
   6  0.329  0.417  0.443-  50 2.03  55 2.11  54 2.19  71 2.26  75 2.38  70 2.43  23 3.11  18 3.14
                             7 3.25   1 3.29   5 3.33   2 3.36  11 3.39  10 3.41
   7  0.330  0.664  0.451-  51 2.19  72 2.22  71 2.23  76 2.27  56 2.29  55 2.49  23 3.15  24 3.20
                            19 3.23   6 3.25   3 3.27   2 3.27   8 3.29  11 3.35  12 3.35
   8  0.338  0.919  0.458-  53 2.16  72 2.19  56 2.20  73 2.25  69 2.26  52 2.52  20 3.08  24 3.09
                            21 3.19  12 3.23   5 3.29   3 3.29   7 3.29   9 3.30   4 3.36
   9  0.590  0.170  0.457-  58 1.99  57 2.13  78 2.20  53 2.23  73 2.27  74 2.32  26 3.05  13 3.14
                            21 3.15  25 3.22  12 3.24   5 3.26  14 3.29   8 3.30  10 3.34
  10  0.592  0.425  0.454-  59 2.16  54 2.18  79 2.20  58 2.25  75 2.29  74 2.29  27 3.05  15 3.18
                            26 3.20  22 3.23  11 3.27   5 3.30  14 3.31   9 3.34   6 3.41
  11  0.589  0.673  0.453-  80 2.15  55 2.19  60 2.21  76 2.32  75 2.38  59 2.40  27 3.06  28 3.07
                            16 3.09  23 3.15  10 3.27  12 3.28   7 3.35  15 3.36   6 3.39
  12  0.584  0.920  0.458-  77 2.15  76 2.28  73 2.30  56 2.39  60 2.45  57 2.49  24 2.98  25 2.98
                            28 3.16  16 3.20   8 3.23  13 3.23   9 3.24  11 3.28   7 3.35
  13  0.827  0.168  0.452-  61 2.07  57 2.13  78 2.23  66 2.28  77 2.38  62 2.39  30 3.10   9 3.14
                            14 3.21  29 3.21  12 3.23  25 3.25   2 3.29  16 3.36   1 3.37
  14  0.841  0.419  0.456-  78 2.16  67 2.16  62 2.19  63 2.24  58 2.29  79 2.43  30 3.04   2 3.07
                            31 3.17  15 3.20  26 3.21  13 3.21   3 3.25   9 3.29  10 3.31
  15  0.839  0.661  0.450-  59 2.06  63 2.14  79 2.16  68 2.24  64 2.25  80 2.54   3 3.17  10 3.18
                            31 3.19  14 3.20   4 3.23  32 3.24  27 3.27  11 3.36  16 3.37
  16  0.822  0.910  0.452-  61 2.14  60 2.17  64 2.25  77 2.27  80 2.31  65 2.40  11 3.09  12 3.20
                            28 3.20  29 3.21  32 3.28   4 3.35  13 3.36  15 3.37   1 3.38
  17  0.164  0.085  0.544-  65 2.20  70 2.21  69 2.24  33 2.31  37 2.35  36 2.49   1 3.05   4 3.12
                            29 3.17  20 3.18   5 3.25  21 3.30  18 3.33  22 3.34  32 3.38
  18  0.164  0.338  0.537-  71 2.13  34 2.14  66 2.18  70 2.24  38 2.45  33 2.58   1 3.00   2 3.01
                            23 3.10   6 3.14  30 3.15  29 3.25  19 3.32  17 3.33  22 3.36
  19  0.167  0.591  0.550-  39 2.10  35 2.13  72 2.30  67 2.34  34 2.39  71 2.52   3 3.12  31 3.21
                             7 3.23   2 3.29  24 3.29  18 3.32  30 3.32  20 3.33  23 3.36
  20  0.166  0.844  0.547-  36 2.08  69 2.14  68 2.31  40 2.38  35 2.38  72 2.45   8 3.08   4 3.08
                             3 3.12  17 3.18  32 3.24  31 3.27  19 3.33  21 3.34
  21  0.421  0.098  0.550-  37 2.13  40 2.18  41 2.23  74 2.23  73 2.29  69 2.30  26 3.11   9 3.15
                            22 3.17   8 3.19   5 3.20  17 3.30  20 3.34  25 3.40
  22  0.418  0.338  0.549-  37 2.11  42 2.17  75 2.23  74 2.27  38 2.29  70 2.38  23 3.05  21 3.17
                            27 3.20  10 3.23   5 3.29  26 3.30  17 3.34  18 3.36
  23  0.408  0.565  0.541-  38 2.04  75 2.08  39 2.20  71 2.21  43 2.31  76 2.33  22 3.05  18 3.10
                             6 3.11  11 3.15   7 3.15  27 3.16  28 3.32  19 3.36  24 3.41
  24  0.426  0.833  0.547-  76 2.15  40 2.17  73 2.27  72 2.33  39 2.37  44 2.40  12 2.98  25 3.09
                             8 3.09  28 3.16   7 3.20  19 3.29  23 3.41
  25  0.663  0.066  0.550-  44 2.12  45 2.16  77 2.20  73 2.21  41 2.34  78 2.59  12 2.98  24 3.09
                             9 3.22  28 3.23  13 3.25  29 3.30  21 3.40  26 3.42
  26  0.664  0.327  0.549-  41 2.13  46 2.20  42 2.20  78 2.28  74 2.28  79 2.48   9 3.05  21 3.11
                            10 3.20  14 3.21  22 3.30  30 3.35  31 3.42  25 3.42  27 3.42
  27  0.658  0.585  0.545-  43 2.04  80 2.16  47 2.17  79 2.21  75 2.26  42 2.40  10 3.05  11 3.06
                            28 3.07  23 3.16  22 3.20  32 3.22  15 3.27  26 3.42
  28  0.659  0.819  0.549-  80 2.12  43 2.23  48 2.27  76 2.30  44 2.31  77 2.37  27 3.07  11 3.07
                            24 3.16  12 3.16  16 3.20  25 3.23  32 3.26  23 3.32
  29  0.923  0.086  0.545-  33 2.08  65 2.22  66 2.29  48 2.33  77 2.35  45 2.35   1 3.07  17 3.17
                            16 3.21  13 3.21  30 3.24  18 3.25  25 3.30  32 3.36
  30  0.921  0.332  0.544-  66 2.10  45 2.19  78 2.25  34 2.28  46 2.34  67 2.34  14 3.04   2 3.05
                            13 3.10  18 3.15  29 3.24  19 3.32  26 3.35  31 3.38
  31  0.923  0.590  0.549-  46 2.09  68 2.22  67 2.26  79 2.35  47 2.42  35 2.43   3 3.08  32 3.16
                            14 3.17  15 3.19  19 3.21  20 3.27  30 3.38  26 3.42
  32  0.910  0.824  0.549-  36 2.04  48 2.11  47 2.20  68 2.23  80 2.34  65 2.45  31 3.16   4 3.22
                            27 3.22  20 3.24  15 3.24  28 3.26  16 3.28  29 3.36  17 3.38
  33  0.067  0.153  0.593-  29 2.08  17 2.31  18 2.58
  34  0.090  0.404  0.590-  18 2.14  30 2.28  19 2.39
  35  0.102  0.674  0.598-  19 2.13  20 2.38  31 2.43
  36  0.064  0.893  0.588-  32 2.04  20 2.08  17 2.49
  37  0.339  0.178  0.590-  22 2.11  21 2.13  17 2.35
  38  0.336  0.431  0.591-  23 2.04  22 2.29  18 2.45
  39  0.329  0.647  0.586-  19 2.10  23 2.20  24 2.37
  40  0.354  0.927  0.586-  24 2.17  21 2.18  20 2.38
  41  0.589  0.172  0.593-  26 2.13  21 2.23  25 2.34
  42  0.579  0.406  0.592-  22 2.17  26 2.20  27 2.40
  43  0.576  0.648  0.590-  27 2.04  28 2.23  23 2.31
  44  0.597  0.920  0.599-  25 2.12  28 2.31  24 2.40
  45  0.828  0.170  0.588-  25 2.16  30 2.19  29 2.35
  46  0.836  0.427  0.586-  31 2.09  26 2.20  30 2.34
  47  0.811  0.662  0.594-  27 2.17  32 2.20  31 2.42
  48  0.835  0.909  0.589-  32 2.11  28 2.27  29 2.33
  49  0.153  0.072  0.412-   4 2.12   1 2.16   5 2.38
  50  0.171  0.340  0.409-   6 2.03   2 2.31   1 2.31
  51  0.167  0.603  0.409-   3 2.15   7 2.19   2 2.36
  52  0.147  0.827  0.411-   4 2.08   3 2.18   8 2.52
  53  0.422  0.078  0.414-   8 2.16   5 2.18   9 2.23
  54  0.427  0.337  0.413-   5 2.13  10 2.18   6 2.19
  55  0.433  0.578  0.405-   6 2.11  11 2.19   7 2.49
  56  0.410  0.838  0.408-   8 2.20   7 2.29  12 2.39
  57  0.672  0.105  0.408-   9 2.13  13 2.13  12 2.49
  58  0.661  0.318  0.417-   9 1.99  10 2.25  14 2.29
  59  0.685  0.584  0.410-  15 2.06  10 2.16  11 2.40
  60  0.668  0.830  0.404-  16 2.17  11 2.21  12 2.45
  61  0.904  0.080  0.419-  13 2.07  16 2.14   1 2.22
  62  0.920  0.346  0.405-   2 2.16  14 2.19  13 2.39
  63  0.923  0.584  0.410-  15 2.14   3 2.22  14 2.24
  64  0.920  0.836  0.411-   4 2.13  16 2.25  15 2.25
  65  0.002  0.003  0.499-  17 2.20   1 2.22  29 2.22   4 2.26  16 2.40  32 2.45
  66  0.994  0.254  0.499-  30 2.10  18 2.18  13 2.28   2 2.28  29 2.29   1 2.38
  67  0.001  0.508  0.499-  14 2.16   3 2.17   2 2.25  31 2.26  19 2.34  30 2.34
  68  0.995  0.749  0.501-  31 2.22  32 2.23  15 2.24   3 2.25   4 2.27  20 2.31
  69  0.251  0.001  0.503-  20 2.14  17 2.24   8 2.26  21 2.30   4 2.38   5 2.42
  70  0.247  0.247  0.498-  17 2.21   1 2.24  18 2.24   5 2.35  22 2.38   6 2.43
  71  0.249  0.496  0.494-  18 2.13  23 2.21   7 2.23   6 2.26   2 2.29  19 2.52
  72  0.256  0.751  0.498-   8 2.19   7 2.22   3 2.25  19 2.30  24 2.33  20 2.45
  73  0.502  0.007  0.505-  25 2.21   8 2.25   9 2.27  24 2.27  21 2.29  12 2.30
  74  0.500  0.256  0.500-  21 2.23   5 2.25  22 2.27  26 2.28  10 2.29   9 2.32
  75  0.492  0.494  0.499-  23 2.08  22 2.23  27 2.26  10 2.29   6 2.38  11 2.38
  76  0.493  0.746  0.500-  24 2.15   7 2.27  12 2.28  28 2.30  11 2.32  23 2.33
  77  0.744  0.994  0.501-  12 2.15  25 2.20  16 2.27  29 2.35  28 2.37  13 2.38
  78  0.756  0.258  0.498-  14 2.16   9 2.20  13 2.23  30 2.25  26 2.28  25 2.59
  79  0.751  0.514  0.501-  15 2.16  10 2.20  27 2.21  31 2.35  14 2.43  26 2.48
  80  0.737  0.746  0.502-  28 2.12  11 2.15  27 2.16  16 2.31  32 2.34  15 2.54
 
  LATTYP: Found a hexagonal cell.
 ALAT       =    13.1286233990
 C/A-ratio  =     2.0434811347
  
  Lattice vectors:
  
 A1 = (  13.1286234000,   0.0000000000,   0.0000000000)
 A2 = (  -6.5643117000,  11.3697213800,   0.0000000000)
 A3 = (   0.0000000000,   0.0000000000,  26.8280942400)


Analysis of symmetry for initial positions (statically):
=====================================================================
 Subroutine PRICEL returns:
 Original cell was already a primitive cell.
 

 Routine SETGRP: Setting up the symmetry group for a 
 hexagonal supercell.


 Subroutine GETGRP returns: Found  1 space group operations
 (whereof  1 operations were pure point group operations)
 out of a pool of 24 trial point group operations.


The static configuration has the point symmetry C_1 .


Analysis of symmetry for dynamics (positions and initial velocities):
=====================================================================
 Subroutine PRICEL returns:
 Original cell was already a primitive cell.
 

 Routine SETGRP: Setting up the symmetry group for a 
 hexagonal supercell.


 Subroutine GETGRP returns: Found  1 space group operations
 (whereof  1 operations were pure point group operations)
 out of a pool of 24 trial point group operations.


The dynamic configuration has the point symmetry C_1 .


 Subroutine INISYM returns: Found  1 space group operations
 (whereof  1 operations are pure point group operations),
 and found     1 'primitive' translations

 
 

Automatic generation of k-mesh.
 generate k-points for:    3    3    1
Space group operators:
 irot       det(A)        alpha          n_x          n_y          n_z        tau_x        tau_y        tau_z
    1     1.000000     0.000000     1.000000     0.000000     0.000000     0.000000     0.000000     0.000000
 
 Subroutine IBZKPT returns following result:
 ===========================================
 
 Found      5 irreducible k-points:
 
 Following reciprocal coordinates:
            Coordinates               Weight
  0.000000  0.000000  0.000000      1.000000
  0.333333 -0.000000  0.000000      2.000000
  0.000000  0.333333  0.000000      2.000000
  0.333333  0.333333  0.000000      2.000000
 -0.333333  0.333333  0.000000      2.000000
 
 Following cartesian coordinates:
            Coordinates               Weight
  0.000000  0.000000  0.000000      1.000000
  0.025390  0.014659  0.000000      2.000000
  0.000000  0.029318  0.000000      2.000000
  0.025390  0.043976  0.000000      2.000000
 -0.025390  0.014659  0.000000      2.000000
 


--------------------------------------------------------------------------------------------------------




 Dimension of arrays:
   k-points           NKPTS =      5   k-points in BZ     NKDIM =      5   number of bands    NBANDS=    384
   number of dos      NEDOS =    301   number of ions     NIONS =     80
   non local maximal  LDIM  =      6   non local SUM 2l+1 LMDIM =     18
   total plane-waves  NPLWV = ******
   max r-space proj   IRMAX =  10060   max aug-charges    IRDMAX= 222480
   dimension x,y,z NGX =   108 NGY =  108 NGZ =  216
   dimension x,y,z NGXF=   216 NGYF=  216 NGZF=  432
   support grid    NGXF=   432 NGYF=  432 NGZF=  864
   ions per type =              32  32  16
   NGX,Y,Z   is equivalent  to a cutoff of  13.68, 13.68, 13.38 a.u.
   NGXF,Y,Z  is equivalent  to a cutoff of  27.35, 27.35, 26.77 a.u.

 SYSTEM =  unknown system                          
 POSCAR =  Sc  F  C                                

 Startparameter for this run:
   NWRITE =      2    write-flag & timer
   PREC   = anorma    normal or accurate (medium, high low for compatibility)
   ISTART =      0    job   : 0-new  1-cont  2-samecut
   ICHARG =      2    charge: 1-file 2-atom 10-const
   ISPIN  =      1    spin polarized calculation?
   LNONCOLLINEAR =      F non collinear calculations
   LSORBIT =      F    spin-orbit coupling
   INIWAV =      1    electr: 0-lowe 1-rand  2-diag
   LASPH  =      F    aspherical Exc in radial PAW
   METAGGA=      F    non-selfconsistent MetaGGA calc.

 Electronic Relaxation 1
   ENCUT  =  600.0 eV  44.10 Ry    6.64 a.u.  26.22 26.22 53.58*2*pi/ulx,y,z
   ENINI  =  600.0     initial cutoff
   ENAUG  =  644.9 eV  augmentation charge cutoff
   NELM   =     60;   NELMIN=  2; NELMDL= -5     # of ELM steps 
   EDIFF  = 0.1E-05   stopping-criterion for ELM
   LREAL  =      T    real-space projection
   NLSPLINE    = F    spline interpolate recip. space projectors
   LCOMPAT=      F    compatible to vasp.4.4
   GGA_COMPAT  = T    GGA compatible to vasp.4.4-vasp.4.6
   LMAXPAW     = -100 max onsite density
   LMAXMIX     =    2 max onsite mixed and CHGCAR
   VOSKOWN=      0    Vosko Wilk Nusair interpolation
   ROPT   =   -0.00025  -0.00025  -0.00025
 Ionic relaxation
   EDIFFG = -.1E-01   stopping-criterion for IOM
   NSW    =      1    number of steps for IOM
   NBLOCK =      1;   KBLOCK =      1    inner block; outer block 
   IBRION =     -1    ionic relax: 0-MD 1-quasi-New 2-CG
   NFREE  =      0    steps in history (QN), initial steepest desc. (CG)
   ISIF   =      2    stress and relaxation
   IWAVPR =     10    prediction:  0-non 1-charg 2-wave 3-comb
   ISYM   =      2    0-nonsym 1-usesym 2-fastsym
   LCORR  =      T    Harris-Foulkes like correction to forces

   POTIM  = 1.0000    time-step for ionic-motion
   TEIN   =    0.0    initial temperature
   TEBEG  =    0.0;   TEEND  =   0.0 temperature during run
   SMASS  =  -3.00    Nose mass-parameter (am)
   estimated Nose-frequenzy (Omega)   =  0.10E-29 period in steps =****** mass=  -0.394E-26a.u.
   SCALEE = 1.0000    scale energy and forces
   NPACO  =    256;   APACO  = 16.0  distance and # of slots for P.C.
   PSTRESS=    0.0 pullay stress

  Mass of Ions in am
   POMASS =  44.96 19.00 12.01
  Ionic Valenz
   ZVAL   =  11.00  7.00  4.00
  Atomic Wigner-Seitz radii
   RWIGS  =  -1.00 -1.00 -1.00
  virtual crystal weights 
   VCA    =   1.00  1.00  1.00
   NELECT =     640.0000    total number of electrons
   NUPDOWN=      -1.0000    fix difference up-down

 DOS related values:
   EMIN   =  10.00;   EMAX   =-10.00  energy-range for DOS
   EFERMI =   0.00
   ISMEAR =     0;   SIGMA  =   0.05  broadening in eV -4-tet -1-fermi 0-gaus

 Electronic relaxation 2 (details)
   IALGO  =     38    algorithm
   LDIAG  =      T    sub-space diagonalisation (order eigenvalues)
   LSUBROT=      F    optimize rotation matrix (better conditioning)
   TURBO    =      0    0=normal 1=particle mesh
   IRESTART =      0    0=no restart 2=restart with 2 vectors
   NREBOOT  =      0    no. of reboots
   NMIN     =      0    reboot dimension
   EREF     =   0.00    reference energy to select bands
   IMIX   =      4    mixing-type and parameters
     AMIX     =   0.40;   BMIX     =  1.00
     AMIX_MAG =   1.60;   BMIX_MAG =  1.00
     AMIN     =   0.10
     WC   =   100.;   INIMIX=   1;  MIXPRE=   1;  MAXMIX= -45

 Intra band minimization:
   WEIMIN = 0.0000     energy-eigenvalue tresh-hold
   EBREAK =  0.65E-09  absolut break condition
   DEPER  =   0.30     relativ break condition  

   TIME   =   0.40     timestep for ELM

  volume/ion in A,a.u.               =      50.06       337.80
  Fermi-wavevector in a.u.,A,eV,Ry     =   0.888414  1.678858 10.738790  0.789279
  Thomas-Fermi vector in A             =   2.009840
 
 Write flags
   LWAVE        =      F    write WAVECAR
   LDOWNSAMPLE  =      F    k-point downsampling of WAVECAR
   LCHARG       =      F    write CHGCAR
   LVTOT        =      F    write LOCPOT, total local potential
   LVHAR        =      F    write LOCPOT, Hartree potential only
   LELF         =      F    write electronic localiz. function (ELF)
   LORBIT       =      0    0 simple, 1 ext, 2 COOP (PROOUT), +10 PAW based schemes


 Dipole corrections
   LMONO  =      F    monopole corrections only (constant potential shift)
   LDIPOL =      F    correct potential (dipole corrections)
   IDIPOL =      0    1-x, 2-y, 3-z, 4-all directions 
   EPSILON=  1.0000000 bulk dielectric constant

 Exchange correlation treatment:
   GGA     =    --    GGA type
   LEXCH   =     8    internal setting for exchange type
   VOSKOWN=      0    Vosko Wilk Nusair interpolation
   LHFCALC =     F    Hartree Fock is set to
   LHFONE  =     F    Hartree Fock one center treatment
   AEXX    =    0.0000 exact exchange contribution

 Linear response parameters
   LEPSILON=     F    determine dielectric tensor
   LRPA    =     F    only Hartree local field effects (RPA)
   LNABLA  =     F    use nabla operator in PAW spheres
   LVEL    =     F    velocity operator in full k-point grid
   LINTERFAST=   F  fast interpolation
   KINTER  =     0    interpolate to denser k-point grid
   CSHIFT  =0.1000    complex shift for real part using Kramers Kronig
   OMEGAMAX=  -1.0    maximum frequency
   DEG_THRESHOLD= 0.2000000E-02 threshold for treating states as degnerate
   RTIME   =   -0.100 relaxation time in fs
  (WPLASMAI=    0.000 imaginary part of plasma frequency in eV, 0.658/RTIME)
   DFIELD  = 0.0000000 0.0000000 0.0000000 field for delta impulse in time
 
 Orbital magnetization related:
   ORBITALMAG=     F  switch on orbital magnetization
   LCHIMAG   =     F  perturbation theory with respect to B field
   DQ        =  0.001000  dq finite difference perturbation B field
   LLRAUG    =     F  two centre corrections for induced B field



--------------------------------------------------------------------------------------------------------


 Static calculation
 charge density and potential will be updated during run
 non-spin polarized calculation
 Variant of blocked Davidson
 Davidson routine will perform the subspace rotation
 perform sub-space diagonalisation
    after iterative eigenvector-optimisation
 modified Broyden-mixing scheme, WC =      100.0
 initial mixing is a Kerker type mixing with AMIX =  0.4000 and BMIX =      1.0000
 Hartree-type preconditioning will be used
 using additional bands           64
 real space projection scheme for non local part
 use partial core corrections
 calculate Harris-corrections to forces 
   (improved forces if not selfconsistent)
 use gradient corrections 
 use of overlap-Matrix (Vanderbilt PP)
 Gauss-broadening in eV      SIGMA  =   0.05


--------------------------------------------------------------------------------------------------------


  energy-cutoff  :      600.00
  volume of cell :     4004.60
      direct lattice vectors                 reciprocal lattice vectors
    13.128623400  0.000000000  0.000000000     0.076169448  0.043976451  0.000000000
    -6.564311700 11.369721380  0.000000000     0.000000000  0.087952903  0.000000000
     0.000000000  0.000000000 26.828094240     0.000000000  0.000000000  0.037274358

  length of vectors
    13.128623400 13.128623399 26.828094240     0.087952903  0.087952903  0.037274358


 
 k-points in units of 2pi/SCALE and weight: read from INCAR                         
   0.00000000  0.00000000  0.00000000       0.111
   0.02538982  0.01465882  0.00000000       0.222
   0.00000000  0.02931763  0.00000000       0.222
   0.02538982  0.04397645  0.00000000       0.222
  -0.02538982  0.01465882  0.00000000       0.222
 
 k-points in reciprocal lattice and weights: read from INCAR                         
   0.00000000  0.00000000  0.00000000       0.111
   0.33333333 -0.00000000  0.00000000       0.222
   0.00000000  0.33333333  0.00000000       0.222
   0.33333333  0.33333333  0.00000000       0.222
  -0.33333333  0.33333333  0.00000000       0.222
 
 position of ions in fractional coordinates (direct lattice) 
   0.08260550  0.16467156  0.45241769
   0.07543363  0.42046660  0.45131747
   0.08423052  0.67086559  0.45675268
   0.07887998  0.91252402  0.45308316
   0.34303390  0.17133674  0.44918522
   0.32926479  0.41725950  0.44332881
   0.32981663  0.66425183  0.45137529
   0.33790851  0.91877594  0.45832504
   0.58973045  0.16975567  0.45673875
   0.59183421  0.42486744  0.45399934
   0.58864307  0.67255752  0.45261818
   0.58421133  0.92002220  0.45814575
   0.82744609  0.16792634  0.45190967
   0.84112071  0.41884619  0.45570936
   0.83887670  0.66146834  0.45023153
   0.82226782  0.90950316  0.45167120
   0.16363379  0.08473189  0.54356790
   0.16394731  0.33797619  0.53688655
   0.16742327  0.59090987  0.55027968
   0.16622585  0.84401911  0.54699513
   0.42078832  0.09763546  0.54973772
   0.41830875  0.33769226  0.54941060
   0.40841555  0.56464470  0.54112888
   0.42616161  0.83277677  0.54666984
   0.66283589  0.06618372  0.55038183
   0.66413628  0.32731849  0.54878508
   0.65845206  0.58494557  0.54512471
   0.65919903  0.81875374  0.54899872
   0.92308524  0.08579280  0.54487611
   0.92123844  0.33181856  0.54423989
   0.92251929  0.58954146  0.54907252
   0.91010944  0.82377078  0.54936393
   0.06667500  0.15342476  0.59281396
   0.08950012  0.40360256  0.59031548
   0.10181949  0.67432660  0.59817292
   0.06378580  0.89289269  0.58832054
   0.33896133  0.17780687  0.58959637
   0.33647544  0.43084981  0.59148275
   0.32912950  0.64687771  0.58631405
   0.35355973  0.92715642  0.58582867
   0.58885005  0.17158234  0.59262720
   0.57899420  0.40626735  0.59244517
   0.57645665  0.64803388  0.58981629
   0.59701069  0.92008430  0.59905981
   0.82802646  0.17032719  0.58847039
   0.83560026  0.42704522  0.58576551
   0.81098160  0.66221217  0.59361012
   0.83526312  0.90926431  0.58905123
   0.15347447  0.07184367  0.41201297
   0.17062502  0.33962816  0.40863705
   0.16693126  0.60259168  0.40886128
   0.14724219  0.82747954  0.41070267
   0.42177871  0.07769530  0.41414390
   0.42725371  0.33747615  0.41259267
   0.43300140  0.57786192  0.40546113
   0.41033376  0.83828707  0.40819971
   0.67217811  0.10465474  0.40805207
   0.66133898  0.31776343  0.41744592
   0.68473866  0.58353060  0.40995785
   0.66776071  0.82985725  0.40435006
   0.90410864  0.08026395  0.41856032
   0.91972699  0.34639899  0.40516133
   0.92348552  0.58377357  0.41017549
   0.92008629  0.83578082  0.41062698
   0.00208827  0.00271953  0.49851212
   0.99418563  0.25439415  0.49886791
   0.00086350  0.50790490  0.49912653
   0.99455906  0.74868511  0.50125893
   0.25139224  0.00061194  0.50308790
   0.24749462  0.24701691  0.49811591
   0.24910612  0.49570591  0.49406048
   0.25606101  0.75129387  0.49827571
   0.50188519  0.00685934  0.50533012
   0.49954744  0.25608142  0.50046375
   0.49160153  0.49435940  0.49929236
   0.49254630  0.74573050  0.50037153
   0.74440548  0.99386785  0.50087716
   0.75583818  0.25817078  0.49837479
   0.75083546  0.51398604  0.50073835
   0.73694251  0.74604846  0.50248845
 
 position of ions in cartesian coordinates  (Angst):
   0.00354105  1.87226977 12.13750442
  -1.76973406  4.78058804 12.10798758
  -3.29794000  7.62755484 12.25380391
  -4.95450655 10.37514383 12.15535779
   3.37885513  1.94805098 12.05078339
   1.58377194  4.74412430 11.89366704
  -0.03031778  7.55235822 12.10953887
  -1.59485800 10.44622641 12.29598744
   6.62801991  1.93007468 12.25343010
   4.98100614  4.83062446 12.17993709
   3.31319598  7.64679157 12.14288329
   1.63057807 10.46039609 12.29117739
   9.76090725  1.90927575 12.12387518
   8.29332011  4.76216452 12.22581365
   6.67121189  7.52071073 12.07885386
   4.82498233 10.34079755 12.11747744
   1.59207982  0.96337797 14.58289090
  -0.06617860  3.84269515 14.40364299
  -1.68087950  6.71848058 14.76295507
  -3.35808795  9.59626217 14.67483701
   4.88346174  1.11008800 14.74841530
   3.27510078  3.83946690 14.73963943
   1.65543016  6.41985293 14.51745652
   0.12830894  9.46843987 14.66610993
   8.26767218  0.75249044 14.76569555
   6.57057451  3.72152009 14.72285787
   4.80480404  6.65066821 14.62465706
   3.27982109  9.30900186 14.72858931
  11.55566785  0.97544024 14.61798760
   9.91643214  3.77268458 14.60091915
   8.24147443  6.70292210 14.73056922
   6.54099586  9.36604426 14.73838723
  -0.13177702  1.74439674 15.90406867
  -1.47435962  4.58884871 15.83703925
  -3.08974027  7.66690553 16.04783955
  -5.02380618 10.15194116 15.78351893
   3.28291587  2.02161458 15.81774687
   1.58922684  4.89864228 15.86835505
   0.07471030  7.35481932 15.72968854
  -1.44439122 10.54151018 15.71666669
   6.60447057  1.95084340 15.89905838
   4.93453124  4.61914656 15.89417492
   3.31418586  7.36796466 15.82364698
   1.79820834 10.46110218 16.07163299
   9.75276676  1.93657270 15.78753912
   8.16702313  4.85538521 15.71497239
   6.30010497  7.52916785 15.92542826
   4.99716053 10.33808187 15.80312197
   1.54330421  0.81684256 11.05352277
   0.01064649  3.86147757 10.96295333
  -1.76402193  6.85129951 10.96896901
  -3.49874641  9.40821179 11.01836998
   5.02735763  0.88337393 11.11069166
   3.39395443  3.83700979 11.06907508
   1.89144658  6.57012901 10.87774948
  -0.11566026  9.53109047 10.95122021
   8.13778694  1.18989523 10.94725941
   6.59657225  3.61288164 11.19927855
   5.15919928  6.63458039 10.99838783
   3.31933731  9.43524568 10.84794161
  11.34282427  0.91257872 11.22917584
   9.80087838  3.93845997 10.86970644
   8.29202191  6.63734285 11.00422671
   6.59314060  9.50259508 11.01633941
   0.00956423  0.03092034 13.37413014
  11.38236621  2.89239066 13.38367519
  -3.32270943  5.77473717 13.39061353
   8.14258897  8.51234106 13.44782170
   3.29641712  0.00695758 13.49688956
   1.62776762  2.80851342 13.36350057
   0.01645240  5.63603804 13.25470120
  -1.56999849  8.54200194 13.36778762
   6.54403487  0.07798875 13.55704403
   4.87737191  2.91157443 13.42648862
   3.20892213  5.62072869 13.39506255
   1.57124743  8.47874799 13.42401461
   3.24896081 11.30000055 13.43757965
   8.22840130  2.93532983 13.37044578
   6.48347138  5.84387804 13.43385575
   4.77774609  8.48236308 13.48080749
 


--------------------------------------------------------------------------------------------------------


 k-point  1 :   0.0000 0.0000 0.0000  plane waves:  133769
 k-point  2 :   0.3333-0.0000 0.0000  plane waves:  133588
 k-point  3 :   0.0000 0.3333 0.0000  plane waves:  133588
 k-point  4 :   0.3333 0.3333 0.0000  plane waves:  133608
 k-point  5 :  -0.3333 0.3333 0.0000  plane waves:  133588

 maximum and minimum number of plane-waves per node :     10323    10242

 maximum number of plane-waves:    133769
 maximum index in each direction: 
   IXMAX=   26   IYMAX=   26   IZMAX=   53
   IXMIN=  -26   IYMIN=  -26   IZMIN=  -53


 real space projection operators:
  total allocation   :      55701.02 KBytes
  max/ min on nodes  :       4726.48       4048.92


 parallel 3D FFT for wavefunctions:
    minimum data exchange during FFTs selected (reduces bandwidth)
 parallel 3D FFT for charge:
    minimum data exchange during FFTs selected (reduces bandwidth)


 total amount of memory used by VASP MPI-rank0   234707. kBytes
=======================================================================

   base      :      30000. kBytes
   nonlr-proj:      19439. kBytes
   fftplans  :      66973. kBytes
   grid      :      38377. kBytes
   one-center:        108. kBytes
   wavefun   :      79810. kBytes
 
     INWAV:  cpu time    0.0000: real time    0.0000
 Broyden mixing: mesh for mixing (old mesh)
   NGX = 53   NGY = 53   NGZ =107
  (NGX  =216   NGY  =216   NGZ  =432)
  gives a total of 300563 points

 initial charge density was supplied:
 charge density of overlapping atoms calculated
 number of electron     640.0000000 magnetization 
 keeping initial charge density in first step


--------------------------------------------------------------------------------------------------------


 Maximum index for non-local projection operator         1114
 Maximum index for augmentation-charges         5747 (set IRDMAX)


--------------------------------------------------------------------------------------------------------


 First call to EWALD:  gamma=   0.112
 Maximum number of real-space cells 4x 4x 2
 Maximum number of reciprocal cells 2x 2x 4

    FEWALD:  cpu time    0.0040: real time    0.0041


--------------------------------------- Iteration      1(   1)  ---------------------------------------


    POTLOK:  cpu time    0.4574: real time    0.4631
    SETDIJ:  cpu time    0.4297: real time    0.4338
     EDDAV:  cpu time   46.7198: real time   46.7342
       DOS:  cpu time    0.0012: real time    0.0012
    --------------------------------------------
      LOOP:  cpu time   47.6081: real time   47.6323

 eigenvalue-minimisations  :  4232
 total energy-change (2. order) : 0.1365263E+05  (-0.2791144E+05)
 number of electron     640.0000000 magnetization 
 augmentation part      640.0000000 magnetization 

 Free energy of the ion-electron system (eV)
  ---------------------------------------------------
  alpha Z        PSCENC =       871.83850952
  Ewald energy   TEWEN  =    288142.37883757
  -Hartree energ DENC   =   -342461.93708909
  -exchange      EXHF   =         0.00000000
  -V(xc)+E(xc)   XCENC  =      3044.60640626
  PAW double counting   =     50525.51240023   -50422.77561733
  entropy T*S    EENTRO =        -0.06868781
  eigenvalues    EBANDS =      -254.36462985
  atomic energy  EATOM  =     64207.43592568
  Solvation  Ediel_sol  =         0.00000000
  ---------------------------------------------------
  free energy    TOTEN  =     13652.62605518 eV

  energy without entropy =    13652.69474299  energy(sigma->0) =    13652.66039909


--------------------------------------------------------------------------------------------------------




--------------------------------------- Iteration      1(   2)  ---------------------------------------


     EDDAV:  cpu time   49.6624: real time   49.6775
       DOS:  cpu time    0.0013: real time    0.0013
    --------------------------------------------
      LOOP:  cpu time   49.6637: real time   49.6788

 eigenvalue-minimisations  :  4616
 total energy-change (2. order) :-0.1116213E+05  (-0.1085906E+05)
 number of electron     640.0000000 magnetization 
 augmentation part      640.0000000 magnetization 

 Free energy of the ion-electron system (eV)
  ---------------------------------------------------
  alpha Z        PSCENC =       871.83850952
  Ewald energy   TEWEN  =    288142.37883757
  -Hartree energ DENC   =   -342461.93708909
  -exchange      EXHF   =         0.00000000
  -V(xc)+E(xc)   XCENC  =      3044.60640626
  PAW double counting   =     50525.51240023   -50422.77561733
  entropy T*S    EENTRO =        -0.05047023
  eigenvalues    EBANDS =    -11416.51557433
  atomic energy  EATOM  =     64207.43592568
  Solvation  Ediel_sol  =         0.00000000
  ---------------------------------------------------
  free energy    TOTEN  =      2490.49332829 eV

  energy without entropy =     2490.54379852  energy(sigma->0) =     2490.51856340


--------------------------------------------------------------------------------------------------------




--------------------------------------- Iteration      1(   3)  ---------------------------------------


     EDDAV:  cpu time   67.9908: real time   67.9944
       DOS:  cpu time    0.0005: real time    0.0005
    --------------------------------------------
      LOOP:  cpu time   67.9913: real time   67.9949

 eigenvalue-minimisations  :  6800
 total energy-change (2. order) :-0.2869051E+04  (-0.2753842E+04)
 number of electron     640.0000000 magnetization 
 augmentation part      640.0000000 magnetization 

 Free energy of the ion-electron system (eV)
  ---------------------------------------------------
  alpha Z        PSCENC =       871.83850952
  Ewald energy   TEWEN  =    288142.37883757
  -Hartree energ DENC   =   -342461.93708909
  -exchange      EXHF   =         0.00000000
  -V(xc)+E(xc)   XCENC  =      3044.60640626
  PAW double counting   =     50525.51240023   -50422.77561733
  entropy T*S    EENTRO =        -0.00000000
  eigenvalues    EBANDS =    -14285.61690815
  atomic energy  EATOM  =     64207.43592568
  Solvation  Ediel_sol  =         0.00000000
  ---------------------------------------------------
  free energy    TOTEN  =      -378.55753531 eV

  energy without entropy =     -378.55753531  energy(sigma->0) =     -378.55753531


--------------------------------------------------------------------------------------------------------




--------------------------------------- Iteration      1(   4)  ---------------------------------------


     EDDAV:  cpu time   61.7635: real time   61.7729
       DOS:  cpu time    0.0005: real time    0.0005
    --------------------------------------------
      LOOP:  cpu time   61.7640: real time   61.7735

 eigenvalue-minimisations  :  6048
 total energy-change (2. order) :-0.3598137E+03  (-0.3554399E+03)
 number of electron     640.0000000 magnetization 
 augmentation part      640.0000000 magnetization 

 Free energy of the ion-electron system (eV)
  ---------------------------------------------------
  alpha Z        PSCENC =       871.83850952
  Ewald energy   TEWEN  =    288142.37883757
  -Hartree energ DENC   =   -342461.93708909
  -exchange      EXHF   =         0.00000000
  -V(xc)+E(xc)   XCENC  =      3044.60640626
  PAW double counting   =     50525.51240023   -50422.77561733
  entropy T*S    EENTRO =        -0.00000000
  eigenvalues    EBANDS =    -14645.43062348
  atomic energy  EATOM  =     64207.43592568
  Solvation  Ediel_sol  =         0.00000000
  ---------------------------------------------------
  free energy    TOTEN  =      -738.37125063 eV

  energy without entropy =     -738.37125063  energy(sigma->0) =     -738.37125063


--------------------------------------------------------------------------------------------------------




--------------------------------------- Iteration      1(   5)  ---------------------------------------


     EDDAV:  cpu time   61.9119: real time   61.9223
       DOS:  cpu time    0.0006: real time    0.0006
    CHARGE:  cpu time    3.6430: real time    3.6435
    MIXING:  cpu time    0.0170: real time    0.0171
    --------------------------------------------
      LOOP:  cpu time   65.5725: real time   65.5836

 eigenvalue-minimisations  :  6080
 total energy-change (2. order) :-0.1456548E+02  (-0.1450067E+02)
 number of electron     640.0000007 magnetization 
 augmentation part      134.6451981 magnetization 

 Broyden mixing:
  rms(total) = 0.77933E+01    rms(broyden)= 0.77930E+01
  rms(prec ) = 0.81908E+01
  weight for this iteration     100.00

 Free energy of the ion-electron system (eV)
  ---------------------------------------------------
  alpha Z        PSCENC =       871.83850952
  Ewald energy   TEWEN  =    288142.37883757
  -Hartree energ DENC   =   -342461.93708909
  -exchange      EXHF   =         0.00000000
  -V(xc)+E(xc)   XCENC  =      3044.60640626
  PAW double counting   =     50525.51240023   -50422.77561733
  entropy T*S    EENTRO =        -0.00000000
  eigenvalues    EBANDS =    -14659.99609980
  atomic energy  EATOM  =     64207.43592568
  Solvation  Ediel_sol  =         0.00000000
  ---------------------------------------------------
  free energy    TOTEN  =      -752.93672696 eV

  energy without entropy =     -752.93672696  energy(sigma->0) =     -752.93672696


--------------------------------------------------------------------------------------------------------




--------------------------------------- Iteration      1(   6)  ---------------------------------------


    POTLOK:  cpu time    0.4050: real time    0.4193
    SETDIJ:  cpu time    0.4156: real time    0.4156
     EDDAV:  cpu time   59.1406: real time   59.1554
       DOS:  cpu time    0.0005: real time    0.0005
    CHARGE:  cpu time    3.6222: real time    3.6221
    MIXING:  cpu time    0.0157: real time    0.0158
    --------------------------------------------
      LOOP:  cpu time   63.5996: real time   63.6286

 eigenvalue-minimisations  :  5744
 total energy-change (2. order) : 0.1559250E+03  (-0.8350364E+02)
 number of electron     640.0000007 magnetization 
 augmentation part      140.4923056 magnetization 

 Broyden mixing:
  rms(total) = 0.25505E+01    rms(broyden)= 0.25497E+01
  rms(prec ) = 0.26017E+01
  weight for this iteration     100.00

 eigenvalues of (default mixing * dielectric matrix)
  average eigenvalue GAMMA=   0.9917
  0.9917

 Free energy of the ion-electron system (eV)
  ---------------------------------------------------
  alpha Z        PSCENC =       871.83850952
  Ewald energy   TEWEN  =    288142.37883757
  -Hartree energ DENC   =   -342642.84671730
  -exchange      EXHF   =         0.00000000
  -V(xc)+E(xc)   XCENC  =      3057.21428552
  PAW double counting   =     56666.47570875   -56633.38174561
  entropy T*S    EENTRO =        -0.00000000
  eigenvalues    EBANDS =    -14266.12651223
  atomic energy  EATOM  =     64207.43592568
  Solvation  Ediel_sol  =         0.00000000
  ---------------------------------------------------
  free energy    TOTEN  =      -597.01170810 eV

  energy without entropy =     -597.01170810  energy(sigma->0) =     -597.01170810


--------------------------------------------------------------------------------------------------------




--------------------------------------- Iteration      1(   7)  ---------------------------------------


    POTLOK:  cpu time    0.4187: real time    0.4296
    SETDIJ:  cpu time    0.4270: real time    0.4270
     EDDAV:  cpu time   60.8253: real time   60.8260
       DOS:  cpu time    0.0005: real time    0.0005
    CHARGE:  cpu time    3.6039: real time    3.6039
    MIXING:  cpu time    0.0205: real time    0.0205
    --------------------------------------------
      LOOP:  cpu time   65.2959: real time   65.3076

 eigenvalue-minimisations  :  5936
 total energy-change (2. order) :-0.9718317E-01  (-0.5416578E+01)
 number of electron     640.0000007 magnetization 
 augmentation part      141.1205879 magnetization 

 Broyden mixing:
  rms(total) = 0.16590E+01    rms(broyden)= 0.16590E+01
  rms(prec ) = 0.16877E+01
  weight for this iteration     100.00

 eigenvalues of (default mixing * dielectric matrix)
  average eigenvalue GAMMA=   1.6400
  0.9652  2.3148

 Free energy of the ion-electron system (eV)
  ---------------------------------------------------
  alpha Z        PSCENC =       871.83850952
  Ewald energy   TEWEN  =    288142.37883757
  -Hartree energ DENC   =   -342790.91374351
  -exchange      EXHF   =         0.00000000
  -V(xc)+E(xc)   XCENC  =      3054.30573248
  PAW double counting   =     60595.92554555   -60570.20787972
  entropy T*S    EENTRO =        -0.00000000
  eigenvalues    EBANDS =    -14107.87181885
  atomic energy  EATOM  =     64207.43592568
  Solvation  Ediel_sol  =         0.00000000
  ---------------------------------------------------
  free energy    TOTEN  =      -597.10889128 eV

  energy without entropy =     -597.10889128  energy(sigma->0) =     -597.10889128


--------------------------------------------------------------------------------------------------------




--------------------------------------- Iteration      1(   8)  ---------------------------------------


    POTLOK:  cpu time    0.3615: real time    0.3716
    SETDIJ:  cpu time    0.4138: real time    0.4138
     EDDAV:  cpu time   56.9740: real time   56.9738
       DOS:  cpu time    0.0005: real time    0.0005
    CHARGE:  cpu time    3.6072: real time    3.6072
    MIXING:  cpu time    0.0213: real time    0.0212
    --------------------------------------------
      LOOP:  cpu time   61.3782: real time   61.3880

 eigenvalue-minimisations  :  5488
 total energy-change (2. order) : 0.1512899E+01  (-0.1030726E+01)
 number of electron     640.0000007 magnetization 
 augmentation part      141.1221569 magnetization 

 Broyden mixing:
  rms(total) = 0.46737E+00    rms(broyden)= 0.46729E+00
  rms(prec ) = 0.50076E+00
  weight for this iteration     100.00

 eigenvalues of (default mixing * dielectric matrix)
  average eigenvalue GAMMA=   1.4131
  2.4823  0.8785  0.8785

 Free energy of the ion-electron system (eV)
  ---------------------------------------------------
  alpha Z        PSCENC =       871.83850952
  Ewald energy   TEWEN  =    288142.37883757
  -Hartree energ DENC   =   -343055.87566124
  -exchange      EXHF   =         0.00000000
  -V(xc)+E(xc)   XCENC  =      3051.08086264
  PAW double counting   =     67123.96241110   -67115.75199570
  entropy T*S    EENTRO =        -0.00000000
  eigenvalues    EBANDS =    -13820.66488205
  atomic energy  EATOM  =     64207.43592568
  Solvation  Ediel_sol  =         0.00000000
  ---------------------------------------------------
  free energy    TOTEN  =      -595.59599248 eV

  energy without entropy =     -595.59599248  energy(sigma->0) =     -595.59599248


--------------------------------------------------------------------------------------------------------




--------------------------------------- Iteration      1(   9)  ---------------------------------------


    POTLOK:  cpu time    0.4101: real time    0.4210
    SETDIJ:  cpu time    0.4176: real time    0.4177
     EDDAV:  cpu time   57.1656: real time   57.1670
       DOS:  cpu time    0.0006: real time    0.0005
    CHARGE:  cpu time    3.6039: real time    3.6039
    MIXING:  cpu time    0.0234: real time    0.0234
    --------------------------------------------
      LOOP:  cpu time   61.6212: real time   61.6335

 eigenvalue-minimisations  :  5504
 total energy-change (2. order) : 0.5087441E+00  (-0.2564664E+00)
 number of electron     640.0000007 magnetization 
 augmentation part      141.5168206 magnetization 

 Broyden mixing:
  rms(total) = 0.22789E+00    rms(broyden)= 0.22789E+00
  rms(prec ) = 0.24571E+00
  weight for this iteration     100.00

 eigenvalues of (default mixing * dielectric matrix)
  average eigenvalue GAMMA=   1.2462
  2.1424  1.0710  0.8858  0.8858

 Free energy of the ion-electron system (eV)
  ---------------------------------------------------
  alpha Z        PSCENC =       871.83850952
  Ewald energy   TEWEN  =    288142.37883757
  -Hartree energ DENC   =   -343162.22724744
  -exchange      EXHF   =         0.00000000
  -V(xc)+E(xc)   XCENC  =      3052.85728580
  PAW double counting   =     67666.73666473   -67661.86135739
  entropy T*S    EENTRO =        -0.00000000
  eigenvalues    EBANDS =    -13712.24586685
  atomic energy  EATOM  =     64207.43592568
  Solvation  Ediel_sol  =         0.00000000
  ---------------------------------------------------
  free energy    TOTEN  =      -595.08724838 eV

  energy without entropy =     -595.08724838  energy(sigma->0) =     -595.08724838


--------------------------------------------------------------------------------------------------------




--------------------------------------- Iteration      1(  10)  ---------------------------------------


    POTLOK:  cpu time    0.3997: real time    0.4110
    SETDIJ:  cpu time    0.4139: real time    0.4139
     EDDAV:  cpu time   60.6535: real time   60.6550
       DOS:  cpu time    0.0005: real time    0.0005
    CHARGE:  cpu time    3.6155: real time    3.6154
    MIXING:  cpu time    0.0303: real time    0.0303
    --------------------------------------------
      LOOP:  cpu time   65.1134: real time   65.1262

 eigenvalue-minimisations  :  5920
 total energy-change (2. order) : 0.3879003E-01  (-0.3086434E-01)
 number of electron     640.0000007 magnetization 
 augmentation part      141.3815872 magnetization 

 Broyden mixing:
  rms(total) = 0.12845E+00    rms(broyden)= 0.12844E+00
  rms(prec ) = 0.15118E+00
  weight for this iteration     100.00

 eigenvalues of (default mixing * dielectric matrix)
  average eigenvalue GAMMA=   1.4255
  2.3258  2.3258  0.9192  0.9192  0.6377

 Free energy of the ion-electron system (eV)
  ---------------------------------------------------
  alpha Z        PSCENC =       871.83850952
  Ewald energy   TEWEN  =    288142.37883757
  -Hartree energ DENC   =   -343222.52160025
  -exchange      EXHF   =         0.00000000
  -V(xc)+E(xc)   XCENC  =      3054.17113161
  PAW double counting   =     67038.78709441   -67032.81119110
  entropy T*S    EENTRO =        -0.00000000
  eigenvalues    EBANDS =    -13654.32716579
  atomic energy  EATOM  =     64207.43592568
  Solvation  Ediel_sol  =         0.00000000
  ---------------------------------------------------
  free energy    TOTEN  =      -595.04845835 eV

  energy without entropy =     -595.04845835  energy(sigma->0) =     -595.04845835


--------------------------------------------------------------------------------------------------------




--------------------------------------- Iteration      1(  11)  ---------------------------------------


    POTLOK:  cpu time    0.4087: real time    0.4185
    SETDIJ:  cpu time    0.4329: real time    0.4329
     EDDAV:  cpu time   56.8838: real time   56.8846
       DOS:  cpu time    0.0006: real time    0.0005
    CHARGE:  cpu time    3.6360: real time    3.6367
    MIXING:  cpu time    0.0209: real time    0.0209
    --------------------------------------------
      LOOP:  cpu time   61.3829: real time   61.3942

 eigenvalue-minimisations  :  5464
 total energy-change (2. order) : 0.1185842E+00  (-0.1537454E-01)
 number of electron     640.0000007 magnetization 
 augmentation part      141.2696755 magnetization 

 Broyden mixing:
  rms(total) = 0.86211E-01    rms(broyden)= 0.86208E-01
  rms(prec ) = 0.10033E+00
  weight for this iteration     100.00

 eigenvalues of (default mixing * dielectric matrix)
  average eigenvalue GAMMA=   1.3725
  2.6388  2.0780  1.0104  0.9120  0.9120  0.6838

 Free energy of the ion-electron system (eV)
  ---------------------------------------------------
  alpha Z        PSCENC =       871.83850952
  Ewald energy   TEWEN  =    288142.37883757
  -Hartree energ DENC   =   -343383.96013980
  -exchange      EXHF   =         0.00000000
  -V(xc)+E(xc)   XCENC  =      3055.72203843
  PAW double counting   =     66921.06729013   -66915.06374285
  entropy T*S    EENTRO =        -0.00000000
  eigenvalues    EBANDS =    -13494.34859278
  atomic energy  EATOM  =     64207.43592568
  Solvation  Ediel_sol  =         0.00000000
  ---------------------------------------------------
  free energy    TOTEN  =      -594.92987411 eV

  energy without entropy =     -594.92987411  energy(sigma->0) =     -594.92987411


--------------------------------------------------------------------------------------------------------




--------------------------------------- Iteration      1(  12)  ---------------------------------------


    POTLOK:  cpu time    0.4547: real time    0.4687
    SETDIJ:  cpu time    0.4716: real time    0.4716
     EDDAV:  cpu time   60.8818: real time   60.8853
       DOS:  cpu time    0.0006: real time    0.0006
    CHARGE:  cpu time    3.6113: real time    3.6113
    MIXING:  cpu time    0.0201: real time    0.0201
    --------------------------------------------
      LOOP:  cpu time   65.4400: real time   65.4575

 eigenvalue-minimisations  :  5928
 total energy-change (2. order) : 0.3244194E-01  (-0.5349436E-02)
 number of electron     640.0000007 magnetization 
 augmentation part      141.3419395 magnetization 

 Broyden mixing:
  rms(total) = 0.34566E-01    rms(broyden)= 0.34564E-01
  rms(prec ) = 0.51728E-01
  weight for this iteration     100.00

 eigenvalues of (default mixing * dielectric matrix)
  average eigenvalue GAMMA=   1.3835
  2.4807  2.4807  1.1365  1.1365  0.8948  0.8948  0.6605

 Free energy of the ion-electron system (eV)
  ---------------------------------------------------
  alpha Z        PSCENC =       871.83850952
  Ewald energy   TEWEN  =    288142.37883757
  -Hartree energ DENC   =   -343443.32332968
  -exchange      EXHF   =         0.00000000
  -V(xc)+E(xc)   XCENC  =      3055.85406649
  PAW double counting   =     67139.37341112   -67133.94860054
  entropy T*S    EENTRO =        -0.00000000
  eigenvalues    EBANDS =    -13434.50625232
  atomic energy  EATOM  =     64207.43592568
  Solvation  Ediel_sol  =         0.00000000
  ---------------------------------------------------
  free energy    TOTEN  =      -594.89743217 eV

  energy without entropy =     -594.89743217  energy(sigma->0) =     -594.89743217


--------------------------------------------------------------------------------------------------------




--------------------------------------- Iteration      1(  13)  ---------------------------------------


    POTLOK:  cpu time    0.4105: real time    0.4230
    SETDIJ:  cpu time    0.4369: real time    0.4390
     EDDAV:  cpu time   60.8765: real time   60.8831
       DOS:  cpu time    0.0006: real time    0.0006
    CHARGE:  cpu time    3.6009: real time    3.6009
    MIXING:  cpu time    0.0208: real time    0.0208
    --------------------------------------------
      LOOP:  cpu time   65.3463: real time   65.3674

 eigenvalue-minimisations  :  5936
 total energy-change (2. order) : 0.7733725E-02  (-0.2803291E-02)
 number of electron     640.0000007 magnetization 
 augmentation part      141.2982907 magnetization 

 Broyden mixing:
  rms(total) = 0.28922E-01    rms(broyden)= 0.28919E-01
  rms(prec ) = 0.41358E-01
  weight for this iteration     100.00

 eigenvalues of (default mixing * dielectric matrix)
  average eigenvalue GAMMA=   1.3567
  2.6598  2.5814  1.2439  1.2439  0.8926  0.8926  0.6699  0.6699

 Free energy of the ion-electron system (eV)
  ---------------------------------------------------
  alpha Z        PSCENC =       871.83850952
  Ewald energy   TEWEN  =    288142.37883757
  -Hartree energ DENC   =   -343499.83197464
  -exchange      EXHF   =         0.00000000
  -V(xc)+E(xc)   XCENC  =      3056.03495694
  PAW double counting   =     67064.86804411   -67059.07788071
  entropy T*S    EENTRO =        -0.00000000
  eigenvalues    EBANDS =    -13378.53611691
  atomic energy  EATOM  =     64207.43592568
  Solvation  Ediel_sol  =         0.00000000
  ---------------------------------------------------
  free energy    TOTEN  =      -594.88969844 eV

  energy without entropy =     -594.88969844  energy(sigma->0) =     -594.88969844


--------------------------------------------------------------------------------------------------------




--------------------------------------- Iteration      1(  14)  ---------------------------------------


    POTLOK:  cpu time    0.4041: real time    0.4151
    SETDIJ:  cpu time    0.4295: real time    0.4295
     EDDAV:  cpu time   57.4668: real time   57.4683
       DOS:  cpu time    0.0007: real time    0.0007
    CHARGE:  cpu time    3.6046: real time    3.6046
    MIXING:  cpu time    0.0266: real time    0.0266
    --------------------------------------------
      LOOP:  cpu time   61.9322: real time   61.9447

 eigenvalue-minimisations  :  5536
 total energy-change (2. order) : 0.4765683E-02  (-0.8645882E-03)
 number of electron     640.0000007 magnetization 
 augmentation part      141.3159415 magnetization 

 Broyden mixing:
  rms(total) = 0.15979E-01    rms(broyden)= 0.15978E-01
  rms(prec ) = 0.26487E-01
  weight for this iteration     100.00

 eigenvalues of (default mixing * dielectric matrix)
  average eigenvalue GAMMA=   1.4748
  2.9016  2.9016  1.6124  1.6124  0.9350  0.9350  0.8565  0.8565  0.6623

 Free energy of the ion-electron system (eV)
  ---------------------------------------------------
  alpha Z        PSCENC =       871.83850952
  Ewald energy   TEWEN  =    288142.37883757
  -Hartree energ DENC   =   -343550.63096053
  -exchange      EXHF   =         0.00000000
  -V(xc)+E(xc)   XCENC  =      3056.17496225
  PAW double counting   =     67091.33483045   -67085.63510750
  entropy T*S    EENTRO =        -0.00000000
  eigenvalues    EBANDS =    -13327.78193021
  atomic energy  EATOM  =     64207.43592568
  Solvation  Ediel_sol  =         0.00000000
  ---------------------------------------------------
  free energy    TOTEN  =      -594.88493276 eV

  energy without entropy =     -594.88493276  energy(sigma->0) =     -594.88493276


--------------------------------------------------------------------------------------------------------




--------------------------------------- Iteration      1(  15)  ---------------------------------------


    POTLOK:  cpu time    0.3867: real time    0.3989
    SETDIJ:  cpu time    0.4154: real time    0.4154
     EDDAV:  cpu time   57.9081: real time   57.9102
       DOS:  cpu time    0.0007: real time    0.0007
    CHARGE:  cpu time    3.6187: real time    3.6187
    MIXING:  cpu time    0.0223: real time    0.0223
    --------------------------------------------
      LOOP:  cpu time   62.3519: real time   62.3661

 eigenvalue-minimisations  :  5592
 total energy-change (2. order) :-0.6020481E-02  (-0.1477499E-02)
 number of electron     640.0000007 magnetization 
 augmentation part      141.3285787 magnetization 

 Broyden mixing:
  rms(total) = 0.13586E-01    rms(broyden)= 0.13582E-01
  rms(prec ) = 0.17723E-01
  weight for this iteration     100.00

 eigenvalues of (default mixing * dielectric matrix)
  average eigenvalue GAMMA=   1.4909
  4.0084  2.7038  1.9507  1.0660  1.0660  1.0371  0.8459  0.8459  0.6658  0.7196

 Free energy of the ion-electron system (eV)
  ---------------------------------------------------
  alpha Z        PSCENC =       871.83850952
  Ewald energy   TEWEN  =    288142.37883757
  -Hartree energ DENC   =   -343618.14754874
  -exchange      EXHF   =         0.00000000
  -V(xc)+E(xc)   XCENC  =      3056.31414911
  PAW double counting   =     67067.97850840   -67062.28475381
  entropy T*S    EENTRO =        -0.00000000
  eigenvalues    EBANDS =    -13260.40458097
  atomic energy  EATOM  =     64207.43592568
  Solvation  Ediel_sol  =         0.00000000
  ---------------------------------------------------
  free energy    TOTEN  =      -594.89095324 eV

  energy without entropy =     -594.89095324  energy(sigma->0) =     -594.89095324


--------------------------------------------------------------------------------------------------------




--------------------------------------- Iteration      1(  16)  ---------------------------------------


    POTLOK:  cpu time    0.3909: real time    0.4008
    SETDIJ:  cpu time    0.4139: real time    0.4139
     EDDAV:  cpu time   60.5910: real time   60.5915
       DOS:  cpu time    0.0006: real time    0.0006
    CHARGE:  cpu time    3.6024: real time    3.6023
    MIXING:  cpu time    0.0221: real time    0.0221
    --------------------------------------------
      LOOP:  cpu time   65.0209: real time   65.0313

 eigenvalue-minimisations  :  5888
 total energy-change (2. order) :-0.2745895E-02  (-0.2390309E-03)
 number of electron     640.0000007 magnetization 
 augmentation part      141.3221472 magnetization 

 Broyden mixing:
  rms(total) = 0.97621E-02    rms(broyden)= 0.97619E-02
  rms(prec ) = 0.12549E-01
  weight for this iteration     100.00

 eigenvalues of (default mixing * dielectric matrix)
  average eigenvalue GAMMA=   1.5129
  4.2244  2.7052  2.1207  1.2162  1.2162  0.9996  0.9996  0.8957  0.8957  0.6704
  0.6977

 Free energy of the ion-electron system (eV)
  ---------------------------------------------------
  alpha Z        PSCENC =       871.83850952
  Ewald energy   TEWEN  =    288142.37883757
  -Hartree energ DENC   =   -343643.42394257
  -exchange      EXHF   =         0.00000000
  -V(xc)+E(xc)   XCENC  =      3056.36243073
  PAW double counting   =     67071.66616077   -67065.96545206
  entropy T*S    EENTRO =        -0.00000000
  eigenvalues    EBANDS =    -13235.18616878
  atomic energy  EATOM  =     64207.43592568
  Solvation  Ediel_sol  =         0.00000000
  ---------------------------------------------------
  free energy    TOTEN  =      -594.89369913 eV

  energy without entropy =     -594.89369913  energy(sigma->0) =     -594.89369913


--------------------------------------------------------------------------------------------------------




--------------------------------------- Iteration      1(  17)  ---------------------------------------


    POTLOK:  cpu time    0.3893: real time    0.4017
    SETDIJ:  cpu time    0.4136: real time    0.4135
     EDDAV:  cpu time   62.3126: real time   62.3215
       DOS:  cpu time    0.0006: real time    0.0006
    CHARGE:  cpu time    3.6026: real time    3.6026
    MIXING:  cpu time    0.0227: real time    0.0227
    --------------------------------------------
      LOOP:  cpu time   66.7412: real time   66.7626

 eigenvalue-minimisations  :  6104
 total energy-change (2. order) :-0.5168292E-02  (-0.4167662E-03)
 number of electron     640.0000007 magnetization 
 augmentation part      141.3229402 magnetization 

 Broyden mixing:
  rms(total) = 0.11673E-01    rms(broyden)= 0.11669E-01
  rms(prec ) = 0.13111E-01
  weight for this iteration     100.00

 eigenvalues of (default mixing * dielectric matrix)
  average eigenvalue GAMMA=   1.6312
  5.5805  2.8906  2.0583  2.0583  0.9428  0.9428  1.0302  1.0302  0.8534  0.8534
  0.6905  0.6429

 Free energy of the ion-electron system (eV)
  ---------------------------------------------------
  alpha Z        PSCENC =       871.83850952
  Ewald energy   TEWEN  =    288142.37883757
  -Hartree energ DENC   =   -343660.58320279
  -exchange      EXHF   =         0.00000000
  -V(xc)+E(xc)   XCENC  =      3056.39754656
  PAW double counting   =     67075.24676199   -67069.60880136
  entropy T*S    EENTRO =        -0.00000000
  eigenvalues    EBANDS =    -13218.00444461
  atomic energy  EATOM  =     64207.43592568
  Solvation  Ediel_sol  =         0.00000000
  ---------------------------------------------------
  free energy    TOTEN  =      -594.89886743 eV

  energy without entropy =     -594.89886743  energy(sigma->0) =     -594.89886743


--------------------------------------------------------------------------------------------------------




--------------------------------------- Iteration      1(  18)  ---------------------------------------


    POTLOK:  cpu time    0.3660: real time    0.3752
    SETDIJ:  cpu time    0.4142: real time    0.4142
     EDDAV:  cpu time   56.0584: real time   56.0601
       DOS:  cpu time    0.0006: real time    0.0006
    CHARGE:  cpu time    3.5971: real time    3.5971
    MIXING:  cpu time    0.0219: real time    0.0219
    --------------------------------------------
      LOOP:  cpu time   60.4582: real time   60.4691

 eigenvalue-minimisations  :  5368
 total energy-change (2. order) :-0.3711339E-02  (-0.9962223E-04)
 number of electron     640.0000007 magnetization 
 augmentation part      141.3131828 magnetization 

 Broyden mixing:
  rms(total) = 0.69381E-02    rms(broyden)= 0.69378E-02
  rms(prec ) = 0.77844E-02
  weight for this iteration     100.00

 eigenvalues of (default mixing * dielectric matrix)
  average eigenvalue GAMMA=   1.6279
  6.1349  2.7353  2.5725  1.7378  0.9473  0.9473  1.1192  0.9618  0.9618  0.8448
  0.8448  0.6775  0.6775

 Free energy of the ion-electron system (eV)
  ---------------------------------------------------
  alpha Z        PSCENC =       871.83850952
  Ewald energy   TEWEN  =    288142.37883757
  -Hartree energ DENC   =   -343678.21435150
  -exchange      EXHF   =         0.00000000
  -V(xc)+E(xc)   XCENC  =      3056.44693045
  PAW double counting   =     67058.85337807   -67053.21346191
  entropy T*S    EENTRO =        -0.00000000
  eigenvalues    EBANDS =    -13200.42834665
  atomic energy  EATOM  =     64207.43592568
  Solvation  Ediel_sol  =         0.00000000
  ---------------------------------------------------
  free energy    TOTEN  =      -594.90257877 eV

  energy without entropy =     -594.90257877  energy(sigma->0) =     -594.90257877


--------------------------------------------------------------------------------------------------------




--------------------------------------- Iteration      1(  19)  ---------------------------------------


    POTLOK:  cpu time    0.4031: real time    0.4132
    SETDIJ:  cpu time    0.4127: real time    0.4165
     EDDAV:  cpu time   58.5027: real time   58.5051
       DOS:  cpu time    0.0005: real time    0.0005
    CHARGE:  cpu time    3.5882: real time    3.5882
    MIXING:  cpu time    0.0246: real time    0.0246
    --------------------------------------------
      LOOP:  cpu time   62.9319: real time   62.9482

 eigenvalue-minimisations  :  5656
 total energy-change (2. order) :-0.1606785E-02  (-0.8644402E-04)
 number of electron     640.0000007 magnetization 
 augmentation part      141.3162768 magnetization 

 Broyden mixing:
  rms(total) = 0.22526E-02    rms(broyden)= 0.22485E-02
  rms(prec ) = 0.33304E-02
  weight for this iteration     100.00

 eigenvalues of (default mixing * dielectric matrix)
  average eigenvalue GAMMA=   1.6396
  6.5634  3.0633  2.3774  1.9166  0.9657  0.9657  1.1403  1.1403  0.9150  0.9150
  0.8080  0.8080  0.6630  0.7129

 Free energy of the ion-electron system (eV)
  ---------------------------------------------------
  alpha Z        PSCENC =       871.83850952
  Ewald energy   TEWEN  =    288142.37883757
  -Hartree energ DENC   =   -343682.97014059
  -exchange      EXHF   =         0.00000000
  -V(xc)+E(xc)   XCENC  =      3056.44925824
  PAW double counting   =     67065.59177570   -67059.97986788
  entropy T*S    EENTRO =        -0.00000000
  eigenvalues    EBANDS =    -13195.64848380
  atomic energy  EATOM  =     64207.43592568
  Solvation  Ediel_sol  =         0.00000000
  ---------------------------------------------------
  free energy    TOTEN  =      -594.90418555 eV

  energy without entropy =     -594.90418555  energy(sigma->0) =     -594.90418555


--------------------------------------------------------------------------------------------------------




--------------------------------------- Iteration      1(  20)  ---------------------------------------


    POTLOK:  cpu time    0.3872: real time    0.3971
    SETDIJ:  cpu time    0.4138: real time    0.4138
     EDDAV:  cpu time   54.6817: real time   54.6835
       DOS:  cpu time    0.0006: real time    0.0006
    CHARGE:  cpu time    3.6539: real time    3.6539
    MIXING:  cpu time    0.0242: real time    0.0242
    --------------------------------------------
      LOOP:  cpu time   59.1613: real time   59.1730

 eigenvalue-minimisations  :  5208
 total energy-change (2. order) :-0.2920625E-02  (-0.1575140E-04)
 number of electron     640.0000007 magnetization 
 augmentation part      141.3164127 magnetization 

 Broyden mixing:
  rms(total) = 0.25398E-02    rms(broyden)= 0.25393E-02
  rms(prec ) = 0.30498E-02
  weight for this iteration     100.00

 eigenvalues of (default mixing * dielectric matrix)
  average eigenvalue GAMMA=   1.7093
  7.0337  3.4440  2.4967  2.2625  1.7417  0.9325  0.9325  1.0451  0.9641  0.9641
  0.8557  0.8557  0.7493  0.6577  0.7044

 Free energy of the ion-electron system (eV)
  ---------------------------------------------------
  alpha Z        PSCENC =       871.83850952
  Ewald energy   TEWEN  =    288142.37883757
  -Hartree energ DENC   =   -343686.45732714
  -exchange      EXHF   =         0.00000000
  -V(xc)+E(xc)   XCENC  =      3056.43948700
  PAW double counting   =     67061.41838244   -67055.78956516
  entropy T*S    EENTRO =        -0.00000000
  eigenvalues    EBANDS =    -13192.17135610
  atomic energy  EATOM  =     64207.43592568
  Solvation  Ediel_sol  =         0.00000000
  ---------------------------------------------------
  free energy    TOTEN  =      -594.90710618 eV

  energy without entropy =     -594.90710618  energy(sigma->0) =     -594.90710618


--------------------------------------------------------------------------------------------------------




--------------------------------------- Iteration      1(  21)  ---------------------------------------


    POTLOK:  cpu time    0.3689: real time    0.3737
    SETDIJ:  cpu time    0.4141: real time    0.4141
     EDDAV:  cpu time   51.1975: real time   51.2126
       DOS:  cpu time    0.0006: real time    0.0006
    CHARGE:  cpu time    3.6203: real time    3.6203
    MIXING:  cpu time    0.0251: real time    0.0251
    --------------------------------------------
      LOOP:  cpu time   55.6265: real time   55.6464

 eigenvalue-minimisations  :  4792
 total energy-change (2. order) :-0.2631048E-02  (-0.1297920E-04)
 number of electron     640.0000007 magnetization 
 augmentation part      141.3170469 magnetization 

 Broyden mixing:
[...]
    -6.564311700 11.369721380  0.000000000     0.000000000  0.087952903  0.000000000
     0.000000000  0.000000000 26.828094240     0.000000000  0.000000000  0.037274358

  length of vectors
    13.128623400 13.128623399 26.828094240     0.087952903  0.087952903  0.037274358


 FORCES acting on ions
    electron-ion (+dipol)            ewald-force                    non-local-force                 convergence-correction
 -----------------------------------------------------------------------------------------------
   0.288E+01 -.263E+02 0.132E+04   -.178E+01 0.254E+02 -.131E+04   -.987E+00 0.709E+00 -.662E+01   -.214E-04 -.408E-05 0.217E-04
   -.508E+02 -.115E+02 0.132E+04   0.515E+02 0.118E+02 -.132E+04   0.773E-01 0.151E+00 -.612E+01   -.309E-04 -.152E-04 0.104E-04
   -.354E+02 -.281E+02 0.112E+04   0.363E+02 0.285E+02 -.111E+04   -.466E+00 0.109E+00 -.434E+01   -.255E-04 -.276E-04 -.269E-04
   -.210E+02 -.490E+02 0.121E+04   0.207E+02 0.493E+02 -.121E+04   0.224E+00 0.101E+00 -.423E+01   0.120E-04 -.375E-06 0.304E-04
   0.531E+02 0.461E+02 0.138E+04   -.531E+02 -.456E+02 -.137E+04   -.485E+00 -.708E+00 -.685E+01   0.117E-04 -.222E-04 -.560E-05
   -.187E+02 0.282E+02 0.149E+04   0.190E+02 -.274E+02 -.148E+04   0.680E+00 -.597E+00 -.542E+01   -.416E-04 -.224E-04 -.590E-04
   -.502E+02 -.628E+01 0.134E+04   0.488E+02 0.749E+01 -.133E+04   0.121E+01 -.281E+00 -.658E+01   -.138E-05 0.105E-04 -.102E-04
   0.393E+02 0.131E+02 0.114E+04   -.383E+02 -.132E+02 -.114E+04   -.100E+01 0.190E+00 -.575E+01   -.313E-04 0.178E-04 -.867E-05
   0.366E+02 0.734E+02 0.112E+04   -.362E+02 -.729E+02 -.112E+04   -.869E+00 -.110E+01 -.413E+01   -.284E-04 0.379E-04 -.893E-04
   0.859E+01 0.210E+02 0.125E+04   -.879E+01 -.213E+02 -.124E+04   0.237E+00 -.310E+00 -.633E+01   0.918E-04 -.753E-05 -.916E-04
   0.234E+02 -.151E+01 0.130E+04   -.250E+02 0.899E+00 -.129E+04   0.859E+00 -.317E+00 -.603E+01   0.177E-04 0.682E-04 -.229E-04
   0.895E+01 0.127E+02 0.122E+04   -.952E+01 -.136E+02 -.121E+04   -.115E-01 0.287E+00 -.720E+01   0.412E-04 0.993E-05 0.307E-04
   -.216E+02 0.405E+01 0.129E+04   0.211E+02 -.405E+01 -.128E+04   0.387E+00 0.520E-01 -.550E+01   0.400E-04 -.293E-04 -.441E-05
   0.486E+02 -.805E+01 0.118E+04   -.494E+02 0.788E+01 -.118E+04   -.638E+00 0.235E+00 -.556E+01   0.196E-05 0.443E-04 -.634E-04
   0.169E+02 -.518E+02 0.131E+04   -.171E+02 0.507E+02 -.130E+04   -.155E+00 0.142E+01 -.495E+01   0.155E-04 -.186E-04 -.463E-04
   -.204E+02 -.236E+01 0.128E+04   0.206E+02 0.301E+01 -.127E+04   0.554E+00 -.317E+00 -.554E+01   -.298E-04 0.174E-04 0.188E-04
   -.242E+02 -.686E+01 -.124E+04   0.239E+02 0.800E+01 0.123E+04   0.355E+00 -.559E+00 0.725E+01   0.107E-04 -.134E-04 -.913E-05
   -.567E+02 0.578E+02 -.104E+04   0.564E+02 -.575E+02 0.104E+04   0.888E+00 -.659E+00 0.563E+01   -.369E-04 -.185E-04 0.295E-04
   0.183E+02 0.277E+02 -.134E+04   -.174E+02 -.264E+02 0.133E+04   -.840E-01 -.158E+01 0.467E+01   0.202E-05 -.258E-04 0.384E-04
   -.758E+02 0.578E+01 -.129E+04   0.762E+02 -.567E+01 0.129E+04   0.790E+00 -.776E+00 0.589E+01   -.403E-05 0.403E-04 -.765E-05
   0.290E+02 0.373E+02 -.133E+04   -.285E+02 -.390E+02 0.132E+04   -.179E+00 0.521E+00 0.544E+01   -.406E-04 -.261E-04 0.161E-04
   0.677E+02 0.276E+02 -.129E+04   -.672E+02 -.279E+02 0.129E+04   -.875E+00 0.218E+00 0.514E+01   -.103E-04 -.468E-04 0.946E-04
   0.345E+02 -.602E+02 -.106E+04   -.355E+02 0.609E+02 0.106E+04   0.155E+00 0.932E+00 0.420E+01   -.429E-04 0.585E-04 0.128E-03
   0.168E+02 0.403E+02 -.130E+04   -.192E+02 -.404E+02 0.129E+04   0.857E+00 -.539E+00 0.665E+01   0.183E-04 -.128E-04 0.427E-04
   0.882E+01 -.406E+02 -.133E+04   -.848E+01 0.414E+02 0.133E+04   -.384E+00 0.106E+01 0.476E+01   0.598E-04 -.325E-04 0.630E-05
   -.283E+02 -.310E+02 -.129E+04   0.283E+02 0.321E+02 0.129E+04   0.211E+00 0.237E+00 0.475E+01   -.531E-05 0.227E-04 0.541E-04
   -.546E+02 0.620E+02 -.118E+04   0.559E+02 -.622E+02 0.118E+04   -.670E-01 -.887E+00 0.460E+01   -.268E-04 0.766E-04 0.122E-03
   0.390E+02 -.487E+02 -.133E+04   -.385E+02 0.494E+02 0.132E+04   -.423E+00 0.185E+00 0.590E+01   -.755E-06 -.122E-04 -.411E-05
   0.366E+02 0.181E+02 -.121E+04   -.359E+02 -.188E+02 0.120E+04   -.134E+01 -.278E-01 0.477E+01   -.277E-04 0.739E-05 -.254E-04
   0.116E+02 -.324E+02 -.126E+04   -.126E+02 0.314E+02 0.125E+04   0.144E-01 0.105E+01 0.583E+01   0.570E-04 0.557E-05 0.268E-04
   -.166E+02 -.313E+02 -.137E+04   0.148E+02 0.296E+02 0.137E+04   0.670E+00 0.121E+01 0.670E+01   0.164E-04 -.128E-04 0.108E-04
   0.483E+01 -.235E+02 -.126E+04   -.570E+01 0.239E+02 0.126E+04   0.104E-01 -.929E-01 0.395E+01   -.400E-05 -.341E-06 0.225E-05
   -.470E+02 -.420E+02 -.162E+04   0.494E+02 0.465E+02 0.164E+04   -.199E+01 -.430E+01 -.185E+02   -.101E-04 0.518E-05 0.157E-06
   0.161E+02 -.629E+01 -.160E+04   -.153E+02 0.615E+01 0.162E+04   -.141E+01 0.680E+00 -.183E+02   -.368E-05 0.541E-05 0.114E-04
   0.142E+02 -.161E+02 -.166E+04   -.162E+02 0.190E+02 0.168E+04   0.164E+01 -.307E+01 -.185E+02   0.120E-04 -.157E-04 0.854E-05
   -.273E+02 -.687E+02 -.159E+04   0.270E+02 0.727E+02 0.161E+04   0.715E+00 -.313E+01 -.167E+02   -.399E-05 -.210E-06 0.587E-05
   0.663E+02 0.459E+02 -.159E+04   -.698E+02 -.474E+02 0.161E+04   0.318E+01 0.106E+01 -.163E+02   0.841E-05 0.366E-05 -.783E-07
   0.377E+02 0.772E+02 -.162E+04   -.412E+02 -.801E+02 0.164E+04   0.364E+01 0.197E+01 -.200E+02   -.248E-05 0.222E-04 0.256E-04
   -.645E+01 -.428E+02 -.154E+04   0.107E+02 0.433E+02 0.156E+04   -.450E+01 0.174E+00 -.153E+02   0.164E-04 -.996E-05 0.180E-04
   0.300E+02 0.304E+02 -.153E+04   -.300E+02 -.313E+02 0.154E+04   -.709E+00 0.562E+00 -.119E+02   -.197E-05 0.939E-06 0.156E-04
   -.252E+02 0.232E+02 -.162E+04   0.277E+02 -.261E+02 0.163E+04   -.264E+01 0.290E+01 -.171E+02   -.106E-04 0.995E-05 0.141E-04
   -.182E+02 -.201E+02 -.161E+04   0.197E+02 0.230E+02 0.163E+04   -.157E+01 -.279E+01 -.169E+02   -.326E-05 0.128E-05 0.269E-04
   0.578E+02 -.174E+02 -.162E+04   -.619E+02 0.160E+02 0.163E+04   0.330E+01 0.211E+01 -.185E+02   -.132E-04 -.956E-05 0.434E-04
   0.870E+01 0.352E+02 -.169E+04   -.825E+01 -.375E+02 0.171E+04   -.742E+00 0.191E+01 -.199E+02   0.818E-06 -.475E-05 0.438E-05
   -.227E+02 -.132E+02 -.157E+04   0.240E+02 0.138E+02 0.158E+04   -.770E+00 -.602E+00 -.161E+02   0.116E-04 -.410E-06 0.117E-04
   -.304E+02 0.167E+02 -.154E+04   0.315E+02 -.192E+02 0.155E+04   -.880E+00 0.202E+01 -.140E+02   0.291E-05 0.470E-05 0.240E-04
   -.437E+02 0.267E+02 -.163E+04   0.437E+02 -.295E+02 0.165E+04   0.771E+00 0.311E+01 -.175E+02   -.136E-04 0.465E-05 0.120E-04
   0.227E+02 -.519E+02 -.156E+04   -.246E+02 0.549E+02 0.158E+04   0.148E+01 -.266E+01 -.157E+02   -.165E-05 -.103E-04 -.139E-05
   -.325E+02 -.331E+02 0.157E+04   0.341E+02 0.335E+02 -.158E+04   -.113E+01 0.187E+00 0.140E+02   0.296E-05 -.866E-06 0.130E-04
   0.436E+02 0.396E+02 0.161E+04   -.488E+02 -.419E+02 -.162E+04   0.460E+01 0.159E+01 0.139E+02   0.663E-05 0.535E-05 0.284E-05
   -.300E+02 0.926E+01 0.161E+04   0.290E+02 -.897E+01 -.162E+04   0.133E+01 -.103E+01 0.170E+02   -.151E-04 -.381E-06 -.283E-05
   -.645E+02 -.400E+02 0.159E+04   0.687E+02 0.398E+02 -.161E+04   -.366E+01 0.367E+00 0.174E+02   0.501E-05 -.110E-04 0.368E-05
   0.135E+02 0.179E+02 0.155E+04   -.105E+02 -.191E+02 -.157E+04   -.345E+01 0.148E+01 0.158E+02   0.808E-05 0.109E-04 0.122E-04
   -.496E+01 0.158E+02 0.156E+04   0.679E+01 -.137E+02 -.158E+04   -.211E+01 -.237E+01 0.132E+02   0.109E-04 -.943E-05 -.217E-04
   0.243E+02 -.468E+02 0.163E+04   -.243E+02 0.506E+02 -.165E+04   -.537E+00 -.357E+01 0.158E+02   -.601E-05 -.627E-05 -.142E-04
   -.283E+02 -.797E+01 0.160E+04   0.291E+02 0.836E+01 -.162E+04   -.390E+00 -.387E+00 0.168E+02   -.120E-04 -.348E-05 0.845E-05
   -.153E+01 0.715E+02 0.163E+04   -.777E-01 -.740E+02 -.165E+04   0.185E+01 0.178E+01 0.187E+02   -.481E-05 0.129E-04 0.576E-05
   0.171E+02 -.478E+02 0.153E+04   -.161E+02 0.510E+02 -.154E+04   -.119E+01 -.157E+01 0.143E+02   -.443E-05 0.109E-04 -.271E-04
   0.430E+02 0.140E+01 0.161E+04   -.463E+02 -.108E+01 -.163E+04   0.240E+01 -.393E+00 0.163E+02   0.166E-04 -.925E-05 -.150E-04
   0.502E+02 -.235E+02 0.165E+04   -.540E+02 0.243E+02 -.167E+04   0.382E+01 -.701E+00 0.190E+02   0.131E-04 -.200E-05 0.160E-04
   -.244E+02 -.577E+01 0.150E+04   0.264E+02 0.561E+01 -.151E+04   -.140E+01 0.190E+00 0.119E+02   -.161E-04 0.714E-06 0.122E-04
   -.133E+02 0.338E+02 0.166E+04   0.118E+02 -.357E+02 -.168E+04   0.152E+01 0.169E+01 0.188E+02   -.108E-04 0.101E-04 -.579E-05
   -.572E+01 0.175E+02 0.161E+04   0.874E+01 -.189E+02 -.163E+04   -.324E+01 0.145E+01 0.177E+02   0.642E-05 -.172E-04 -.156E-04
   0.303E+02 -.145E+02 0.158E+04   -.312E+02 0.145E+02 -.160E+04   0.521E+00 -.204E+00 0.163E+02   0.765E-06 -.123E-04 0.411E-05
   0.930E+01 0.208E+02 0.106E+02   -.917E+01 -.207E+02 -.107E+02   -.794E+00 -.502E+00 0.465E+00   -.239E-05 0.193E-05 0.753E-05
   -.125E+02 0.200E+02 0.261E+02   0.125E+02 -.201E+02 -.261E+02   0.841E+00 -.209E+00 -.103E+01   -.184E-05 -.260E-06 0.829E-05
   -.190E+02 -.909E+00 -.266E+02   0.189E+02 0.101E+01 0.265E+02   0.860E+00 -.539E+00 0.120E+01   -.204E-05 -.125E-05 -.344E-05
   -.279E+01 -.739E+01 -.234E+02   0.262E+01 0.720E+01 0.233E+02   0.729E+00 0.454E+00 0.421E+00   0.276E-05 -.282E-05 -.168E-05
   0.148E+01 -.209E+02 -.162E+02   -.132E+01 0.208E+02 0.162E+02   -.394E+00 0.256E+00 -.605E+00   0.214E-05 -.254E-06 0.353E-05
   -.211E+02 -.702E+01 0.158E+02   0.212E+02 0.694E+01 -.156E+02   -.992E-01 0.105E+00 -.741E+00   -.833E-05 -.988E-05 0.113E-04
   0.199E+02 -.185E+02 0.625E+02   -.200E+02 0.185E+02 -.625E+02   -.630E+00 0.243E+00 -.480E+00   -.775E-05 0.903E-06 0.123E-04
   0.889E+00 -.364E+01 -.629E+01   -.759E+00 0.379E+01 0.597E+01   -.635E+00 -.516E+00 0.165E+01   -.277E-05 -.517E-06 -.380E-05
   0.858E+01 0.106E+01 -.474E+02   -.882E+01 -.790E+00 0.477E+02   0.130E+01 -.111E+01 -.107E+01   -.322E-05 -.220E-05 -.128E-05
   0.112E+02 0.972E+00 0.525E+01   -.113E+02 -.784E+00 -.539E+01   0.516E+00 -.607E+00 0.399E+00   0.585E-05 -.990E-05 -.673E-06
   -.251E+01 0.176E+02 0.413E+02   0.257E+01 -.178E+02 -.414E+02   0.108E+01 0.443E+00 -.825E+00   0.365E-06 0.897E-05 0.187E-04
   0.161E+01 0.603E+01 0.112E+02   -.199E+01 -.639E+01 -.111E+02   0.147E+01 0.829E+00 -.759E+00   0.264E-05 0.458E-05 0.120E-04
   -.209E+02 -.522E+01 -.139E+02   0.211E+02 0.516E+01 0.140E+02   -.221E+00 0.266E+00 -.244E+00   0.389E-05 -.106E-05 0.324E-05
   -.333E+01 0.206E+02 -.197E+02   0.331E+01 -.205E+02 0.197E+02   0.156E+00 -.753E+00 0.935E+00   0.663E-05 0.308E-05 -.102E-04
   -.198E+02 0.203E+02 -.315E+02   0.195E+02 -.201E+02 0.317E+02   0.151E+01 -.139E+01 -.397E+00   0.644E-05 0.187E-05 -.115E-04
   -.369E+02 -.196E+02 0.564E+00   0.369E+02 0.197E+02 -.543E+00   0.101E+01 0.588E+00 -.119E+01   -.255E-05 0.692E-05 0.879E-05
 -----------------------------------------------------------------------------------------------
   -.536E+01 0.408E+01 0.216E+02   -.149E-12 0.171E-12 0.539E-11   0.535E+01 -.408E+01 -.216E+02   -.249E-04 0.544E-04 0.458E-03
 
 
 POSITION                                       TOTAL-FORCE (eV/Angst)
 -----------------------------------------------------------------------------------
      0.00354      1.87227     12.13750         0.119435     -0.269185     -0.549083
     -1.76973      4.78059     12.10799         0.781337      0.525968     -0.626016
     -3.29794      7.62755     12.25380         0.398096      0.473976     -1.180908
     -4.95451     10.37514     12.15536        -0.106479      0.389655     -0.033377
      3.37886      1.94805     12.05078        -0.480887     -0.268145      1.207267
      1.58377      4.74412     11.89367         0.963781      0.111280      1.473455
     -0.03032      7.55236     12.10954        -0.242594      0.926902     -0.377685
     -1.59486     10.44623     12.29599        -0.044175      0.059881     -1.043700
      6.62802      1.93007     12.25343        -0.448790     -0.620403      0.094255
      4.98101      4.83062     12.17994         0.036060     -0.621543      0.150657
      3.31320      7.64679     12.14288        -0.659411     -0.924459     -0.652790
      1.63058     10.46040     12.29118        -0.585168     -0.628862     -1.453377
      9.76091      1.90928     12.12388        -0.129268      0.058415      0.294997
      8.29332      4.76216     12.22581        -1.444953      0.069435     -0.885783
      6.67121      7.52071     12.07885        -0.379088      0.328369      0.738251
      4.82498     10.34080     12.11748         0.756881      0.327668      0.640837
      1.59208      0.96338     14.58289         0.046130      0.583603      0.791617
     -0.06618      3.84270     14.40364         0.664353     -0.353672      2.301756
     -1.68088      6.71848     14.76296         0.800140     -0.283383     -0.286968
     -3.35809      9.59626     14.67484         1.236702     -0.666826      0.656572
      4.88346      1.11009     14.74842         0.301866     -1.141109      0.061650
      3.27510      3.83947     14.73964        -0.302677     -0.096523     -0.643293
      1.65543      6.41985     14.51746        -0.863367      1.702196      1.070360
      0.12831      9.46844     14.66611        -1.506176     -0.617322      1.178672
      8.26767      0.75249     14.76570        -0.045220      1.833080      0.632606
      6.57057      3.72152     14.72286         0.155614      1.288262      0.196418
      4.80480      6.65067     14.62466         1.238794     -1.034593      0.775133
      3.27982      9.30900     14.72859         0.075407      0.886851      0.625742
     11.55567      0.97544     14.61799        -0.600582     -0.718084      0.871168
      9.91643      3.77268     14.60092        -1.053952      0.104607      1.632542
      8.24147      6.70292     14.73057        -1.087511     -0.564334      0.103586
      6.54100      9.36604     14.73839        -0.857735      0.300911     -0.481209
     -0.13178      1.74440     15.90407         0.461901      0.146050     -0.637124
     -1.47436      4.58885     15.83704        -0.562328      0.544680     -0.577358
     -3.08974      7.66691     16.04784        -0.383521     -0.166651     -0.958972
     -5.02381     10.15194     15.78352         0.419869      0.879820      0.805504
      3.28292      2.02161     15.81775        -0.294472     -0.439989      0.345620
      1.58923      4.89864     15.86836         0.126341     -1.011625     -0.416175
      0.07471      7.35482     15.72969        -0.290286      0.680393      0.230895
     -1.44439     10.54151     15.71667        -0.712423     -0.367552      0.694031
      6.60447      1.95084     15.89906        -0.124541     -0.041119     -0.239943
      4.93453      4.61915     15.89417        -0.094899      0.165576     -0.336181
      3.31419      7.36796     15.82365        -0.768104      0.700750      0.203177
      1.79821     10.46110     16.07163        -0.296958     -0.416368     -0.888783
      9.75277      1.93657     15.78754         0.431246     -0.048580     -0.094897
      8.16702      4.85539     15.71497         0.193928     -0.462595      0.522453
      6.30010      7.52917     15.92543         0.732098      0.321711     -0.406056
      4.99716     10.33808     15.80312        -0.444311      0.292264     -0.007926
      1.54330      0.81684     11.05352         0.421030      0.589569     -0.583185
      0.01065      3.86148     10.96295        -0.674785     -0.646430     -0.687885
     -1.76402      6.85130     10.96897         0.347929     -0.740270      0.082372
     -3.49875      9.40821     11.01837         0.567074      0.185689      0.021826
      5.02736      0.88337     11.11069        -0.384002      0.277821     -0.291612
      3.39395      3.83701     11.06908        -0.283115     -0.202453     -0.850143
      1.89145      6.57013     10.87775        -0.521727      0.226988     -0.027886
     -0.11566      9.53109     10.95122         0.398565      0.004243      0.610821
      8.13779      1.18990     10.94726         0.237744     -0.716738      0.268932
      6.59657      3.61288     11.19928        -0.214736      1.659559     -1.323365
      5.15920      6.63458     10.99839        -0.949411     -0.067961     -0.540609
      3.31934      9.43525     10.84794        -0.058054      0.091899      0.803267
     11.34282      0.91258     11.22918         0.552026      0.028788     -1.361648
      9.80088      3.93846     10.86971         0.087622     -0.280291      0.509686
      8.29202      6.63734     11.00423        -0.223069      0.012651      0.017559
      6.59314      9.50260     11.01634        -0.388749     -0.196170     -0.017981
      0.00956      0.03092     13.37413        -0.665300     -0.472798      0.353888
     11.38237      2.89239     13.38368         0.814082     -0.355980     -1.010821
     -3.32271      5.77474     13.39061         0.768660     -0.436867      1.119602
      8.14259      8.51234     13.44782         0.562386      0.271037      0.324324
      3.29642      0.00696     13.49689        -0.236484      0.237758     -0.537627
      1.62777      2.80851     13.36350        -0.052719      0.023134     -0.478109
      0.01645      5.63604     13.25470        -0.689851      0.269357     -0.505287
     -1.57000      8.54200     13.36779        -0.505485     -0.364437      1.319758
      6.54403      0.07799     13.55704         1.066881     -0.835311     -0.840977
      4.87737      2.91157     13.42649         0.392402     -0.419430      0.257672
      3.20892      5.62073     13.39506         1.138475      0.263051     -0.938253
      1.57125      8.47875     13.42401         1.095011      0.477602     -0.674626
      3.24896     11.30000     13.43758        -0.021687      0.205672     -0.118569
      8.22840      2.93533     13.37045         0.135552     -0.572760      0.886416
      6.48347      5.84388     13.43386         1.205765     -1.178348     -0.144568
      4.77775      8.48236     13.48081         0.947865      0.722048     -1.164589
 -----------------------------------------------------------------------------------
    total drift:                               -0.002302     -0.003360      0.002788


--------------------------------------------------------------------------------------------------------



  FREE ENERGIE OF THE ION-ELECTRON SYSTEM (eV)
  ---------------------------------------------------
  free  energy   TOTEN  =      -594.91201890 eV

  energy  without entropy=     -594.91201890  energy(sigma->0) =     -594.91201890
 


--------------------------------------------------------------------------------------------------------


    POTLOK:  cpu time    0.7818: real time    0.7818


--------------------------------------------------------------------------------------------------------


     LOOP+:  cpu time 1872.2044: real time 1872.6741
    4ORBIT:  cpu time    0.0000: real time    0.0000

 total amount of memory used by VASP MPI-rank0   234707. kBytes
=======================================================================

   base      :      30000. kBytes
   nonlr-proj:      19439. kBytes
   fftplans  :      66973. kBytes
   grid      :      38377. kBytes
   one-center:        108. kBytes
   wavefun   :      79810. kBytes
 
  
  
 General timing and accounting informations for this job:
 ========================================================
  
                  Total CPU time used (sec):     1904.433
                            User time (sec):     1897.618
                          System time (sec):        6.815
                         Elapsed time (sec):     1905.088
  
                   Maximum memory used (kb):      441732.
                   Average memory used (kb):           0.
  
                          Minor page faults:       211246
                          Major page faults:            0
                 Voluntary context switches:         2512
