 vasp.5.4.4.18Apr17-6-g9f103f2a35 (build Oct 31 2019 15:01:46) complex          
  
 executed on             LinuxIFC date 2024.04.29  23:26:11
 running on   52 total cores
 distrk:  each k-point on   52 cores,    1 groups
 distr:  one band on NCORES_PER_BAND=  13 cores,    4 groups


--------------------------------------------------------------------------------------------------------


 INCAR:
 POTCAR:    PAW_PBE Ca_sv 06Sep2000               
 POTCAR:    PAW_PBE Si 05Jan2001                  
 POTCAR:    PAW_PBE O 08Apr2002                   
 POTCAR:    PAW_PBE Ca_sv 06Sep2000               
   SHA256 =  a47365830e737f14e0e6c5cf1ed81b94e081eecf0a33df105380881bc9da05d5 Ca
   COPYR  = (c) Copyright 06Sep2000 Georg Kresse                                
   COPYR  = This file is part of the software VASP. Any use, copying, and all ot
   COPYR  = If you do not have a valid VASP license, you may not use, copy or di
   VRHFIN =Ca: 3s3p4s                                                           
   LEXCH  = PE                                                                  
   EATOM  =  1006.0909 eV,   73.9456 Ry                                         
                                                                                
   TITEL  = PAW_PBE Ca_sv 06Sep2000                                             
   LULTRA =        F    use ultrasoft PP ?                                      
   IUNSCR =        1    unscreen: 0-lin 1-nonlin 2-no                           
   RPACOR =    2.000    partial core radius                                     
   POMASS =   40.078; ZVAL   =   10.000    mass and valenz                      
   RCORE  =    2.300    outmost cutoff radius                                   
   RWIGS  =    2.500; RWIGS  =    1.323    wigner-seitz radius (au A)           
   ENMAX  =  266.622; ENMIN  =  199.967 eV                                      
   RCLOC  =    1.808    cutoff for local pot                                    
   LCOR   =        T    correct aug charges                                     
   LPAW   =        T    paw PP                                                  
   EAUG   =  420.852                                                            
   RMAX   =    2.359    core radius for proj-oper                               
   RAUG   =    1.300    factor for augmentation sphere                          
   RDEP   =    2.392    radius for radial grids                                 
   RDEPT  =    1.987    core radius for aug-charge                              
                                                                                
   Atomic configuration                                                         
    7 entries                                                                   
     n  l   j            E        occ.                                          
     1  0  0.50     -3949.1705   2.0000                                         
     2  0  0.50      -414.3434   2.0000                                         
     2  1  1.50      -334.7047   6.0000                                         
     3  0  0.50       -47.0896   2.0000                                         
     4  0  0.50        -3.7663   2.0000                                         
     3  1  1.50       -28.0061   6.0000                                         
     3  2  1.50        -4.0817   0.0000                                         
   Description                                                                  
     l       E           TYP  RCUT    TYP  RCUT                                 
     0    -47.0896403     23  2.300                                             
     0     -3.7663320     23  2.300                                             
     1    -28.0060855     23  2.300                                             
     1      6.8029130     23  2.300                                             
     2     -4.0817478     23  2.300                                             
     2      0.4464412     23  2.300                                             
  local pseudopotential read in
  partial core-charges read in
  partial kinetic energy density read in
  atomic valenz-charges read in
  non local Contribution for L=           0  read in
    real space projection operators read in
  non local Contribution for L=           0  read in
    real space projection operators read in
  non local Contribution for L=           1  read in
    real space projection operators read in
  non local Contribution for L=           1  read in
    real space projection operators read in
  non local Contribution for L=           2  read in
    real space projection operators read in
  non local Contribution for L=           2  read in
    real space projection operators read in
    PAW grid and wavefunctions read in
 
   number of l-projection  operators is LMAX  =           6
   number of lm-projection operators is LMMAX =          18
 
 POTCAR:    PAW_PBE Si 05Jan2001                  
   SHA256 =  79d9987ad8750f624c4d6acb2a16d13abf6a777132adc04dc6c8399be72b42bb Si
   COPYR  = (c) Copyright 05Jan2001 Georg Kresse                                
   COPYR  = This file is part of the software VASP. Any use, copying, and all ot
   COPYR  = If you do not have a valid VASP license, you may not use, copy or di
   VRHFIN =Si: s2p2                                                             
   LEXCH  = PE                                                                  
   EATOM  =   103.0669 eV,    7.5752 Ry                                         
                                                                                
   TITEL  = PAW_PBE Si 05Jan2001                                                
   LULTRA =        F    use ultrasoft PP ?                                      
   IUNSCR =        1    unscreen: 0-lin 1-nonlin 2-no                           
   RPACOR =    1.500    partial core radius                                     
   POMASS =   28.085; ZVAL   =    4.000    mass and valenz                      
   RCORE  =    1.900    outmost cutoff radius                                   
   RWIGS  =    2.480; RWIGS  =    1.312    wigner-seitz radius (au A)           
   ENMAX  =  245.345; ENMIN  =  184.009 eV                                      
   ICORE  =        2    local potential                                         
   LCOR   =        T    correct aug charges                                     
   LPAW   =        T    paw PP                                                  
   EAUG   =  322.069                                                            
   DEXC   =    0.000                                                            
   RMAX   =    1.950    core radius for proj-oper                               
   RAUG   =    1.300    factor for augmentation sphere                          
   RDEP   =    1.993    radius for radial grids                                 
   RDEPT  =    1.837    core radius for aug-charge                              
                                                                                
   Atomic configuration                                                         
    6 entries                                                                   
     n  l   j            E        occ.                                          
     1  0  0.50     -1785.8828   2.0000                                         
     2  0  0.50      -139.4969   2.0000                                         
     2  1  1.50       -95.5546   6.0000                                         
     3  0  0.50       -10.8127   2.0000                                         
     3  1  0.50        -4.0811   2.0000                                         
     3  2  1.50        -4.0817   0.0000                                         
   Description                                                                  
     l       E           TYP  RCUT    TYP  RCUT                                 
     0    -10.8127223     23  1.900                                             
     0     -7.6451159     23  1.900                                             
     1     -4.0811372     23  1.900                                             
     1      2.4879257     23  1.900                                             
     2     -4.0817478      7  1.900                                             
  local pseudopotential read in
  partial core-charges read in
  partial kinetic energy density read in
  atomic valenz-charges read in
  non local Contribution for L=           0  read in
    real space projection operators read in
  non local Contribution for L=           0  read in
    real space projection operators read in
  non local Contribution for L=           1  read in
    real space projection operators read in
  non local Contribution for L=           1  read in
    real space projection operators read in
    PAW grid and wavefunctions read in
 
   number of l-projection  operators is LMAX  =           4
   number of lm-projection operators is LMMAX =           8
 
 POTCAR:    PAW_PBE O 08Apr2002                   
   SHA256 =  818f92134a0a090dccd8ba1447fa70422a3b330e708bb4f08108d8ae51209ddf O/
   COPYR  = (c) Copyright 08Apr2002 Georg Kresse                                
   COPYR  = This file is part of the software VASP. Any use, copying, and all ot
   COPYR  = If you do not have a valid VASP license, you may not use, copy or di
   VRHFIN =O: s2p4                                                              
   LEXCH  = PE                                                                  
   EATOM  =   432.3788 eV,   31.7789 Ry                                         
                                                                                
   TITEL  = PAW_PBE O 08Apr2002                                                 
   LULTRA =        F    use ultrasoft PP ?                                      
   IUNSCR =        1    unscreen: 0-lin 1-nonlin 2-no                           
   RPACOR =    1.200    partial core radius                                     
   POMASS =   16.000; ZVAL   =    6.000    mass and valenz                      
   RCORE  =    1.520    outmost cutoff radius                                   
   RWIGS  =    1.550; RWIGS  =    0.820    wigner-seitz radius (au A)           
   ENMAX  =  400.000; ENMIN  =  300.000 eV                                      
   ICORE  =        2    local potential                                         
   LCOR   =        T    correct aug charges                                     
   LPAW   =        T    paw PP                                                  
   EAUG   =  605.392                                                            
   DEXC   =    0.000                                                            
   RMAX   =    1.553    core radius for proj-oper                               
   RAUG   =    1.300    factor for augmentation sphere                          
   RDEP   =    1.550    radius for radial grids                                 
   RDEPT  =    1.329    core radius for aug-charge                              
                                                                                
   Atomic configuration                                                         
    4 entries                                                                   
     n  l   j            E        occ.                                          
     1  0  0.50      -514.6923   2.0000                                         
     2  0  0.50       -23.9615   2.0000                                         
     2  1  0.50        -9.0305   4.0000                                         
     3  2  1.50        -9.5241   0.0000                                         
   Description                                                                  
     l       E           TYP  RCUT    TYP  RCUT                                 
     0    -23.9615318     23  1.200                                             
     0     -9.5240782     23  1.200                                             
     1     -9.0304911     23  1.520                                             
     1      8.1634956     23  1.520                                             
     2     -9.5240782      7  1.500                                             
  local pseudopotential read in
  partial core-charges read in
  partial kinetic energy density read in
  kinetic energy density of atom read in
  atomic valenz-charges read in
  non local Contribution for L=           0  read in
    real space projection operators read in
  non local Contribution for L=           0  read in
    real space projection operators read in
  non local Contribution for L=           1  read in
    real space projection operators read in
  non local Contribution for L=           1  read in
    real space projection operators read in
    PAW grid and wavefunctions read in
 
   number of l-projection  operators is LMAX  =           4
   number of lm-projection operators is LMMAX =           8
 
 Optimization of the real space projectors (new method)

 maximal supplied QI-value         = 16.25
 optimisation between [QCUT,QGAM] = [ 12.51, 25.03] = [ 43.85,175.40] Ry 
 Optimized for a Real-space Cutoff    1.47 Angstroem

   l    n(q)    QCUT    max X(q) W(low)/X(q) W(high)/X(q)  e(spline) 
   0     11    12.514    11.817    0.25E-04    0.32E-05    0.87E-07
   0     11    12.514     8.461    0.39E-04    0.59E-05    0.18E-06
   1     11    12.514     3.957    0.97E-05    0.57E-05    0.28E-07
   1     11    12.514     4.314    0.42E-04    0.14E-04    0.23E-06
   2     10    12.514    14.565    0.79E-04    0.50E-03    0.16E-05
   2     10    12.514    14.552    0.75E-04    0.48E-03    0.15E-05
 Optimization of the real space projectors (new method)

 maximal supplied QI-value         = 19.84
 optimisation between [QCUT,QGAM] = [ 12.50, 25.00] = [ 43.76,175.03] Ry 
 Optimized for a Real-space Cutoff    1.16 Angstroem

   l    n(q)    QCUT    max X(q) W(low)/X(q) W(high)/X(q)  e(spline) 
   0      9    12.501   159.560    0.10E-03    0.83E-04    0.71E-07
   0      9    12.501   115.863    0.99E-04    0.81E-04    0.70E-07
   1      8    12.501    88.339    0.20E-03    0.25E-03    0.76E-07
   1      8    12.501    48.592    0.20E-03    0.24E-03    0.75E-07
 Optimization of the real space projectors (new method)

 maximal supplied QI-value         = 24.76
 optimisation between [QCUT,QGAM] = [ 12.38, 25.00] = [ 42.90,175.06] Ry 
 Optimized for a Real-space Cutoff    1.16 Angstroem

   l    n(q)    QCUT    max X(q) W(low)/X(q) W(high)/X(q)  e(spline) 
   0      9    12.378    20.381    0.16E-03    0.67E-05    0.31E-06
   0      9    12.378    15.268    0.17E-03    0.81E-05    0.33E-06
   1      8    12.378     5.964    0.20E-03    0.16E-03    0.30E-06
   1      8    12.378     5.382    0.18E-03    0.14E-03    0.26E-06
  PAW_PBE Ca_sv 06Sep2000               :
 energy of atom  1       EATOM=-1006.0909
 kinetic energy error for atom=    0.0012 (will be added to EATOM!!)
  PAW_PBE Si 05Jan2001                  :
 energy of atom  2       EATOM= -103.0669
 kinetic energy error for atom=    0.0003 (will be added to EATOM!!)
  PAW_PBE O 08Apr2002                   :
 energy of atom  3       EATOM= -432.3788
 kinetic energy error for atom=    0.0168 (will be added to EATOM!!)
 
 
 POSCAR: Ca Si  O                                
  positions in direct lattice
  No initial velocities read in
 exchange correlation table for  LEXCH =        8
   RHO(1)=    0.500       N(1)  =     2000
   RHO(2)=  100.500       N(2)  =     4000
 


--------------------------------------------------------------------------------------------------------


 ion  position               nearest neighbor table
   1  0.026  0.960  0.967-  75 1.87 123 2.07 107 2.13  70 2.14  97 2.32  90 2.42  82 2.44  85 2.45
                            93 2.45  49 2.47  79 2.55  47 2.62  34 2.94  39 3.00  43 3.03  29 3.08
   2  0.150  0.348  0.068- 122 2.10  97 2.14  78 2.22 109 2.33 111 2.35 112 2.44  98 2.49 106 2.52
                            34 2.76  38 2.77  49 2.85  51 2.86  35 2.93  45 3.12
   3  0.252  0.483  0.514- 119 2.10  83 2.24  86 2.30 126 2.30 124 2.47 113 2.54 131 2.54 111 2.56
                            45 2.67  33 2.86  46 3.00  32 3.02  37 3.02  35 3.08  50 3.12  10 3.16
   4  0.057  0.588  0.294- 130 2.00  98 2.08  86 2.15  96 2.15  77 2.21 124 2.29 111 2.46  73 2.47
                           119 2.49  88 2.54  33 2.84  46 2.89  45 2.90  50 2.98  38 3.00  39 3.02
   5  0.275  0.805  0.171- 116 2.18  96 2.19  59 2.21  93 2.22  58 2.37 125 2.45  99 2.52  77 2.54
                            87 2.57  42 2.73  30 2.73  54 2.79  46 2.82  53 2.88  39 2.94  33 3.01
   6  0.737  0.286  0.922- 115 1.93 106 2.03  89 2.16  74 2.16  95 2.28 129 2.28  68 2.35 123 2.43
                            64 2.45  31 2.63  44 2.70  14 2.75  47 2.75  49 2.92  38 2.94  41 2.97
   7  0.834  0.702  0.067-  73 1.88  61 2.18  66 2.26 107 2.27  89 2.53  65 2.54  54 2.86  41 2.90
                            48 3.03  38 3.09  39 3.11  14 3.17
   8  0.674  0.640  0.645- 121 2.08  76 2.14 108 2.14 117 2.24 134 2.28  67 2.29  68 2.32  55 2.34
                           132 2.39  61 2.53  41 2.71  13 2.75  28 2.87  25 2.92  24 2.99  29 3.05
   9  0.823  0.382  0.422- 114 2.12 124 2.15  88 2.17 128 2.18 132 2.18 120 2.23  63 2.29 117 2.46
                            98 2.52 130 2.56  50 2.61  44 2.67  48 2.80  40 2.99  37 3.01  52 3.03
  10  0.129  0.698  0.696-  60 1.86  83 2.14  86 2.19 103 2.30 113 2.30  79 2.35  29 2.42 133 2.44
                            67 2.46  33 2.70  43 2.70  50 2.71  35 2.80  24 2.90  11 3.16   3 3.16
  11  0.938  0.816  0.485- 133 2.02 130 2.19  77 2.20 134 2.25  60 2.28 135 2.30  86 2.41  66 2.41
                           100 2.44  56 2.54  39 2.63  48 2.85  50 2.89  29 2.92  33 2.92  43 2.99
  12  0.578  0.156  0.525-  72 2.13  94 2.17  63 2.37 120 2.39  62 2.41  91 2.41 118 2.57  28 2.67
                            44 2.76  32 2.84  37 2.85  31 2.90  22 2.99  52 3.05  40 3.09  53 3.11
  13  0.525  0.704  0.432- 117 2.07  80 2.13 121 2.14 134 2.26  55 2.39 131 2.40  91 2.41  59 2.51
                            48 2.74   8 2.75  28 2.80  37 2.89  42 2.96  53 3.13
  14  0.899  0.489  0.853- 112 2.05  89 2.19 115 2.26  61 2.28 103 2.29 106 2.32  68 2.32  67 2.50
                           132 2.54  73 2.56  41 2.65   6 2.75  38 2.90  35 2.93  29 3.02  44 3.07
  15  0.462  0.407  0.754-  92 2.10 104 2.20  74 2.21  55 2.22  72 2.25  68 2.40  83 2.45 122 2.48
                           108 2.53  51 2.64  41 2.95  32 2.96  35 3.00  31 3.02  37 3.05  24 3.13
  16  0.369  0.947  0.593- 110 2.06 127 2.07  91 2.11 101 2.32  94 2.32 121 2.40 113 2.47  59 2.51
                            27 2.68  32 2.75  53 2.75  28 2.77  24 2.92  43 2.92  33 2.94  12 3.11
  17  0.817  0.054  0.720- 100 2.00  64 2.09  70 2.18 128 2.38  85 2.41  76 2.43 133 2.49 115 2.49
                           123 2.52  28 2.80  47 2.83  31 2.86  44 2.90  40 2.91  49 2.95  43 3.07
  18  0.949  0.139  0.220- 135 2.01  82 2.07  78 2.17  84 2.23 118 2.42 114 2.43  40 2.51  39 2.78
                            45 2.92  38 3.03  52 3.05  34 3.06  47 3.09
  19  0.285  0.120  0.841-  62 2.08  90 2.11  97 2.15 104 2.22 110 2.26 127 2.47  75 2.47 105 2.57
                            32 2.64  30 2.68  31 2.89  34 2.94  43 3.02  49 3.03  51 3.09
  20  0.036  0.248  0.634-  85 2.08 114 2.17  56 2.33 126 2.34 128 2.36 115 2.39 112 2.50 103 2.54
                            49 2.76  45 2.93  32 2.93  43 3.06  40 3.09  35 3.09  44 3.11  17 3.13
  21  0.712  0.928  0.287-  66 2.03 118 2.22  82 2.24  99 2.29 135 2.32 102 2.41  80 2.43  65 2.46
                           134 2.51  40 2.81  42 2.86  52 2.97  53 2.98  48 3.08  28 3.08  39 3.12
  22  0.380  0.237  0.328- 101 1.82  87 2.31 102 2.38 126 2.42 111 2.50  72 2.56  53 2.73  37 2.88
                            32 2.90  45 2.94  12 2.99  34 3.01  52 3.03
  23  0.626  0.483  0.188-  88 2.19  89 2.26  71 2.26  69 2.37  80 2.38 120 2.48  58 2.56  48 2.74
                            52 2.89  38 2.91  42 3.02  37 3.07  41 3.10  46 3.15
  24  0.407  0.707  0.739- 108 1.81 113 1.91  83 1.95 121 2.01 127 2.18  25 2.60  26 2.72  30 2.89
                            10 2.90  16 2.92   8 2.99  15 3.13
  25  0.600  0.843  0.830-  76 2.22 127 2.26 108 2.26 121 2.29  94 2.33  64 2.41  65 2.45 105 2.49
                           125 2.49  61 2.55  24 2.60  30 2.63  28 2.71   8 2.92  41 3.01  31 3.04
  26  0.371  0.604  0.980- 116 1.96  58 2.00  57 2.13  92 2.18 109 2.32 125 2.34  69 2.34  96 2.41
                           122 2.45 108 2.53  24 2.72  46 2.76  51 2.76  54 2.84  42 2.91   5 3.01
  27  0.178  0.008  0.426- 101 1.86  56 2.07 110 2.31  59 2.38  60 2.40  77 2.49  33 2.67  16 2.68
                            53 2.77  43 2.78  39 2.89  32 3.09
  28  0.636  0.908  0.577-  94 1.57 121 1.63  91 1.69  76 1.73 134 1.73 100 1.83  12 2.67  25 2.71
                            16 2.77  13 2.80  17 2.80   8 2.87  21 3.08
  29  0.914  0.768  0.764- 133 1.43  67 1.58  79 1.76  70 1.83  61 1.89  76 2.04  10 2.42  43 2.86
                            11 2.92  14 3.02   8 3.05   1 3.08  50 3.11  17 3.13
  30  0.377  0.899  0.943-  90 1.55 105 1.57 127 1.59 125 1.60 116 2.09  25 2.63  19 2.68   5 2.73
                            36 2.89  24 2.89  42 3.03  26 3.05  34 3.12
  31  0.564  0.136  0.806-  74 1.46  64 1.50  95 1.62  62 1.65  94 1.89 105 2.17   6 2.63  36 2.76
                            17 2.86  19 2.89  12 2.90  44 3.02  15 3.02  25 3.04  47 3.14
  32  0.317  0.210  0.601- 110 1.59  72 1.72  62 1.74 104 1.81 126 1.84 101 2.22  19 2.64  16 2.75
                            12 2.84  22 2.90  20 2.93  15 2.96   3 3.02  27 3.09
  33  0.214  0.751  0.452- 119 1.60  77 1.69 113 1.70  86 1.75  59 1.78  60 1.80  27 2.67  10 2.70
                             4 2.84   3 2.86  11 2.92  16 2.94   5 3.01
  34  0.227  0.095  0.121-  87 1.55  81 1.66  97 1.76  90 1.80  93 1.81  78 1.87   2 2.76  36 2.93
                            19 2.94   1 2.94  22 3.01  18 3.06   5 3.06  30 3.12
  35  0.178  0.453  0.803- 109 1.68 112 1.74 103 1.81  83 1.83 104 1.87 122 1.91  10 2.80  14 2.93
                             2 2.93  15 3.00   3 3.08  20 3.09  26 3.10
  36  0.507  0.115  0.068- 105 1.59  81 1.67  95 1.70  71 1.93 129 1.97 102 1.99  87 2.54  51 2.57
                            52 2.60  31 2.76  30 2.89  34 2.93  47 3.05
  37  0.537  0.424  0.467-  55 1.57  63 1.57 117 1.76 131 1.76 120 1.77  72 1.78  12 2.85  22 2.88
                            13 2.89   9 3.01   3 3.02  15 3.05  23 3.07  44 3.10
  38  0.894  0.413  0.125- 106 1.60  98 1.66  89 1.72  84 1.90  88 2.05  73 2.09   2 2.77  14 2.90
                            23 2.91   6 2.94   4 3.00  18 3.03   7 3.09   9 3.15
  39  0.008  0.875  0.245-  77 1.60  93 1.66 135 1.68 107 1.68  66 1.71  82 2.20  11 2.63  18 2.78
                            27 2.89   5 2.94   1 3.00   4 3.02   7 3.11  21 3.12
  40  0.861  0.094  0.443- 118 1.61 100 1.61 135 1.72  56 1.80 114 1.83 128 1.84  18 2.51  21 2.81
                            17 2.91   9 2.99  11 3.00  20 3.09  12 3.09  52 3.12
  41  0.656  0.564  0.897-  69 1.56 108 1.57  68 1.72  61 1.82  92 1.89  89 2.02  14 2.65   8 2.71
                             7 2.90  15 2.95   6 2.97  25 3.01  26 3.07  23 3.10
  42  0.536  0.761  0.150- 125 1.49  99 1.58  58 1.76  80 1.77  69 1.98  65 2.11   5 2.73  21 2.86
                            26 2.91  13 2.96  23 3.02  30 3.03  53 3.09
  43  0.098  0.960  0.680-  75 1.53  60 1.63 133 1.73  85 1.87 110 1.93  56 2.04  10 2.70  27 2.78
                            29 2.86  16 2.92  11 2.99  19 3.02   1 3.03  20 3.06  17 3.07
  44  0.743  0.320  0.661-  63 1.53 128 1.63 115 1.71  74 1.72 132 1.75  68 1.89   9 2.67   6 2.70
                            12 2.76  17 2.90  31 3.02  14 3.07  37 3.10  20 3.11
  45  0.109  0.321  0.368- 126 1.57 111 1.68 124 1.72  78 1.80 114 1.81  98 1.87   3 2.67   4 2.90
                            18 2.92  20 2.93  22 2.94   9 3.05   2 3.12
  46  0.330  0.545  0.239-  57 1.52  58 1.53  96 1.64 131 1.65 119 1.75 111 1.88  26 2.76   5 2.82
                             4 2.89   3 3.00  23 3.15
  47  0.783  0.032  0.993- 123 1.37 129 1.52  82 1.72  64 1.73  65 2.01  70 2.01   1 2.62   6 2.75
                            17 2.83  49 2.95  36 3.05  18 3.09  31 3.14
  48  0.770  0.640  0.349-  88 1.49 130 1.55  80 1.63 117 1.83  66 2.07 134 2.18  13 2.74  23 2.74
                             9 2.80  11 2.85   7 3.03   4 3.04  21 3.08  50 3.08
  49  0.002  0.188  0.894-  85 1.54 123 1.58  97 1.73 112 1.83 106 1.96 115 2.16   1 2.47  20 2.76
                             2 2.85   6 2.92  47 2.95  17 2.95  19 3.03
  50  0.958  0.546  0.563-  67 1.64 103 1.70 132 1.71 124 1.73 130 1.79  86 1.83   9 2.61  10 2.71
                            11 2.89   4 2.98  48 3.08  14 3.10  29 3.11   3 3.12
  51  0.419  0.339  0.999- 122 1.52  92 1.63  95 1.80  57 1.86  81 1.93  71 2.09  36 2.57  15 2.64
                            26 2.76   2 2.86  19 3.09
  52  0.662  0.209  0.245- 118 1.54  84 1.55 120 1.69  71 1.72 102 1.76 129 2.01  36 2.60  23 2.89
                            21 2.97  22 3.03   9 3.03  12 3.05  18 3.05  40 3.12
  53  0.429  0.975  0.333-  99 1.56  91 1.66  59 1.69  87 1.70 101 1.77 102 1.81  22 2.73  16 2.75
                            27 2.77   5 2.88  21 2.98  42 3.09  12 3.11  13 3.13
  54  0.105  0.671  0.007-  79 1.55 109 1.62  73 1.66 116 1.67 107 1.82  96 1.97   5 2.79  26 2.84
                             7 2.86   1 3.10   4 3.11
  55  0.492  0.523  0.574-  37 1.57  15 2.22   8 2.34  13 2.39
  56  0.008  0.049  0.527-  40 1.80  43 2.04  27 2.07  20 2.33  11 2.54
  57  0.374  0.457  0.129-  46 1.52  51 1.86  58 1.90  26 2.13
  58  0.426  0.631  0.166-  46 1.53  42 1.76  57 1.90  26 2.00   5 2.37  23 2.56
  59  0.336  0.846  0.373-  53 1.69  33 1.78   5 2.21  27 2.38  16 2.51  13 2.51
  60  0.136  0.840  0.583-  43 1.63  33 1.80  10 1.86  11 2.28  27 2.40
  61  0.785  0.680  0.862-  41 1.82  29 1.89   7 2.18  14 2.28   8 2.53  25 2.55
  62  0.436  0.161  0.712-  31 1.65  32 1.74  19 2.08  12 2.41
  63  0.648  0.374  0.559-  44 1.53  37 1.57   9 2.29  12 2.37
  64  0.675  0.063  0.867-  31 1.50  47 1.73  17 2.09  25 2.41   6 2.45
  65  0.669  0.885  0.055-  47 2.01  42 2.11  25 2.45  21 2.46   7 2.54
  66  0.860  0.799  0.264-  39 1.71  21 2.03  48 2.07   7 2.26  11 2.41
  67  0.896  0.648  0.669-  29 1.58  50 1.64   8 2.29  10 2.46  14 2.50
  68  0.689  0.455  0.774-  41 1.72  44 1.89   8 2.32  14 2.32   6 2.35  15 2.40
  69  0.595  0.635  0.016-  41 1.56  42 1.98  26 2.34  23 2.37
  70  0.854  0.903  0.864-  29 1.83  47 2.01   1 2.14  17 2.18
  71  0.549  0.281  0.145-  52 1.72  36 1.93  51 2.09  23 2.26
  72  0.444  0.310  0.558-  32 1.72  37 1.78  12 2.13  15 2.25  22 2.56
  73  0.978  0.589  0.067-  54 1.66   7 1.88  38 2.09   4 2.47  14 2.56
  74  0.616  0.256  0.752-  31 1.46  44 1.72   6 2.16  15 2.21
  75  0.133  0.934  0.822-  43 1.53   1 1.87  19 2.47
  76  0.749  0.832  0.674-  28 1.73  29 2.04   8 2.14  25 2.22  17 2.43
  77  0.098  0.794  0.343-  39 1.60  33 1.69  11 2.20   4 2.21  27 2.49   5 2.54
  78  0.148  0.211  0.236-  45 1.80  34 1.87  18 2.17   2 2.22
  79  0.017  0.723  0.895-  54 1.55  29 1.76  10 2.35   1 2.55
  80  0.649  0.701  0.266-  48 1.63  42 1.77  13 2.13  23 2.38  21 2.43
  81  0.358  0.179  0.075-  34 1.66  36 1.67  51 1.93
  82  0.858  0.981  0.134-  47 1.72  18 2.07  39 2.20  21 2.24   1 2.44
  83  0.286  0.563  0.715-  35 1.83  24 1.95  10 2.14   3 2.24  15 2.45
  84  0.785  0.278  0.190-  52 1.55  38 1.90  18 2.23
  85  0.040  0.103  0.776-  49 1.54  43 1.87  20 2.08  17 2.41   1 2.45
  86  0.093  0.639  0.494-  33 1.75  50 1.83   4 2.15  10 2.19   3 2.30  11 2.41
  87  0.327  0.045  0.223-  34 1.55  53 1.70  22 2.31  36 2.54   5 2.57
  88  0.818  0.528  0.270-  48 1.49 130 1.95  38 2.05   9 2.17  23 2.19   4 2.54
  89  0.772  0.467  0.023-  38 1.72  41 2.02   6 2.16  14 2.19  23 2.26   7 2.53
  90  0.260  0.982  0.991-  30 1.55  34 1.80  19 2.11   1 2.42
  91  0.525  0.937  0.458-  53 1.66  28 1.69  16 2.11  13 2.41  12 2.41
  92  0.517  0.453  0.946-  51 1.63  41 1.89  15 2.10  26 2.18
  93  0.128  0.963  0.183-  39 1.66  34 1.81   5 2.22   1 2.45
  94  0.572  0.007  0.675-  28 1.57  31 1.89  12 2.17  16 2.32  25 2.33
  95  0.527  0.215  0.937-  31 1.62  36 1.70  51 1.80   6 2.28
  96  0.210  0.603  0.151-  46 1.64  54 1.97   4 2.15   5 2.19  26 2.41
  97  0.139  0.156  0.987-  49 1.73  34 1.76   2 2.14  19 2.15   1 2.32
  98  0.997  0.400  0.249-  38 1.66  45 1.87   4 2.08   2 2.49   9 2.52
  99  0.499  0.885  0.233-  53 1.56  42 1.58  21 2.29   5 2.52
 100  0.788  0.992  0.538-  40 1.61  28 1.83  17 2.00  11 2.44
 101  0.339  0.092  0.422-  53 1.77  22 1.82  27 1.86  32 2.22  16 2.32
 102  0.542  0.087  0.257-  52 1.76  53 1.81  36 1.99  22 2.38  21 2.41
 103  0.049  0.489  0.689-  50 1.70  35 1.81  14 2.29  10 2.30  20 2.54
 104  0.271  0.310  0.739-  32 1.81  35 1.87  15 2.20  19 2.22
 105  0.479  0.012  0.955-  30 1.57  36 1.59  31 2.17  25 2.49  19 2.57
 106  0.915  0.319  0.002-  38 1.60  49 1.96   6 2.03  14 2.32   2 2.52
 107  0.029  0.802  0.100-  39 1.68  54 1.82   1 2.13   7 2.27
 108  0.548  0.630  0.811-  41 1.57  24 1.81   8 2.14  25 2.26  15 2.53  26 2.53
 109  0.159  0.537  0.942-  54 1.62  35 1.68  26 2.32   2 2.33
 110  0.229  0.085  0.631-  32 1.59  43 1.93  16 2.06  19 2.26  27 2.31
 111  0.215  0.408  0.279-  45 1.68  46 1.88   2 2.35   4 2.46  22 2.50   3 2.56
 112  0.048  0.356  0.853-  35 1.74  49 1.83  14 2.05   2 2.44  20 2.50
 113  0.318  0.713  0.576-  33 1.70  24 1.91  10 2.30  16 2.47   3 2.54
 114  0.969  0.237  0.434-  45 1.81  40 1.83   9 2.12  20 2.17  18 2.43
 115  0.857  0.286  0.777-  44 1.71   6 1.93  49 2.16  14 2.26  20 2.39  17 2.49
 116  0.244  0.746  0.969-  54 1.67  26 1.96  30 2.09   5 2.18
 117  0.653  0.549  0.448-  37 1.76  48 1.83  13 2.07   8 2.24   9 2.46
 118  0.748  0.134  0.342-  52 1.54  40 1.61  21 2.22  18 2.42  12 2.57
 119  0.280  0.632  0.377-  33 1.60  46 1.75   3 2.10   4 2.49
 120  0.624  0.317  0.364-  52 1.69  37 1.77   9 2.23  12 2.39  23 2.48
 121  0.540  0.790  0.622-  28 1.63  24 2.01   8 2.08  13 2.14  25 2.29  16 2.40
 122  0.296  0.383  0.929-  51 1.52  35 1.91   2 2.10  26 2.45  15 2.48
 123  0.886  0.105  0.950-  47 1.37  49 1.58   1 2.07   6 2.43  17 2.52
 124  0.023  0.436  0.454-  45 1.72  50 1.73   9 2.15   4 2.29   3 2.47
 125  0.467  0.805  0.029-  42 1.49  30 1.60  26 2.34   5 2.45  25 2.49
 126  0.201  0.268  0.478-  45 1.57  32 1.84   3 2.30  20 2.34  22 2.42
 127  0.396  0.912  0.790-  30 1.59  16 2.07  24 2.18  25 2.26  19 2.47
 128  0.819  0.223  0.562-  44 1.63  40 1.84   9 2.18  20 2.36  17 2.38
 129  0.699  0.127  0.071-  47 1.52  36 1.97  52 2.01   6 2.28
 130  0.905  0.617  0.413-  48 1.55  50 1.79  88 1.95   4 2.00  11 2.19   9 2.56
 131  0.437  0.503  0.351-  46 1.65  37 1.76  13 2.40   3 2.54
 132  0.824  0.464  0.619-  50 1.71  44 1.75   9 2.18   8 2.39  14 2.54
 133  0.960  0.864  0.674-  29 1.43  43 1.73  11 2.02  10 2.44  17 2.49
 134  0.720  0.791  0.489-  28 1.73  48 2.18  11 2.25  13 2.26   8 2.28  21 2.51
 135  0.925  0.983  0.336-  39 1.68  40 1.72  18 2.01  11 2.30  21 2.32
 

IMPORTANT INFORMATION: All symmetrisations will be switched off!
NOSYMM: (Re-)initialisation of all symmetry stuff for point group C_1.

 
 

Automatic generation of k-mesh.
 generate k-points for:    3    3    3
Space group operators:
 irot       det(A)        alpha          n_x          n_y          n_z        tau_x        tau_y        tau_z
    1     1.000000     0.000001     1.000000     0.000000     0.000000     0.000000     0.000000     0.000000
 
 Subroutine IBZKPT returns following result:
 ===========================================
 
 Found     14 irreducible k-points:
 
 Following reciprocal coordinates:
            Coordinates               Weight
  0.000000  0.000000  0.000000      1.000000
  0.333333  0.000000  0.000000      2.000000
  0.000000  0.333333  0.000000      2.000000
  0.333333  0.333333  0.000000      2.000000
 -0.333333  0.333333  0.000000      2.000000
  0.000000  0.000000  0.333333      2.000000
  0.333333  0.000000  0.333333      2.000000
 -0.333333  0.000000  0.333333      2.000000
  0.000000  0.333333  0.333333      2.000000
  0.333333  0.333333  0.333333      2.000000
 -0.333333  0.333333  0.333333      2.000000
  0.000000 -0.333333  0.333333      2.000000
  0.333333 -0.333333  0.333333      2.000000
 -0.333333 -0.333333  0.333333      2.000000
 
 Following cartesian coordinates:
            Coordinates               Weight
  0.000000  0.000000  0.000000      1.000000
  0.032480  0.000000  0.000000      2.000000
  0.000000  0.032480  0.000000      2.000000
  0.032480  0.032480  0.000000      2.000000
 -0.032480  0.032480  0.000000      2.000000
  0.000000  0.000000  0.032480      2.000000
  0.032480  0.000000  0.032480      2.000000
 -0.032480  0.000000  0.032480      2.000000
  0.000000  0.032480  0.032480      2.000000
  0.032480  0.032480  0.032480      2.000000
 -0.032480  0.032480  0.032480      2.000000
  0.000000 -0.032480  0.032480      2.000000
  0.032480 -0.032480  0.032480      2.000000
 -0.032480 -0.032480  0.032480      2.000000
 


--------------------------------------------------------------------------------------------------------




 Dimension of arrays:
   k-points           NKPTS =     14   k-points in BZ     NKDIM =     14   number of bands    NBANDS=    520
   number of dos      NEDOS =    301   number of ions     NIONS =    135
   non local maximal  LDIM  =      6   non local SUM 2l+1 LMDIM =     18
   total plane-waves  NPLWV = 592704
   max r-space proj   IRMAX =   7356   max aug-charges    IRDMAX= 209463
   dimension x,y,z NGX =    84 NGY =   84 NGZ =   84
   dimension x,y,z NGXF=   168 NGYF=  168 NGZF=  168
   support grid    NGXF=   336 NGYF=  336 NGZF=  336
   ions per type =              27  27  81
   NGX,Y,Z   is equivalent  to a cutoff of  13.61, 13.61, 13.61 a.u.
   NGXF,Y,Z  is equivalent  to a cutoff of  27.21, 27.21, 27.21 a.u.

 SYSTEM =  unknown system                          
 POSCAR =  Ca Si  O                                

 Startparameter for this run:
   NWRITE =      2    write-flag & timer
   PREC   = a         normal or accurate (medium, high low for compatibility)
   ISTART =      0    job   : 0-new  1-cont  2-samecut
   ICHARG =      2    charge: 1-file 2-atom 10-const
   ISPIN  =      1    spin polarized calculation?
   LNONCOLLINEAR =      F non collinear calculations
   LSORBIT =      F    spin-orbit coupling
   INIWAV =      1    electr: 0-lowe 1-rand  2-diag
   LASPH  =      F    aspherical Exc in radial PAW
   METAGGA=      F    non-selfconsistent MetaGGA calc.

 Electronic Relaxation 1
   ENCUT  =  600.0 eV  44.10 Ry    6.64 a.u.  20.50 20.50 20.50*2*pi/ulx,y,z
   ENINI  =  600.0     initial cutoff
   ENAUG  =  605.4 eV  augmentation charge cutoff
   NELM   =     60;   NELMIN=  2; NELMDL= -5     # of ELM steps 
   EDIFF  = 0.1E-05   stopping-criterion for ELM
   LREAL  =      T    real-space projection
   NLSPLINE    = F    spline interpolate recip. space projectors
   LCOMPAT=      F    compatible to vasp.4.4
   GGA_COMPAT  = T    GGA compatible to vasp.4.4-vasp.4.6
   LMAXPAW     = -100 max onsite density
   LMAXMIX     =    2 max onsite mixed and CHGCAR
   VOSKOWN=      0    Vosko Wilk Nusair interpolation
   ROPT   =   -0.00025  -0.00025  -0.00025
 Ionic relaxation
   EDIFFG = -.1E-01   stopping-criterion for IOM
   NSW    =      1    number of steps for IOM
   NBLOCK =      1;   KBLOCK =      1    inner block; outer block 
   IBRION =     -1    ionic relax: 0-MD 1-quasi-New 2-CG
   NFREE  =      0    steps in history (QN), initial steepest desc. (CG)
   ISIF   =      2    stress and relaxation
   IWAVPR =     10    prediction:  0-non 1-charg 2-wave 3-comb
   ISYM   =      0    0-nonsym 1-usesym 2-fastsym
   LCORR  =      T    Harris-Foulkes like correction to forces

   POTIM  = 1.0000    time-step for ionic-motion
   TEIN   =    0.0    initial temperature
   TEBEG  =    0.0;   TEEND  =   0.0 temperature during run
   SMASS  =  -3.00    Nose mass-parameter (am)
   estimated Nose-frequenzy (Omega)   =  0.10E-29 period in steps =****** mass=  -0.241E-26a.u.
   SCALEE = 1.0000    scale energy and forces
   NPACO  =    256;   APACO  = 16.0  distance and # of slots for P.C.
   PSTRESS=    0.0 pullay stress

  Mass of Ions in am
   POMASS =  40.08 28.09 16.00
  Ionic Valenz
   ZVAL   =  10.00  4.00  6.00
  Atomic Wigner-Seitz radii
   RWIGS  =  -1.00 -1.00 -1.00
  virtual crystal weights 
   VCA    =   1.00  1.00  1.00
   NELECT =     864.0000    total number of electrons
   NUPDOWN=      -1.0000    fix difference up-down

 DOS related values:
   EMIN   =  10.00;   EMAX   =-10.00  energy-range for DOS
   EFERMI =   0.00
   ISMEAR =     0;   SIGMA  =   0.05  broadening in eV -4-tet -1-fermi 0-gaus

 Electronic relaxation 2 (details)
   IALGO  =     38    algorithm
   LDIAG  =      T    sub-space diagonalisation (order eigenvalues)
   LSUBROT=      F    optimize rotation matrix (better conditioning)
   TURBO    =      0    0=normal 1=particle mesh
   IRESTART =      0    0=no restart 2=restart with 2 vectors
   NREBOOT  =      0    no. of reboots
   NMIN     =      0    reboot dimension
   EREF     =   0.00    reference energy to select bands
   IMIX   =      4    mixing-type and parameters
     AMIX     =   0.40;   BMIX     =  1.00
     AMIX_MAG =   1.60;   BMIX_MAG =  1.00
     AMIN     =   0.10
     WC   =   100.;   INIMIX=   1;  MIXPRE=   1;  MAXMIX= -45

 Intra band minimization:
   WEIMIN = 0.0000     energy-eigenvalue tresh-hold
   EBREAK =  0.48E-09  absolut break condition
   DEPER  =   0.30     relativ break condition  

   TIME   =   0.40     timestep for ELM

  volume/ion in A,a.u.               =       8.01        54.03
  Fermi-wavevector in a.u.,A,eV,Ry     =   1.519301  2.871062 31.405975  2.308274
  Thomas-Fermi vector in A             =   2.628305
 
 Write flags
   LWAVE        =      F    write WAVECAR
   LDOWNSAMPLE  =      F    k-point downsampling of WAVECAR
   LCHARG       =      F    write CHGCAR
   LVTOT        =      F    write LOCPOT, total local potential
   LVHAR        =      F    write LOCPOT, Hartree potential only
   LELF         =      F    write electronic localiz. function (ELF)
   LORBIT       =      0    0 simple, 1 ext, 2 COOP (PROOUT), +10 PAW based schemes


 Dipole corrections
   LMONO  =      F    monopole corrections only (constant potential shift)
   LDIPOL =      F    correct potential (dipole corrections)
   IDIPOL =      0    1-x, 2-y, 3-z, 4-all directions 
   EPSILON=  1.0000000 bulk dielectric constant

 Exchange correlation treatment:
   GGA     =    --    GGA type
   LEXCH   =     8    internal setting for exchange type
   VOSKOWN=      0    Vosko Wilk Nusair interpolation
   LHFCALC =     F    Hartree Fock is set to
   LHFONE  =     F    Hartree Fock one center treatment
   AEXX    =    0.0000 exact exchange contribution

 Linear response parameters
   LEPSILON=     F    determine dielectric tensor
   LRPA    =     F    only Hartree local field effects (RPA)
   LNABLA  =     F    use nabla operator in PAW spheres
   LVEL    =     F    velocity operator in full k-point grid
   LINTERFAST=   F  fast interpolation
   KINTER  =     0    interpolate to denser k-point grid
   CSHIFT  =0.1000    complex shift for real part using Kramers Kronig
   OMEGAMAX=  -1.0    maximum frequency
   DEG_THRESHOLD= 0.2000000E-02 threshold for treating states as degnerate
   RTIME   =   -0.100 relaxation time in fs
  (WPLASMAI=    0.000 imaginary part of plasma frequency in eV, 0.658/RTIME)
   DFIELD  = 0.0000000 0.0000000 0.0000000 field for delta impulse in time
 
 Orbital magnetization related:
   ORBITALMAG=     F  switch on orbital magnetization
   LCHIMAG   =     F  perturbation theory with respect to B field
   DQ        =  0.001000  dq finite difference perturbation B field
   LLRAUG    =     F  two centre corrections for induced B field



--------------------------------------------------------------------------------------------------------


 Static calculation
 charge density and potential will be updated during run
 non-spin polarized calculation
 Variant of blocked Davidson
 Davidson routine will perform the subspace rotation
 perform sub-space diagonalisation
    after iterative eigenvector-optimisation
 modified Broyden-mixing scheme, WC =      100.0
 initial mixing is a Kerker type mixing with AMIX =  0.4000 and BMIX =      1.0000
 Hartree-type preconditioning will be used
 using additional bands           88
 real space projection scheme for non local part
 use partial core corrections
 calculate Harris-corrections to forces 
   (improved forces if not selfconsistent)
 use gradient corrections 
 use of overlap-Matrix (Vanderbilt PP)
 Gauss-broadening in eV      SIGMA  =   0.05


--------------------------------------------------------------------------------------------------------


  energy-cutoff  :      600.00
  volume of cell :     1080.95
      direct lattice vectors                 reciprocal lattice vectors
    10.262875590  0.000000000  0.000000000     0.097438578  0.000000000  0.000000000
     0.000000000 10.262875590  0.000000000     0.000000000  0.097438578  0.000000000
     0.000000000  0.000000000 10.262875590     0.000000000  0.000000000  0.097438578

  length of vectors
    10.262875590 10.262875590 10.262875590     0.097438578  0.097438578  0.097438578


 
 k-points in units of 2pi/SCALE and weight: read from INCAR                         
   0.00000000  0.00000000  0.00000000       0.037
   0.03247953  0.00000000  0.00000000       0.074
   0.00000000  0.03247953  0.00000000       0.074
   0.03247953  0.03247953  0.00000000       0.074
  -0.03247953  0.03247953  0.00000000       0.074
   0.00000000  0.00000000  0.03247953       0.074
   0.03247953  0.00000000  0.03247953       0.074
  -0.03247953  0.00000000  0.03247953       0.074
   0.00000000  0.03247953  0.03247953       0.074
   0.03247953  0.03247953  0.03247953       0.074
  -0.03247953  0.03247953  0.03247953       0.074
   0.00000000 -0.03247953  0.03247953       0.074
   0.03247953 -0.03247953  0.03247953       0.074
  -0.03247953 -0.03247953  0.03247953       0.074
 
 k-points in reciprocal lattice and weights: read from INCAR                         
   0.00000000  0.00000000  0.00000000       0.037
   0.33333333  0.00000000  0.00000000       0.074
   0.00000000  0.33333333  0.00000000       0.074
   0.33333333  0.33333333  0.00000000       0.074
  -0.33333333  0.33333333  0.00000000       0.074
   0.00000000  0.00000000  0.33333333       0.074
   0.33333333  0.00000000  0.33333333       0.074
  -0.33333333  0.00000000  0.33333333       0.074
   0.00000000  0.33333333  0.33333333       0.074
   0.33333333  0.33333333  0.33333333       0.074
  -0.33333333  0.33333333  0.33333333       0.074
   0.00000000 -0.33333333  0.33333333       0.074
   0.33333333 -0.33333333  0.33333333       0.074
  -0.33333333 -0.33333333  0.33333333       0.074
 
 position of ions in fractional coordinates (direct lattice) 
   0.02604359  0.96049586  0.96679439
   0.14954146  0.34776892  0.06776363
   0.25174607  0.48277514  0.51409561
   0.05651256  0.58835957  0.29384109
   0.27494437  0.80538366  0.17086536
   0.73664196  0.28647868  0.92177683
   0.83404302  0.70189739  0.06720638
   0.67443030  0.64009387  0.64520142
   0.82328213  0.38221524  0.42217873
   0.12861818  0.69845455  0.69594981
   0.93807817  0.81550243  0.48472770
   0.57798048  0.15617199  0.52485266
   0.52545704  0.70413238  0.43247104
   0.89851939  0.48860921  0.85324671
   0.46175659  0.40702430  0.75402746
   0.36925277  0.94708096  0.59264866
   0.81688919  0.05394723  0.72014374
   0.94948183  0.13857389  0.21973085
   0.28489460  0.12031143  0.84080188
   0.03619413  0.24782826  0.63427651
   0.71153980  0.92758700  0.28696750
   0.38006506  0.23691317  0.32753981
   0.62617183  0.48329858  0.18766989
   0.40730788  0.70663966  0.73909638
   0.60035208  0.84313740  0.83025862
   0.37112734  0.60354705  0.98049117
   0.17798112  0.00804163  0.42612527
   0.63559647  0.90824451  0.57664463
   0.91438755  0.76844287  0.76444518
   0.37687690  0.89879965  0.94322807
   0.56418053  0.13572421  0.80592390
   0.31710267  0.20978837  0.60143583
   0.21373351  0.75148419  0.45237553
   0.22725042  0.09531742  0.12066695
   0.17773382  0.45303570  0.80349607
   0.50731714  0.11492405  0.06825200
   0.53663257  0.42449158  0.46654069
   0.89384779  0.41290676  0.12511004
   0.00754224  0.87481253  0.24525337
   0.86137671  0.09448187  0.44332638
   0.65585357  0.56354047  0.89749106
   0.53596979  0.76102898  0.14973987
   0.09845914  0.95968710  0.68017171
   0.74274131  0.31977492  0.66131999
   0.10911401  0.32061869  0.36828343
   0.32966276  0.54489956  0.23921851
   0.78264206  0.03188193  0.99279022
   0.77037680  0.64005317  0.34878170
   0.00215109  0.18838418  0.89405988
   0.95805768  0.54607248  0.56320762
   0.41931187  0.33921650  0.99852384
   0.66207631  0.20947396  0.24494987
   0.42894801  0.97532918  0.33261703
   0.10455886  0.67120112  0.00656385
   0.49200252  0.52299072  0.57444225
   0.00844312  0.04931577  0.52729323
   0.37423903  0.45747699  0.12856744
   0.42612720  0.63083686  0.16562460
   0.33566416  0.84597939  0.37294584
   0.13584416  0.84010345  0.58265331
   0.78515207  0.67979013  0.86166146
   0.43605623  0.16053064  0.71201849
   0.64775403  0.37353818  0.55923869
   0.67536242  0.06288284  0.86686259
   0.66914253  0.88542537  0.05492816
   0.85980787  0.79907737  0.26358009
   0.89569856  0.64819579  0.66935632
   0.68949941  0.45503111  0.77407319
   0.59453459  0.63513810  0.01642106
   0.85378798  0.90277034  0.86438509
   0.54851644  0.28145713  0.14519052
   0.44355517  0.31034153  0.55761248
   0.97846344  0.58906318  0.06660635
   0.61626511  0.25636988  0.75186595
   0.13327698  0.93372363  0.82247263
   0.74940388  0.83198357  0.67429570
   0.09809742  0.79399419  0.34340715
   0.14782792  0.21142460  0.23601163
   0.01669092  0.72252711  0.89455561
   0.64867754  0.70070700  0.26592330
   0.35807231  0.17901383  0.07533736
   0.85783430  0.98123407  0.13405740
   0.28577687  0.56291417  0.71463787
   0.78541464  0.27814823  0.19028904
   0.03999346  0.10340097  0.77608715
   0.09282765  0.63933543  0.49383183
   0.32663729  0.04482645  0.22291071
   0.81778241  0.52829796  0.26962347
   0.77184453  0.46699808  0.02313377
   0.25962925  0.98222795  0.99055475
   0.52458975  0.93733264  0.45800041
   0.51666145  0.45315277  0.94612715
   0.12763213  0.96341911  0.18319887
   0.57153712  0.00680924  0.67500681
   0.52720285  0.21532736  0.93741317
   0.20998129  0.60287207  0.15134658
   0.13869679  0.15565152  0.98690678
   0.99650060  0.39997679  0.24924718
   0.49906805  0.88501020  0.23258162
   0.78814786  0.99221114  0.53785383
   0.33887803  0.09210885  0.42175396
   0.54202124  0.08707463  0.25730591
   0.04928275  0.48917540  0.68862181
   0.27099242  0.31006202  0.73851492
   0.47928276  0.01225811  0.95533590
   0.91460021  0.31926284  0.00171709
   0.02887070  0.80159688  0.10038580
   0.54839048  0.63011618  0.81132531
   0.15852111  0.53713268  0.94228319
   0.22936585  0.08546193  0.63074893
   0.21474388  0.40839814  0.27870125
   0.04806344  0.35584050  0.85283253
   0.31755099  0.71293027  0.57594205
   0.96899868  0.23695836  0.43426907
   0.85709153  0.28609999  0.77734582
   0.24439241  0.74622532  0.96936267
   0.65291594  0.54879861  0.44788284
   0.74765617  0.13358553  0.34187931
   0.28009576  0.63161581  0.37716285
   0.62430875  0.31741500  0.36383467
   0.53976965  0.79030707  0.62220622
   0.29595808  0.38280018  0.92869437
   0.88620352  0.10475681  0.94989355
   0.02317675  0.43614517  0.45355113
   0.46681151  0.80464386  0.02940483
   0.20114928  0.26753541  0.47805193
   0.39559591  0.91248013  0.79006722
   0.81907822  0.22253671  0.56156220
   0.69922786  0.12652723  0.07100949
   0.90466361  0.61743493  0.41319760
   0.43707086  0.50342848  0.35124675
   0.82393586  0.46381142  0.61867139
   0.95974454  0.86373634  0.67405468
   0.71986889  0.79094012  0.48914312
   0.92482424  0.98250728  0.33622939
 
 position of ions in cartesian coordinates  (Angst):
   0.26728213  9.85744954  9.92209050
   1.53472545  3.56910916  0.69544974
   2.58363856  4.95466118  5.27609930
   0.57998134  6.03826106  3.01565458
   2.82171985  8.26555227  1.75356998
   7.56006475  2.94009501  9.46008091
   8.55967977  7.20348562  0.68973067
   6.92159425  6.56920372  6.62162193
   8.44924208  3.92262741  4.33276783
   1.31999233  7.16815220  7.14244633
   9.62737955  8.36939995  4.97470006
   5.93174172  1.60277366  5.38649759
   5.39270024  7.22642304  4.43839652
   9.22139275  5.01453558  8.75676487
   4.73895040  4.17723972  7.73849002
   3.78959520  9.71977407  6.08227944
   8.38363212  0.55365374  7.39074558
   9.74441386  1.42216661  2.25507039
   2.92383781  1.23474123  8.62904512
   0.37145583  2.54343055  6.50950096
   7.30244442  9.51971000  2.94511175
   3.90056043  2.43141044  3.36150034
   6.42632360  4.96003318  1.92603274
   4.18015012  7.25215487  7.58525424
   6.16133866  8.65301428  8.52084090
   3.80883373  6.19412831 10.06265891
   1.82659807  0.08253024  4.37327061
   6.52304745  9.32120043  5.91803213
   9.38424570  7.88643354  7.84540582
   3.86784069  9.22426899  9.68023233
   5.79011458  1.39292067  8.27109672
   3.25438521  2.15303193  6.17246111
   2.19352039  7.71238874  4.64267377
   2.33224280  0.97823084  1.23838990
   1.82406013  4.64944904  8.24618023
   5.20653265  1.17945122  0.70046182
   5.50739332  4.35650430  4.78804906
   9.17344869  4.23761072  1.28398879
   0.07740505  8.97809218  2.51700487
   8.84020199  0.96965571  4.54980344
   6.73094356  5.78354572  9.21083911
   5.50059126  7.81034572  1.53676162
   1.01047388  9.84914927  6.98051766
   7.62266169  3.28181023  6.78704483
   1.11982351  3.29046971  3.77964706
   3.38328794  5.59223636  2.45506981
   8.03215808  0.32720024 10.18888256
   7.90628128  6.56878601  3.57950318
   0.02207637  1.93336339  9.17562535
   9.83242678  5.60427388  5.78012976
   4.30334560  3.48133675 10.24772597
   6.79480680  2.14980517  2.51389009
   4.40224010 10.00968208  3.41360716
   1.07307456  6.88845364  0.06736395
   5.04936063  5.36738865  5.89542933
   0.08665070  0.50612160  5.41154483
   3.84076857  4.69502945  1.31947165
   4.37329044  6.47420026  1.69978463
   3.44487953  8.68218118  3.82749674
   1.39415167  8.62187722  5.97969841
   8.05791805  6.97660149  8.84312434
   4.47519086  1.64750600  7.30735713
   6.64781906  3.83357592  5.73939707
   6.93116049  0.64535874  8.89650295
   6.86732654  9.08701038  0.56372088
   8.82410122  8.20083161  2.70508967
   9.19244285  6.65235278  6.86952065
   7.07624665  4.66992764  7.94421685
   6.10163455  6.51834332  0.16852732
   8.76231983  9.26501968  8.87107663
   5.62935596  2.88855948  1.49007220
   4.55215154  3.18499648  5.72270751
  10.04184857  6.04548208  0.68357265
   6.32465217  2.63109219  7.71630675
   1.36780504  9.58268946  8.44093424
   7.69103882  8.53854385  6.92021291
   1.00676161  8.14866359  3.52434487
   1.51713958  2.16982440  2.42215804
   0.17129688  7.41520581  9.18071297
   6.65729692  7.19126877  2.72913778
   3.67485159  1.83719670  0.77317796
   8.80384667 10.07028316  1.37581438
   2.93289250  5.77711813  7.33423959
   8.06061277  2.85460068  1.95291270
   0.41044795  1.06119131  7.96488584
   0.95267861  6.56141993  5.06813468
   3.35223783  0.46004832  2.28770484
   8.39279916  5.42185619  2.76711214
   7.92134435  4.79274320  0.23741901
   2.66454266 10.08048323 10.16594016
   5.38379930  9.61972830  4.70040127
   5.30243217  4.65065052  9.70998528
   1.30987269  9.88745043  1.88014717
   5.86561437  0.06988242  6.92751096
   5.41061730  2.20987789  9.62055472
   2.15501189  6.18720104  1.55325114
   1.42342795  1.59743216 10.12850148
  10.22696170  4.10491204  2.55799278
   5.12187328  9.08274962  2.38695619
   8.08866343 10.18293945  5.51992694
   3.47786304  0.94530166  4.32840842
   5.56269651  0.89363608  2.64069855
   0.50578277  5.02034626  7.06723999
   2.78116153  3.18212789  7.57928671
   4.91881931  0.12580350  9.80449345
   9.38642821  3.27655479  0.01762223
   0.29629639  8.22668906  1.03024694
   5.62806325  6.46680397  8.32653067
   1.62688240  5.51252584  9.67053512
   2.35395316  0.87708520  6.47329784
   2.20388974  4.19133930  2.86027625
   0.49326914  3.65194675  8.75251414
   3.25898635  7.31671464  5.91082156
   9.94471286  2.43187414  4.45684939
   8.79622376  2.93620859  7.97780339
   2.50816890  7.65841760  9.94844850
   6.70079503  5.63225189  4.59656582
   7.67310225  1.37097170  3.50866482
   2.87458797  6.48219446  3.87077537
   6.40720306  3.25759063  3.73398999
   5.53958875  8.11082310  6.38562501
   3.03738092  3.92863066  9.53107483
   9.09499646  1.07510615  9.74863929
   0.23786006  4.47610364  4.65473877
   4.79082845  8.25795980  0.30177815
   2.06437000  2.74568267  4.90618751
   4.05995164  9.36467003  8.10836162
   8.40609786  2.28386662  5.76324298
   7.17608854  1.29853324  0.72876152
   9.28445007  6.33665788  4.24059556
   4.48560388  5.16662385  3.60480166
   8.45595126  4.76003891  6.34934750
   9.84973884  8.86441855  6.91773931
   7.38792485  8.11732004  5.02001501
   9.49135610 10.08334999  3.45068041
 


--------------------------------------------------------------------------------------------------------


 k-point  1 :   0.0000 0.0000 0.0000  plane waves:   36137
 k-point  2 :   0.3333 0.0000 0.0000  plane waves:   36093
 k-point  3 :   0.0000 0.3333 0.0000  plane waves:   36093
 k-point  4 :   0.3333 0.3333 0.0000  plane waves:   36091
 k-point  5 :  -0.3333 0.3333 0.0000  plane waves:   36091
 k-point  6 :   0.0000 0.0000 0.3333  plane waves:   36093
 k-point  7 :   0.3333 0.0000 0.3333  plane waves:   36091
 k-point  8 :  -0.3333 0.0000 0.3333  plane waves:   36091
 k-point  9 :   0.0000 0.3333 0.3333  plane waves:   36091
 k-point 10 :   0.3333 0.3333 0.3333  plane waves:   36060
 k-point 11 :  -0.3333 0.3333 0.3333  plane waves:   36060
 k-point 12 :   0.0000-0.3333 0.3333  plane waves:   36091
 k-point 13 :   0.3333-0.3333 0.3333  plane waves:   36060
 k-point 14 :  -0.3333-0.3333 0.3333  plane waves:   36060

 maximum and minimum number of plane-waves per node :      2811     2730

 maximum number of plane-waves:     36137
 maximum index in each direction: 
   IXMAX=   20   IYMAX=   20   IZMAX=   20
   IXMIN=  -20   IYMIN=  -20   IZMIN=  -20


 real space projection operators:
  total allocation   :      50470.44 KBytes
  max/ min on nodes  :       4247.70       3559.98


 parallel 3D FFT for wavefunctions:
    minimum data exchange during FFTs selected (reduces bandwidth)
 parallel 3D FFT for charge:
    minimum data exchange during FFTs selected (reduces bandwidth)


 total amount of memory used by VASP MPI-rank0   162305. kBytes
=======================================================================

   base      :      30000. kBytes
   nonlr-proj:      22099. kBytes
   fftplans  :      15848. kBytes
   grid      :       9274. kBytes
   one-center:        171. kBytes
   wavefun   :      84913. kBytes
 
     INWAV:  cpu time    0.0001: real time    0.0001
 Broyden mixing: mesh for mixing (old mesh)
   NGX = 41   NGY = 41   NGZ = 41
  (NGX  =168   NGY  =168   NGZ  =168)
  gives a total of  68921 points

 initial charge density was supplied:
 charge density of overlapping atoms calculated
 number of electron     864.0000000 magnetization 
 keeping initial charge density in first step


--------------------------------------------------------------------------------------------------------


 Maximum index for non-local projection operator          829
 Maximum index for augmentation-charges         7290 (set IRDMAX)


--------------------------------------------------------------------------------------------------------


 First call to EWALD:  gamma=   0.173
 Maximum number of real-space cells 3x 3x 3
 Maximum number of reciprocal cells 3x 3x 3

    FEWALD:  cpu time    0.0051: real time    0.0057


--------------------------------------- Iteration      1(   1)  ---------------------------------------


    POTLOK:  cpu time    0.0810: real time    0.0865
    SETDIJ:  cpu time    0.3256: real time    0.3270
     EDDAV:  cpu time   42.5776: real time   42.5790
       DOS:  cpu time    0.0036: real time    0.0036
    --------------------------------------------
      LOOP:  cpu time   42.9879: real time   42.9961

 eigenvalue-minimisations  : 14560
 total energy-change (2. order) : 0.1061072E+05  (-0.4970948E+05)
 number of electron     864.0000000 magnetization 
 augmentation part      864.0000000 magnetization 

 Free energy of the ion-electron system (eV)
  ---------------------------------------------------
  alpha Z        PSCENC =      4420.68831078
  Ewald energy   TEWEN  =    -58250.04007507
  -Hartree energ DENC   =    -11251.55690494
  -exchange      EXHF   =         0.00000000
  -V(xc)+E(xc)   XCENC  =      3305.05246925
  PAW double counting   =     50594.51003143   -49994.65612350
  entropy T*S    EENTRO =        -0.02699980
  eigenvalues    EBANDS =      6818.20701569
  atomic energy  EATOM  =     64968.54023382
  Solvation  Ediel_sol  =         0.00000000
  ---------------------------------------------------
  free energy    TOTEN  =     10610.71795766 eV

  energy without entropy =    10610.74495746  energy(sigma->0) =    10610.73145756


--------------------------------------------------------------------------------------------------------




--------------------------------------- Iteration      1(   2)  ---------------------------------------


     EDDAV:  cpu time   46.7115: real time   46.7528
       DOS:  cpu time    0.0015: real time    0.0015
    --------------------------------------------
      LOOP:  cpu time   46.7131: real time   46.7543

 eigenvalue-minimisations  : 16464
 total energy-change (2. order) :-0.1037041E+05  (-0.9971565E+04)
 number of electron     864.0000000 magnetization 
 augmentation part      864.0000000 magnetization 

 Free energy of the ion-electron system (eV)
  ---------------------------------------------------
  alpha Z        PSCENC =      4420.68831078
  Ewald energy   TEWEN  =    -58250.04007507
  -Hartree energ DENC   =    -11251.55690494
  -exchange      EXHF   =         0.00000000
  -V(xc)+E(xc)   XCENC  =      3305.05246925
  PAW double counting   =     50594.51003143   -49994.65612350
  entropy T*S    EENTRO =        -0.00000000
  eigenvalues    EBANDS =     -3552.23455289
  atomic energy  EATOM  =     64968.54023382
  Solvation  Ediel_sol  =         0.00000000
  ---------------------------------------------------
  free energy    TOTEN  =       240.30338888 eV

  energy without entropy =      240.30338888  energy(sigma->0) =      240.30338888


--------------------------------------------------------------------------------------------------------




--------------------------------------- Iteration      1(   3)  ---------------------------------------


     EDDAV:  cpu time   46.5787: real time   46.6124
       DOS:  cpu time    0.0014: real time    0.0014
    --------------------------------------------
      LOOP:  cpu time   46.5801: real time   46.6138

 eigenvalue-minimisations  : 16440
 total energy-change (2. order) :-0.1156514E+04  (-0.1147735E+04)
 number of electron     864.0000000 magnetization 
 augmentation part      864.0000000 magnetization 

 Free energy of the ion-electron system (eV)
  ---------------------------------------------------
  alpha Z        PSCENC =      4420.68831078
  Ewald energy   TEWEN  =    -58250.04007507
  -Hartree energ DENC   =    -11251.55690494
  -exchange      EXHF   =         0.00000000
  -V(xc)+E(xc)   XCENC  =      3305.05246925
  PAW double counting   =     50594.51003143   -49994.65612350
  entropy T*S    EENTRO =        -0.00000000
  eigenvalues    EBANDS =     -4708.74895249
  atomic energy  EATOM  =     64968.54023382
  Solvation  Ediel_sol  =         0.00000000
  ---------------------------------------------------
  free energy    TOTEN  =      -916.21101072 eV

  energy without entropy =     -916.21101072  energy(sigma->0) =     -916.21101072


--------------------------------------------------------------------------------------------------------




--------------------------------------- Iteration      1(   4)  ---------------------------------------


     EDDAV:  cpu time   57.4011: real time   57.4175
       DOS:  cpu time    0.0014: real time    0.0014
    --------------------------------------------
      LOOP:  cpu time   57.4025: real time   57.4189

 eigenvalue-minimisations  : 21456
 total energy-change (2. order) :-0.6292984E+02  (-0.6270950E+02)
 number of electron     864.0000000 magnetization 
 augmentation part      864.0000000 magnetization 

 Free energy of the ion-electron system (eV)
  ---------------------------------------------------
  alpha Z        PSCENC =      4420.68831078
  Ewald energy   TEWEN  =    -58250.04007507
  -Hartree energ DENC   =    -11251.55690494
  -exchange      EXHF   =         0.00000000
  -V(xc)+E(xc)   XCENC  =      3305.05246925
  PAW double counting   =     50594.51003143   -49994.65612350
  entropy T*S    EENTRO =        -0.00000000
  eigenvalues    EBANDS =     -4771.67879227
  atomic energy  EATOM  =     64968.54023382
  Solvation  Ediel_sol  =         0.00000000
  ---------------------------------------------------
  free energy    TOTEN  =      -979.14085050 eV

  energy without entropy =     -979.14085050  energy(sigma->0) =     -979.14085050


--------------------------------------------------------------------------------------------------------




--------------------------------------- Iteration      1(   5)  ---------------------------------------


     EDDAV:  cpu time   61.5465: real time   61.5625
       DOS:  cpu time    0.0014: real time    0.0014
    CHARGE:  cpu time    1.1796: real time    1.1796
    MIXING:  cpu time    0.0045: real time    0.0047
    --------------------------------------------
      LOOP:  cpu time   62.7321: real time   62.7483

 eigenvalue-minimisations  : 23416
 total energy-change (2. order) :-0.4056800E+01  (-0.4054581E+01)
 number of electron     864.0000007 magnetization 
 augmentation part      134.7782972 magnetization 

 Broyden mixing:
  rms(total) = 0.92880E+01    rms(broyden)= 0.92873E+01
  rms(prec ) = 0.10932E+02
  weight for this iteration     100.00

 Free energy of the ion-electron system (eV)
  ---------------------------------------------------
  alpha Z        PSCENC =      4420.68831078
  Ewald energy   TEWEN  =    -58250.04007507
  -Hartree energ DENC   =    -11251.55690494
  -exchange      EXHF   =         0.00000000
  -V(xc)+E(xc)   XCENC  =      3305.05246925
  PAW double counting   =     50594.51003143   -49994.65612350
  entropy T*S    EENTRO =        -0.00000000
  eigenvalues    EBANDS =     -4775.73559185
  atomic energy  EATOM  =     64968.54023382
  Solvation  Ediel_sol  =         0.00000000
  ---------------------------------------------------
  free energy    TOTEN  =      -983.19765009 eV

  energy without entropy =     -983.19765009  energy(sigma->0) =     -983.19765009


--------------------------------------------------------------------------------------------------------




--------------------------------------- Iteration      1(   6)  ---------------------------------------


    POTLOK:  cpu time    0.0803: real time    0.0961
    SETDIJ:  cpu time    0.3371: real time    0.3371
     EDDAV:  cpu time   49.4405: real time   49.4408
       DOS:  cpu time    0.0014: real time    0.0014
    CHARGE:  cpu time    1.1699: real time    1.1699
    MIXING:  cpu time    0.0045: real time    0.0045
    --------------------------------------------
      LOOP:  cpu time   51.0337: real time   51.0499

 eigenvalue-minimisations  : 17744
 total energy-change (2. order) : 0.1336004E+03  (-0.5041999E+02)
 number of electron     864.0000007 magnetization 
 augmentation part      124.6869410 magnetization 

 Broyden mixing:
  rms(total) = 0.40087E+01    rms(broyden)= 0.40079E+01
  rms(prec ) = 0.42318E+01
  weight for this iteration     100.00

 eigenvalues of (default mixing * dielectric matrix)
  average eigenvalue GAMMA=   1.2261
  1.2261

 Free energy of the ion-electron system (eV)
  ---------------------------------------------------
  alpha Z        PSCENC =      4420.68831078
  Ewald energy   TEWEN  =    -58250.04007507
  -Hartree energ DENC   =    -12326.00250554
  -exchange      EXHF   =         0.00000000
  -V(xc)+E(xc)   XCENC  =      3382.73958860
  PAW double counting   =     71360.19900750   -70897.27715042
  entropy T*S    EENTRO =        -0.00000000
  eigenvalues    EBANDS =     -3508.44464305
  atomic energy  EATOM  =     64968.54023382
  Solvation  Ediel_sol  =         0.00000000
  ---------------------------------------------------
  free energy    TOTEN  =      -849.59723338 eV

  energy without entropy =     -849.59723338  energy(sigma->0) =     -849.59723338


--------------------------------------------------------------------------------------------------------




--------------------------------------- Iteration      1(   7)  ---------------------------------------


    POTLOK:  cpu time    0.0898: real time    0.1051
    SETDIJ:  cpu time    0.3240: real time    0.3240
     EDDAV:  cpu time   52.3220: real time   52.3240
       DOS:  cpu time    0.0014: real time    0.0013
    CHARGE:  cpu time    1.1806: real time    1.1806
    MIXING:  cpu time    0.0049: real time    0.0049
    --------------------------------------------
      LOOP:  cpu time   53.9225: real time   53.9399

 eigenvalue-minimisations  : 17960
 total energy-change (2. order) :-0.1435585E+01  (-0.7372869E+01)
 number of electron     864.0000006 magnetization 
 augmentation part      122.0585639 magnetization 

 Broyden mixing:
  rms(total) = 0.16907E+01    rms(broyden)= 0.16906E+01
  rms(prec ) = 0.18393E+01
  weight for this iteration     100.00

 eigenvalues of (default mixing * dielectric matrix)
  average eigenvalue GAMMA=   1.2932
  1.2932  1.2932

 Free energy of the ion-electron system (eV)
  ---------------------------------------------------
  alpha Z        PSCENC =      4420.68831078
  Ewald energy   TEWEN  =    -58250.04007507
  -Hartree energ DENC   =    -12475.85587326
  -exchange      EXHF   =         0.00000000
  -V(xc)+E(xc)   XCENC  =      3394.39078616
  PAW double counting   =     94440.38497405   -94046.39691978
  entropy T*S    EENTRO =        -0.00000000
  eigenvalues    EBANDS =     -3302.74425486
  atomic energy  EATOM  =     64968.54023382
  Solvation  Ediel_sol  =         0.00000000
  ---------------------------------------------------
  free energy    TOTEN  =      -851.03281816 eV

  energy without entropy =     -851.03281816  energy(sigma->0) =     -851.03281816


--------------------------------------------------------------------------------------------------------




--------------------------------------- Iteration      1(   8)  ---------------------------------------


    POTLOK:  cpu time    0.0944: real time    0.1154
    SETDIJ:  cpu time    0.3256: real time    0.3256
     EDDAV:  cpu time   53.2897: real time   53.2900
       DOS:  cpu time    0.0014: real time    0.0014
    CHARGE:  cpu time    1.1765: real time    1.1765
    MIXING:  cpu time    0.0043: real time    0.0043
    --------------------------------------------
      LOOP:  cpu time   54.8918: real time   54.9132

 eigenvalue-minimisations  : 18672
 total energy-change (2. order) : 0.7032936E+00  (-0.1234262E+01)
 number of electron     864.0000007 magnetization 
 augmentation part      122.2798334 magnetization 

 Broyden mixing:
  rms(total) = 0.74993E+00    rms(broyden)= 0.74985E+00
  rms(prec ) = 0.85441E+00
  weight for this iteration     100.00

 eigenvalues of (default mixing * dielectric matrix)
  average eigenvalue GAMMA=   1.4149
  2.1663  1.0392  1.0392

 Free energy of the ion-electron system (eV)
  ---------------------------------------------------
  alpha Z        PSCENC =      4420.68831078
  Ewald energy   TEWEN  =    -58250.04007507
  -Hartree energ DENC   =    -12415.79774717
  -exchange      EXHF   =         0.00000000
  -V(xc)+E(xc)   XCENC  =      3391.12087979
  PAW double counting   =    104523.15465905  -104157.86767732
  entropy T*S    EENTRO =        -0.00000000
  eigenvalues    EBANDS =     -3330.12810845
  atomic energy  EATOM  =     64968.54023382
  Solvation  Ediel_sol  =         0.00000000
  ---------------------------------------------------
  free energy    TOTEN  =      -850.32952457 eV

  energy without entropy =     -850.32952457  energy(sigma->0) =     -850.32952457


--------------------------------------------------------------------------------------------------------




--------------------------------------- Iteration      1(   9)  ---------------------------------------


    POTLOK:  cpu time    0.0868: real time    0.1046
    SETDIJ:  cpu time    0.3602: real time    0.3602
     EDDAV:  cpu time   52.2467: real time   52.2458
       DOS:  cpu time    0.0014: real time    0.0014
    CHARGE:  cpu time    1.1726: real time    1.1726
    MIXING:  cpu time    0.0049: real time    0.0049
    --------------------------------------------
      LOOP:  cpu time   53.8727: real time   53.8896

 eigenvalue-minimisations  : 17984
 total energy-change (2. order) : 0.2361016E+00  (-0.2772166E+00)
 number of electron     864.0000006 magnetization 
 augmentation part      121.5048416 magnetization 

 Broyden mixing:
  rms(total) = 0.20915E+00    rms(broyden)= 0.20911E+00
  rms(prec ) = 0.24447E+00
  weight for this iteration     100.00

 eigenvalues of (default mixing * dielectric matrix)
  average eigenvalue GAMMA=   1.3818
  2.1681  1.4018  0.9787  0.9787

 Free energy of the ion-electron system (eV)
  ---------------------------------------------------
  alpha Z        PSCENC =      4420.68831078
  Ewald energy   TEWEN  =    -58250.04007507
  -Hartree energ DENC   =    -12478.26495771
  -exchange      EXHF   =         0.00000000
  -V(xc)+E(xc)   XCENC  =      3396.14565373
  PAW double counting   =    113191.19950108  -112845.96931267
  entropy T*S    EENTRO =        -0.00000000
  eigenvalues    EBANDS =     -3252.39277693
  atomic energy  EATOM  =     64968.54023382
  Solvation  Ediel_sol  =         0.00000000
  ---------------------------------------------------
  free energy    TOTEN  =      -850.09342298 eV

  energy without entropy =     -850.09342298  energy(sigma->0) =     -850.09342298


--------------------------------------------------------------------------------------------------------




--------------------------------------- Iteration      1(  10)  ---------------------------------------


    POTLOK:  cpu time    0.0948: real time    0.1152
    SETDIJ:  cpu time    0.3328: real time    0.3329
     EDDAV:  cpu time   60.7576: real time   60.7569
       DOS:  cpu time    0.0015: real time    0.0015
    CHARGE:  cpu time    1.1577: real time    1.1601
    MIXING:  cpu time    0.0051: real time    0.0051
    --------------------------------------------
      LOOP:  cpu time   62.3494: real time   62.3715

 eigenvalue-minimisations  : 21600
 total energy-change (2. order) :-0.6039389E-01  (-0.1003455E+00)
 number of electron     864.0000006 magnetization 
 augmentation part      121.3222061 magnetization 

 Broyden mixing:
  rms(total) = 0.15668E+00    rms(broyden)= 0.15667E+00
  rms(prec ) = 0.17444E+00
  weight for this iteration     100.00

 eigenvalues of (default mixing * dielectric matrix)
  average eigenvalue GAMMA=   1.3433
  2.3103  1.5497  1.1420  0.8574  0.8574

 Free energy of the ion-electron system (eV)
  ---------------------------------------------------
  alpha Z        PSCENC =      4420.68831078
  Ewald energy   TEWEN  =    -58250.04007507
  -Hartree energ DENC   =    -12478.45869399
  -exchange      EXHF   =         0.00000000
  -V(xc)+E(xc)   XCENC  =      3396.25940616
  PAW double counting   =    113690.73399603  -113343.84552368
  entropy T*S    EENTRO =        -0.00000000
  eigenvalues    EBANDS =     -3254.03147092
  atomic energy  EATOM  =     64968.54023382
  Solvation  Ediel_sol  =         0.00000000
  ---------------------------------------------------
  free energy    TOTEN  =      -850.15381686 eV

  energy without entropy =     -850.15381686  energy(sigma->0) =     -850.15381686


--------------------------------------------------------------------------------------------------------




--------------------------------------- Iteration      1(  11)  ---------------------------------------


    POTLOK:  cpu time    0.0796: real time    0.0991
    SETDIJ:  cpu time    0.3390: real time    0.3390
     EDDAV:  cpu time   53.4348: real time   53.4340
       DOS:  cpu time    0.0015: real time    0.0014
    CHARGE:  cpu time    1.1891: real time    1.1891
    MIXING:  cpu time    0.0048: real time    0.0048
    --------------------------------------------
      LOOP:  cpu time   55.0489: real time   55.0676

 eigenvalue-minimisations  : 19280
 total energy-change (2. order) :-0.1276240E-02  (-0.1393020E-01)
 number of electron     864.0000006 magnetization 
 augmentation part      121.2584258 magnetization 

 Broyden mixing:
  rms(total) = 0.82083E-01    rms(broyden)= 0.82076E-01
  rms(prec ) = 0.92020E-01
  weight for this iteration     100.00

 eigenvalues of (default mixing * dielectric matrix)
  average eigenvalue GAMMA=   1.4298
  2.3064  2.3064  1.0715  1.0715  0.9115  0.9115

 Free energy of the ion-electron system (eV)
  ---------------------------------------------------
  alpha Z        PSCENC =      4420.68831078
  Ewald energy   TEWEN  =    -58250.04007507
  -Hartree energ DENC   =    -12487.68260725
  -exchange      EXHF   =         0.00000000
  -V(xc)+E(xc)   XCENC  =      3396.93817051
  PAW double counting   =    113821.73103094  -113473.07280343
  entropy T*S    EENTRO =        -0.00000000
  eigenvalues    EBANDS =     -3247.25735340
  atomic energy  EATOM  =     64968.54023382
  Solvation  Ediel_sol  =         0.00000000
  ---------------------------------------------------
  free energy    TOTEN  =      -850.15509310 eV

  energy without entropy =     -850.15509310  energy(sigma->0) =     -850.15509310


--------------------------------------------------------------------------------------------------------




--------------------------------------- Iteration      1(  12)  ---------------------------------------


    POTLOK:  cpu time    0.0882: real time    0.1043
    SETDIJ:  cpu time    0.3285: real time    0.3285
     EDDAV:  cpu time   50.4533: real time   50.4524
       DOS:  cpu time    0.0015: real time    0.0015
    CHARGE:  cpu time    1.1652: real time    1.1652
    MIXING:  cpu time    0.0038: real time    0.0038
    --------------------------------------------
      LOOP:  cpu time   52.0405: real time   52.0557

 eigenvalue-minimisations  : 18280
 total energy-change (2. order) : 0.1544972E-02  (-0.3741475E-02)
 number of electron     864.0000006 magnetization 
 augmentation part      121.3025335 magnetization 

 Broyden mixing:
  rms(total) = 0.21096E-01    rms(broyden)= 0.21086E-01
  rms(prec ) = 0.26321E-01
  weight for this iteration     100.00

 eigenvalues of (default mixing * dielectric matrix)
  average eigenvalue GAMMA=   1.4356
  2.6316  2.3480  1.2556  0.9964  0.9964  0.9106  0.9106

 Free energy of the ion-electron system (eV)
  ---------------------------------------------------
  alpha Z        PSCENC =      4420.68831078
  Ewald energy   TEWEN  =    -58250.04007507
  -Hartree energ DENC   =    -12485.21171320
  -exchange      EXHF   =         0.00000000
  -V(xc)+E(xc)   XCENC  =      3396.73816679
  PAW double counting   =    113421.66412039  -113070.05561656
  entropy T*S    EENTRO =        -0.00000000
  eigenvalues    EBANDS =     -3252.47697508
  atomic energy  EATOM  =     64968.54023382
  Solvation  Ediel_sol  =         0.00000000
  ---------------------------------------------------
  free energy    TOTEN  =      -850.15354813 eV

  energy without entropy =     -850.15354813  energy(sigma->0) =     -850.15354813


--------------------------------------------------------------------------------------------------------




--------------------------------------- Iteration      1(  13)  ---------------------------------------


    POTLOK:  cpu time    0.0900: real time    0.1195
    SETDIJ:  cpu time    0.3530: real time    0.3530
     EDDAV:  cpu time   53.0918: real time   53.0933
       DOS:  cpu time    0.0014: real time    0.0014
    CHARGE:  cpu time    1.1794: real time    1.1795
    MIXING:  cpu time    0.0038: real time    0.0038
    --------------------------------------------
      LOOP:  cpu time   54.7194: real time   54.7505

 eigenvalue-minimisations  : 19400
 total energy-change (2. order) :-0.3012540E-03  (-0.8821154E-03)
 number of electron     864.0000006 magnetization 
 augmentation part      121.2908548 magnetization 

 Broyden mixing:
  rms(total) = 0.11122E-01    rms(broyden)= 0.11121E-01
  rms(prec ) = 0.12578E-01
  weight for this iteration     100.00

 eigenvalues of (default mixing * dielectric matrix)
  average eigenvalue GAMMA=   1.3772
  2.6775  2.4259  1.3577  0.9041  0.9041  0.9325  0.9325  0.8830

 Free energy of the ion-electron system (eV)
  ---------------------------------------------------
  alpha Z        PSCENC =      4420.68831078
  Ewald energy   TEWEN  =    -58250.04007507
  -Hartree energ DENC   =    -12488.38785700
  -exchange      EXHF   =         0.00000000
  -V(xc)+E(xc)   XCENC  =      3396.95373110
  PAW double counting   =    113443.16384390  -113090.86352775
  entropy T*S    EENTRO =        -0.00000000
  eigenvalues    EBANDS =     -3250.20850916
  atomic energy  EATOM  =     64968.54023382
  Solvation  Ediel_sol  =         0.00000000
  ---------------------------------------------------
  free energy    TOTEN  =      -850.15384938 eV

  energy without entropy =     -850.15384938  energy(sigma->0) =     -850.15384938


--------------------------------------------------------------------------------------------------------




--------------------------------------- Iteration      1(  14)  ---------------------------------------


    POTLOK:  cpu time    0.0727: real time    0.0867
    SETDIJ:  cpu time    0.3212: real time    0.3212
     EDDAV:  cpu time   54.8926: real time   54.8944
       DOS:  cpu time    0.0014: real time    0.0014
    CHARGE:  cpu time    1.1614: real time    1.1614
    MIXING:  cpu time    0.0042: real time    0.0042
    --------------------------------------------
      LOOP:  cpu time   56.4536: real time   56.4693

 eigenvalue-minimisations  : 19448
 total energy-change (2. order) :-0.1807754E-03  (-0.2472681E-03)
 number of electron     864.0000006 magnetization 
 augmentation part      121.2966444 magnetization 

 Broyden mixing:
  rms(total) = 0.95913E-02    rms(broyden)= 0.95907E-02
  rms(prec ) = 0.10630E-01
  weight for this iteration     100.00

 eigenvalues of (default mixing * dielectric matrix)
  average eigenvalue GAMMA=   1.3293
  2.7695  2.3813  1.4099  0.9706  0.9706  0.9016  0.9016  0.8295  0.8295

 Free energy of the ion-electron system (eV)
  ---------------------------------------------------
  alpha Z        PSCENC =      4420.68831078
  Ewald energy   TEWEN  =    -58250.04007507
  -Hartree energ DENC   =    -12488.48896320
  -exchange      EXHF   =         0.00000000
  -V(xc)+E(xc)   XCENC  =      3396.95618703
[...]
   0.170E+02 0.246E+02 0.145E+03   -.231E+01 -.444E+02 -.155E+03   -.152E+02 0.135E+02 -.494E+00   -.173E-03 0.202E-03 0.472E-03
   0.426E+02 -.556E+02 -.826E+02   -.515E+02 0.580E+02 0.790E+02   0.658E+01 0.162E+00 0.452E+01   0.454E-04 -.556E-03 0.103E-03
   0.895E+01 0.446E+02 -.499E+02   -.325E+02 -.430E+02 0.474E+02   0.226E+02 -.151E+01 0.725E+01   0.357E-03 -.173E-03 -.133E-03
   -.434E+02 -.491E+02 0.930E+02   0.443E+02 0.411E+02 -.923E+02   0.123E+01 0.111E+02 -.243E+01   -.609E-03 0.124E-03 0.175E-03
   -.440E+02 0.542E+02 -.738E+02   0.531E+02 -.406E+02 0.736E+02   -.749E+01 -.169E+02 0.614E+00   -.103E-02 -.970E-04 0.197E-03
   -.312E+01 -.731E+02 -.301E+00   0.121E+02 0.710E+02 -.449E+01   -.918E+01 0.716E+01 0.582E+01   0.121E-03 -.795E-04 -.398E-04
   0.670E+00 -.499E+02 -.255E+02   -.140E+02 0.551E+02 0.383E+02   0.146E+02 -.189E+01 -.112E+02   -.424E-03 -.275E-03 -.383E-03
   0.714E+02 -.523E+02 -.617E+02   -.625E+02 0.652E+02 0.637E+02   -.123E+02 -.101E+02 -.125E+01   0.287E-04 -.139E-03 0.242E-03
   0.833E+02 0.272E+02 0.230E+02   -.944E+02 -.291E+02 -.312E+02   0.764E+01 0.433E+01 0.680E+01   0.331E-03 0.603E-04 0.154E-03
   0.207E+02 -.534E+02 -.504E+02   -.130E+02 0.536E+02 0.453E+02   -.108E+02 0.828E+00 0.665E+01   0.109E-03 -.309E-04 0.152E-03
   0.536E+00 0.766E+02 0.102E+03   0.415E+01 -.730E+02 -.888E+02   -.571E+01 -.731E+01 -.172E+02   0.233E-03 0.787E-04 -.434E-03
   -.242E+02 -.559E+01 0.630E+02   0.315E+02 0.136E+02 -.705E+02   -.703E+01 -.108E+02 0.659E+01   -.274E-03 -.767E-04 -.132E-03
   0.310E+02 -.341E+02 0.723E+02   -.276E+02 0.173E+02 -.625E+02   -.682E+01 0.177E+02 -.131E+02   0.418E-03 0.399E-03 0.176E-03
   -.343E+02 -.533E+02 -.308E+02   0.274E+02 0.597E+02 0.356E+02   0.129E+02 -.861E+01 0.162E+01   -.285E-03 -.373E-04 -.622E-03
   -.110E+02 -.125E+02 0.289E+02   0.121E+02 0.618E+01 -.285E+02   -.105E+01 0.816E+01 -.827E+00   -.216E-03 0.149E-03 0.273E-04
   -.818E+02 0.633E+02 -.171E+02   0.779E+02 -.707E+02 0.221E+02   0.747E+01 0.689E+01 -.492E+01   0.149E-03 -.151E-03 0.392E-03
   0.933E+02 -.326E+02 0.287E+02   -.901E+02 0.333E+02 -.164E+02   -.632E+01 -.144E+01 -.174E+02   0.415E-03 -.462E-03 0.713E-03
   -.191E+02 0.108E+02 -.777E+02   0.331E+02 -.129E+02 0.625E+02   -.125E+02 0.364E+01 0.158E+02   -.707E-03 -.285E-03 -.654E-04
   -.109E+03 0.323E+02 -.116E+03   0.107E+03 -.402E+02 0.102E+03   0.684E+01 0.513E+01 0.160E+02   -.256E-03 0.924E-04 0.296E-03
   -.346E+01 0.200E+02 0.491E+01   -.141E+01 -.192E+02 -.155E+02   0.630E+01 -.354E+01 0.111E+02   0.129E-03 0.744E-03 -.999E-04
   0.137E+01 0.366E+02 -.711E+02   -.140E+02 -.319E+02 0.631E+02   0.139E+02 -.559E+01 0.773E+01   -.319E-03 0.402E-03 0.350E-03
   0.378E+02 0.109E+02 0.313E+02   -.334E+02 -.201E+02 -.203E+02   -.481E+01 0.827E+01 -.142E+02   0.605E-03 -.192E-03 0.574E-03
   0.657E+02 -.355E+02 -.246E+02   -.771E+02 0.262E+02 0.280E+02   0.810E+01 0.769E+01 -.239E+01   0.701E-03 -.137E-03 -.561E-05
   -.673E+02 0.463E+02 0.139E+02   0.736E+02 -.449E+02 -.282E+02   -.443E+01 -.794E-01 0.174E+02   0.112E-03 -.474E-03 -.513E-03
   -.108E+03 0.334E+02 -.474E+01   0.965E+02 -.286E+02 0.662E+01   0.175E+02 -.935E+01 -.217E+01   0.162E-03 0.203E-03 0.464E-03
   -.126E+02 0.292E+00 0.445E+02   0.254E+02 -.864E+01 -.373E+02   -.153E+02 0.117E+02 -.115E+02   -.406E-03 0.757E-03 0.199E-03
   -.745E+02 0.483E+02 0.783E+02   0.717E+02 -.431E+02 -.699E+02   0.462E+01 -.799E+01 -.145E+02   0.742E-04 -.253E-03 -.227E-03
   -.941E+02 0.377E+02 0.469E+02   0.109E+03 -.356E+02 -.420E+02   -.132E+02 -.470E+01 -.756E+01   -.298E-03 -.265E-03 0.592E-03
   0.490E+02 -.871E+02 0.110E+03   -.419E+02 0.946E+02 -.118E+03   -.731E+01 -.332E+01 0.576E+01   0.390E-03 -.293E-03 0.663E-03
   -.290E+02 0.174E+02 0.959E+02   0.312E+02 -.177E+02 -.853E+02   0.267E+01 0.194E+01 -.153E+02   -.647E-03 0.380E-03 -.223E-03
   0.353E+02 0.468E+01 0.611E+00   -.372E+02 -.961E+01 0.305E+01   0.395E+01 0.139E+01 -.155E+00   0.567E-04 -.282E-03 -.372E-03
   -.553E+02 0.113E+02 0.513E+02   0.668E+02 -.194E+02 -.485E+02   -.122E+02 0.789E+01 -.715E+01   -.135E-03 0.924E-04 -.100E-04
   0.821E+02 0.482E+01 0.875E+02   -.745E+02 -.512E+00 -.816E+02   -.111E+02 -.497E+01 -.755E+01   -.177E-03 -.372E-03 -.438E-03
   0.650E+02 -.113E+02 0.267E+02   -.767E+02 -.152E+01 -.230E+02   0.906E+01 0.138E+02 -.362E+01   -.126E-03 0.638E-03 0.143E-03
   0.317E+02 0.490E+02 0.215E+02   -.507E+02 -.403E+02 -.299E+02   0.176E+02 -.101E+02 0.554E+01   0.218E-03 -.148E-03 0.761E-03
   -.480E+02 -.495E+02 -.560E+02   0.594E+02 0.615E+02 0.535E+02   -.213E+00 -.140E+01 -.266E+01   0.386E-04 -.646E-03 0.568E-03
   -.777E+02 0.544E+02 -.512E+02   0.742E+02 -.529E+02 0.478E+02   0.647E+01 -.134E+01 0.613E+01   0.985E-04 0.918E-04 -.556E-03
   -.194E+02 -.536E+02 0.923E+01   0.251E+02 0.502E+02 -.218E+02   -.126E+02 0.549E+01 0.559E+01   -.287E-03 0.168E-03 0.366E-03
   -.300E+02 -.194E+01 -.179E+02   0.349E+02 -.547E+01 0.262E+02   -.147E+01 0.598E+01 -.457E+01   0.648E-04 -.934E-04 -.625E-03
   0.106E+03 -.505E+01 -.345E+02   -.103E+03 0.110E+02 0.107E+02   -.522E+01 -.722E+01 0.243E+02   -.934E-04 0.197E-04 0.144E-03
   0.657E+01 0.553E+02 -.133E+01   0.362E+01 -.588E+02 -.503E+01   -.125E+02 -.409E-01 0.760E+01   -.251E-04 -.105E-04 0.141E-03
   0.467E+02 0.162E+02 -.933E+02   -.510E+02 0.535E+00 0.105E+03   -.315E+01 -.141E+02 -.760E+01   0.396E-03 -.706E-04 -.448E-03
   0.575E+02 -.205E+02 -.691E+01   -.386E+02 0.194E+02 0.501E+01   -.191E+02 0.290E+01 0.107E+02   0.468E-03 0.186E-03 -.112E-02
   -.170E+02 0.950E+02 0.295E+02   0.211E+02 -.878E+02 -.248E+02   -.655E+00 -.123E+02 -.313E+01   -.424E-03 0.870E-04 -.447E-03
   -.596E+02 -.174E+01 -.581E+01   0.481E+02 0.103E+02 0.147E+02   0.158E+02 -.951E+01 -.114E+02   0.154E-05 -.869E-04 0.273E-04
   -.218E+02 -.720E+02 -.507E+02   0.152E+02 0.919E+02 0.278E+02   0.124E+02 -.108E+02 0.193E+02   0.431E-03 -.346E-03 0.212E-03
   -.327E+02 0.762E+01 0.134E+03   0.434E+02 -.136E+02 -.132E+03   -.106E+02 0.300E+01 -.914E+01   -.361E-03 0.451E-03 0.979E-04
   -.467E+02 -.237E+02 -.300E+01   0.403E+02 0.197E+02 0.338E+01   0.813E+01 0.510E+01 0.275E+01   0.293E-03 0.262E-03 -.494E-03
 -----------------------------------------------------------------------------------------------
   0.815E+02 0.251E+02 -.669E+02   0.497E-12 0.707E-12 -.853E-12   -.815E+02 -.251E+02 0.669E+02   -.402E-02 0.333E-02 0.281E-02
 
 
 POSITION                                       TOTAL-FORCE (eV/Angst)
 -----------------------------------------------------------------------------------
      0.26728      9.85745      9.92209         0.265254     -4.021949      4.110832
      1.53473      3.56911      0.69545        -0.620790      4.071331      1.728355
      2.58364      4.95466      5.27610         1.832276      1.179403      1.558345
      0.57998      6.03826      3.01565         1.079226     -0.347136     -2.672295
      2.82172      8.26555      1.75357        -0.884256      0.332994      0.293880
      7.56006      2.94010      9.46008        -4.146309      0.632478      4.480922
      8.55968      7.20349      0.68973        -5.156842      4.683191      0.109665
      6.92159      6.56920      6.62162         2.218560     -2.847915     -0.731016
      8.44924      3.92263      4.33277        -1.489852      0.220180     -2.022238
      1.31999      7.16815      7.14245         2.443039     -4.212785      4.835357
      9.62738      8.36940      4.97470        -3.104319      0.205047     -0.080159
      5.93174      1.60277      5.38650         1.966086      0.766134     -0.852817
      5.39270      7.22642      4.43840        -4.679683     -0.025257      0.725960
      9.22139      5.01454      8.75676         0.892747      2.085937     -1.624265
      4.73895      4.17724      7.73849         0.753716      2.208375     -2.558951
      3.78960      9.71977      6.08228         1.669550     -4.212051      1.208196
      8.38363      0.55365      7.39075         2.203656     -1.080005      0.666555
      9.74441      1.42217      2.25507         0.171916      3.307739     -3.103293
      2.92384      1.23474      8.62905        -1.240511     -0.443873      0.644082
      0.37146      2.54343      6.50950        -0.513204      2.608554     -0.861644
      7.30244      9.51971      2.94511        -0.798056     -0.755759     -1.260499
      3.90056      2.43141      3.36150         0.726739      7.948494     -5.693461
      6.42632      4.96003      1.92603        -2.602931     -0.123273     -0.893339
      4.18015      7.25215      7.58525        -3.902146      2.475211     -0.042334
      6.16134      8.65301      8.52084         4.403020      0.078421      2.550580
      3.80883      6.19413     10.06266         1.545115     -2.545900     -2.510397
      1.82660      0.08253      4.37327        -5.904945     -0.438043     -3.273694
      6.52305      9.32120      5.91803         6.381809     -6.590666     -0.861585
      9.38425      7.88643      7.84541       -12.183428     -2.968590     12.918676
      3.86784      9.22427      9.68023        -2.816657     -3.603397     -0.016970
      5.79011      1.39292      8.27110        -6.455040     -6.882183     -1.812171
      3.25439      2.15303      6.17246         0.576485      4.984368      0.458866
      2.19352      7.71239      4.64267         2.464626     -2.730069      2.546130
      2.33224      0.97823      1.23839        -4.013125     -2.497453     -0.081445
      1.82406      4.64945      8.24618         0.917920     -0.870500     -0.931997
      5.20653      1.17945      0.70046         5.344939      1.869756      3.475452
      5.50739      4.35650      4.78805         0.711807      3.440493     -1.984272
      9.17345      4.23761      1.28399        -3.053855      2.089673      2.390430
      0.07741      8.97809      2.51700        -4.673380     -0.149553     -5.431725
      8.84020      0.96966      4.54980         4.217125      1.382519      4.470818
      6.73094      5.78355      9.21084         1.981231     -1.996234     -0.085917
      5.50059      7.81035      1.53676         7.906350     -4.917542      0.189654
      1.01047      9.84915      6.98052        -4.491230      3.741401     -2.043484
      7.62266      3.28181      6.78704         2.429949      4.853680      3.572693
      1.11982      3.29047      3.77965        -5.125022      1.242991     -4.673312
      3.38329      5.59224      2.45507        -5.256046     -2.198120      6.835403
      8.03216      0.32720     10.18888       -11.800364    -18.626599      5.926308
      7.90628      6.56879      3.57950        -4.965944      6.518538      3.827388
      0.02208      1.93336      9.17563        -0.266279      9.710958      1.273276
      9.83243      5.60427      5.78013         0.747730     -1.248096     -1.034137
      4.30335      3.48134     10.24773         4.673974      1.753265      6.902827
      6.79481      2.14981      2.51389        -3.793717      2.174036     -3.565246
      4.40224     10.00968      3.41361        -0.746061      1.218181     -0.196090
      1.07307      6.88845      0.06736         1.222674     -0.297676      3.909799
      5.04936      5.36739      5.89543        -4.198863      3.154652      3.695507
      0.08665      0.50612      5.41154         1.419258     -1.158486      4.587446
      3.84077      4.69503      1.31947         1.656196    -11.874470     -5.925024
      4.37329      6.47420      1.69978         7.188463     11.252461      2.643789
      3.44488      8.68218      3.82750        -2.570992      1.868997      1.989728
      1.39415      8.62188      5.97970         4.687082      6.713085     -6.472003
      8.05792      6.97660      8.84312        -1.779308     -1.885845      0.418690
      4.47519      1.64751      7.30736        -2.985843     -1.129899     -0.906679
      6.64782      3.83358      5.73940        -0.357229     -3.839709      1.148562
      6.93116      0.64536      8.89650         4.579375     -2.580163      1.277013
      6.86733      9.08701      0.56372         0.386677     -0.500996      0.344431
      8.82410      8.20083      2.70509         1.589063     -5.329412      1.120659
      9.19244      6.65235      6.86952         2.386517      1.513326     -1.253702
      7.07625      4.66993      7.94422        -0.148748      1.084389      3.787613
      6.10163      6.51834      0.16853         2.080328      3.022583      6.809725
      8.76232      9.26502      8.87108         0.046844      0.225735      2.409660
      5.62936      2.88856      1.49007        -1.579371     -0.514928     -0.604355
      4.55215      3.18500      5.72271        -4.398409     -2.054809     -3.793016
     10.04185      6.04548      0.68357         1.392161     -7.554953      2.324877
      6.32465      2.63109      7.71631         5.783932      4.241546     -6.028821
      1.36781      9.58269      8.44093         6.136912     -4.515192     -3.378210
      7.69104      8.53854      6.92021        -0.746373      1.968344      5.702408
      1.00676      8.14866      3.52434         1.552465      2.017820     -0.132565
      1.51714      2.16982      2.42216         1.161961     -3.635077     -0.669485
      0.17130      7.41521      9.18071        -2.726540      1.740998     -7.408281
      6.65730      7.19127      2.72914        -1.931802      0.941390     -3.925808
      3.67485      1.83720      0.77318        -0.801703      4.727207     -1.966351
      8.80385     10.07028      1.37581         2.206706      0.156647     -2.342054
      2.93289      5.77712      7.33424        -3.870495     -6.905107      4.402894
      8.06061      2.85460      1.95291         4.629306      6.186906     -0.669127
      0.41045      1.06119      7.96489        -0.991434      0.521017     -2.671802
      0.95268      6.56142      5.06813         1.012668      0.317031      4.034657
      3.35224      0.46005      2.28770         2.007712     -3.481619      2.074776
      8.39280      5.42186      2.76711        -0.435269     -6.302899    -10.471426
      7.92134      4.79274      0.23742        -2.283404      2.598206      0.905074
      2.66454     10.08048     10.16594        -0.999935      0.106766      4.700625
      5.38380      9.61973      4.70040         2.144777      3.104293     -1.773724
      5.30243      4.65065      9.70999         1.632126     -3.344921      0.375402
      1.30987      9.88745      1.88015        -0.219845      5.010547      1.038202
      5.86561      0.06988      6.92751         1.243765      3.345405      1.543737
      5.41062      2.20988      9.62055        -3.397069      2.820031      0.769264
      2.15501      6.18720      1.55325        -3.473274      2.412911     -1.422772
      1.42343      1.59743     10.12850        -3.101755      0.985175      1.558966
     10.22696      4.10491      2.55799        -1.023749     -3.650901     -4.214023
      5.12187      9.08275      2.38696         0.274706     -2.747824     -0.913932
      8.08866     10.18294      5.51993        -3.417831      0.933730     -3.344788
      3.47786      0.94530      4.32841         5.952521     -2.149534      6.398107
      5.56270      0.89364      2.64070         0.133194      1.837698     -0.485827
      0.50578      5.02035      7.06724         3.495577     -0.488068      0.104007
      2.78116      3.18213      7.57929        -3.165530     -0.691713     -5.036822
      4.91882      0.12580      9.80449         1.598646      1.515085      0.573357
      9.38643      3.27655      0.01762         5.351133     -2.826456      2.322244
      0.29630      8.22669      1.03025         1.427362     -2.779928      0.509797
      5.62806      6.46680      8.32653         1.289048     -0.929254     -0.221792
      1.62688      5.51253      9.67054        -0.387626     -0.888883     -3.171255
      2.35395      0.87709      6.47330        -3.321009     -1.700852      1.027046
      2.20389      4.19134      2.86028         1.865811      1.361119      3.106270
      0.49327      3.65195      8.75251         5.787729     -4.628822     -0.287678
      3.25899      7.31671      5.91082        -2.451493      3.336302     -4.224655
      9.94471      2.43187      4.45685         1.788400     -2.758520     -6.077158
      8.79622      2.93621      7.97780         1.630606     -2.604646     -2.666541
      2.50817      7.65842      9.94845        -0.214831      4.256180     -2.141794
      6.70080      5.63225      4.59657         4.889142      1.681693     -4.695749
      7.67310      1.37097      3.50866         2.050565     -3.538442      3.509459
      2.87459      6.48219      3.87078        -0.738199     -0.228237     -4.360626
      6.40720      3.25759      3.73399        -3.516569     -0.668134     -1.687235
      5.53959      8.11082      6.38563        -2.674651      0.949743      0.090011
      3.03738      3.92863      9.53107        -1.279441     -1.388684     -2.811290
      9.09500      1.07511      9.74864        11.149701     10.610725     -5.253342
      0.23786      4.47610      4.65474         2.981387      0.071937      2.803132
      4.79083      8.25796      0.30178        -6.841842      2.070619     -6.994145
      2.06437      2.74568      4.90619         3.472831     -1.429017      3.797285
      4.05995      9.36467      8.10836        -2.344775     -1.288176      0.514680
      8.40610      2.28387      5.76324        -2.293766     -3.473939      1.241068
      7.17609      1.29853      0.72876        -7.490513      2.688878      4.557370
      9.28445      6.33666      4.24060        -0.298300      1.853027      8.777061
      4.48560      5.16662      3.60480         3.355690     -5.122341      1.555128
      8.45595      4.76004      6.34935         4.318282     -0.952734     -2.589443
      9.84974      8.86442      6.91774         5.756085      9.054411     -3.489282
      7.38792      8.11732      5.02002         0.165487     -3.013307     -7.903016
      9.49136     10.08335      3.45068         1.736061      1.145558      3.124177
 -----------------------------------------------------------------------------------
    total drift:                                0.038402     -0.004131     -0.011279


--------------------------------------------------------------------------------------------------------



  FREE ENERGIE OF THE ION-ELECTRON SYSTEM (eV)
  ---------------------------------------------------
  free  energy   TOTEN  =      -850.15400131 eV

  energy  without entropy=     -850.15400131  energy(sigma->0) =     -850.15400131
 


--------------------------------------------------------------------------------------------------------


    POTLOK:  cpu time    0.3905: real time    0.3909


--------------------------------------------------------------------------------------------------------


     LOOP+:  cpu time 1002.1754: real time 1002.5905
    4ORBIT:  cpu time    0.0000: real time    0.0000

 total amount of memory used by VASP MPI-rank0   162305. kBytes
=======================================================================

   base      :      30000. kBytes
   nonlr-proj:      22099. kBytes
   fftplans  :      15848. kBytes
   grid      :       9274. kBytes
   one-center:        171. kBytes
   wavefun   :      84913. kBytes
 
  
  
 General timing and accounting informations for this job:
 ========================================================
  
                  Total CPU time used (sec):     1025.979
                            User time (sec):     1020.824
                          System time (sec):        5.155
                         Elapsed time (sec):     1026.623
  
                   Maximum memory used (kb):      283608.
                   Average memory used (kb):           0.
  
                          Minor page faults:       207591
                          Major page faults:            0
                 Voluntary context switches:         1790
