   80   80    1    1
  0.5728286E+02  0.1379399E-08  0.1379399E-08  0.2781022E-08  0.1000000E-14
  1.000000000000000E-004
  CAR 
 unknown system                          
    640      5    384
