 vasp.5.4.4.18Apr17-6-g9f103f2a35 (build Oct 31 2019 15:01:46) complex          
  
 executed on             LinuxIFC date 2024.04.29  21:41:19
 running on   52 total cores
 distrk:  each k-point on   52 cores,    1 groups
 distr:  one band on NCORES_PER_BAND=  13 cores,    4 groups


--------------------------------------------------------------------------------------------------------


 INCAR:
 POTCAR:    PAW_PBE Ca_sv 06Sep2000               
 POTCAR:    PAW_PBE Si 05Jan2001                  
 POTCAR:    PAW_PBE O 08Apr2002                   
 POTCAR:    PAW_PBE Ca_sv 06Sep2000               
   SHA256 =  a47365830e737f14e0e6c5cf1ed81b94e081eecf0a33df105380881bc9da05d5 Ca
   COPYR  = (c) Copyright 06Sep2000 Georg Kresse                                
   COPYR  = This file is part of the software VASP. Any use, copying, and all ot
   COPYR  = If you do not have a valid VASP license, you may not use, copy or di
   VRHFIN =Ca: 3s3p4s                                                           
   LEXCH  = PE                                                                  
   EATOM  =  1006.0909 eV,   73.9456 Ry                                         
                                                                                
   TITEL  = PAW_PBE Ca_sv 06Sep2000                                             
   LULTRA =        F    use ultrasoft PP ?                                      
   IUNSCR =        1    unscreen: 0-lin 1-nonlin 2-no                           
   RPACOR =    2.000    partial core radius                                     
   POMASS =   40.078; ZVAL   =   10.000    mass and valenz                      
   RCORE  =    2.300    outmost cutoff radius                                   
   RWIGS  =    2.500; RWIGS  =    1.323    wigner-seitz radius (au A)           
   ENMAX  =  266.622; ENMIN  =  199.967 eV                                      
   RCLOC  =    1.808    cutoff for local pot                                    
   LCOR   =        T    correct aug charges                                     
   LPAW   =        T    paw PP                                                  
   EAUG   =  420.852                                                            
   RMAX   =    2.359    core radius for proj-oper                               
   RAUG   =    1.300    factor for augmentation sphere                          
   RDEP   =    2.392    radius for radial grids                                 
   RDEPT  =    1.987    core radius for aug-charge                              
                                                                                
   Atomic configuration                                                         
    7 entries                                                                   
     n  l   j            E        occ.                                          
     1  0  0.50     -3949.1705   2.0000                                         
     2  0  0.50      -414.3434   2.0000                                         
     2  1  1.50      -334.7047   6.0000                                         
     3  0  0.50       -47.0896   2.0000                                         
     4  0  0.50        -3.7663   2.0000                                         
     3  1  1.50       -28.0061   6.0000                                         
     3  2  1.50        -4.0817   0.0000                                         
   Description                                                                  
     l       E           TYP  RCUT    TYP  RCUT                                 
     0    -47.0896403     23  2.300                                             
     0     -3.7663320     23  2.300                                             
     1    -28.0060855     23  2.300                                             
     1      6.8029130     23  2.300                                             
     2     -4.0817478     23  2.300                                             
     2      0.4464412     23  2.300                                             
  local pseudopotential read in
  partial core-charges read in
  partial kinetic energy density read in
  atomic valenz-charges read in
  non local Contribution for L=           0  read in
    real space projection operators read in
  non local Contribution for L=           0  read in
    real space projection operators read in
  non local Contribution for L=           1  read in
    real space projection operators read in
  non local Contribution for L=           1  read in
    real space projection operators read in
  non local Contribution for L=           2  read in
    real space projection operators read in
  non local Contribution for L=           2  read in
    real space projection operators read in
    PAW grid and wavefunctions read in
 
   number of l-projection  operators is LMAX  =           6
   number of lm-projection operators is LMMAX =          18
 
 POTCAR:    PAW_PBE Si 05Jan2001                  
   SHA256 =  79d9987ad8750f624c4d6acb2a16d13abf6a777132adc04dc6c8399be72b42bb Si
   COPYR  = (c) Copyright 05Jan2001 Georg Kresse                                
   COPYR  = This file is part of the software VASP. Any use, copying, and all ot
   COPYR  = If you do not have a valid VASP license, you may not use, copy or di
   VRHFIN =Si: s2p2                                                             
   LEXCH  = PE                                                                  
   EATOM  =   103.0669 eV,    7.5752 Ry                                         
                                                                                
   TITEL  = PAW_PBE Si 05Jan2001                                                
   LULTRA =        F    use ultrasoft PP ?                                      
   IUNSCR =        1    unscreen: 0-lin 1-nonlin 2-no                           
   RPACOR =    1.500    partial core radius                                     
   POMASS =   28.085; ZVAL   =    4.000    mass and valenz                      
   RCORE  =    1.900    outmost cutoff radius                                   
   RWIGS  =    2.480; RWIGS  =    1.312    wigner-seitz radius (au A)           
   ENMAX  =  245.345; ENMIN  =  184.009 eV                                      
   ICORE  =        2    local potential                                         
   LCOR   =        T    correct aug charges                                     
   LPAW   =        T    paw PP                                                  
   EAUG   =  322.069                                                            
   DEXC   =    0.000                                                            
   RMAX   =    1.950    core radius for proj-oper                               
   RAUG   =    1.300    factor for augmentation sphere                          
   RDEP   =    1.993    radius for radial grids                                 
   RDEPT  =    1.837    core radius for aug-charge                              
                                                                                
   Atomic configuration                                                         
    6 entries                                                                   
     n  l   j            E        occ.                                          
     1  0  0.50     -1785.8828   2.0000                                         
     2  0  0.50      -139.4969   2.0000                                         
     2  1  1.50       -95.5546   6.0000                                         
     3  0  0.50       -10.8127   2.0000                                         
     3  1  0.50        -4.0811   2.0000                                         
     3  2  1.50        -4.0817   0.0000                                         
   Description                                                                  
     l       E           TYP  RCUT    TYP  RCUT                                 
     0    -10.8127223     23  1.900                                             
     0     -7.6451159     23  1.900                                             
     1     -4.0811372     23  1.900                                             
     1      2.4879257     23  1.900                                             
     2     -4.0817478      7  1.900                                             
  local pseudopotential read in
  partial core-charges read in
  partial kinetic energy density read in
  atomic valenz-charges read in
  non local Contribution for L=           0  read in
    real space projection operators read in
  non local Contribution for L=           0  read in
    real space projection operators read in
  non local Contribution for L=           1  read in
    real space projection operators read in
  non local Contribution for L=           1  read in
    real space projection operators read in
    PAW grid and wavefunctions read in
 
   number of l-projection  operators is LMAX  =           4
   number of lm-projection operators is LMMAX =           8
 
 POTCAR:    PAW_PBE O 08Apr2002                   
   SHA256 =  818f92134a0a090dccd8ba1447fa70422a3b330e708bb4f08108d8ae51209ddf O/
   COPYR  = (c) Copyright 08Apr2002 Georg Kresse                                
   COPYR  = This file is part of the software VASP. Any use, copying, and all ot
   COPYR  = If you do not have a valid VASP license, you may not use, copy or di
   VRHFIN =O: s2p4                                                              
   LEXCH  = PE                                                                  
   EATOM  =   432.3788 eV,   31.7789 Ry                                         
                                                                                
   TITEL  = PAW_PBE O 08Apr2002                                                 
   LULTRA =        F    use ultrasoft PP ?                                      
   IUNSCR =        1    unscreen: 0-lin 1-nonlin 2-no                           
   RPACOR =    1.200    partial core radius                                     
   POMASS =   16.000; ZVAL   =    6.000    mass and valenz                      
   RCORE  =    1.520    outmost cutoff radius                                   
   RWIGS  =    1.550; RWIGS  =    0.820    wigner-seitz radius (au A)           
   ENMAX  =  400.000; ENMIN  =  300.000 eV                                      
   ICORE  =        2    local potential                                         
   LCOR   =        T    correct aug charges                                     
   LPAW   =        T    paw PP                                                  
   EAUG   =  605.392                                                            
   DEXC   =    0.000                                                            
   RMAX   =    1.553    core radius for proj-oper                               
   RAUG   =    1.300    factor for augmentation sphere                          
   RDEP   =    1.550    radius for radial grids                                 
   RDEPT  =    1.329    core radius for aug-charge                              
                                                                                
   Atomic configuration                                                         
    4 entries                                                                   
     n  l   j            E        occ.                                          
     1  0  0.50      -514.6923   2.0000                                         
     2  0  0.50       -23.9615   2.0000                                         
     2  1  0.50        -9.0305   4.0000                                         
     3  2  1.50        -9.5241   0.0000                                         
   Description                                                                  
     l       E           TYP  RCUT    TYP  RCUT                                 
     0    -23.9615318     23  1.200                                             
     0     -9.5240782     23  1.200                                             
     1     -9.0304911     23  1.520                                             
     1      8.1634956     23  1.520                                             
     2     -9.5240782      7  1.500                                             
  local pseudopotential read in
  partial core-charges read in
  partial kinetic energy density read in
  kinetic energy density of atom read in
  atomic valenz-charges read in
  non local Contribution for L=           0  read in
    real space projection operators read in
  non local Contribution for L=           0  read in
    real space projection operators read in
  non local Contribution for L=           1  read in
    real space projection operators read in
  non local Contribution for L=           1  read in
    real space projection operators read in
    PAW grid and wavefunctions read in
 
   number of l-projection  operators is LMAX  =           4
   number of lm-projection operators is LMMAX =           8
 
 Optimization of the real space projectors (new method)

 maximal supplied QI-value         = 16.25
 optimisation between [QCUT,QGAM] = [ 12.51, 25.03] = [ 43.85,175.40] Ry 
 Optimized for a Real-space Cutoff    1.47 Angstroem

   l    n(q)    QCUT    max X(q) W(low)/X(q) W(high)/X(q)  e(spline) 
   0     11    12.514    11.817    0.25E-04    0.32E-05    0.87E-07
   0     11    12.514     8.461    0.39E-04    0.59E-05    0.18E-06
   1     11    12.514     3.957    0.97E-05    0.57E-05    0.28E-07
   1     11    12.514     4.314    0.42E-04    0.14E-04    0.23E-06
   2     10    12.514    14.565    0.79E-04    0.50E-03    0.16E-05
   2     10    12.514    14.552    0.75E-04    0.48E-03    0.15E-05
 Optimization of the real space projectors (new method)

 maximal supplied QI-value         = 19.84
 optimisation between [QCUT,QGAM] = [ 12.50, 25.00] = [ 43.76,175.03] Ry 
 Optimized for a Real-space Cutoff    1.16 Angstroem

   l    n(q)    QCUT    max X(q) W(low)/X(q) W(high)/X(q)  e(spline) 
   0      9    12.501   159.560    0.10E-03    0.83E-04    0.71E-07
   0      9    12.501   115.863    0.99E-04    0.81E-04    0.70E-07
   1      8    12.501    88.339    0.20E-03    0.25E-03    0.76E-07
   1      8    12.501    48.592    0.20E-03    0.24E-03    0.75E-07
 Optimization of the real space projectors (new method)

 maximal supplied QI-value         = 24.76
 optimisation between [QCUT,QGAM] = [ 12.38, 25.00] = [ 42.90,175.06] Ry 
 Optimized for a Real-space Cutoff    1.16 Angstroem

   l    n(q)    QCUT    max X(q) W(low)/X(q) W(high)/X(q)  e(spline) 
   0      9    12.378    20.381    0.16E-03    0.67E-05    0.31E-06
   0      9    12.378    15.268    0.17E-03    0.81E-05    0.33E-06
   1      8    12.378     5.964    0.20E-03    0.16E-03    0.30E-06
   1      8    12.378     5.382    0.18E-03    0.14E-03    0.26E-06
  PAW_PBE Ca_sv 06Sep2000               :
 energy of atom  1       EATOM=-1006.0909
 kinetic energy error for atom=    0.0012 (will be added to EATOM!!)
  PAW_PBE Si 05Jan2001                  :
 energy of atom  2       EATOM= -103.0669
 kinetic energy error for atom=    0.0003 (will be added to EATOM!!)
  PAW_PBE O 08Apr2002                   :
 energy of atom  3       EATOM= -432.3788
 kinetic energy error for atom=    0.0168 (will be added to EATOM!!)
 
 
 POSCAR: Ca Si  O                                
  positions in direct lattice
  No initial velocities read in
 exchange correlation table for  LEXCH =        8
   RHO(1)=    0.500       N(1)  =     2000
   RHO(2)=  100.500       N(2)  =     4000
 


--------------------------------------------------------------------------------------------------------


 ion  position               nearest neighbor table
   1  0.207  0.510  0.233- 104 1.89 107 2.15 131 2.27  57 2.54   3 2.89
   2  0.492  0.138  0.728- 117 1.83  59 2.32  46 2.84  32 3.05
   3  0.022  0.619  0.148- 104 1.98  63 2.26  72 2.53  48 2.84   1 2.89
   4  0.779  0.487  0.404- 121 2.09  61 2.29  66 2.30
   5  0.033  0.266  0.047- 123 1.96  57 2.22 126 2.51  62 2.52  31 2.90  50 3.15
   6  0.263  0.319  0.594- 129 1.96 112 2.41  37 2.83  47 3.01
   7  0.588  0.212  0.973- 128 2.19  89 2.37  34 2.89  29 2.91
   8  0.769  0.771  0.859- 127 2.00 122 2.02  52 2.83  42 3.02
   9  0.757  0.493  0.062- 121 2.31  73 2.36  56 2.55  44 2.69  12 3.01
  10  0.979  0.167  0.298- 113 2.37  99 2.38  77 2.39  31 2.73  37 3.04
  11  0.128  0.845  0.018-  96 2.09 118 2.14 133 2.55  51 3.02  45 3.04
  12  0.644  0.690  0.141-  94 2.11  88 2.50  68 2.55   9 3.01  18 3.09
  13  0.192  0.917  0.418-  84 2.14  99 2.24 132 2.25  79 2.41 135 2.44  53 3.16
  14  0.350  0.026  0.081- 133 1.98 116 2.46  53 2.68  54 2.90
  15  0.934  0.529  0.832-  73 2.14  97 2.47  36 3.00
  16  0.468  0.855  0.932- 134 2.20  65 2.25 122 2.33  69 2.47  45 3.02  34 3.09  30 3.11
  17  0.020  0.369  0.456- 129 2.12 100 2.23 113 2.37 124 2.39  43 3.00  37 3.05
  18  0.472  0.689  0.318-  88 1.89  92 2.04  87 2.33 107 2.54  54 2.93  12 3.09
  19  0.044  0.059  0.690-  83 2.03  98 2.23 106 2.32  93 2.53 110 2.56  39 2.81  49 2.84  27 3.02
                            25 3.16
  20  0.729  0.947  0.309-  86 1.97  87 2.34  40 2.82
  21  0.449  0.265  0.334-  75 2.15 101 2.23  64 2.25  95 2.38  28 3.11
  22  0.749  0.217  0.413-  77 1.99 101 2.28  66 2.43  33 2.49  39 2.99
  23  0.572  0.472  0.720-  58 2.26 103 2.42  97 2.45  36 2.67  38 2.90  41 3.15
  24  0.430  0.809  0.638-  76 2.26  65 2.38  38 3.11
  25  0.042  0.816  0.620- 105 2.12  71 2.19  93 2.30  74 2.46  19 3.16
  26  0.161  0.668  0.823-  71 2.04 102 2.26  63 2.29 118 2.53  50 3.11
  27  0.007  0.291  0.746- 100 2.15 106 2.40  82 2.40 123 2.43  19 3.02
  28  0.452  0.055  0.466-  80 1.77 135 1.97 130 2.14 101 2.31  21 3.11  54 3.13
  29  0.429  0.347  0.076-  95 1.56  89 1.66 120 1.72  56 2.01   7 2.91  44 3.12
  30  0.454  0.607  0.949- 108 1.46  68 1.60  69 1.76 102 2.27  51 2.59  41 2.87  16 3.11
  31  0.830  0.240  0.157- 126 1.57  78 1.69  77 1.73 119 2.21  10 2.73   5 2.90
  32  0.732  0.177  0.738-  90 1.62  59 1.71  82 1.74 110 1.86 103 2.00  36 2.63  46 2.73   2 3.05
                            49 3.11
  33  0.616  0.294  0.540-  58 1.50  66 1.62 101 1.82  90 1.90  22 2.49
  34  0.653  0.995  0.014- 128 1.51 111 1.52 134 1.63  60 1.93   7 2.89  52 3.04  16 3.09
  35  0.261  0.668  0.465-  84 1.54 107 1.71  92 2.34 105 2.35 124 2.53  48 3.06  43 3.12
  36  0.751  0.380  0.790-  82 1.53  97 1.57 103 1.61  73 1.68  32 2.63  23 2.67  15 3.00
  37  0.186  0.194  0.423- 129 1.66  99 1.76  64 1.80 113 2.16  53 2.74   6 2.83  10 3.04  17 3.05

  38  0.570  0.625  0.546-  61 1.65  76 1.68  92 1.83  23 2.90  24 3.11
  39  0.880  0.061  0.537- 109 1.60  93 1.68  85 1.71 110 2.55  19 2.81  42 2.91  22 2.99
  40  0.930  0.847  0.288-  86 1.63 132 1.64  72 1.68  55 1.74  20 2.82  52 3.05  48 3.12
  41  0.348  0.442  0.831- 112 1.57 108 1.61  81 1.69 120 1.85  91 1.95  30 2.87  47 3.02  50 3.11
                            23 3.15
  42  0.792  0.873  0.642-  74 1.67 125 1.69  67 1.77  85 2.19  46 2.43  39 2.91   8 3.02
  43  0.079  0.556  0.593- 124 1.64  71 1.66  70 1.78 100 2.17 105 2.48  48 2.99  17 3.00  35 3.12

  44  0.612  0.446  0.213-  75 1.57 121 1.75  56 1.82  88 1.87   9 2.69  29 3.12
  45  0.261  0.932  0.835-  65 1.47 133 1.57 118 1.63  98 2.18 114 2.39  16 3.02  11 3.04
  46  0.650  0.006  0.633-  85 1.54 125 1.77 117 1.84  59 1.88  90 2.21  42 2.43  32 2.73   2 2.84

  47  0.261  0.218  0.813- 106 1.58  91 1.61 114 1.64   6 3.01  41 3.02
  48  0.036  0.639  0.374- 104 1.53  70 1.69  72 1.73 105 1.84   3 2.84  43 2.99  35 3.06  40 3.12

  49  0.884  0.010  0.842-  67 1.59  83 1.62 110 1.68  60 1.76  19 2.84  32 3.11
  50  0.154  0.476  0.980- 131 1.69  57 1.70  81 1.72 123 2.12  63 2.13  41 3.11  26 3.11   5 3.15

  51  0.298  0.680  0.062- 102 1.57  96 1.70  69 1.73 131 1.78  30 2.59  11 3.02
  52  0.835  0.842  0.063- 127 1.55  94 1.55  55 1.78 111 1.86   8 2.83  34 3.04  40 3.05
  53  0.213  0.087  0.234-  62 1.57  79 1.73  64 1.91  99 1.95  14 2.68  37 2.74  13 3.16
  54  0.445  0.914  0.260- 115 1.67 116 1.77 135 1.88  87 1.95  14 2.90  18 2.93  28 3.13
  55  0.899  0.912  0.169-  40 1.74  52 1.78
  56  0.562  0.436  0.077-  44 1.82  29 2.01   9 2.55
  57  0.091  0.427  0.090-  50 1.70   5 2.22   1 2.54
  58  0.534  0.374  0.574-  33 1.50  23 2.26
  59  0.658  0.067  0.770-  32 1.71  46 1.88   2 2.32
  60  0.763  0.980  0.908-  49 1.76  34 1.93
  61  0.658  0.617  0.449-  38 1.65   4 2.29
  62  0.135  0.120  0.141-  53 1.57   5 2.52
  63  0.068  0.623  0.974-  50 2.13   3 2.26  26 2.29
  64  0.289  0.185  0.322-  37 1.80  53 1.91  21 2.25
  65  0.365  0.900  0.791-  45 1.47  16 2.25  24 2.38
  66  0.722  0.368  0.532-  33 1.62   4 2.30  22 2.43
  67  0.867  0.927  0.749-  49 1.59  42 1.77
  68  0.580  0.602  0.968-  30 1.60  12 2.55
  69  0.434  0.701  0.051-  51 1.73  30 1.76  16 2.47
  70  0.991  0.572  0.482-  48 1.69  43 1.78
  71  0.093  0.659  0.676-  43 1.66  26 2.04  25 2.19
  72  0.942  0.715  0.307-  40 1.68  48 1.73   3 2.53
  73  0.818  0.421  0.899-  36 1.68  15 2.14   9 2.36
  74  0.855  0.770  0.585-  42 1.67  25 2.46
  75  0.588  0.331  0.257-  44 1.57  21 2.15
  76  0.544  0.672  0.669-  38 1.68  24 2.26
  77  0.790  0.168  0.268-  31 1.73  22 1.99  10 2.39
  78  0.776  0.284  0.041-  31 1.69
  79  0.228  0.950  0.233-  53 1.73  13 2.41
  80  0.570  0.981  0.446-  28 1.77
  81  0.218  0.460  0.860-  41 1.69  50 1.72
  82  0.818  0.278  0.778-  36 1.53  32 1.74  27 2.40
  83  0.997  0.074  0.845-  49 1.62  19 2.03
  84  0.290  0.787  0.472-  35 1.54  13 2.14
  85  0.752  0.026  0.567-  46 1.54  39 1.71  42 2.19
  86  0.866  0.915  0.379-  40 1.63  20 1.97
  87  0.578  0.839  0.290-  54 1.95  18 2.33  20 2.34
  88  0.547  0.569  0.267-  44 1.87  18 1.89  12 2.50
  89  0.446  0.217  0.096-  29 1.66   7 2.37
  90  0.672  0.180  0.624-  32 1.62  33 1.90  46 2.21
  91  0.368  0.289  0.807-  47 1.61  41 1.95
  92  0.446  0.639  0.471-  38 1.83  18 2.04  35 2.34
  93  0.966  0.958  0.532-  39 1.68  25 2.30  19 2.53
  94  0.792  0.726  0.072-  52 1.55  12 2.11
  95  0.402  0.383  0.192-  29 1.56  21 2.38
  96  0.205  0.751  0.132-  51 1.70  11 2.09
  97  0.767  0.492  0.735-  36 1.57  23 2.45  15 2.47
  98  0.193  0.962  0.678-  45 2.18  19 2.23
  99  0.132  0.077  0.366-  37 1.76  53 1.95  13 2.24  10 2.38
 100  0.988  0.412  0.627-  27 2.15  43 2.17  17 2.23
 101  0.571  0.194  0.444-  33 1.82  21 2.23  22 2.28  28 2.31
 102  0.297  0.697  0.938-  51 1.57  26 2.26  30 2.27
 103  0.647  0.305  0.782-  36 1.61  32 2.00  23 2.42
 104  0.076  0.563  0.286-  48 1.53   1 1.89   3 1.98
 105  0.082  0.722  0.485-  48 1.84  25 2.12  35 2.35  43 2.48
 106  0.169  0.189  0.731-  47 1.58  19 2.32  27 2.40
 107  0.293  0.598  0.352-  35 1.71   1 2.15  18 2.54
 108  0.408  0.552  0.857-  30 1.46  41 1.61
 109  0.920  0.182  0.537-  39 1.60
 110  0.847  0.084  0.737-  49 1.68  32 1.86  39 2.55  19 2.56
 111  0.708  0.914  0.086-  34 1.52  52 1.86
 112  0.357  0.444  0.706-  41 1.57   6 2.41
 113  0.114  0.300  0.307-  37 2.16  17 2.37  10 2.37
 114  0.286  0.114  0.889-  47 1.64  45 2.39
 115  0.422  0.844  0.150-  54 1.67
 116  0.482  0.046  0.226-  54 1.77  14 2.46
 117  0.511  0.002  0.680-   2 1.83  46 1.84
 118  0.149  0.868  0.850-  45 1.63  11 2.14  26 2.53
 119  0.941  0.363  0.219-  31 2.21
 120  0.361  0.408  0.974-  29 1.72  41 1.85
 121  0.733  0.507  0.245-  44 1.75   4 2.09   9 2.31
 122  0.608  0.765  0.850-   8 2.02  16 2.33
 123  0.088  0.333  0.917-   5 1.96  50 2.12  27 2.43
 124  0.150  0.502  0.498-  43 1.64  17 2.39  35 2.53
 125  0.658  0.866  0.653-  42 1.69  46 1.77
 126  0.891  0.140  0.113-  31 1.57   5 2.51
 127  0.887  0.824  0.953-  52 1.55   8 2.00
 128  0.681  0.099  0.068-  34 1.51   7 2.19
 129  0.134  0.264  0.523-  37 1.66   6 1.96  17 2.12
 130  0.314  0.103  0.556-  28 2.14
 131  0.225  0.558  0.060-  50 1.69  51 1.78   1 2.27
 132  0.056  0.874  0.310-  40 1.64  13 2.25
 133  0.288  0.953  0.955-  45 1.57  14 1.98  11 2.55
 134  0.529  0.012  0.980-  34 1.63  16 2.20
 135  0.386  0.930  0.398-  54 1.88  28 1.97  13 2.44
 

IMPORTANT INFORMATION: All symmetrisations will be switched off!
NOSYMM: (Re-)initialisation of all symmetry stuff for point group C_1.

 
 

Automatic generation of k-mesh.
 generate k-points for:    2    2    2
Space group operators:
 irot       det(A)        alpha          n_x          n_y          n_z        tau_x        tau_y        tau_z
    1     1.000000     0.000001     1.000000     0.000000     0.000000     0.000000     0.000000     0.000000
 
 Subroutine IBZKPT returns following result:
 ===========================================
 
 Found      8 irreducible k-points:
 
 Following reciprocal coordinates:
            Coordinates               Weight
  0.000000  0.000000  0.000000      1.000000
  0.500000  0.000000  0.000000      1.000000
  0.000000  0.500000  0.000000      1.000000
  0.500000  0.500000  0.000000      1.000000
  0.000000  0.000000  0.500000      1.000000
  0.500000  0.000000  0.500000      1.000000
  0.000000  0.500000  0.500000      1.000000
  0.500000  0.500000  0.500000      1.000000
 
 Following cartesian coordinates:
            Coordinates               Weight
  0.000000  0.000000  0.000000      1.000000
  0.039917  0.000000  0.000000      1.000000
  0.000000  0.039917  0.000000      1.000000
  0.039917  0.039917  0.000000      1.000000
  0.000000  0.000000  0.039917      1.000000
  0.039917  0.000000  0.039917      1.000000
  0.000000  0.039917  0.039917      1.000000
  0.039917  0.039917  0.039917      1.000000
 


--------------------------------------------------------------------------------------------------------




 Dimension of arrays:
   k-points           NKPTS =      8   k-points in BZ     NKDIM =      8   number of bands    NBANDS=    520
   number of dos      NEDOS =    301   number of ions     NIONS =    135
   non local maximal  LDIM  =      6   non local SUM 2l+1 LMDIM =     18
   total plane-waves  NPLWV = ******
   max r-space proj   IRMAX =   6830   max aug-charges    IRDMAX= 194386
   dimension x,y,z NGX =   100 NGY =  100 NGZ =  100
   dimension x,y,z NGXF=   200 NGYF=  200 NGZF=  200
   support grid    NGXF=   400 NGYF=  400 NGZF=  400
   ions per type =              27  27  81
   NGX,Y,Z   is equivalent  to a cutoff of  13.27, 13.27, 13.27 a.u.
   NGXF,Y,Z  is equivalent  to a cutoff of  26.54, 26.54, 26.54 a.u.

 SYSTEM =  unknown system                          
 POSCAR =  Ca Si  O                                

 Startparameter for this run:
   NWRITE =      2    write-flag & timer
   PREC   = a         normal or accurate (medium, high low for compatibility)
   ISTART =      0    job   : 0-new  1-cont  2-samecut
   ICHARG =      2    charge: 1-file 2-atom 10-const
   ISPIN  =      1    spin polarized calculation?
   LNONCOLLINEAR =      F non collinear calculations
   LSORBIT =      F    spin-orbit coupling
   INIWAV =      1    electr: 0-lowe 1-rand  2-diag
   LASPH  =      F    aspherical Exc in radial PAW
   METAGGA=      F    non-selfconsistent MetaGGA calc.

 Electronic Relaxation 1
   ENCUT  =  600.0 eV  44.10 Ry    6.64 a.u.  25.02 25.02 25.02*2*pi/ulx,y,z
   ENINI  =  600.0     initial cutoff
   ENAUG  =  605.4 eV  augmentation charge cutoff
   NELM   =     60;   NELMIN=  2; NELMDL= -5     # of ELM steps 
   EDIFF  = 0.1E-05   stopping-criterion for ELM
   LREAL  =      T    real-space projection
   NLSPLINE    = F    spline interpolate recip. space projectors
   LCOMPAT=      F    compatible to vasp.4.4
   GGA_COMPAT  = T    GGA compatible to vasp.4.4-vasp.4.6
   LMAXPAW     = -100 max onsite density
   LMAXMIX     =    2 max onsite mixed and CHGCAR
   VOSKOWN=      0    Vosko Wilk Nusair interpolation
   ROPT   =   -0.00025  -0.00025  -0.00025
 Ionic relaxation
   EDIFFG = -.1E-01   stopping-criterion for IOM
   NSW    =      1    number of steps for IOM
   NBLOCK =      1;   KBLOCK =      1    inner block; outer block 
   IBRION =     -1    ionic relax: 0-MD 1-quasi-New 2-CG
   NFREE  =      0    steps in history (QN), initial steepest desc. (CG)
   ISIF   =      2    stress and relaxation
   IWAVPR =     10    prediction:  0-non 1-charg 2-wave 3-comb
   ISYM   =      0    0-nonsym 1-usesym 2-fastsym
   LCORR  =      T    Harris-Foulkes like correction to forces

   POTIM  = 1.0000    time-step for ionic-motion
   TEIN   =    0.0    initial temperature
   TEBEG  =    0.0;   TEEND  =   0.0 temperature during run
   SMASS  =  -3.00    Nose mass-parameter (am)
   estimated Nose-frequenzy (Omega)   =  0.10E-29 period in steps =****** mass=  -0.359E-26a.u.
   SCALEE = 1.0000    scale energy and forces
   NPACO  =    256;   APACO  = 16.0  distance and # of slots for P.C.
   PSTRESS=    0.0 pullay stress

  Mass of Ions in am
   POMASS =  40.08 28.09 16.00
  Ionic Valenz
   ZVAL   =  10.00  4.00  6.00
  Atomic Wigner-Seitz radii
   RWIGS  =  -1.00 -1.00 -1.00
  virtual crystal weights 
   VCA    =   1.00  1.00  1.00
   NELECT =     864.0000    total number of electrons
   NUPDOWN=      -1.0000    fix difference up-down

 DOS related values:
   EMIN   =  10.00;   EMAX   =-10.00  energy-range for DOS
   EFERMI =   0.00
   ISMEAR =     0;   SIGMA  =   0.05  broadening in eV -4-tet -1-fermi 0-gaus

 Electronic relaxation 2 (details)
   IALGO  =     38    algorithm
   LDIAG  =      T    sub-space diagonalisation (order eigenvalues)
   LSUBROT=      F    optimize rotation matrix (better conditioning)
   TURBO    =      0    0=normal 1=particle mesh
   IRESTART =      0    0=no restart 2=restart with 2 vectors
   NREBOOT  =      0    no. of reboots
   NMIN     =      0    reboot dimension
   EREF     =   0.00    reference energy to select bands
   IMIX   =      4    mixing-type and parameters
     AMIX     =   0.40;   BMIX     =  1.00
     AMIX_MAG =   1.60;   BMIX_MAG =  1.00
     AMIN     =   0.10
     WC   =   100.;   INIMIX=   1;  MIXPRE=   1;  MAXMIX= -45

 Intra band minimization:
   WEIMIN = 0.0000     energy-eigenvalue tresh-hold
   EBREAK =  0.48E-09  absolut break condition
   DEPER  =   0.30     relativ break condition  

   TIME   =   0.40     timestep for ELM

  volume/ion in A,a.u.               =      14.56        98.24
  Fermi-wavevector in a.u.,A,eV,Ry     =   1.244795  2.352322 21.082433  1.549515
  Thomas-Fermi vector in A             =   2.379046
 
 Write flags
   LWAVE        =      F    write WAVECAR
   LDOWNSAMPLE  =      F    k-point downsampling of WAVECAR
   LCHARG       =      F    write CHGCAR
   LVTOT        =      F    write LOCPOT, total local potential
   LVHAR        =      F    write LOCPOT, Hartree potential only
   LELF         =      F    write electronic localiz. function (ELF)
   LORBIT       =      0    0 simple, 1 ext, 2 COOP (PROOUT), +10 PAW based schemes


 Dipole corrections
   LMONO  =      F    monopole corrections only (constant potential shift)
   LDIPOL =      F    correct potential (dipole corrections)
   IDIPOL =      0    1-x, 2-y, 3-z, 4-all directions 
   EPSILON=  1.0000000 bulk dielectric constant

 Exchange correlation treatment:
   GGA     =    --    GGA type
   LEXCH   =     8    internal setting for exchange type
   VOSKOWN=      0    Vosko Wilk Nusair interpolation
   LHFCALC =     F    Hartree Fock is set to
   LHFONE  =     F    Hartree Fock one center treatment
   AEXX    =    0.0000 exact exchange contribution

 Linear response parameters
   LEPSILON=     F    determine dielectric tensor
   LRPA    =     F    only Hartree local field effects (RPA)
   LNABLA  =     F    use nabla operator in PAW spheres
   LVEL    =     F    velocity operator in full k-point grid
   LINTERFAST=   F  fast interpolation
   KINTER  =     0    interpolate to denser k-point grid
   CSHIFT  =0.1000    complex shift for real part using Kramers Kronig
   OMEGAMAX=  -1.0    maximum frequency
   DEG_THRESHOLD= 0.2000000E-02 threshold for treating states as degnerate
   RTIME   =   -0.100 relaxation time in fs
  (WPLASMAI=    0.000 imaginary part of plasma frequency in eV, 0.658/RTIME)
   DFIELD  = 0.0000000 0.0000000 0.0000000 field for delta impulse in time
 
 Orbital magnetization related:
   ORBITALMAG=     F  switch on orbital magnetization
   LCHIMAG   =     F  perturbation theory with respect to B field
   DQ        =  0.001000  dq finite difference perturbation B field
   LLRAUG    =     F  two centre corrections for induced B field



--------------------------------------------------------------------------------------------------------


 Static calculation
 charge density and potential will be updated during run
 non-spin polarized calculation
 Variant of blocked Davidson
 Davidson routine will perform the subspace rotation
 perform sub-space diagonalisation
    after iterative eigenvector-optimisation
 modified Broyden-mixing scheme, WC =      100.0
 initial mixing is a Kerker type mixing with AMIX =  0.4000 and BMIX =      1.0000
 Hartree-type preconditioning will be used
 using additional bands           88
 real space projection scheme for non local part
 use partial core corrections
 calculate Harris-corrections to forces 
   (improved forces if not selfconsistent)
 use gradient corrections 
 use of overlap-Matrix (Vanderbilt PP)
 Gauss-broadening in eV      SIGMA  =   0.05


--------------------------------------------------------------------------------------------------------


  energy-cutoff  :      600.00
  volume of cell :     1965.37
      direct lattice vectors                 reciprocal lattice vectors
    12.526070000  0.000000000  0.000000000     0.079833499  0.000000000  0.000000000
     0.000000000 12.526070000  0.000000000     0.000000000  0.079833499  0.000000000
     0.000000000  0.000000000 12.526070000     0.000000000  0.000000000  0.079833499

  length of vectors
    12.526070000 12.526070000 12.526070000     0.079833499  0.079833499  0.079833499


 
 k-points in units of 2pi/SCALE and weight: read from INCAR                         
   0.00000000  0.00000000  0.00000000       0.125
   0.03991675  0.00000000  0.00000000       0.125
   0.00000000  0.03991675  0.00000000       0.125
   0.03991675  0.03991675  0.00000000       0.125
   0.00000000  0.00000000  0.03991675       0.125
   0.03991675  0.00000000  0.03991675       0.125
   0.00000000  0.03991675  0.03991675       0.125
   0.03991675  0.03991675  0.03991675       0.125
 
 k-points in reciprocal lattice and weights: read from INCAR                         
   0.00000000  0.00000000  0.00000000       0.125
   0.50000000  0.00000000  0.00000000       0.125
   0.00000000  0.50000000  0.00000000       0.125
   0.50000000  0.50000000  0.00000000       0.125
   0.00000000  0.00000000  0.50000000       0.125
   0.50000000  0.00000000  0.50000000       0.125
   0.00000000  0.50000000  0.50000000       0.125
   0.50000000  0.50000000  0.50000000       0.125
 
 position of ions in fractional coordinates (direct lattice) 
   0.20730328  0.51038597  0.23333583
   0.49224559  0.13833040  0.72780942
   0.02224166  0.61886160  0.14839392
   0.77888368  0.48696874  0.40383205
   0.03297951  0.26557619  0.04677617
   0.26275878  0.31885480  0.59414560
   0.58827878  0.21229458  0.97252454
   0.76906741  0.77135990  0.85889563
   0.75713039  0.49308616  0.06222541
   0.97913732  0.16728356  0.29752756
   0.12754863  0.84482445  0.01849010
   0.64369511  0.68970762  0.14123831
   0.19219058  0.91676995  0.41834880
   0.35040907  0.02562013  0.08129876
   0.93367677  0.52883738  0.83234919
   0.46756487  0.85499640  0.93215258
   0.02012220  0.36916327  0.45638499
   0.47162656  0.68915136  0.31840456
   0.04424028  0.05869362  0.69013966
   0.72909021  0.94695059  0.30922858
   0.44944723  0.26549122  0.33431867
   0.74891889  0.21732085  0.41278323
   0.57239235  0.47234187  0.72042092
   0.43025508  0.80875631  0.63753053
   0.04184342  0.81630896  0.62040846
   0.16139407  0.66822959  0.82312476
   0.00724134  0.29061962  0.74627164
   0.45151538  0.05526092  0.46623048
   0.42909206  0.34667556  0.07562345
   0.45399344  0.60729108  0.94870307
   0.83035184  0.24019336  0.15652223
   0.73238193  0.17735147  0.73797809
   0.61610868  0.29382465  0.53993377
   0.65333924  0.99510390  0.01446781
   0.26068809  0.66791083  0.46511330
   0.75126764  0.37985647  0.79009076
   0.18568846  0.19431935  0.42262979
   0.57020935  0.62473765  0.54617835
   0.88028783  0.06127474  0.53698607
   0.92982734  0.84729325  0.28785066
   0.34821890  0.44176379  0.83052225
   0.79196140  0.87336068  0.64168089
   0.07878245  0.55627063  0.59327182
   0.61157036  0.44566903  0.21328411
   0.26103670  0.93180847  0.83500244
   0.64977353  0.00559789  0.63296115
   0.26141607  0.21764423  0.81250442
   0.03640849  0.63911740  0.37370021
   0.88375008  0.01024270  0.84247829
   0.15372165  0.47585655  0.98038399
   0.29796189  0.68010923  0.06247161
   0.83539711  0.84213390  0.06316470
   0.21320361  0.08714966  0.23356104
   0.44500608  0.91404958  0.26038198
   0.89944478  0.91218379  0.16899082
   0.56193289  0.43608547  0.07709309
   0.09053249  0.42725947  0.09020209
   0.53440004  0.37401854  0.57401767
   0.65819547  0.06708160  0.76984714
   0.76340184  0.97954813  0.90773429
   0.65847646  0.61688342  0.44850308
   0.13457327  0.11955699  0.14117062
   0.06761113  0.62278696  0.97360039
   0.28871875  0.18542945  0.32229777
   0.36547683  0.90028095  0.79124529
   0.72156795  0.36803001  0.53159331
   0.86724777  0.92678016  0.74867504
   0.57977974  0.60223760  0.96846100
   0.43421564  0.70094488  0.05104770
   0.99097047  0.57243342  0.48228940
   0.09282198  0.65863202  0.67585952
   0.94237899  0.71489190  0.30710477
   0.81795067  0.42137091  0.89854375
   0.85456008  0.77028169  0.58479777
   0.58752125  0.33099181  0.25690170
   0.54374856  0.67175578  0.66888880
   0.79036069  0.16808451  0.26780000
   0.77606389  0.28379457  0.04109672
   0.22833200  0.94969873  0.23250823
   0.56995708  0.98090531  0.44550761
   0.21807017  0.45988678  0.85987694
   0.81839013  0.27838728  0.77848340
   0.99669713  0.07375885  0.84452615
   0.28961297  0.78695457  0.47233442
   0.75150307  0.02648742  0.56678804
   0.86609870  0.91456036  0.37879910
   0.57780605  0.83902419  0.29017400
   0.54740527  0.56931128  0.26738159
   0.44552932  0.21653598  0.09615270
   0.67170752  0.18009956  0.62375324
   0.36800972  0.28914490  0.80734083
   0.44550618  0.63894826  0.47112948
   0.96645280  0.95847028  0.53248292
   0.79249850  0.72628167  0.07172056
   0.40204006  0.38265576  0.19198777
   0.20533148  0.75066294  0.13228417
   0.76650930  0.49150016  0.73534930
   0.19330479  0.96248826  0.67752215
   0.13198565  0.07708754  0.36639983
   0.98829828  0.41224293  0.62652877
   0.57098308  0.19420799  0.44366764
   0.29686084  0.69685986  0.93829793
   0.64745224  0.30506617  0.78183163
   0.07570111  0.56302544  0.28612689
   0.08211472  0.72217034  0.48549582
   0.16890553  0.18934641  0.73101806
   0.29343471  0.59828349  0.35242521
   0.40760236  0.55249993  0.85698817
   0.92025011  0.18236322  0.53660877
   0.84720220  0.08382354  0.73657262
   0.70767189  0.91398552  0.08647527
   0.35651260  0.44444657  0.70576623
   0.11380978  0.30032670  0.30702502
   0.28609335  0.11357001  0.88867359
   0.42167786  0.84402583  0.14968127
   0.48239016  0.04587360  0.22565971
   0.51094921  0.00178008  0.68048779
   0.14855916  0.86832634  0.85030813
   0.94082409  0.36286013  0.21942490
   0.36077159  0.40792603  0.97357663
   0.73308660  0.50746142  0.24450935
   0.60813964  0.76502881  0.85004038
   0.08847170  0.33295785  0.91714378
   0.15038116  0.50182171  0.49800195
   0.65811282  0.86587455  0.65283122
   0.89123949  0.14001440  0.11310293
   0.88721161  0.82382052  0.95251330
   0.68129558  0.09899368  0.06815545
   0.13448927  0.26412196  0.52269217
   0.31430689  0.10348436  0.55567760
   0.22505239  0.55825201  0.05970378
   0.05604316  0.87381263  0.30998872
   0.28835655  0.95315088  0.95535315
   0.52897015  0.01214317  0.98040513
   0.38554490  0.93039657  0.39755402
 
 position of ions in cartesian coordinates  (Angst):
   2.59669540  6.39313036  2.92278099
   6.16590277  1.73273633  9.11659178
   0.27860065  7.75190373  1.85879263
   9.75635145  6.09980454  5.05842856
   0.41310368  3.32662592  0.58592162
   3.29133490  3.99399757  7.44230935
   7.36882117  2.65921675 12.18191044
   9.63339225  9.66210807 10.75858677
   9.48386828  6.17643171  0.77943980
  12.26474261  2.09540558  3.72685108
   1.59768305 10.58233018  0.23160825
   8.06297003  8.63932597  1.76916091
   2.40739261 11.48352457  5.24026641
   4.38924853  0.32091956  1.01835397
  11.69530054  6.62425405 10.42606416
   5.85675035 10.70974480 11.67620844
   0.25205205  4.62416490  5.71671031
   5.90762732  8.63235817  3.98835784
   0.55415687  0.73520041  8.64473771
   9.13263504 11.86156934  3.87341880
   5.62980745  3.32556158  4.18769907
   9.38101043  2.72217623  5.17055162
   7.16982668  5.91658735  9.02404285
   5.38940524 10.13053809  7.98575208
   0.52413359 10.22514315  7.77127976
   2.02163341  8.37029056 10.31051832
   0.09070557  3.64032175  9.34785082
   5.65571320  0.69220209  5.84003561
   5.37483712  4.34248229  0.94726465
   5.68675361  7.60697060 11.88352112
  10.40104524  3.00867888  1.96060839
   9.17386735  2.22151690  9.24396519
   7.71742050  3.68046819  6.76324821
   8.18377302 12.46474114  0.18122483
   3.26539726  8.36629782  5.82604181
   9.41043099  4.75810875  9.89673214
   2.32594665  2.43405777  5.29389030
   7.14248226  7.82550756  6.84146830
  11.02654700  0.76753170  6.72632510
  11.64708231 10.61325455  3.60563753
   4.36181435  5.53356410 10.40317980
   9.92016397 10.93977706  8.03773972
   0.98683451  6.96788489  7.43136440
   7.66057316  5.58248150  2.67161163
   3.26976399 11.67189810 10.45929901
   8.13910877  0.07011958  7.92851571
   3.27451604  2.72622681 10.17748725
   0.45605524  8.00562935  4.68099499
  11.06991542  0.12830073 10.55294205
   1.92552819  5.96061251 12.28035848
   3.73229145  8.51909588  0.78252373
  10.46424263 10.54862819  0.79120541
   2.67060335  1.09164280  2.92560199
   5.57417734 11.44944901  3.26156290
  11.26650827 11.42607796  2.11679079
   7.03881077  5.46243714  0.96567342
   1.13401636  5.35188207  1.12987768
   6.69393237  4.68498239  7.19018547
   8.24460258  0.84026878  9.64315921
   9.56242492 12.26988849 11.37034328
   8.24812227  7.72712489  5.61798094
   1.68567425  1.49757917  1.76831303
   0.84690176  7.80107302 12.19538666
   3.61651122  2.32270231  4.03712438
   4.57798841 11.27698219  9.91119390
   9.03841070  4.60996970  6.65877501
  10.86320631 11.60891321  9.37795590
   7.26236161  7.54367029 12.13101030
   5.43901555  8.78008462  0.63942708
  12.41296544  7.17034105  6.04119084
   1.16269464  8.25007079  8.46586372
  11.80430515  8.95478603  3.84681579
  10.24570732  5.27812152 11.25522192
  10.70427932  9.64860235  7.32521784
   7.35933234  4.14602658  3.21796869
   6.81103256  8.41445990  8.37854792
   9.90011338  2.10543837  3.35448149
   9.72103064  3.55483071  0.51478033
   2.86010257 11.89599280  2.91241437
   7.13932222 12.28688856  5.58045947
   2.73156219  5.76057403 10.77087874
  10.25121204  3.48709855  9.75133761
  12.48469802  0.92390858 10.57859369
   3.62771236  9.85744803  5.91649401
   9.41338006  0.33178327  7.09962662
  10.84881297 11.45584703  4.74486406
   7.23763904 10.50967568  3.63473989
   6.85683668  7.13123291  3.34924054
   5.58073149  2.71234482  1.20441542
   8.41385541  2.25593964  7.81317673
   4.60971549  3.62184930 10.11280777
   5.58044162  8.00351065  5.90140083
  12.10585541 12.00586577  6.66991831
   9.92689164  9.09745504  0.89837674
   5.03598193  4.79317285  2.40485219
   2.57199647  9.40285655  1.65700072
   9.60134909  6.15656539  9.21103678
   2.42134932 12.05619530  8.48668985
   1.65326149  0.96560386  4.58954996
  12.37949343  5.16378374  7.84794320
   7.15217403  2.43266289  5.55741188
   3.71849971  8.72891544 11.75318552
   8.11003210  3.82128021  9.79327770
   0.94823746  7.05249605  3.58404544
   1.02857469  9.04595618  6.08135467
   2.11572243  2.37176640  9.15678339
   3.67558378  7.49414092  4.41450284
   5.10565571  6.92065281 10.73469375
  11.52711727  2.28429442  6.72159904
  10.61211411  1.04997954  9.22636014
   8.86434766 11.44864658  1.08319527
   4.46570179  5.56716889  8.84047718
   1.42558926  3.76191325  3.84581684
   3.58362529  1.42258595 11.13158757
   5.28196637 10.57232657  1.87491810
   6.04245296  0.57461592  2.82662933
   6.40018559  0.02229741  8.52383767
   1.86086248 10.87671657 10.65101920
  11.78482841  4.54521142  2.74853161
   4.51905023  5.10971006 12.19508901
   9.18269409  6.35649728  3.06274118
   7.61759974  9.58280448 10.64766525
   1.10820271  4.17065329 11.48820716
   1.88368490  6.28585390  6.23800730
   8.24356725 10.84600527  8.17740951
  11.16372829  1.75383017  1.41673523
  11.11327472 10.31923351 11.93124822
   8.53395607  1.24000179  0.85371998
   1.68462203  3.30841010  6.54727875
   3.93703007  1.29625230  6.96045653
   2.81902197  6.99270374  0.74785378
   0.70200058 10.94543813  3.88294041
   3.61197434 11.93923463 11.96682041
   6.62591707  0.15210624 12.28062328
   4.82936243 11.65421254  4.97978948
 


--------------------------------------------------------------------------------------------------------


 k-point  1 :   0.0000 0.0000 0.0000  plane waves:   65267
 k-point  2 :   0.5000 0.0000 0.0000  plane waves:   65554
 k-point  3 :   0.0000 0.5000 0.0000  plane waves:   65554
 k-point  4 :   0.5000 0.5000 0.0000  plane waves:   65600
 k-point  5 :   0.0000 0.0000 0.5000  plane waves:   65554
 k-point  6 :   0.5000 0.0000 0.5000  plane waves:   65600
 k-point  7 :   0.0000 0.5000 0.5000  plane waves:   65600
 k-point  8 :   0.5000 0.5000 0.5000  plane waves:   65752

 maximum and minimum number of plane-waves per node :      5080     4959

 maximum number of plane-waves:     65752
 maximum index in each direction: 
   IXMAX=   25   IYMAX=   25   IZMAX=   25
   IXMIN=  -25   IYMIN=  -25   IZMIN=  -25


 real space projection operators:
  total allocation   :      46831.16 KBytes
  max/ min on nodes  :       3832.55       3160.41


 parallel 3D FFT for wavefunctions:
    minimum data exchange during FFTs selected (reduces bandwidth)
 parallel 3D FFT for charge:
    minimum data exchange during FFTs selected (reduces bandwidth)


 total amount of memory used by VASP MPI-rank0   175604. kBytes
=======================================================================

   base      :      30000. kBytes
   nonlr-proj:      20274. kBytes
   fftplans  :      25568. kBytes
   grid      :      13529. kBytes
   one-center:        171. kBytes
   wavefun   :      86062. kBytes
 
     INWAV:  cpu time    0.0000: real time    0.0000
 Broyden mixing: mesh for mixing (old mesh)
   NGX = 51   NGY = 51   NGZ = 51
  (NGX  =200   NGY  =200   NGZ  =200)
  gives a total of 132651 points

 initial charge density was supplied:
 charge density of overlapping atoms calculated
 number of electron     864.0000000 magnetization 
 keeping initial charge density in first step


--------------------------------------------------------------------------------------------------------


 Maximum index for non-local projection operator          694
 Maximum index for augmentation-charges         5450 (set IRDMAX)


--------------------------------------------------------------------------------------------------------


 First call to EWALD:  gamma=   0.142
 Maximum number of real-space cells 3x 3x 3
 Maximum number of reciprocal cells 3x 3x 3

    FEWALD:  cpu time    0.0055: real time    0.0055


--------------------------------------- Iteration      1(   1)  ---------------------------------------


    POTLOK:  cpu time    0.1571: real time    0.1650
    SETDIJ:  cpu time    0.3306: real time    0.3345
     EDDAV:  cpu time   38.7008: real time   38.7057
       DOS:  cpu time    0.0027: real time    0.0027
    --------------------------------------------
      LOOP:  cpu time   39.1912: real time   39.2079

 eigenvalue-minimisations  :  8352
 total energy-change (2. order) : 0.9368592E+04  (-0.4723242E+05)
 number of electron     864.0000000 magnetization 
 augmentation part      864.0000000 magnetization 

 Free energy of the ion-electron system (eV)
  ---------------------------------------------------
  alpha Z        PSCENC =      2431.37857233
  Ewald energy   TEWEN  =    -42521.75263569
  -Hartree energ DENC   =    -19922.08277652
  -exchange      EXHF   =         0.00000000
  -V(xc)+E(xc)   XCENC  =      3147.63095234
  PAW double counting   =     50594.51003143   -49994.65612350
  entropy T*S    EENTRO =        -0.04050818
  eigenvalues    EBANDS =       665.06395095
  atomic energy  EATOM  =     64968.54023382
  Solvation  Ediel_sol  =         0.00000000
  ---------------------------------------------------
  free energy    TOTEN  =      9368.59169698 eV

  energy without entropy =     9368.63220516  energy(sigma->0) =     9368.61195107


--------------------------------------------------------------------------------------------------------




--------------------------------------- Iteration      1(   2)  ---------------------------------------


     EDDAV:  cpu time   44.6472: real time   44.6589
       DOS:  cpu time    0.0010: real time    0.0010
    --------------------------------------------
      LOOP:  cpu time   44.6482: real time   44.6599

 eigenvalue-minimisations  : 10008
 total energy-change (2. order) :-0.9313782E+04  (-0.9019358E+04)
 number of electron     864.0000000 magnetization 
 augmentation part      864.0000000 magnetization 

 Free energy of the ion-electron system (eV)
  ---------------------------------------------------
  alpha Z        PSCENC =      2431.37857233
  Ewald energy   TEWEN  =    -42521.75263569
  -Hartree energ DENC   =    -19922.08277652
  -exchange      EXHF   =         0.00000000
  -V(xc)+E(xc)   XCENC  =      3147.63095234
  PAW double counting   =     50594.51003143   -49994.65612350
  entropy T*S    EENTRO =        -0.00000000
  eigenvalues    EBANDS =     -8648.75866971
  atomic energy  EATOM  =     64968.54023382
  Solvation  Ediel_sol  =         0.00000000
  ---------------------------------------------------
  free energy    TOTEN  =        54.80958450 eV

  energy without entropy =       54.80958450  energy(sigma->0) =       54.80958450


--------------------------------------------------------------------------------------------------------




--------------------------------------- Iteration      1(   3)  ---------------------------------------


     EDDAV:  cpu time   45.5435: real time   45.5579
       DOS:  cpu time    0.0010: real time    0.0010
    --------------------------------------------
      LOOP:  cpu time   45.5445: real time   45.5589

 eigenvalue-minimisations  : 10288
 total energy-change (2. order) :-0.1037076E+04  (-0.1028368E+04)
 number of electron     864.0000000 magnetization 
 augmentation part      864.0000000 magnetization 

 Free energy of the ion-electron system (eV)
  ---------------------------------------------------
  alpha Z        PSCENC =      2431.37857233
  Ewald energy   TEWEN  =    -42521.75263569
  -Hartree energ DENC   =    -19922.08277652
  -exchange      EXHF   =         0.00000000
  -V(xc)+E(xc)   XCENC  =      3147.63095234
  PAW double counting   =     50594.51003143   -49994.65612350
  entropy T*S    EENTRO =        -0.00000000
  eigenvalues    EBANDS =     -9685.83430719
  atomic energy  EATOM  =     64968.54023382
  Solvation  Ediel_sol  =         0.00000000
  ---------------------------------------------------
  free energy    TOTEN  =      -982.26605298 eV

  energy without entropy =     -982.26605298  energy(sigma->0) =     -982.26605298


--------------------------------------------------------------------------------------------------------




--------------------------------------- Iteration      1(   4)  ---------------------------------------


     EDDAV:  cpu time   49.3043: real time   49.3049
       DOS:  cpu time    0.0010: real time    0.0010
    --------------------------------------------
      LOOP:  cpu time   49.3053: real time   49.3059

 eigenvalue-minimisations  : 11336
 total energy-change (2. order) :-0.5107088E+02  (-0.5087965E+02)
 number of electron     864.0000000 magnetization 
 augmentation part      864.0000000 magnetization 

 Free energy of the ion-electron system (eV)
  ---------------------------------------------------
  alpha Z        PSCENC =      2431.37857233
  Ewald energy   TEWEN  =    -42521.75263569
  -Hartree energ DENC   =    -19922.08277652
  -exchange      EXHF   =         0.00000000
  -V(xc)+E(xc)   XCENC  =      3147.63095234
  PAW double counting   =     50594.51003143   -49994.65612350
  entropy T*S    EENTRO =        -0.00000000
  eigenvalues    EBANDS =     -9736.90518500
  atomic energy  EATOM  =     64968.54023382
  Solvation  Ediel_sol  =         0.00000000
  ---------------------------------------------------
  free energy    TOTEN  =     -1033.33693079 eV

  energy without entropy =    -1033.33693079  energy(sigma->0) =    -1033.33693079


--------------------------------------------------------------------------------------------------------




--------------------------------------- Iteration      1(   5)  ---------------------------------------


     EDDAV:  cpu time   61.2280: real time   61.2445
       DOS:  cpu time    0.0011: real time    0.0011
    CHARGE:  cpu time    1.5323: real time    1.5323
    MIXING:  cpu time    0.0060: real time    0.0063
    --------------------------------------------
      LOOP:  cpu time   62.7675: real time   62.7842

 eigenvalue-minimisations  : 14848
 total energy-change (2. order) :-0.5816907E+01  (-0.5813517E+01)
 number of electron     864.0000007 magnetization 
 augmentation part      133.4733911 magnetization 

 Broyden mixing:
  rms(total) = 0.84175E+01    rms(broyden)= 0.84168E+01
  rms(prec ) = 0.10082E+02
  weight for this iteration     100.00

 Free energy of the ion-electron system (eV)
  ---------------------------------------------------
  alpha Z        PSCENC =      2431.37857233
  Ewald energy   TEWEN  =    -42521.75263569
  -Hartree energ DENC   =    -19922.08277652
  -exchange      EXHF   =         0.00000000
  -V(xc)+E(xc)   XCENC  =      3147.63095234
  PAW double counting   =     50594.51003143   -49994.65612350
  entropy T*S    EENTRO =        -0.00000000
  eigenvalues    EBANDS =     -9742.72209238
  atomic energy  EATOM  =     64968.54023382
  Solvation  Ediel_sol  =         0.00000000
  ---------------------------------------------------
  free energy    TOTEN  =     -1039.15383816 eV

  energy without entropy =    -1039.15383816  energy(sigma->0) =    -1039.15383816


--------------------------------------------------------------------------------------------------------




--------------------------------------- Iteration      1(   6)  ---------------------------------------


    POTLOK:  cpu time    0.1182: real time    0.1340
    SETDIJ:  cpu time    0.3210: real time    0.3210
     EDDAV:  cpu time   44.3077: real time   44.3104
       DOS:  cpu time    0.0025: real time    0.0025
    CHARGE:  cpu time    1.5405: real time    1.5404
    MIXING:  cpu time    0.0062: real time    0.0062
    --------------------------------------------
      LOOP:  cpu time   46.2961: real time   46.3146

 eigenvalue-minimisations  : 10008
 total energy-change (2. order) : 0.1588400E+03  (-0.7627012E+02)
 number of electron     864.0000006 magnetization 
 augmentation part      117.7419485 magnetization 

 Broyden mixing:
  rms(total) = 0.39225E+01    rms(broyden)= 0.39213E+01
  rms(prec ) = 0.43689E+01
  weight for this iteration     100.00

 eigenvalues of (default mixing * dielectric matrix)
  average eigenvalue GAMMA=   0.8965
  0.8965

 Free energy of the ion-electron system (eV)
  ---------------------------------------------------
  alpha Z        PSCENC =      2431.37857233
  Ewald energy   TEWEN  =    -42521.75263569
  -Hartree energ DENC   =    -21416.86260447
  -exchange      EXHF   =         0.00000000
  -V(xc)+E(xc)   XCENC  =      3243.63534753
  PAW double counting   =     63805.13419636   -63346.04006998
  entropy T*S    EENTRO =        -0.00093141
  eigenvalues    EBANDS =     -8044.34594007
  atomic energy  EATOM  =     64968.54023382
  Solvation  Ediel_sol  =         0.00000000
  ---------------------------------------------------
  free energy    TOTEN  =      -880.31383157 eV

  energy without entropy =     -880.31290016  energy(sigma->0) =     -880.31336587


--------------------------------------------------------------------------------------------------------




--------------------------------------- Iteration      1(   7)  ---------------------------------------


    POTLOK:  cpu time    0.1186: real time    0.1203
    SETDIJ:  cpu time    0.3218: real time    0.3217
     EDDAV:  cpu time   45.6010: real time   45.6005
       DOS:  cpu time    0.0018: real time    0.0018
    CHARGE:  cpu time    1.5318: real time    1.5318
    MIXING:  cpu time    0.0059: real time    0.0059
    --------------------------------------------
      LOOP:  cpu time   47.5809: real time   47.5820

 eigenvalue-minimisations  : 10384
 total energy-change (2. order) :-0.3996797E+01  (-0.9891327E+01)
 number of electron     864.0000006 magnetization 
 augmentation part      118.3974366 magnetization 

 Broyden mixing:
  rms(total) = 0.22239E+01    rms(broyden)= 0.22236E+01
  rms(prec ) = 0.26130E+01
  weight for this iteration     100.00

 eigenvalues of (default mixing * dielectric matrix)
  average eigenvalue GAMMA=   0.9179
  0.9179  0.9179

 Free energy of the ion-electron system (eV)
  ---------------------------------------------------
  alpha Z        PSCENC =      2431.37857233
  Ewald energy   TEWEN  =    -42521.75263569
  -Hartree energ DENC   =    -21400.54122061
  -exchange      EXHF   =         0.00000000
  -V(xc)+E(xc)   XCENC  =      3240.34177595
  PAW double counting   =     73099.68367300   -72686.12079969
  entropy T*S    EENTRO =        -0.00000106
  eigenvalues    EBANDS =     -8015.84022620
  atomic energy  EATOM  =     64968.54023382
  Solvation  Ediel_sol  =         0.00000000
  ---------------------------------------------------
  free energy    TOTEN  =      -884.31062815 eV

  energy without entropy =     -884.31062710  energy(sigma->0) =     -884.31062762


--------------------------------------------------------------------------------------------------------




--------------------------------------- Iteration      1(   8)  ---------------------------------------


    POTLOK:  cpu time    0.1323: real time    0.1460
    SETDIJ:  cpu time    0.3278: real time    0.3278
     EDDAV:  cpu time   51.4636: real time   51.4644
       DOS:  cpu time    0.0025: real time    0.0024
    CHARGE:  cpu time    1.5390: real time    1.5389
    MIXING:  cpu time    0.0063: real time    0.0063
    --------------------------------------------
      LOOP:  cpu time   53.4714: real time   53.4859

 eigenvalue-minimisations  : 12104
 total energy-change (2. order) : 0.6949344E+01  (-0.1958868E+01)
 number of electron     864.0000006 magnetization 
 augmentation part      117.6497272 magnetization 

 Broyden mixing:
  rms(total) = 0.12634E+01    rms(broyden)= 0.12633E+01
  rms(prec ) = 0.14517E+01
  weight for this iteration     100.00

 eigenvalues of (default mixing * dielectric matrix)
  average eigenvalue GAMMA=   1.1378
  1.7017  1.0291  0.6825

 Free energy of the ion-electron system (eV)
  ---------------------------------------------------
  alpha Z        PSCENC =      2431.37857233
  Ewald energy   TEWEN  =    -42521.75263569
  -Hartree energ DENC   =    -21436.07258413
  -exchange      EXHF   =         0.00000000
  -V(xc)+E(xc)   XCENC  =      3241.34969024
  PAW double counting   =     77625.51745192   -77240.48898339
  entropy T*S    EENTRO =        -0.00412403
  eigenvalues    EBANDS =     -7945.82890564
  atomic energy  EATOM  =     64968.54023382
  Solvation  Ediel_sol  =         0.00000000
  ---------------------------------------------------
  free energy    TOTEN  =      -877.36128457 eV

  energy without entropy =     -877.35716054  energy(sigma->0) =     -877.35922256


--------------------------------------------------------------------------------------------------------




--------------------------------------- Iteration      1(   9)  ---------------------------------------


    POTLOK:  cpu time    0.1160: real time    0.1181
    SETDIJ:  cpu time    0.3210: real time    0.3210
     EDDAV:  cpu time   44.5969: real time   44.5975
       DOS:  cpu time    0.0023: real time    0.0023
    CHARGE:  cpu time    1.5327: real time    1.5326
    MIXING:  cpu time    0.0073: real time    0.0073
    --------------------------------------------
      LOOP:  cpu time   46.5762: real time   46.5789

 eigenvalue-minimisations  : 10096
 total energy-change (2. order) :-0.6961678E+01  (-0.2158620E+01)
 number of electron     864.0000006 magnetization 
 augmentation part      117.1739829 magnetization 

 Broyden mixing:
  rms(total) = 0.31549E+01    rms(broyden)= 0.31546E+01
  rms(prec ) = 0.47816E+01
  weight for this iteration     100.00

 eigenvalues of (default mixing * dielectric matrix)
  average eigenvalue GAMMA=   0.8857
  1.7145  1.0347  0.6000  0.1934

 Free energy of the ion-electron system (eV)
  ---------------------------------------------------
  alpha Z        PSCENC =      2431.37857233
  Ewald energy   TEWEN  =    -42521.75263569
  -Hartree energ DENC   =    -21493.60557556
  -exchange      EXHF   =         0.00000000
  -V(xc)+E(xc)   XCENC  =      3243.40541488
  PAW double counting   =     83815.92926025   -83460.06116559
  entropy T*S    EENTRO =        -0.00009813
  eigenvalues    EBANDS =     -7868.15696909
  atomic energy  EATOM  =     64968.54023382
  Solvation  Ediel_sol  =         0.00000000
  ---------------------------------------------------
  free energy    TOTEN  =      -884.32296279 eV

  energy without entropy =     -884.32286465  energy(sigma->0) =     -884.32291372


--------------------------------------------------------------------------------------------------------




--------------------------------------- Iteration      1(  10)  ---------------------------------------


    POTLOK:  cpu time    0.1592: real time    0.1734
    SETDIJ:  cpu time    0.3527: real time    0.3527
     EDDAV:  cpu time   46.5494: real time   46.5499
       DOS:  cpu time    0.0027: real time    0.0027
    CHARGE:  cpu time    1.5243: real time    1.5243
    MIXING:  cpu time    0.0071: real time    0.0070
    --------------------------------------------
      LOOP:  cpu time   48.5954: real time   48.6102

 eigenvalue-minimisations  : 10624
 total energy-change (2. order) : 0.7258517E+01  (-0.2424403E+00)
 number of electron     864.0000006 magnetization 
 augmentation part      117.4509906 magnetization 

 Broyden mixing:
  rms(total) = 0.70708E+00    rms(broyden)= 0.70650E+00
  rms(prec ) = 0.97729E+00
  weight for this iteration     100.00

 eigenvalues of (default mixing * dielectric matrix)
  average eigenvalue GAMMA=   0.8655
  1.9837  0.9931  0.6624  0.4768  0.2115

 Free energy of the ion-electron system (eV)
  ---------------------------------------------------
  alpha Z        PSCENC =      2431.37857233
  Ewald energy   TEWEN  =    -42521.75263569
  -Hartree energ DENC   =    -21495.88395129
  -exchange      EXHF   =         0.00000000
  -V(xc)+E(xc)   XCENC  =      3243.57153976
  PAW double counting   =     84156.75875138   -83803.56993153
  entropy T*S    EENTRO =        -0.04742176
  eigenvalues    EBANDS =     -7856.05960323
  atomic energy  EATOM  =     64968.54023382
  Solvation  Ediel_sol  =         0.00000000
  ---------------------------------------------------
  free energy    TOTEN  =      -877.06444621 eV

  energy without entropy =     -877.01702446  energy(sigma->0) =     -877.04073534


--------------------------------------------------------------------------------------------------------




--------------------------------------- Iteration      1(  11)  ---------------------------------------


    POTLOK:  cpu time    0.1170: real time    0.1182
    SETDIJ:  cpu time    0.3216: real time    0.3216
     EDDAV:  cpu time   48.8222: real time   48.8244
       DOS:  cpu time    0.0027: real time    0.0026
    CHARGE:  cpu time    1.5377: real time    1.5377
    MIXING:  cpu time    0.0061: real time    0.0061
    --------------------------------------------
      LOOP:  cpu time   50.8073: real time   50.8106

 eigenvalue-minimisations  : 11320
 total energy-change (2. order) : 0.1472478E-01  (-0.3039930E+00)
 number of electron     864.0000006 magnetization 
 augmentation part      117.4221272 magnetization 

 Broyden mixing:
  rms(total) = 0.63306E+00    rms(broyden)= 0.63285E+00
  rms(prec ) = 0.82192E+00
  weight for this iteration     100.00

 eigenvalues of (default mixing * dielectric matrix)
  average eigenvalue GAMMA=   0.8301
  2.1233  0.9417  0.6709  0.6709  0.3963  0.1779

 Free energy of the ion-electron system (eV)
  ---------------------------------------------------
  alpha Z        PSCENC =      2431.37857233
  Ewald energy   TEWEN  =    -42521.75263569
  -Hartree energ DENC   =    -21513.46492812
  -exchange      EXHF   =         0.00000000
  -V(xc)+E(xc)   XCENC  =      3244.45798238
  PAW double counting   =     85342.04775985   -84994.32833668
  entropy T*S    EENTRO =        -0.02335708
  eigenvalues    EBANDS =     -7833.90501224
  atomic energy  EATOM  =     64968.54023382
  Solvation  Ediel_sol  =         0.00000000
  ---------------------------------------------------
  free energy    TOTEN  =      -877.04972143 eV

  energy without entropy =     -877.02636435  energy(sigma->0) =     -877.03804289


--------------------------------------------------------------------------------------------------------




--------------------------------------- Iteration      1(  12)  ---------------------------------------


    POTLOK:  cpu time    0.1151: real time    0.1313
    SETDIJ:  cpu time    0.3210: real time    0.3229
     EDDAV:  cpu time   46.5549: real time   46.5540
       DOS:  cpu time    0.0024: real time    0.0024
    CHARGE:  cpu time    1.5307: real time    1.5307
    MIXING:  cpu time    0.0063: real time    0.0063
    --------------------------------------------
      LOOP:  cpu time   48.5304: real time   48.5475

 eigenvalue-minimisations  : 10672
 total energy-change (2. order) : 0.2408483E+00  (-0.9279765E-01)
 number of electron     864.0000006 magnetization 
 augmentation part      117.4402829 magnetization 

 Broyden mixing:
  rms(total) = 0.27943E+00    rms(broyden)= 0.27924E+00
  rms(prec ) = 0.40762E+00
  weight for this iteration     100.00

 eigenvalues of (default mixing * dielectric matrix)
  average eigenvalue GAMMA=   0.8540
  2.2851  1.0017  1.0017  0.6526  0.4271  0.4271  0.1828

 Free energy of the ion-electron system (eV)
  ---------------------------------------------------
  alpha Z        PSCENC =      2431.37857233
  Ewald energy   TEWEN  =    -42521.75263569
  -Hartree energ DENC   =    -21531.48823588
  -exchange      EXHF   =         0.00000000
  -V(xc)+E(xc)   XCENC  =      3245.36956333
  PAW double counting   =     86018.53805788   -85673.80068867
  entropy T*S    EENTRO =        -0.00220039
  eigenvalues    EBANDS =     -7813.59153983
  atomic energy  EATOM  =     64968.54023382
  Solvation  Ediel_sol  =         0.00000000
  ---------------------------------------------------
  free energy    TOTEN  =      -876.80887310 eV

  energy without entropy =     -876.80667271  energy(sigma->0) =     -876.80777290


--------------------------------------------------------------------------------------------------------




--------------------------------------- Iteration      1(  13)  ---------------------------------------


    POTLOK:  cpu time    0.1158: real time    0.1193
    SETDIJ:  cpu time    0.3219: real time    0.3218
     EDDAV:  cpu time   46.9676: real time   46.9687
       DOS:  cpu time    0.0026: real time    0.0026
    CHARGE:  cpu time    1.5285: real time    1.5285
    MIXING:  cpu time    0.0068: real time    0.0068
    --------------------------------------------
      LOOP:  cpu time   48.9432: real time   48.9477

 eigenvalue-minimisations  : 10792
 total energy-change (2. order) : 0.4769554E-01  (-0.4880835E-01)
 number of electron     864.0000006 magnetization 
 augmentation part      117.2950407 magnetization 

 Broyden mixing:
  rms(total) = 0.20079E+00    rms(broyden)= 0.20073E+00
  rms(prec ) = 0.29847E+00
  weight for this iteration     100.00

 eigenvalues of (default mixing * dielectric matrix)
  average eigenvalue GAMMA=   0.8454
  2.3524  1.1739  0.9853  0.5776  0.5776  0.4573  0.4573  0.1817

 Free energy of the ion-electron system (eV)
  ---------------------------------------------------
  alpha Z        PSCENC =      2431.37857233
  Ewald energy   TEWEN  =    -42521.75263569
  -Hartree energ DENC   =    -21546.50255727
  -exchange      EXHF   =         0.00000000
  -V(xc)+E(xc)   XCENC  =      3246.20990971
  PAW double counting   =     86401.35481684   -86058.35397227
  entropy T*S    EENTRO =        -0.01838532
  eigenvalues    EBANDS =     -7797.61715971
  atomic energy  EATOM  =     64968.54023382
  Solvation  Ediel_sol  =         0.00000000
  ---------------------------------------------------
  free energy    TOTEN  =      -876.76117756 eV

  energy without entropy =     -876.74279224  energy(sigma->0) =     -876.75198490


--------------------------------------------------------------------------------------------------------




--------------------------------------- Iteration      1(  14)  ---------------------------------------


    POTLOK:  cpu time    0.1547: real time    0.1711
    SETDIJ:  cpu time    0.3549: real time    0.3549
     EDDAV:  cpu time   47.7350: real time   47.7356
       DOS:  cpu time    0.0028: real time    0.0027
    CHARGE:  cpu time    1.5404: real time    1.5404
    MIXING:  cpu time    0.0068: real time    0.0068
    --------------------------------------------
      LOOP:  cpu time   49.7946: real time   49.8115

 eigenvalue-minimisations  : 10984
 total energy-change (2. order) : 0.2596493E-01  (-0.3460537E-01)
 number of electron     864.0000006 magnetization 
 augmentation part      117.2831361 magnetization 

 Broyden mixing:
  rms(total) = 0.13575E+00    rms(broyden)= 0.13571E+00
  rms(prec ) = 0.20196E+00
  weight for this iteration     100.00

 eigenvalues of (default mixing * dielectric matrix)
  average eigenvalue GAMMA=   0.8513
  2.3878  1.4750  0.8232  0.8232  0.5767  0.5767  0.4087  0.4087  0.1817

 Free energy of the ion-electron system (eV)
  ---------------------------------------------------
  alpha Z        PSCENC =      2431.37857233
  Ewald energy   TEWEN  =    -42521.75263569
  -Hartree energ DENC   =    -21551.97535186
  -exchange      EXHF   =         0.00000000
  -V(xc)+E(xc)   XCENC  =      3246.43347430
  PAW double counting   =     86455.98740413   -86112.93809693
  entropy T*S    EENTRO =        -0.01587245
  eigenvalues    EBANDS =     -7792.39294027
  atomic energy  EATOM  =     64968.54023382
  Solvation  Ediel_sol  =         0.00000000
  ---------------------------------------------------
  free energy    TOTEN  =      -876.73521263 eV

  energy without entropy =     -876.71934017  energy(sigma->0) =     -876.72727640


--------------------------------------------------------------------------------------------------------




--------------------------------------- Iteration      1(  15)  ---------------------------------------


    POTLOK:  cpu time    0.1358: real time    0.1381
    SETDIJ:  cpu time    0.3320: real time    0.3320
     EDDAV:  cpu time   47.5315: real time   47.5306
       DOS:  cpu time    0.0026: real time    0.0026
    CHARGE:  cpu time    1.5338: real time    1.5338
    MIXING:  cpu time    0.0074: real time    0.0074
    --------------------------------------------
      LOOP:  cpu time   49.5431: real time   49.5446

 eigenvalue-minimisations  : 10960
 total energy-change (2. order) : 0.1076989E-01  (-0.6948507E-02)
 number of electron     864.0000006 magnetization 
 augmentation part      117.2684219 magnetization 

 Broyden mixing:
  rms(total) = 0.83420E-01    rms(broyden)= 0.83406E-01
  rms(prec ) = 0.12037E+00
  weight for this iteration     100.00

 eigenvalues of (default mixing * dielectric matrix)
  average eigenvalue GAMMA=   0.8900
  2.3508  1.8651  0.9465  0.9465  0.6254  0.5728  0.5728  0.4192  0.4192  0.1817

 Free energy of the ion-electron system (eV)
  ---------------------------------------------------
  alpha Z        PSCENC =      2431.37857233
  Ewald energy   TEWEN  =    -42521.75263569
  -Hartree energ DENC   =    -21555.29824025
  -exchange      EXHF   =         0.00000000
  -V(xc)+E(xc)   XCENC  =      3246.55530722
  PAW double counting   =     86432.97598624   -86089.58827303
  entropy T*S    EENTRO =        -0.02103544
  eigenvalues    EBANDS =     -7789.51435794
  atomic energy  EATOM  =     64968.54023382
  Solvation  Ediel_sol  =         0.00000000
  ---------------------------------------------------
  free energy    TOTEN  =      -876.72444274 eV

  energy without entropy =     -876.70340730  energy(sigma->0) =     -876.71392502


--------------------------------------------------------------------------------------------------------




--------------------------------------- Iteration      1(  16)  ---------------------------------------


    POTLOK:  cpu time    0.1372: real time    0.1524
    SETDIJ:  cpu time    0.3322: real time    0.3321
     EDDAV:  cpu time   45.9236: real time   45.9235
       DOS:  cpu time    0.0027: real time    0.0026
    CHARGE:  cpu time    1.5404: real time    1.5404
    MIXING:  cpu time    0.0077: real time    0.0077
    --------------------------------------------
      LOOP:  cpu time   47.9438: real time   47.9588

 eigenvalue-minimisations  : 10480
 total energy-change (2. order) :-0.3446128E-02  (-0.3669879E-02)
 number of electron     864.0000006 magnetization 
 augmentation part      117.2299110 magnetization 

 Broyden mixing:
  rms(total) = 0.12076E+00    rms(broyden)= 0.12072E+00
  rms(prec ) = 0.15805E+00
  weight for this iteration     100.00

 eigenvalues of (default mixing * dielectric matrix)
  average eigenvalue GAMMA=   0.8436
  2.3095  1.9556  0.9603  0.9603  0.6292  0.6292  0.5915  0.4077  0.4077  0.1817
  0.2468

 Free energy of the ion-electron system (eV)
  ---------------------------------------------------
  alpha Z        PSCENC =      2431.37857233
  Ewald energy   TEWEN  =    -42521.75263569
  -Hartree energ DENC   =    -21557.32642984
  -exchange      EXHF   =         0.00000000
  -V(xc)+E(xc)   XCENC  =      3246.60801624
  PAW double counting   =     86351.77523471   -86007.76931495
  entropy T*S    EENTRO =        -0.03612251
  eigenvalues    EBANDS =     -7788.14544298
  atomic energy  EATOM  =     64968.54023382
  Solvation  Ediel_sol  =         0.00000000
  ---------------------------------------------------
  free energy    TOTEN  =      -876.72788887 eV

  energy without entropy =     -876.69176636  energy(sigma->0) =     -876.70982761


--------------------------------------------------------------------------------------------------------




--------------------------------------- Iteration      1(  17)  ---------------------------------------


    POTLOK:  cpu time    0.1172: real time    0.1190
    SETDIJ:  cpu time    0.3226: real time    0.3226
     EDDAV:  cpu time   47.7517: real time   47.7508
       DOS:  cpu time    0.0027: real time    0.0027
    CHARGE:  cpu time    1.5325: real time    1.5324
    MIXING:  cpu time    0.0069: real time    0.0069
    --------------------------------------------
      LOOP:  cpu time   49.7335: real time   49.7343

 eigenvalue-minimisations  : 11016
 total energy-change (2. order) : 0.4801338E-02  (-0.2771263E-02)
 number of electron     864.0000006 magnetization 
 augmentation part      117.2604771 magnetization 

 Broyden mixing:
  rms(total) = 0.60599E-01    rms(broyden)= 0.60574E-01
  rms(prec ) = 0.83321E-01
  weight for this iteration     100.00

 eigenvalues of (default mixing * dielectric matrix)
  average eigenvalue GAMMA=   0.8459
  2.2036  2.2036  0.9738  0.9738  0.7254  0.7254  0.5544  0.5544  0.4016  0.4016
  0.1817  0.2521

 Free energy of the ion-electron system (eV)
  ---------------------------------------------------
  alpha Z        PSCENC =      2431.37857233
  Ewald energy   TEWEN  =    -42521.75263569
  -Hartree energ DENC   =    -21557.77340050
  -exchange      EXHF   =         0.00000000
  -V(xc)+E(xc)   XCENC  =      3246.62084294
  PAW double counting   =     86327.36586970   -85983.19772125
  entropy T*S    EENTRO =        -0.02571966
  eigenvalues    EBANDS =     -7787.87912922
  atomic energy  EATOM  =     64968.54023382
  Solvation  Ediel_sol  =         0.00000000
  ---------------------------------------------------
  free energy    TOTEN  =      -876.72308753 eV

  energy without entropy =     -876.69736787  energy(sigma->0) =     -876.71022770


--------------------------------------------------------------------------------------------------------




--------------------------------------- Iteration      1(  18)  ---------------------------------------


    POTLOK:  cpu time    0.1162: real time    0.1319
    SETDIJ:  cpu time    0.3227: real time    0.3227
     EDDAV:  cpu time   44.6444: real time   44.6434
       DOS:  cpu time    0.0026: real time    0.0025
    CHARGE:  cpu time    1.5185: real time    1.5184
    MIXING:  cpu time    0.0077: real time    0.0077
    --------------------------------------------
      LOOP:  cpu time   46.6120: real time   46.6267

 eigenvalue-minimisations  : 10112
 total energy-change (2. order) : 0.4447226E-03  (-0.1153006E-02)
 number of electron     864.0000006 magnetization 
 augmentation part      117.2639107 magnetization 

 Broyden mixing:
  rms(total) = 0.48959E-01    rms(broyden)= 0.48953E-01
  rms(prec ) = 0.71746E-01
  weight for this iteration     100.00

 eigenvalues of (default mixing * dielectric matrix)
  average eigenvalue GAMMA=   0.8808
  2.5350  2.2833  1.1160  0.8944  0.8944  0.7143  0.7143  0.6234  0.4141  0.4141
  0.4398  0.1817  0.2256

 Free energy of the ion-electron system (eV)
  ---------------------------------------------------
  alpha Z        PSCENC =      2431.37857233
  Ewald energy   TEWEN  =    -42521.75263569
  -Hartree energ DENC   =    -21559.45796558
  -exchange      EXHF   =         0.00000000
  -V(xc)+E(xc)   XCENC  =      3246.68452260
  PAW double counting   =     86308.72245001   -85964.34863509
  entropy T*S    EENTRO =        -0.02566233
  eigenvalues    EBANDS =     -7786.46352289
  atomic energy  EATOM  =     64968.54023382
  Solvation  Ediel_sol  =         0.00000000
  ---------------------------------------------------
  free energy    TOTEN  =      -876.72264281 eV

  energy without entropy =     -876.69698048  energy(sigma->0) =     -876.70981164


--------------------------------------------------------------------------------------------------------




--------------------------------------- Iteration      1(  19)  ---------------------------------------


    POTLOK:  cpu time    0.1145: real time    0.1208
    SETDIJ:  cpu time    0.3224: real time    0.3224
     EDDAV:  cpu time   45.0869: real time   45.0886
       DOS:  cpu time    0.0025: real time    0.0025
    CHARGE:  cpu time    1.5281: real time    1.5280
    MIXING:  cpu time    0.0069: real time    0.0069
    --------------------------------------------
[...]
   0.115E+02 0.109E+03 -.658E+02   -.160E+02 -.106E+03 0.731E+02   0.721E+01 -.866E+01 -.110E+02   0.104E-03 0.219E-04 -.440E-02
   0.695E+02 0.280E+02 -.214E+02   -.677E+02 -.531E+02 0.328E+02   -.146E+01 0.265E+02 -.145E+02   -.356E-03 0.189E-02 -.751E-03
   0.532E+02 -.829E+02 0.982E+02   -.591E+02 0.757E+02 -.116E+03   0.408E+01 0.992E+01 0.144E+02   -.198E-02 -.934E-03 0.784E-03
   -.718E+02 0.170E+02 -.509E+01   0.973E+02 -.116E+02 0.525E+01   -.256E+02 -.518E+01 -.378E+00   0.131E-02 0.672E-03 0.655E-03
   0.180E+02 0.113E+03 -.147E+03   -.314E+02 -.117E+03 0.139E+03   0.156E+02 0.322E+01 0.130E+02   0.353E-02 0.624E-03 -.478E-03
   -.417E+02 0.455E+02 0.878E+02   0.549E+02 -.658E+02 -.984E+02   -.148E+02 0.240E+02 0.126E+02   -.559E-04 -.101E-02 0.172E-02
   -.830E+02 0.141E+03 -.381E+02   0.774E+02 -.167E+03 0.364E+02   0.506E+01 0.211E+02 0.362E+01   -.634E-02 -.128E-02 -.526E-02
   0.114E+03 -.641E+02 -.106E+03   -.119E+03 0.742E+02 0.134E+03   0.253E+01 -.833E+01 -.257E+02   0.242E-02 0.167E-02 -.212E-02
   0.185E+02 -.387E+02 -.172E+03   -.302E+02 0.531E+02 0.192E+03   0.137E+02 -.171E+02 -.201E+02   0.244E-02 -.221E-03 -.204E-02
   -.112E+02 -.237E+03 0.139E+03   0.173E+02 0.266E+03 -.155E+03   -.784E+01 -.272E+02 0.133E+02   -.325E-02 0.320E-02 0.253E-02
   -.107E+03 0.401E+02 0.682E+02   0.112E+03 -.396E+02 -.739E+02   -.552E+01 -.113E+01 0.631E+01   0.187E-02 0.342E-03 0.862E-03
   0.396E+02 0.139E+02 -.398E+02   -.529E+02 -.330E+02 0.398E+02   0.135E+02 0.219E+02 0.101E+01   0.219E-02 -.139E-02 0.142E-02
   0.727E+02 -.127E+03 -.409E+02   -.818E+02 0.124E+03 0.393E+02   0.109E+02 0.730E+01 0.307E+01   -.995E-03 0.220E-03 0.162E-02
   0.102E+03 0.203E+02 0.372E+02   -.105E+03 -.352E+02 -.490E+02   0.338E+01 0.173E+02 0.144E+02   -.210E-02 -.661E-03 0.123E-02
   -.213E+02 -.243E+02 0.149E+03   0.208E+02 0.306E+02 -.176E+03   -.261E+00 -.537E+01 0.233E+02   0.560E-02 -.233E-03 -.541E-04
   0.148E+03 -.648E+02 -.723E+02   -.173E+03 0.549E+02 0.721E+02   0.206E+02 0.937E+01 0.967E+00   -.205E-02 0.170E-02 -.727E-04
   0.791E+02 0.556E+02 -.920E+02   -.743E+02 -.794E+02 0.789E+02   -.700E+01 0.236E+02 0.154E+02   0.406E-03 0.144E-02 -.139E-02
   -.262E+02 -.753E+01 0.159E+02   0.257E+02 0.164E+02 -.665E+01   0.342E+01 -.920E+01 -.134E+02   -.240E-02 0.204E-02 0.462E-03
   -.540E+02 -.352E+01 -.208E+01   0.374E+02 -.894E+01 -.148E+02   0.164E+02 0.149E+02 0.156E+02   0.179E-02 -.717E-03 -.222E-04
   -.792E+02 0.711E+02 -.564E+02   0.887E+02 -.833E+02 0.423E+02   -.108E+02 0.144E+02 0.165E+02   0.276E-02 -.649E-03 -.398E-02
   -.642E+02 -.483E+02 0.159E+03   0.579E+02 0.545E+02 -.186E+03   0.570E+01 -.782E+01 0.215E+02   0.725E-02 0.354E-02 0.428E-02
   -.371E+02 -.101E+03 0.379E+02   0.481E+02 0.130E+03 -.351E+02   -.118E+02 -.294E+02 -.382E+01   -.636E-04 0.630E-04 0.231E-02
   -.322E+02 -.904E+02 -.118E+02   0.361E+02 0.904E+02 -.170E+01   -.654E+01 0.706E+01 0.109E+02   -.200E-02 -.213E-02 -.321E-03
   0.480E+01 0.493E+02 -.109E+03   -.311E+01 -.593E+02 0.134E+03   0.161E+01 0.316E+01 -.219E+02   -.348E-02 -.661E-02 -.417E-02
   -.435E+01 -.109E+03 0.209E+03   0.687E+01 0.112E+03 -.239E+03   -.220E+01 -.210E+01 0.283E+02   0.246E-02 0.694E-04 0.286E-02
   -.113E+03 -.739E+02 0.777E+02   0.114E+03 0.812E+02 -.910E+02   -.446E+00 -.909E+01 0.168E+02   0.394E-02 -.201E-03 0.351E-03
   0.321E+02 -.700E+02 -.536E+02   -.276E+02 0.485E+02 0.736E+02   -.460E+01 0.241E+02 -.220E+02   0.178E-02 -.800E-03 -.735E-03
   0.167E+01 0.326E+02 -.484E+02   -.478E+01 -.481E+02 0.279E+02   0.239E+01 0.175E+02 0.227E+02   0.186E-02 -.260E-02 -.364E-02
   -.768E+02 -.960E+02 -.542E+02   0.875E+02 0.117E+03 0.477E+02   -.123E+02 -.240E+02 0.814E+01   -.738E-03 -.412E-03 0.199E-03
   0.126E+03 0.154E+03 0.841E+02   -.141E+03 -.167E+03 -.783E+02   0.168E+02 0.863E+01 -.108E+02   0.124E-02 -.361E-02 0.222E-02
   0.139E+03 0.408E+01 0.772E+02   -.162E+03 -.104E+02 -.789E+02   0.214E+02 0.403E+01 0.671E+00   0.159E-02 -.584E-03 -.127E-03
   0.698E+02 -.994E+02 -.132E+02   -.598E+02 0.109E+03 0.140E+02   -.134E+02 -.119E+02 -.829E+00   -.636E-03 0.345E-02 0.790E-04
   -.116E+02 0.864E+02 -.590E+02   -.203E+01 -.788E+02 0.603E+02   0.157E+02 -.880E+01 -.912E+00   0.390E-02 0.295E-02 -.659E-04
   -.102E+03 -.488E+02 -.362E+02   0.117E+03 0.590E+02 0.416E+02   -.162E+02 -.114E+02 -.867E+01   -.401E-02 0.250E-02 -.191E-02
   0.264E+02 0.938E+02 0.974E+02   -.304E+02 -.981E+02 -.102E+03   0.243E+01 0.523E+01 0.509E+01   0.760E-03 -.309E-02 0.449E-02
   -.308E+02 0.291E+02 0.607E+02   0.330E+02 -.324E+02 -.649E+02   -.172E+01 0.548E+01 0.328E+00   0.213E-02 0.126E-02 -.150E-02
   -.220E+03 0.152E+02 -.253E+02   0.234E+03 -.250E+02 0.353E+01   -.100E+02 0.937E+01 0.243E+02   -.739E-03 -.229E-02 0.270E-03
   0.609E+02 0.226E+03 0.765E+02   -.873E+02 -.249E+03 -.700E+02   0.294E+02 0.255E+02 -.685E+01   -.309E-02 -.391E-02 0.103E-01
   -.685E+02 0.140E+03 0.108E+03   0.767E+02 -.170E+03 -.122E+03   -.426E+01 0.295E+02 0.133E+02   0.978E-03 -.317E-02 -.135E-02
   -.211E+03 0.306E+02 0.225E+02   0.229E+03 -.354E+02 -.482E+02   -.124E+02 0.710E+01 0.247E+02   -.509E-02 -.263E-02 -.261E-02
   -.607E+02 -.774E+02 -.134E+03   0.739E+02 0.105E+03 0.156E+03   -.129E+02 -.227E+02 -.211E+02   -.554E-02 -.287E-02 -.129E-02
   -.203E+02 0.376E+02 -.208E+02   0.626E+01 -.308E+02 0.385E+02   0.138E+02 -.971E+01 -.190E+02   0.172E-02 -.148E-02 0.211E-02
   -.312E+02 -.223E+01 -.816E+01   0.239E+02 -.348E+01 0.174E+02   0.968E+01 0.649E+01 -.115E+02   0.221E-02 -.529E-03 0.666E-03
   -.895E+02 0.606E+02 -.340E+02   0.885E+02 -.617E+02 0.438E+02   0.426E+01 0.211E+01 -.850E+01   0.358E-02 0.933E-03 -.172E-02
   -.102E+02 0.944E+01 0.685E+02   0.343E+02 -.339E+01 -.668E+02   -.251E+02 -.649E+01 -.234E+01   0.853E-03 -.273E-03 -.691E-04
   0.905E+02 -.451E+02 -.251E+02   -.866E+02 0.515E+02 0.459E+02   -.460E+01 -.928E+01 -.183E+02   0.266E-02 -.181E-02 -.102E-02
   0.368E+02 -.602E+02 0.218E+02   -.608E+02 0.690E+02 -.258E+02   0.242E+02 -.984E+01 0.276E+01   -.102E-02 -.561E-02 -.393E-02
   -.350E+02 0.117E+02 -.603E+02   0.255E+02 -.216E+02 0.704E+02   0.103E+02 0.118E+02 -.113E+02   0.166E-02 0.139E-02 0.700E-03
 -----------------------------------------------------------------------------------------------
   0.104E+03 -.131E+03 -.135E+03   -.220E-12 -.725E-12 -.909E-12   -.104E+03 0.131E+03 0.135E+03   -.641E-02 -.833E-02 -.193E-01
 
 
 POSITION                                       TOTAL-FORCE (eV/Angst)
 -----------------------------------------------------------------------------------
      2.59670      6.39313      2.92278         5.297973     -4.833783     -1.479004
      6.16590      1.73274      9.11659        -2.157271      4.214682      2.042512
      0.27860      7.75190      1.85879        -1.244190      0.776052     -3.744398
      9.75635      6.09980      5.05843        -0.117215      1.403869      1.172645
      0.41310      3.32663      0.58592        -0.815871     -2.129307      3.021652
      3.29133      3.99400      7.44231         3.168244      1.808457      2.343213
      7.36882      2.65922     12.18191         1.035066     -0.614513      2.368151
      9.63339      9.66211     10.75859        -2.198897     -0.644446     -1.814164
      9.48387      6.17643      0.77944         0.529739     -2.285684     -1.912526
     12.26474      2.09541      3.72685         1.244819     -0.500931     -1.913471
      1.59768     10.58233      0.23161        -0.305623      1.896967      0.339296
      8.06297      8.63933      1.76916        -2.801134      0.863396      0.916802
      2.40739     11.48352      5.24027        -0.608327      0.283240     -1.061517
      4.38925      0.32092      1.01835         2.166207      1.712783      0.512041
     11.69530      6.62425     10.42606        -0.329450     -0.617542     -0.102166
      5.85675     10.70974     11.67621        -0.123390     -0.388277     -0.200865
      0.25205      4.62416      5.71671        -0.149881      1.075986     -1.583954
      5.90763      8.63236      3.98836        -1.983099      2.731943     -0.217320
      0.55416      0.73520      8.64474         2.978686     -0.500218     -1.337054
      9.13264     11.86157      3.87342        -4.960393      1.547434     -2.055559
      5.62981      3.32556      4.18770        -0.273395      0.498633     -2.678293
      9.38101      2.72218      5.17055        -0.221294     -0.163971     -0.411625
      7.16983      5.91659      9.02404        -1.555910      1.107157     -0.205268
      5.38941     10.13054      7.98575        -0.129688      1.538757      0.133517
      0.52413     10.22514      7.77128        -0.517283      1.080579      0.011070
      2.02163      8.37029     10.31052         2.069603      0.993725      2.954147
      0.09071      3.64032      9.34785         0.255932     -0.732514      1.406085
      5.65571      0.69220      5.84004         0.175063     -4.141221     -1.401859
      5.37484      4.34248      0.94726         0.154066      0.281978      1.415250
      5.68675      7.60697     11.88352         5.072730      5.144130      7.101360
     10.40105      3.00868      1.96061        -1.852993      0.516565     -1.611903
      9.17387      2.22152      9.24397         3.525360     -1.228623      1.987551
      7.71742      3.68047      6.76325         1.402029     -3.561889     -0.718769
      8.18377     12.46474      0.18122        -0.052126      2.305781     -3.779141
      3.26540      8.36630      5.82604         0.716140     -4.000148     -3.470695
      9.41043      4.75811      9.89673         2.625015      3.703286      4.046726
      2.32595      2.43406      5.29389        -0.767489     -0.339616     -5.321694
      7.14248      7.82551      6.84147        -2.814890      2.120172     -3.681729
     11.02655      0.76753      6.72633         2.122758     -2.878899      0.179191
     11.64708     10.61325      3.60564         5.370749      2.575069      1.925788
      4.36181      5.53356     10.40318        -2.766537     -3.139656      2.280660
      9.92016     10.93978      8.03774         2.979812     -3.734782     -0.384118
      0.98683      6.96788      7.43136        -2.987435     -1.343906     -3.645277
      7.66057      5.58248      2.67161        -4.010503      3.462979      0.988975
      3.26976     11.67190     10.45930        -6.742507      2.698812     -1.121961
      8.13911      0.07012      7.92852        -9.701338     -1.020186      4.407287
      3.27452      2.72623     10.17749        -0.427395     -4.025925      3.846927
      0.45606      8.00563      4.68099        -2.520191      4.631036      6.735321
     11.06992      0.12830     10.55294        -3.230195      2.231443      2.821031
      1.92553      5.96061     12.28036        -1.828524     -1.541197      1.297501
      3.73229      8.51910      0.78252        -3.164917      1.205120      1.443489
     10.46424     10.54863      0.79121        -1.809131      4.995593      3.237483
      2.67060      1.09164      2.92560        -1.795310     -2.380278      4.092096
      5.57418     11.44945      3.26156         3.935482      2.347652      0.128989
     11.26651     11.42608      2.11679        -1.147792     -3.659189     -1.100097
      7.03881      5.46244      0.96567         1.387021     -1.119571      1.113787
      1.13402      5.35188      1.12988         0.809707      1.885061     -0.903861
      6.69393      4.68498      7.19019        -4.601696      2.072949      1.965888
      8.24460      0.84027      9.64316         0.290592      1.784022     -0.440355
      9.56242     12.26989     11.37034         1.492777      0.614359      0.190766
      8.24812      7.72712      5.61798        -0.735232     -0.274529      3.133425
      1.68567      1.49758      1.76831         0.482543      1.072412     -0.375253
      0.84690      7.80107     12.19539        -1.145036     -1.901513     -2.720439
      3.61651      2.32270      4.03712        -0.916411     -1.271364      0.417002
      4.57799     11.27698      9.91119         6.242953     -3.406030     -4.123690
      9.03841      4.60997      6.65878         1.335489     -1.248028     -1.995906
     10.86321     11.60891      9.37796        -0.205312     -9.054673     -4.311104
      7.26236      7.54367     12.13101         0.819210     -0.694088     -0.335359
      5.43902      8.78008      0.63943        -0.213255     -3.621327      1.014261
     12.41297      7.17034      6.04119        -4.043161     -1.545335     -0.764892
      1.16269      8.25007      8.46586        -1.189225     -3.413674     -1.066472
     11.80431      8.95479      3.84682        -0.845420     -2.126037     -0.544949
     10.24571      5.27812     11.25522         0.148554      1.436573      1.649921
     10.70428      9.64860      7.32522        -1.375738      2.670949      2.406432
      7.35933      4.14603      3.21797         2.268620     -0.344367      1.803233
      6.81103      8.41446      8.37855         1.314150     -2.478949     -2.284277
      9.90011      2.10544      3.35448         0.113975      1.151660      0.278783
      9.72103      3.55483      0.51478        -0.488889      1.841479      2.803948
      2.86010     11.89599      2.91241         1.831679      4.012894     -0.629443
      7.13932     12.28689      5.58046        -0.863512      2.315735      2.970844
      2.73156      5.76057     10.77088        -0.789647      2.340140     -0.136732
     10.25121      3.48710      9.75134         4.022935     -5.690113     -2.591844
     12.48470      0.92391     10.57859        -0.475738     -1.228763      3.437374
      3.62771      9.85745      5.91649         1.109507      0.638709      2.185938
      9.41338      0.33178      7.09963         5.608901     -1.405616     -3.311313
     10.84881     11.45585      4.74486        -0.026133     -1.149586     -0.152582
      7.23764     10.50968      3.63474        -1.441873      0.202926     -0.521218
      6.85684      7.13123      3.34924         2.693640     -5.014898     -3.728906
      5.58073      2.71234      1.20442         0.412003      1.322660     -3.082386
      8.41386      2.25594      7.81318        -1.813321      2.640222     -2.917091
      4.60972      3.62185     10.11281        -0.109268      0.206122     -0.211842
      5.58044      8.00351      5.90140         2.207769     -0.648020      5.241513
     12.10586     12.00587      6.66992        -1.538536      3.684291      2.083950
      9.92689      9.09746      0.89838        -0.523818     -4.580701      1.894284
      5.03598      4.79317      2.40485        -2.603749      1.714625      1.788249
      2.57200      9.40286      1.65700         2.059908     -2.619396     -0.226787
      9.60135      6.15657      9.21104        -1.800439      1.544440     -2.459340
      2.42135     12.05620      8.48669        -0.571924     -0.555042      0.601894
      1.65326      0.96560      4.58955         0.164474      2.832511      1.096069
     12.37949      5.16378      7.84794         1.894814      3.493315      1.450625
      7.15217      2.43266      5.55741         0.839614      2.385605      2.584664
      3.71850      8.72892     11.75319        -0.695241      0.895005     -3.880107
      8.11003      3.82128      9.79328        -4.243088     -0.588898      0.701606
      0.94824      7.05250      3.58405        -2.199256     -0.188082      2.271756
      1.02857      9.04596      6.08135         2.977798     -0.313272     -4.051351
      2.11572      2.37177      9.15678        -0.199850      2.481491     -1.211545
      3.67558      7.49414      4.41450        -1.298666      2.170029      2.312155
      5.10566      6.92065     10.73469        -0.592161     -1.637775     -5.822174
     11.52712      2.28429      6.72160        -0.826831     -0.269646     -1.029183
     10.61211      1.04998      9.22636        -2.600535      7.071467     -2.619827
      8.86435     11.44865      1.08320         3.292304     -6.866333      2.715002
      4.46570      5.56717      8.84048         0.318206      0.901899     -2.542192
      1.42559      3.76191      3.84582         0.452624     -1.802513      3.509447
      3.58363      1.42259     11.13159        -0.195537      2.630925     -2.074137
      5.28197     10.57233      1.87492        -0.715943      1.990921      2.231509
      6.04245      0.57462      2.82663        -1.678748     -2.635263      1.619570
      6.40019      0.02230      8.52384         2.000546     -4.479340     -5.119929
      1.86086     10.87672     10.65102        -1.233803     -2.237852     -1.033598
     11.78483      4.54521      2.74853        -3.400678     -2.667566     -0.026961
      4.51905      5.10971     12.19509         2.061333     -1.174612      0.433460
      9.18269      6.35650      3.06274        -0.895574     -1.153959     -3.241640
      7.61760      9.58280     10.64767        -1.576969      0.950471      0.801023
      1.10820      4.17065     11.48821         0.482995      2.131114     -3.842067
      1.88368      6.28585      6.23801         3.851125     -0.423426      2.584790
      8.24357     10.84601      8.17741         2.904310      2.249429     -0.336804
     11.16373      1.75383      1.41674         3.931725     -0.502912     -0.374591
     11.11327     10.31923     11.93125         5.182403      2.260173     -0.905051
      8.53396      1.24000      0.85372         0.260984      4.870938      1.013652
      1.68462      3.30841      6.54728        -0.303628     -2.872723     -1.282025
      3.93703      1.29625      6.96046         2.310892      0.775305     -2.318562
      2.81902      6.99270      0.74785         3.250812      1.003445      1.350084
      0.70200     10.94544      3.88294        -0.897861     -0.447298     -0.624797
      3.61197     11.93923     11.96682        -0.731301     -2.886485      2.639341
      6.62592      0.15211     12.28062         0.226835     -1.022513     -1.194929
      4.82936     11.65421      4.97979         0.833383      1.969243     -1.131070
 -----------------------------------------------------------------------------------
    total drift:                                0.005115     -0.001775     -0.004254


--------------------------------------------------------------------------------------------------------



  FREE ENERGIE OF THE ION-ELECTRON SYSTEM (eV)
  ---------------------------------------------------
  free  energy   TOTEN  =      -876.72070775 eV

  energy  without entropy=     -876.69476993  energy(sigma->0) =     -876.70773884
 


--------------------------------------------------------------------------------------------------------


    POTLOK:  cpu time    0.4352: real time    0.4352


--------------------------------------------------------------------------------------------------------


     LOOP+:  cpu time 1377.8034: real time 1378.0969
    4ORBIT:  cpu time    0.0000: real time    0.0000

 total amount of memory used by VASP MPI-rank0   175604. kBytes
=======================================================================

   base      :      30000. kBytes
   nonlr-proj:      20274. kBytes
   fftplans  :      25568. kBytes
   grid      :      13529. kBytes
   one-center:        171. kBytes
   wavefun   :      86062. kBytes
 
  
  
 General timing and accounting informations for this job:
 ========================================================
  
                  Total CPU time used (sec):     1402.940
                            User time (sec):     1397.669
                          System time (sec):        5.271
                         Elapsed time (sec):     1403.527
  
                   Maximum memory used (kb):      320488.
                   Average memory used (kb):           0.
  
                          Minor page faults:       241653
                          Major page faults:            0
                 Voluntary context switches:         2031
