 running on   52 total cores
 distrk:  each k-point on   52 cores,    1 groups
 distr:  one band on   13 cores,    4 groups
 using from now: INCAR     
 vasp.5.4.4.18Apr17-6-g9f103f2a35 (build Oct 31 2019 15:01:46) complex          
  
 POSCAR found type information on POSCAR  Sc F  C 
 POSCAR found :  3 types and      80 ions
 scaLAPACK is switched off
 LDA part: xc-table for Pade appr. of Perdew
 generate k-points for:    3    3    1
 POSCAR, INCAR and KPOINTS ok, starting setup
 FFT: planning ...
 WAVECAR not read
 entering main loop
       N       E                     dE             d eps       ncg     rms          rms(c)
DAV:   1     0.136470786443E+05    0.13647E+05   -0.27883E+05  4248   0.156E+03
DAV:   2     0.249188820819E+04   -0.11155E+05   -0.10854E+05  4600   0.533E+02
DAV:   3    -0.379870215638E+03   -0.28718E+04   -0.27562E+04  6776   0.295E+02
DAV:   4    -0.740324477201E+03   -0.36045E+03   -0.35618E+03  6064   0.139E+02
DAV:   5    -0.754822743352E+03   -0.14498E+02   -0.14441E+02  6080   0.352E+01    0.760E+01
DAV:   6    -0.599605389915E+03    0.15522E+03   -0.83752E+02  5720   0.643E+01    0.248E+01
DAV:   7    -0.599722735205E+03   -0.11735E+00   -0.52813E+01  5928   0.211E+01    0.160E+01
DAV:   8    -0.598227219040E+03    0.14955E+01   -0.10236E+01  5552   0.795E+00    0.449E+00
DAV:   9    -0.597707370502E+03    0.51985E+00   -0.27805E+00  5488   0.508E+00    0.213E+00
DAV:  10    -0.597672709637E+03    0.34661E-01   -0.25810E-01  5880   0.166E+00    0.113E+00
DAV:  11    -0.597556108690E+03    0.11660E+00   -0.15663E-01  5544   0.107E+00    0.800E-01
DAV:  12    -0.597529577860E+03    0.26531E-01   -0.49084E-02  5888   0.582E-01    0.321E-01
DAV:  13    -0.597522341068E+03    0.72368E-02   -0.31661E-02  5592   0.425E-01    0.283E-01
DAV:  14    -0.597519591683E+03    0.27494E-02   -0.11165E-02  5648   0.256E-01    0.146E-01
DAV:  15    -0.597525433566E+03   -0.58419E-02   -0.99779E-03  5624   0.209E-01    0.110E-01
DAV:  16    -0.597528522591E+03   -0.30890E-02   -0.19295E-03  5600   0.139E-01    0.811E-02
DAV:  17    -0.597533446652E+03   -0.49241E-02   -0.25648E-03  5776   0.112E-01    0.958E-02
DAV:  18    -0.597536920323E+03   -0.34737E-02   -0.93889E-04  5392   0.859E-02    0.546E-02
DAV:  19    -0.597538270369E+03   -0.13500E-02   -0.46287E-04  5712   0.504E-02    0.202E-02
DAV:  20    -0.597541247279E+03   -0.29769E-02   -0.15081E-04  5184   0.228E-02    0.223E-02
DAV:  21    -0.597543552097E+03   -0.23048E-02   -0.11021E-04  4720   0.179E-02    0.111E-02
DAV:  22    -0.597544672506E+03   -0.11204E-02   -0.91209E-05  4608   0.143E-02    0.863E-03
DAV:  23    -0.597545139999E+03   -0.46749E-03   -0.18080E-05  4664   0.107E-02    0.369E-03
DAV:  24    -0.597545466278E+03   -0.32628E-03   -0.11947E-05  4368   0.523E-03    0.254E-03
DAV:  25    -0.597545635738E+03   -0.16946E-03   -0.51674E-06  4048   0.360E-03    0.140E-03
DAV:  26    -0.597545696874E+03   -0.61136E-04   -0.82014E-07  2912   0.199E-03    0.119E-03
DAV:  27    -0.597545727761E+03   -0.30887E-04   -0.44415E-07  2648   0.183E-03    0.835E-04
DAV:  28    -0.597545746596E+03   -0.18835E-04   -0.46909E-07  2776   0.164E-03    0.632E-04
DAV:  29    -0.597545753448E+03   -0.68524E-05   -0.29470E-07  2616   0.150E-03    0.647E-04
DAV:  30    -0.597545756621E+03   -0.31728E-05   -0.20741E-07  2520   0.119E-03    0.545E-04
DAV:  31    -0.597545757222E+03   -0.60053E-06   -0.12224E-07  2496   0.101E-03
   1 F= -.59754576E+03 E0= -.59754576E+03  d E =-.224877E-10
