<?xml version="1.0" encoding="ISO-8859-1"?>
<modeling>
 <generator>
  <i name="program" type="string">vasp </i>
  <i name="version" type="string">5.4.4.18Apr17-6-g9f103f2a35  </i>
  <i name="subversion" type="string">(build Oct 31 2019 15:01:46) complex            parallel </i>
  <i name="platform" type="string">LinuxIFC </i>
  <i name="date" type="string">2024 04 19 </i>
  <i name="time" type="string">02:26:27 </i>
 </generator>
 <incar>
  <i type="int" name="ISTART">     0</i>
  <i type="string" name="PREC">anormal</i>
  <i type="logical" name="ADDGRID"> T  </i>
  <i type="int" name="IBRION">    -1</i>
  <i name="EDIFF">      0.00000100</i>
  <i name="EDIFFG">     -0.01000000</i>
  <i type="int" name="NSW">     1</i>
  <i type="int" name="ISIF">     2</i>
  <i type="int" name="ISYM">     2</i>
  <i name="ENCUT">    600.00000000</i>
  <i name="POTIM">      1.00000000</i>
  <i type="string" name="LREAL"> Auto.</i>
  <i type="int" name="ISMEAR">     0</i>
  <i name="SIGMA">      0.05000000</i>
  <i name="KSPACING">      0.25000000</i>
  <i type="logical" name="LWAVE"> F  </i>
  <i type="logical" name="LCHARG"> F  </i>
  <i type="logical" name="LSCALAPACK"> F  </i>
  <v type="int" name="KPOINT_BSE">    -1     0     0     0</v>
 </incar>
 <structure name="primitive_cell" >
  <crystal>
   <varray name="basis" >
    <v>      13.12862340       0.00000000       0.00000000 </v>
    <v>      -6.56431170      11.36972138       0.00000000 </v>
    <v>       0.00000000       0.00000000      26.82809424 </v>
   </varray>
   <i name="volume">   4004.59716953 </i>
   <varray name="rec_basis" >
    <v>       0.07616945       0.04397645       0.00000000 </v>
    <v>       0.00000000       0.08795290       0.00000000 </v>
    <v>       0.00000000       0.00000000       0.03727436 </v>
   </varray>
  </crystal>
  <varray name="positions" >
   <v>       0.08051252       0.16093520       0.45062491 </v>
   <v>      -0.08123537       0.09012079       0.40932534 </v>
   <v>       0.00018228       0.00152125       0.49687059 </v>
   <v>       0.00182324       0.24822358       0.49459354 </v>
   <v>       0.16363471       0.33449797       0.40893552 </v>
   <v>       0.25857745       0.25175725       0.49606940 </v>
   <v>       0.16523216       0.06559124       0.40636897 </v>
   <v>       0.17452861       0.09134559      -0.45417262 </v>
   <v>       0.16351808       0.33531744      -0.45592532 </v>
   <v>      -0.08085047       0.08403562      -0.45120988 </v>
   <v>      -0.17206287      -0.08468865       0.45002076 </v>
   <v>       0.32790051       0.41213719       0.44798391 </v>
   <v>       0.33284858       0.16299946       0.45121383 </v>
   <v>       0.08441578      -0.08982799       0.45120193 </v>
   <v>      -0.16973413       0.16965855       0.45342290 </v>
   <v>       0.08039093       0.41946071       0.45370012 </v>
   <v>       0.09258428       0.17731345      -0.41151024 </v>
   <v>      -0.08465990      -0.17035679       0.41129577 </v>
   <v>      -0.24608752       0.00349133      -0.49924932 </v>
   <v>       0.24970405      -0.00272863       0.49700044 </v>
   <v>      -0.09641381       0.33257170       0.40994155 </v>
   <v>       0.42889311       0.33156454       0.40821882 </v>
   <v>       0.24563050      -0.49732647      -0.49706841 </v>
   <v>      -0.07438834      -0.16537929      -0.45492454 </v>
   <v>      -0.08624067       0.33135158      -0.45330089 </v>
   <v>       0.41940657       0.33120166      -0.45372551 </v>
   <v>      -0.16024259      -0.07007708      -0.40936333 </v>
   <v>       0.06446671       0.39108058      -0.40430672 </v>
   <v>       0.34718711       0.17998946      -0.41141883 </v>
   <v>       0.34164983       0.42209008      -0.41228049 </v>
   <v>       0.08754994      -0.07828360      -0.40368510 </v>
   <v>      -0.16527927       0.16061195      -0.40382256 </v>
   <v>      -0.24803084      -0.24828631       0.49996604 </v>
   <v>      -0.33601287      -0.16797129       0.41112662 </v>
   <v>       0.41051228      -0.42461427       0.40800520 </v>
   <v>       0.16485681      -0.17042909       0.40973564 </v>
   <v>       0.41793757       0.08509779       0.41039567 </v>
   <v>      -0.33653021       0.08952427       0.41321431 </v>
   <v>      -0.24734638       0.25060307      -0.49966108 </v>
   <v>       0.49757845       0.49495457       0.49727327 </v>
   <v>       0.00105703      -0.25151645      -0.49559335 </v>
   <v>       0.16391274      -0.41443985       0.41230555 </v>
   <v>      -0.00006396       0.49781915      -0.49711277 </v>
   <v>      -0.49300197       0.25653351       0.49885033 </v>
   <v>      -0.32994437      -0.16147767      -0.45575008 </v>
   <v>       0.16162343      -0.16392985      -0.44985364 </v>
   <v>      -0.32991831       0.08157665      -0.45094907 </v>
   <v>      -0.17458220      -0.33655753       0.45340997 </v>
   <v>       0.41923104      -0.42168192      -0.45218302 </v>
   <v>       0.42163578       0.08328501      -0.45143363 </v>
   <v>       0.34092057      -0.08052664       0.45182736 </v>
   <v>      -0.16680953       0.41605909       0.45425732 </v>
   <v>      -0.42310231      -0.08669365       0.45391869 </v>
   <v>       0.16525591      -0.41445279      -0.45022913 </v>
   <v>       0.32692524      -0.33185344       0.45601783 </v>
   <v>      -0.40845384       0.41685265       0.44996666 </v>
   <v>      -0.41108114      -0.33503755       0.45346570 </v>
   <v>      -0.41841916       0.17496113       0.45180044 </v>
   <v>       0.07788505      -0.33970450       0.45772028 </v>
   <v>      -0.16100877      -0.33263293      -0.41228963 </v>
   <v>      -0.17084827       0.40704921      -0.41281886 </v>
   <v>       0.33109220      -0.07704971      -0.40414271 </v>
   <v>      -0.49208227      -0.24572473       0.49771057 </v>
   <v>       0.24337349      -0.24953377       0.49907564 </v>
   <v>      -0.08544291      -0.41708608       0.41226486 </v>
   <v>      -0.34088500      -0.42677606       0.40639300 </v>
   <v>      -0.32926984       0.33135415       0.40491941 </v>
   <v>       0.49679533      -0.00065357      -0.49931131 </v>
   <v>      -0.40503060       0.42249113      -0.41204087 </v>
   <v>      -0.42652421      -0.09460438      -0.40696003 </v>
   <v>       0.33714100      -0.31743831      -0.40830496 </v>
   <v>      -0.08692452      -0.41654596      -0.45193252 </v>
   <v>      -0.33514896      -0.41838298      -0.45496762 </v>
   <v>      -0.33367842       0.33666437      -0.45343058 </v>
   <v>      -0.40757777      -0.33399889      -0.40901753 </v>
   <v>       0.08780210      -0.32194125      -0.40452595 </v>
   <v>      -0.41618675       0.15190461      -0.40747712 </v>
   <v>       0.42171009      -0.15694796       0.40728423 </v>
   <v>      -0.24500022       0.49628575      -0.49916215 </v>
   <v>       0.40844050      -0.16179100      -0.45062297 </v>
  </varray>
 </structure>
 <varray name="primitive_index" >
  <v type="int" >        1 </v>
  <v type="int" >       61 </v>
  <v type="int" >       65 </v>
  <v type="int" >       66 </v>
  <v type="int" >       50 </v>
  <v type="int" >       70 </v>
  <v type="int" >       49 </v>
  <v type="int" >       17 </v>
  <v type="int" >       18 </v>
  <v type="int" >       29 </v>
  <v type="int" >       16 </v>
  <v type="int" >        6 </v>
  <v type="int" >        5 </v>
  <v type="int" >        4 </v>
  <v type="int" >       13 </v>
  <v type="int" >        2 </v>
  <v type="int" >       33 </v>
  <v type="int" >       64 </v>
  <v type="int" >       77 </v>
  <v type="int" >       69 </v>
  <v type="int" >       62 </v>
  <v type="int" >       54 </v>
  <v type="int" >       71 </v>
  <v type="int" >       32 </v>
  <v type="int" >       30 </v>
  <v type="int" >       22 </v>
  <v type="int" >       48 </v>
  <v type="int" >       34 </v>
  <v type="int" >       37 </v>
  <v type="int" >       38 </v>
  <v type="int" >       36 </v>
  <v type="int" >       45 </v>
  <v type="int" >       80 </v>
  <v type="int" >       60 </v>
  <v type="int" >       55 </v>
  <v type="int" >       52 </v>
  <v type="int" >       53 </v>
  <v type="int" >       57 </v>
  <v type="int" >       78 </v>
  <v type="int" >       75 </v>
  <v type="int" >       68 </v>
  <v type="int" >       51 </v>
  <v type="int" >       67 </v>
  <v type="int" >       74 </v>
  <v type="int" >       28 </v>
  <v type="int" >       20 </v>
  <v type="int" >       25 </v>
  <v type="int" >       15 </v>
  <v type="int" >       23 </v>
  <v type="int" >       21 </v>
  <v type="int" >        8 </v>
  <v type="int" >       14 </v>
  <v type="int" >       12 </v>
  <v type="int" >       19 </v>
  <v type="int" >        7 </v>
  <v type="int" >       10 </v>
  <v type="int" >       11 </v>
  <v type="int" >        9 </v>
  <v type="int" >        3 </v>
  <v type="int" >       47 </v>
  <v type="int" >       46 </v>
  <v type="int" >       40 </v>
  <v type="int" >       76 </v>
  <v type="int" >       72 </v>
  <v type="int" >       63 </v>
  <v type="int" >       59 </v>
  <v type="int" >       58 </v>
  <v type="int" >       73 </v>
  <v type="int" >       42 </v>
  <v type="int" >       44 </v>
  <v type="int" >       39 </v>
  <v type="int" >       31 </v>
  <v type="int" >       27 </v>
  <v type="int" >       26 </v>
  <v type="int" >       43 </v>
  <v type="int" >       35 </v>
  <v type="int" >       41 </v>
  <v type="int" >       56 </v>
  <v type="int" >       79 </v>
  <v type="int" >       24 </v>
 </varray>
 <kpoints>
  <generation param="Gamma">
   <v type="int" name="divisions">       3        3        1 </v>
   <v name="usershift">      0.00000000       0.00000000       0.00000000 </v>
   <v name="genvec1">      0.33333333       0.00000000       0.00000000 </v>
   <v name="genvec2">      0.00000000       0.33333333       0.00000000 </v>
   <v name="genvec3">      0.00000000       0.00000000       1.00000000 </v>
   <v name="shift">      0.00000000       0.00000000       0.00000000 </v>
  </generation>
  <varray name="kpointlist" >
   <v>       0.00000000       0.00000000       0.00000000 </v>
   <v>       0.33333333      -0.00000000       0.00000000 </v>
   <v>       0.00000000       0.33333333       0.00000000 </v>
   <v>       0.33333333       0.33333333       0.00000000 </v>
   <v>      -0.33333333       0.33333333       0.00000000 </v>
  </varray>
  <varray name="weights" >
   <v>       0.11111111 </v>
   <v>       0.22222222 </v>
   <v>       0.22222222 </v>
   <v>       0.22222222 </v>
   <v>       0.22222222 </v>
  </varray>
 </kpoints>
 <parameters>
  <separator name="general" >
   <i type="string" name="SYSTEM">unknown system</i>
   <i type="logical" name="LCOMPAT"> F  </i>
  </separator>
  <separator name="electronic" >
   <i type="string" name="PREC">anorma</i>
   <i name="ENMAX">    600.00000000</i>
   <i name="ENAUG">    644.87300000</i>
   <i name="EDIFF">      0.00000100</i>
   <i type="int" name="IALGO">    38</i>
   <i type="int" name="IWAVPR">    10</i>
   <i type="int" name="NBANDS">   384</i>
   <i name="NELECT">    640.00000000</i>
   <i type="int" name="TURBO">     0</i>
   <i type="int" name="IRESTART">     0</i>
   <i type="int" name="NREBOOT">     0</i>
   <i type="int" name="NMIN">     0</i>
   <i name="EREF">      0.00000000</i>
   <separator name="electronic smearing" >
    <i type="int" name="ISMEAR">     0</i>
    <i name="SIGMA">      0.05000000</i>
    <i name="KSPACING">      0.25000000</i>
    <i type="logical" name="KGAMMA"> T  </i>
   </separator>
   <separator name="electronic projectors" >
    <i type="logical" name="LREAL"> T  </i>
    <v name="ROPT">     -0.00025000     -0.00025000     -0.00025000</v>
    <i type="int" name="LMAXPAW">  -100</i>
    <i type="int" name="LMAXMIX">     2</i>
    <i type="logical" name="NLSPLINE"> F  </i>
   </separator>
   <separator name="electronic startup" >
    <i type="int" name="ISTART">     0</i>
    <i type="int" name="ICHARG">     2</i>
    <i type="int" name="INIWAV">     1</i>
   </separator>
   <separator name="electronic spin" >
    <i type="int" name="ISPIN">     1</i>
    <i type="logical" name="LNONCOLLINEAR"> F  </i>
    <v name="MAGMOM">      1.00000000      1.00000000      1.00000000      1.00000000      1.00000000      1.00000000      1.00000000      1.00000000      1.00000000      1.00000000      1.00000000      1.00000000      1.00000000      1.00000000      1.00000000      1.00000000      1.00000000      1.00000000      1.00000000      1.00000000
      1.00000000      1.00000000      1.00000000      1.00000000      1.00000000      1.00000000      1.00000000      1.00000000      1.00000000      1.00000000      1.00000000      1.00000000      1.00000000      1.00000000      1.00000000      1.00000000      1.00000000      1.00000000      1.00000000      1.00000000
      1.00000000      1.00000000      1.00000000      1.00000000      1.00000000      1.00000000      1.00000000      1.00000000      1.00000000      1.00000000      1.00000000      1.00000000      1.00000000      1.00000000      1.00000000      1.00000000      1.00000000      1.00000000      1.00000000      1.00000000
      1.00000000      1.00000000      1.00000000      1.00000000      1.00000000      1.00000000      1.00000000      1.00000000      1.00000000      1.00000000      1.00000000      1.00000000      1.00000000      1.00000000      1.00000000      1.00000000      1.00000000      1.00000000      1.00000000      1.00000000
</v>
    <i name="NUPDOWN">     -1.00000000</i>
    <i type="logical" name="LSORBIT"> F  </i>
    <v name="SAXIS">      0.00000000      0.00000000      1.00000000</v>
    <i type="logical" name="LSPIRAL"> F  </i>
    <v name="QSPIRAL">      0.00000000      0.00000000      0.00000000</v>
    <i type="logical" name="LZEROZ"> F  </i>
   </separator>
   <separator name="electronic exchange-correlation" >
    <i type="logical" name="LASPH"> F  </i>
    <i type="logical" name="LMETAGGA"> F  </i>
   </separator>
   <separator name="electronic convergence" >
    <i type="int" name="NELM">    60</i>
    <i type="int" name="NELMDL">    -5</i>
    <i type="int" name="NELMIN">     2</i>
    <i name="ENINI">    600.00000000</i>
    <separator name="electronic convergence detail" >
     <i type="logical" name="LDIAG"> T  </i>
     <i type="logical" name="LSUBROT"> F  </i>
     <i name="WEIMIN">      0.00000000</i>
     <i name="EBREAK">      0.00000000</i>
     <i name="DEPER">      0.30000000</i>
     <i type="int" name="NRMM">     4</i>
     <i name="TIME">      0.40000000</i>
    </separator>
   </separator>
   <separator name="electronic mixer" >
    <i name="AMIX">      0.40000000</i>
    <i name="BMIX">      1.00000000</i>
    <i name="AMIN">      0.10000000</i>
    <i name="AMIX_MAG">      1.60000000</i>
    <i name="BMIX_MAG">      1.00000000</i>
    <separator name="electronic mixer details" >
     <i type="int" name="IMIX">     4</i>
     <i type="logical" name="MIXFIRST"> F  </i>
     <i type="int" name="MAXMIX">   -45</i>
     <i name="WC">    100.00000000</i>
     <i type="int" name="INIMIX">     1</i>
     <i type="int" name="MIXPRE">     1</i>
     <i type="int" name="MREMOVE">     5</i>
    </separator>
   </separator>
   <separator name="electronic dipolcorrection" >
    <i type="logical" name="LDIPOL"> F  </i>
    <i type="logical" name="LMONO"> F  </i>
    <i type="int" name="IDIPOL">     0</i>
    <i name="EPSILON">      1.00000000</i>
    <v name="DIPOL">   -100.00000000   -100.00000000   -100.00000000</v>
    <i name="EFIELD">      0.00000000</i>
   </separator>
  </separator>
  <separator name="grids" >
   <i type="int" name="NGX">   108</i>
   <i type="int" name="NGY">   108</i>
   <i type="int" name="NGZ">   216</i>
   <i type="int" name="NGXF">   216</i>
   <i type="int" name="NGYF">   216</i>
   <i type="int" name="NGZF">   432</i>
   <i type="logical" name="ADDGRID"> T  </i>
  </separator>
  <separator name="ionic" >
   <i type="int" name="NSW">     1</i>
   <i type="int" name="IBRION">    -1</i>
   <i type="int" name="MDALGO">     0</i>
   <i type="int" name="ISIF">     2</i>
   <i name="PSTRESS">      0.00000000</i>
   <i name="EDIFFG">     -0.01000000</i>
   <i type="int" name="NFREE">     0</i>
   <i name="POTIM">      1.00000000</i>
   <i name="SMASS">     -3.00000000</i>
   <i name="SCALEE">      1.00000000</i>
  </separator>
  <separator name="ionic md" >
   <i name="TEBEG">      0.00010000</i>
   <i name="TEEND">      0.00010000</i>
   <i type="int" name="NBLOCK">     1</i>
   <i type="int" name="KBLOCK">     1</i>
   <i type="int" name="NPACO">   256</i>
   <i name="APACO">     16.00000000</i>
  </separator>
  <separator name="symmetry" >
   <i type="int" name="ISYM">     2</i>
   <i name="SYMPREC">      0.00001000</i>
  </separator>
  <separator name="dos" >
   <i type="int" name="LORBIT">     0</i>
   <v name="RWIGS">     -1.00000000     -1.00000000     -1.00000000</v>
   <i type="int" name="NEDOS">   301</i>
   <i name="EMIN">     10.00000000</i>
   <i name="EMAX">    -10.00000000</i>
   <i name="EFERMI">      0.00000000</i>
  </separator>
  <separator name="writing" >
   <i type="int" name="NWRITE">     2</i>
   <i type="logical" name="LWAVE"> F  </i>
   <i type="logical" name="LDOWNSAMPLE"> F  </i>
   <i type="logical" name="LCHARG"> F  </i>
   <i type="logical" name="LPARD"> F  </i>
   <i type="logical" name="LVTOT"> F  </i>
   <i type="logical" name="LVHAR"> F  </i>
   <i type="logical" name="LELF"> F  </i>
   <i type="logical" name="LOPTICS"> F  </i>
   <v name="STM">      0.00000000      0.00000000      0.00000000      0.00000000      0.00000000      0.00000000      0.00000000</v>
  </separator>
  <separator name="performance" >
   <i type="int" name="NPAR">     4</i>
   <i type="int" name="NSIM">     4</i>
   <i type="int" name="NBLK">    -1</i>
   <i type="logical" name="LPLANE"> T  </i>
   <i type="logical" name="LSCALAPACK"> F  </i>
   <i type="logical" name="LSCAAWARE"> F  </i>
   <i type="logical" name="LSCALU"> F  </i>
   <i type="logical" name="LASYNC"> F  </i>
   <i type="logical" name="LORBITALREAL"> F  </i>
  </separator>
  <separator name="miscellaneous" >
   <i type="int" name="IDIOT">     3</i>
   <i type="int" name="ISPECIAL">     0</i>
   <i type="logical" name="LMUSIC"> F  </i>
   <v name="POMASS">     44.95600000     18.99800000     12.01100000</v>
   <v name="DARWINR">      0.00000000      0.00000000      0.00000000</v>
   <v name="DARWINV">      1.00000000      1.00000000      1.00000000</v>
   <i type="logical" name="LCORR"> T  </i>
  </separator>
  <i type="logical" name="GGA_COMPAT"> T  </i>
  <i type="logical" name="LBERRY"> F  </i>
  <i type="int" name="ICORELEVEL">     0</i>
  <i type="logical" name="LDAU"> F  </i>
  <i type="int" name="I_CONSTRAINED_M">     0</i>
  <separator name="electronic exchange-correlation" >
   <i type="string" name="GGA">--</i>
   <i type="int" name="VOSKOWN">     0</i>
   <i type="logical" name="LHFCALC"> F  </i>
   <i type="string" name="PRECFOCK"></i>
   <i type="logical" name="LSYMGRAD"> F  </i>
   <i type="logical" name="LHFONE"> F  </i>
   <i type="logical" name="LRHFCALC"> F  </i>
   <i type="logical" name="LTHOMAS"> F  </i>
   <i type="logical" name="LMODELHF"> F  </i>
   <i name="ENCUT4O">     -1.00000000</i>
   <i type="int" name="EXXOEP">     0</i>
   <i type="int" name="FOURORBIT">     0</i>
   <i name="AEXX">      0.00000000</i>
   <i name="HFALPHA">      0.00000000</i>
   <i name="MCALPHA">      0.00000000</i>
   <i name="ALDAX">      1.00000000</i>
   <i name="AGGAX">      1.00000000</i>
   <i name="ALDAC">      1.00000000</i>
   <i name="AGGAC">      1.00000000</i>
   <i type="int" name="NKREDX">     1</i>
   <i type="int" name="NKREDY">     1</i>
   <i type="int" name="NKREDZ">     1</i>
   <i type="logical" name="SHIFTRED"> F  </i>
   <i type="logical" name="ODDONLY"> F  </i>
   <i type="logical" name="EVENONLY"> F  </i>
   <i type="int" name="LMAXFOCK">     0</i>
   <i type="int" name="NMAXFOCKAE">     0</i>
   <i type="logical" name="LFOCKAEDFT"> F  </i>
   <i name="HFSCREEN">      0.00000000</i>
   <i name="HFSCREENC">      0.00000000</i>
   <i type="int" name="NBANDSGWLOW">     0</i>
  </separator>
  <separator name="vdW DFT" >
   <i type="logical" name="LUSE_VDW"> F  </i>
   <i name="Zab_VDW">     -0.84910000</i>
   <i name="PARAM1">      0.12340000</i>
   <i name="PARAM2">      1.00000000</i>
   <i name="PARAM3">      0.00000000</i>
  </separator>
  <separator name="model GW" >
   <i type="int" name="MODEL_GW">     0</i>
   <i name="MODEL_EPS0">     30.03447877</i>
   <i name="MODEL_ALPHA">      1.00000000</i>
  </separator>
  <separator name="linear response parameters" >
   <i type="logical" name="LEPSILON"> F  </i>
   <i type="logical" name="LRPA"> F  </i>
   <i type="logical" name="LNABLA"> F  </i>
   <i type="logical" name="LVEL"> F  </i>
   <i type="int" name="KINTER">     0</i>
   <i name="CSHIFT">      0.10000000</i>
   <i name="OMEGAMAX">     -1.00000000</i>
   <i name="DEG_THRESHOLD">      0.00200000</i>
   <i name="RTIME">     -0.10000000</i>
   <i name="WPLASMAI">      0.00000000</i>
   <v name="DFIELD">      0.00000000      0.00000000      0.00000000</v>
   <v name="WPLASMA">      0.00000000      0.00000000      0.00000000      0.00000000      0.00000000      0.00000000      0.00000000      0.00000000      0.00000000</v>
  </separator>
  <separator name="orbital magnetization" >
   <i type="logical" name="NUCIND"> F  </i>
   <v name="MAGPOS">      0.00000000      0.00000000      0.00000000</v>
   <i type="logical" name="LNICSALL"> T  </i>
   <i type="logical" name="ORBITALMAG"> F  </i>
   <i type="logical" name="LMAGBLOCH"> F  </i>
   <i type="logical" name="LCHIMAG"> F  </i>
   <i type="logical" name="LGAUGE"> T  </i>
   <i type="int" name="MAGATOM">     0</i>
   <v name="MAGDIPOL">      0.00000000      0.00000000      0.00000000</v>
   <v name="AVECCONST">      0.00000000      0.00000000      0.00000000</v>
  </separator>
  <separator name="response functions" >
   <i type="logical" name="LADDER"> F  </i>
   <i type="logical" name="LRPAFORCE"> F  </i>
   <i type="logical" name="LFXC"> F  </i>
   <i type="logical" name="LHARTREE"> T  </i>
   <i type="int" name="IBSE">     0</i>
   <v type="int" name="KPOINT">    -1     0     0     0</v>
   <i type="logical" name="LTCTE"> F  </i>
   <i type="logical" name="LTETE"> F  </i>
   <i type="logical" name="LTRIPLET"> F  </i>
   <i type="logical" name="LFXCEPS"> F  </i>
   <i type="logical" name="LFXHEG"> F  </i>
   <i type="int" name="NATURALO">     2</i>
   <i type="logical" name="L2ORDER"> F  </i>
   <i type="logical" name="LMP2LT"> F  </i>
   <i type="logical" name="LUSEW"> F  </i>
   <i name="ENCUTGW">     -2.00000000</i>
   <i name="ENCUTGWSOFT">     -2.00000000</i>
   <i name="ENCUTLF">     -1.00000000</i>
   <i type="int" name="LMAXMP2">    -1</i>
   <i name="SCISSOR">      0.00000000</i>
   <i type="int" name="NOMEGA">     0</i>
   <i type="int" name="NOMEGAR">     0</i>
   <i type="int" name="NBANDSGW">    -1</i>
   <i type="int" name="NBANDSO">    -1</i>
   <i type="int" name="NBANDSV">    -1</i>
   <i type="int" name="NELM">     1</i>
   <i type="int" name="NELMHF">     1</i>
   <i type="int" name="DIM">     3</i>
   <i type="int" name="ANTIRES">     0</i>
   <i name="OMEGAMAX">    -30.00000000</i>
   <i name="OMEGAMIN">    -30.00000000</i>
   <i name="OMEGATL">   -200.00000000</i>
   <i type="int" name="OMEGAGRID">   140</i>
   <i name="CSHIFT">     -0.10000000</i>
   <i type="logical" name="SELFENERGY"> F  </i>
   <i type="logical" name="LSPECTRAL"> F  </i>
   <i type="logical" name="LSPECTRALGW"> F  </i>
   <i type="logical" name="LSINGLES"> F  </i>
   <i type="logical" name="LFERMIGW"> F  </i>
   <i type="logical" name="ODDONLYGW"> F  </i>
   <i type="logical" name="EVENONLYGW"> F  </i>
   <i type="int" name="NKREDLFX">     1</i>
   <i type="int" name="NKREDLFY">     1</i>
   <i type="int" name="NKREDLFZ">     1</i>
   <i type="int" name="MAXMEM">  2800</i>
   <i type="int" name="TELESCOPE">     0</i>
   <i type="int" name="TAUPAR">     1</i>
   <i type="int" name="OMEGAPAR">    -1</i>
   <i name="LAMBDA">      1.00000000</i>
  </separator>
  <separator name="External order field" >
   <i name="OFIELD_KAPPA">      0.00000000</i>
   <v name="OFIELD_K">      0.00000000      0.00000000      0.00000000</v>
   <i name="OFIELD_Q6_NEAR">      0.00000000</i>
   <i name="OFIELD_Q6_FAR">      0.00000000</i>
   <i name="OFIELD_A">      0.00000000</i>
  </separator>
 </parameters>
 <atominfo>
  <atoms>      80 </atoms>
  <types>       3 </types>
  <array name="atoms" >
   <dimension dim="1">ion</dimension>
   <field type="string">element</field>
   <field type="int">atomtype</field>
   <set>
    <rc><c>Sc</c><c>   1</c></rc>
    <rc><c>Sc</c><c>   1</c></rc>
    <rc><c>Sc</c><c>   1</c></rc>
    <rc><c>Sc</c><c>   1</c></rc>
    <rc><c>Sc</c><c>   1</c></rc>
    <rc><c>Sc</c><c>   1</c></rc>
    <rc><c>Sc</c><c>   1</c></rc>
    <rc><c>Sc</c><c>   1</c></rc>
    <rc><c>Sc</c><c>   1</c></rc>
    <rc><c>Sc</c><c>   1</c></rc>
    <rc><c>Sc</c><c>   1</c></rc>
    <rc><c>Sc</c><c>   1</c></rc>
    <rc><c>Sc</c><c>   1</c></rc>
    <rc><c>Sc</c><c>   1</c></rc>
    <rc><c>Sc</c><c>   1</c></rc>
    <rc><c>Sc</c><c>   1</c></rc>
    <rc><c>Sc</c><c>   1</c></rc>
    <rc><c>Sc</c><c>   1</c></rc>
    <rc><c>Sc</c><c>   1</c></rc>
    <rc><c>Sc</c><c>   1</c></rc>
    <rc><c>Sc</c><c>   1</c></rc>
    <rc><c>Sc</c><c>   1</c></rc>
    <rc><c>Sc</c><c>   1</c></rc>
    <rc><c>Sc</c><c>   1</c></rc>
    <rc><c>Sc</c><c>   1</c></rc>
    <rc><c>Sc</c><c>   1</c></rc>
    <rc><c>Sc</c><c>   1</c></rc>
    <rc><c>Sc</c><c>   1</c></rc>
    <rc><c>Sc</c><c>   1</c></rc>
    <rc><c>Sc</c><c>   1</c></rc>
    <rc><c>Sc</c><c>   1</c></rc>
    <rc><c>Sc</c><c>   1</c></rc>
    <rc><c>F </c><c>   2</c></rc>
    <rc><c>F </c><c>   2</c></rc>
    <rc><c>F </c><c>   2</c></rc>
    <rc><c>F </c><c>   2</c></rc>
    <rc><c>F </c><c>   2</c></rc>
    <rc><c>F </c><c>   2</c></rc>
    <rc><c>F </c><c>   2</c></rc>
    <rc><c>F </c><c>   2</c></rc>
    <rc><c>F </c><c>   2</c></rc>
    <rc><c>F </c><c>   2</c></rc>
    <rc><c>F </c><c>   2</c></rc>
    <rc><c>F </c><c>   2</c></rc>
    <rc><c>F </c><c>   2</c></rc>
    <rc><c>F </c><c>   2</c></rc>
    <rc><c>F </c><c>   2</c></rc>
    <rc><c>F </c><c>   2</c></rc>
    <rc><c>F </c><c>   2</c></rc>
    <rc><c>F </c><c>   2</c></rc>
    <rc><c>F </c><c>   2</c></rc>
    <rc><c>F </c><c>   2</c></rc>
    <rc><c>F </c><c>   2</c></rc>
    <rc><c>F </c><c>   2</c></rc>
    <rc><c>F </c><c>   2</c></rc>
    <rc><c>F </c><c>   2</c></rc>
    <rc><c>F </c><c>   2</c></rc>
    <rc><c>F </c><c>   2</c></rc>
    <rc><c>F </c><c>   2</c></rc>
    <rc><c>F </c><c>   2</c></rc>
    <rc><c>F </c><c>   2</c></rc>
    <rc><c>F </c><c>   2</c></rc>
    <rc><c>F </c><c>   2</c></rc>
    <rc><c>F </c><c>   2</c></rc>
    <rc><c>C </c><c>   3</c></rc>
    <rc><c>C </c><c>   3</c></rc>
    <rc><c>C </c><c>   3</c></rc>
    <rc><c>C </c><c>   3</c></rc>
    <rc><c>C </c><c>   3</c></rc>
    <rc><c>C </c><c>   3</c></rc>
    <rc><c>C </c><c>   3</c></rc>
    <rc><c>C </c><c>   3</c></rc>
    <rc><c>C </c><c>   3</c></rc>
    <rc><c>C </c><c>   3</c></rc>
    <rc><c>C </c><c>   3</c></rc>
    <rc><c>C </c><c>   3</c></rc>
    <rc><c>C </c><c>   3</c></rc>
    <rc><c>C </c><c>   3</c></rc>
    <rc><c>C </c><c>   3</c></rc>
    <rc><c>C </c><c>   3</c></rc>
   </set>
  </array>
  <array name="atomtypes" >
   <dimension dim="1">type</dimension>
   <field type="int">atomspertype</field>
   <field type="string">element</field>
   <field>mass</field>
   <field>valence</field>
   <field type="string">pseudopotential</field>
   <set>
    <rc><c>  32</c><c>Sc</c><c>     44.95600000</c><c>     11.00000000</c><c>  PAW_PBE Sc_sv 07Sep2000               </c></rc>
    <rc><c>  32</c><c>F </c><c>     18.99800000</c><c>      7.00000000</c><c>  PAW_PBE F 08Apr2002                   </c></rc>
    <rc><c>  16</c><c>C </c><c>     12.01100000</c><c>      4.00000000</c><c>  PAW_PBE C 08Apr2002                   </c></rc>
   </set>
  </array>
 </atominfo>
 <structure name="initialpos" >
  <crystal>
   <varray name="basis" >
    <v>      13.12862340       0.00000000       0.00000000 </v>
    <v>      -6.56431170      11.36972138       0.00000000 </v>
    <v>       0.00000000       0.00000000      26.82809424 </v>
   </varray>
   <i name="volume">   4004.59716953 </i>
   <varray name="rec_basis" >
    <v>       0.07616945       0.04397645       0.00000000 </v>
    <v>       0.00000000       0.08795290       0.00000000 </v>
    <v>       0.00000000       0.00000000       0.03727436 </v>
   </varray>
  </crystal>
  <varray name="positions" >
   <v>       0.08051252       0.16093520       0.45062491 </v>
   <v>       0.08039093       0.41946071       0.45370012 </v>
   <v>       0.07788505       0.66029550       0.45772028 </v>
   <v>       0.08441578       0.91017201       0.45120193 </v>
   <v>       0.33284858       0.16299946       0.45121383 </v>
   <v>       0.32790051       0.41213719       0.44798391 </v>
   <v>       0.32692524       0.66814656       0.45601783 </v>
   <v>       0.34092057       0.91947336       0.45182736 </v>
   <v>       0.58158084       0.17496113       0.45180044 </v>
   <v>       0.59154616       0.41685265       0.44996666 </v>
   <v>       0.58891886       0.66496245       0.45346570 </v>
   <v>       0.57689769       0.91330635       0.45391869 </v>
   <v>       0.83026587       0.16965855       0.45342290 </v>
   <v>       0.83319047       0.41605909       0.45425732 </v>
   <v>       0.82541780       0.66344247       0.45340997 </v>
   <v>       0.82793713       0.91531135       0.45002076 </v>
   <v>       0.17452861       0.09134559       0.54582738 </v>
   <v>       0.16351808       0.33531744       0.54407468 </v>
   <v>       0.16525591       0.58554721       0.54977087 </v>
   <v>       0.16162343       0.83607015       0.55014636 </v>
   <v>       0.42163578       0.08328501       0.54856637 </v>
   <v>       0.41940657       0.33120166       0.54627449 </v>
   <v>       0.41923104       0.57831808       0.54781698 </v>
   <v>       0.40844050       0.83820900       0.54937703 </v>
   <v>       0.67008169       0.08157665       0.54905093 </v>
   <v>       0.66632158       0.33666437       0.54656942 </v>
   <v>       0.66485104       0.58161702       0.54503238 </v>
   <v>       0.67005563       0.83852233       0.54424992 </v>
   <v>       0.91914953       0.08403562       0.54879012 </v>
   <v>       0.91375933       0.33135158       0.54669911 </v>
   <v>       0.91307548       0.58345404       0.54806748 </v>
   <v>       0.92561166       0.83462071       0.54507546 </v>
   <v>       0.09258428       0.17731345       0.58848976 </v>
   <v>       0.06446671       0.39108058       0.59569328 </v>
   <v>       0.08780210       0.67805875       0.59547405 </v>
   <v>       0.08754994       0.92171640       0.59631490 </v>
   <v>       0.34718711       0.17998946       0.58858117 </v>
   <v>       0.34164983       0.42209008       0.58771951 </v>
   <v>       0.33714100       0.68256169       0.59169504 </v>
   <v>       0.33109220       0.92295029       0.59585729 </v>
   <v>       0.58381325       0.15190461       0.59252288 </v>
   <v>       0.59496940       0.42249113       0.58795913 </v>
   <v>       0.59242223       0.66600111       0.59098247 </v>
   <v>       0.57347579       0.90539562       0.59303997 </v>
   <v>       0.83472073       0.16061195       0.59617744 </v>
   <v>       0.82915173       0.40704921       0.58718114 </v>
   <v>       0.83899123       0.66736707       0.58771037 </v>
   <v>       0.83975741       0.92992292       0.59063667 </v>
   <v>       0.16523216       0.06559124       0.40636897 </v>
   <v>       0.16363471       0.33449797       0.40893552 </v>
   <v>       0.16391274       0.58556015       0.41230555 </v>
   <v>       0.16485681       0.82957091       0.40973564 </v>
   <v>       0.41793757       0.08509779       0.41039567 </v>
   <v>       0.42889311       0.33156454       0.40821882 </v>
   <v>       0.41051228       0.57538573       0.40800520 </v>
   <v>       0.42171009       0.84305204       0.40728423 </v>
   <v>       0.66346979       0.08952427       0.41321431 </v>
   <v>       0.67073016       0.33135415       0.40491941 </v>
   <v>       0.65911500       0.57322394       0.40639300 </v>
   <v>       0.66398713       0.83202871       0.41112662 </v>
   <v>       0.91876463       0.09012079       0.40932534 </v>
   <v>       0.90358619       0.33257170       0.40994155 </v>
   <v>       0.91455709       0.58291392       0.41226486 </v>
   <v>       0.91534010       0.82964321       0.41129577 </v>
   <v>       0.00018228       0.00152125       0.49687059 </v>
   <v>       0.00182324       0.24822358       0.49459354 </v>
   <v>       0.99993604       0.49781915       0.50288723 </v>
   <v>       0.00105703       0.74848355       0.50440665 </v>
   <v>       0.24970405       0.99727137       0.49700044 </v>
   <v>       0.25857745       0.25175725       0.49606940 </v>
   <v>       0.24563050       0.50267353       0.50293159 </v>
   <v>       0.24337349       0.75046623       0.49907564 </v>
   <v>       0.49679533       0.99934643       0.50068869 </v>
   <v>       0.50699803       0.25653351       0.49885033 </v>
   <v>       0.49757845       0.49495457       0.49727327 </v>
   <v>       0.50791773       0.75427527       0.49771057 </v>
   <v>       0.75391248       0.00349133       0.50075068 </v>
   <v>       0.75265362       0.25060307       0.50033892 </v>
   <v>       0.75499978       0.49628575       0.50083785 </v>
   <v>       0.75196916       0.75171369       0.49996604 </v>
  </varray>
  <varray name="velocities" >
   <v>       0.00000000       0.00000000       0.00000000 </v>
   <v>       0.00000000       0.00000000       0.00000000 </v>
   <v>       0.00000000       0.00000000       0.00000000 </v>
   <v>       0.00000000       0.00000000       0.00000000 </v>
   <v>       0.00000000       0.00000000       0.00000000 </v>
   <v>       0.00000000       0.00000000       0.00000000 </v>
   <v>       0.00000000       0.00000000       0.00000000 </v>
   <v>       0.00000000       0.00000000       0.00000000 </v>
   <v>       0.00000000       0.00000000       0.00000000 </v>
   <v>       0.00000000       0.00000000       0.00000000 </v>
   <v>       0.00000000       0.00000000       0.00000000 </v>
   <v>       0.00000000       0.00000000       0.00000000 </v>
   <v>       0.00000000       0.00000000       0.00000000 </v>
   <v>       0.00000000       0.00000000       0.00000000 </v>
   <v>       0.00000000       0.00000000       0.00000000 </v>
   <v>       0.00000000       0.00000000       0.00000000 </v>
   <v>       0.00000000       0.00000000       0.00000000 </v>
   <v>       0.00000000       0.00000000       0.00000000 </v>
   <v>       0.00000000       0.00000000       0.00000000 </v>
   <v>       0.00000000       0.00000000       0.00000000 </v>
   <v>       0.00000000       0.00000000       0.00000000 </v>
   <v>       0.00000000       0.00000000       0.00000000 </v>
   <v>       0.00000000       0.00000000       0.00000000 </v>
   <v>       0.00000000       0.00000000       0.00000000 </v>
   <v>       0.00000000       0.00000000       0.00000000 </v>
   <v>       0.00000000       0.00000000       0.00000000 </v>
   <v>       0.00000000       0.00000000       0.00000000 </v>
   <v>       0.00000000       0.00000000       0.00000000 </v>
   <v>       0.00000000       0.00000000       0.00000000 </v>
   <v>       0.00000000       0.00000000       0.00000000 </v>
   <v>       0.00000000       0.00000000       0.00000000 </v>
   <v>       0.00000000       0.00000000       0.00000000 </v>
   <v>       0.00000000       0.00000000       0.00000000 </v>
   <v>       0.00000000       0.00000000       0.00000000 </v>
   <v>       0.00000000       0.00000000       0.00000000 </v>
   <v>       0.00000000       0.00000000       0.00000000 </v>
   <v>       0.00000000       0.00000000       0.00000000 </v>
   <v>       0.00000000       0.00000000       0.00000000 </v>
   <v>       0.00000000       0.00000000       0.00000000 </v>
   <v>       0.00000000       0.00000000       0.00000000 </v>
   <v>       0.00000000       0.00000000       0.00000000 </v>
   <v>       0.00000000       0.00000000       0.00000000 </v>
   <v>       0.00000000       0.00000000       0.00000000 </v>
   <v>       0.00000000       0.00000000       0.00000000 </v>
   <v>       0.00000000       0.00000000       0.00000000 </v>
   <v>       0.00000000       0.00000000       0.00000000 </v>
   <v>       0.00000000       0.00000000       0.00000000 </v>
   <v>       0.00000000       0.00000000       0.00000000 </v>
   <v>       0.00000000       0.00000000       0.00000000 </v>
   <v>       0.00000000       0.00000000       0.00000000 </v>
   <v>       0.00000000       0.00000000       0.00000000 </v>
   <v>       0.00000000       0.00000000       0.00000000 </v>
   <v>       0.00000000       0.00000000       0.00000000 </v>
   <v>       0.00000000       0.00000000       0.00000000 </v>
   <v>       0.00000000       0.00000000       0.00000000 </v>
   <v>       0.00000000       0.00000000       0.00000000 </v>
   <v>       0.00000000       0.00000000       0.00000000 </v>
   <v>       0.00000000       0.00000000       0.00000000 </v>
   <v>       0.00000000       0.00000000       0.00000000 </v>
   <v>       0.00000000       0.00000000       0.00000000 </v>
   <v>       0.00000000       0.00000000       0.00000000 </v>
   <v>       0.00000000       0.00000000       0.00000000 </v>
   <v>       0.00000000       0.00000000       0.00000000 </v>
   <v>       0.00000000       0.00000000       0.00000000 </v>
   <v>       0.00000000       0.00000000       0.00000000 </v>
   <v>       0.00000000       0.00000000       0.00000000 </v>
   <v>       0.00000000       0.00000000       0.00000000 </v>
   <v>       0.00000000       0.00000000       0.00000000 </v>
   <v>       0.00000000       0.00000000       0.00000000 </v>
   <v>       0.00000000       0.00000000       0.00000000 </v>
   <v>       0.00000000       0.00000000       0.00000000 </v>
   <v>       0.00000000       0.00000000       0.00000000 </v>
   <v>       0.00000000       0.00000000       0.00000000 </v>
   <v>       0.00000000       0.00000000       0.00000000 </v>
   <v>       0.00000000       0.00000000       0.00000000 </v>
   <v>       0.00000000       0.00000000       0.00000000 </v>
   <v>       0.00000000       0.00000000       0.00000000 </v>
   <v>       0.00000000       0.00000000       0.00000000 </v>
   <v>       0.00000000       0.00000000       0.00000000 </v>
   <v>       0.00000000       0.00000000       0.00000000 </v>
  </varray>
 </structure>
 <calculation>
  <scstep>
   <time name="dav">   46.34   46.34</time>
   <time name="total">   47.15   47.17</time>
   <energy>
    <i name="alphaZ">    871.83850952 </i>
    <i name="ewald"> 286469.48746834 </i>
    <i name="hartreedc">-340826.67559968 </i>
    <i name="XCdc">   3042.82719548 </i>
    <i name="pawpsdc">  50525.51240023 </i>
    <i name="pawaedc"> -50422.77561733 </i>
    <i name="eentropy">     -0.07356772 </i>
    <i name="bandstr">   -220.49807019 </i>
    <i name="atom">  64207.43592568 </i>
    <i name="e_fr_energy">  13647.07864434 </i>
    <i name="e_wo_entrp">  13647.15221206 </i>
    <i name="e_0_energy">  13647.11542820 </i>
   </energy>
  </scstep>
  <scstep>
   <time name="dav">   49.19   49.22</time>
   <time name="total">   49.20   49.22</time>
   <energy>
    <i name="e_fr_energy">   2491.88820819 </i>
    <i name="e_wo_entrp">   2491.93565787 </i>
    <i name="e_0_energy">   2491.91193303 </i>
   </energy>
  </scstep>
  <scstep>
   <time name="dav">   67.44   67.45</time>
   <time name="total">   67.44   67.45</time>
   <energy>
    <i name="e_fr_energy">   -379.87021564 </i>
    <i name="e_wo_entrp">   -379.87021564 </i>
    <i name="e_0_energy">   -379.87021564 </i>
   </energy>
  </scstep>
  <scstep>
   <time name="dav">   61.71   61.72</time>
   <time name="total">   61.71   61.72</time>
   <energy>
    <i name="e_fr_energy">   -740.32447720 </i>
    <i name="e_wo_entrp">   -740.32447720 </i>
    <i name="e_0_energy">   -740.32447720 </i>
   </energy>
  </scstep>
  <scstep>
   <time name="dav">   61.59   61.60</time>
   <time name="total">   65.25   65.26</time>
   <energy>
    <i name="e_fr_energy">   -754.82274335 </i>
    <i name="e_wo_entrp">   -754.82274335 </i>
    <i name="e_0_energy">   -754.82274335 </i>
   </energy>
  </scstep>
  <scstep>
   <time name="dav">   58.64   58.64</time>
   <time name="total">   63.05   63.06</time>
   <energy>
    <i name="e_fr_energy">   -599.60538992 </i>
    <i name="e_wo_entrp">   -599.60538992 </i>
    <i name="e_0_energy">   -599.60538992 </i>
   </energy>
  </scstep>
  <scstep>
   <time name="dav">   60.33   60.33</time>
   <time name="total">   64.76   64.77</time>
   <energy>
    <i name="e_fr_energy">   -599.72273520 </i>
    <i name="e_wo_entrp">   -599.72273520 </i>
    <i name="e_0_energy">   -599.72273520 </i>
   </energy>
  </scstep>
  <scstep>
   <time name="dav">   57.16   57.16</time>
   <time name="total">   61.62   61.65</time>
   <energy>
    <i name="e_fr_energy">   -598.22721904 </i>
    <i name="e_wo_entrp">   -598.22721904 </i>
    <i name="e_0_energy">   -598.22721904 </i>
   </energy>
  </scstep>
  <scstep>
   <time name="dav">   56.63   56.63</time>
   <time name="total">   61.07   61.08</time>
   <energy>
    <i name="e_fr_energy">   -597.70737050 </i>
    <i name="e_wo_entrp">   -597.70737050 </i>
    <i name="e_0_energy">   -597.70737050 </i>
   </energy>
  </scstep>
  <scstep>
   <time name="dav">   59.93   59.93</time>
   <time name="total">   64.37   64.38</time>
   <energy>
    <i name="e_fr_energy">   -597.67270964 </i>
    <i name="e_wo_entrp">   -597.67270964 </i>
    <i name="e_0_energy">   -597.67270964 </i>
   </energy>
  </scstep>
  <scstep>
   <time name="dav">   57.11   57.11</time>
   <time name="total">   61.52   61.53</time>
   <energy>
    <i name="e_fr_energy">   -597.55610869 </i>
    <i name="e_wo_entrp">   -597.55610869 </i>
    <i name="e_0_energy">   -597.55610869 </i>
   </energy>
  </scstep>
  <scstep>
   <time name="dav">   59.98   59.98</time>
   <time name="total">   64.44   64.45</time>
   <energy>
    <i name="e_fr_energy">   -597.52957786 </i>
    <i name="e_wo_entrp">   -597.52957786 </i>
    <i name="e_0_energy">   -597.52957786 </i>
   </energy>
  </scstep>
  <scstep>
   <time name="dav">   57.55   57.56</time>
   <time name="total">   62.06   62.10</time>
   <energy>
    <i name="e_fr_energy">   -597.52234107 </i>
    <i name="e_wo_entrp">   -597.52234107 </i>
    <i name="e_0_energy">   -597.52234107 </i>
   </energy>
  </scstep>
  <scstep>
   <time name="dav">   58.01   58.01</time>
   <time name="total">   62.48   62.49</time>
   <energy>
    <i name="e_fr_energy">   -597.51959168 </i>
    <i name="e_wo_entrp">   -597.51959168 </i>
    <i name="e_0_energy">   -597.51959168 </i>
   </energy>
  </scstep>
  <scstep>
   <time name="dav">   57.73   57.73</time>
   <time name="total">   62.18   62.19</time>
   <energy>
    <i name="e_fr_energy">   -597.52543357 </i>
    <i name="e_wo_entrp">   -597.52543357 </i>
    <i name="e_0_energy">   -597.52543357 </i>
   </energy>
  </scstep>
  <scstep>
   <time name="dav">   57.70   57.70</time>
   <time name="total">   62.21   62.22</time>
   <energy>
    <i name="e_fr_energy">   -597.52852259 </i>
    <i name="e_wo_entrp">   -597.52852259 </i>
    <i name="e_0_energy">   -597.52852259 </i>
   </energy>
  </scstep>
  <scstep>
   <time name="dav">   59.13   59.14</time>
   <time name="total">   63.61   63.62</time>
   <energy>
    <i name="e_fr_energy">   -597.53344665 </i>
    <i name="e_wo_entrp">   -597.53344665 </i>
    <i name="e_0_energy">   -597.53344665 </i>
   </energy>
  </scstep>
  <scstep>
   <time name="dav">   55.81   55.81</time>
   <time name="total">   60.33   60.35</time>
   <energy>
    <i name="e_fr_energy">   -597.53692032 </i>
    <i name="e_wo_entrp">   -597.53692032 </i>
    <i name="e_0_energy">   -597.53692032 </i>
   </energy>
  </scstep>
  <scstep>
   <time name="dav">   58.65   58.65</time>
   <time name="total">   63.16   63.17</time>
   <energy>
    <i name="e_fr_energy">   -597.53827037 </i>
    <i name="e_wo_entrp">   -597.53827037 </i>
    <i name="e_0_energy">   -597.53827037 </i>
   </energy>
  </scstep>
  <scstep>
   <time name="dav">   54.12   54.12</time>
   <time name="total">   58.57   58.58</time>
   <energy>
    <i name="e_fr_energy">   -597.54124728 </i>
    <i name="e_wo_entrp">   -597.54124728 </i>
    <i name="e_0_energy">   -597.54124728 </i>
   </energy>
  </scstep>
  <scstep>
   <time name="dav">   50.28   50.28</time>
   <time name="total">   54.77   54.78</time>
   <energy>
    <i name="e_fr_energy">   -597.54355210 </i>
    <i name="e_wo_entrp">   -597.54355210 </i>
    <i name="e_0_energy">   -597.54355210 </i>
   </energy>
  </scstep>
  <scstep>
   <time name="dav">   49.36   49.36</time>
   <time name="total">   53.79   53.81</time>
   <energy>
    <i name="e_fr_energy">   -597.54467251 </i>
    <i name="e_wo_entrp">   -597.54467251 </i>
    <i name="e_0_energy">   -597.54467251 </i>
   </energy>
  </scstep>
  <scstep>
   <time name="dav">   49.85   49.85</time>
   <time name="total">   54.27   54.28</time>
   <energy>
    <i name="e_fr_energy">   -597.54514000 </i>
    <i name="e_wo_entrp">   -597.54514000 </i>
    <i name="e_0_energy">   -597.54514000 </i>
   </energy>
  </scstep>
  <scstep>
   <time name="dav">   47.39   47.39</time>
   <time name="total">   51.83   51.84</time>
   <energy>
    <i name="e_fr_energy">   -597.54546628 </i>
    <i name="e_wo_entrp">   -597.54546628 </i>
    <i name="e_0_energy">   -597.54546628 </i>
   </energy>
  </scstep>
  <scstep>
   <time name="dav">   44.67   44.67</time>
   <time name="total">   49.13   49.14</time>
   <energy>
    <i name="e_fr_energy">   -597.54563574 </i>
    <i name="e_wo_entrp">   -597.54563574 </i>
    <i name="e_0_energy">   -597.54563574 </i>
   </energy>
  </scstep>
  <scstep>
   <time name="dav">   35.18   35.18</time>
   <time name="total">   39.63   39.65</time>
   <energy>
    <i name="e_fr_energy">   -597.54569687 </i>
    <i name="e_wo_entrp">   -597.54569687 </i>
    <i name="e_0_energy">   -597.54569687 </i>
   </energy>
  </scstep>
  <scstep>
   <time name="dav">   32.97   32.97</time>
   <time name="total">   37.45   37.46</time>
   <energy>
    <i name="e_fr_energy">   -597.54572776 </i>
    <i name="e_wo_entrp">   -597.54572776 </i>
    <i name="e_0_energy">   -597.54572776 </i>
   </energy>
  </scstep>
  <scstep>
   <time name="dav">   34.04   34.04</time>
   <time name="total">   38.48   38.49</time>
   <energy>
    <i name="e_fr_energy">   -597.54574660 </i>
    <i name="e_wo_entrp">   -597.54574660 </i>
    <i name="e_0_energy">   -597.54574660 </i>
   </energy>
  </scstep>
  <scstep>
   <time name="dav">   32.70   32.71</time>
   <time name="total">   37.08   37.10</time>
   <energy>
    <i name="e_fr_energy">   -597.54575345 </i>
    <i name="e_wo_entrp">   -597.54575345 </i>
    <i name="e_0_energy">   -597.54575345 </i>
   </energy>
  </scstep>
  <scstep>
   <time name="dav">   31.90   31.91</time>
   <time name="total">   36.34   36.36</time>
   <energy>
    <i name="e_fr_energy">   -597.54575662 </i>
    <i name="e_wo_entrp">   -597.54575662 </i>
    <i name="e_0_energy">   -597.54575662 </i>
   </energy>
  </scstep>
  <scstep>
   <time name="dav">   31.81   31.82</time>
   <time name="total">   32.62   32.63</time>
   <energy>
    <i name="alphaZ">    871.83850952 </i>
    <i name="ewald"> 286469.48746834 </i>
    <i name="hartreedc">-341987.85581148 </i>
    <i name="XCdc">   3053.63035636 </i>
    <i name="pawpsdc">  66029.03957687 </i>
    <i name="pawaedc"> -66022.32996892 </i>
    <i name="eentropy">     -0.00000000 </i>
    <i name="bandstr"> -13218.79181360 </i>
    <i name="atom">  64207.43592568 </i>
    <i name="e_fr_energy">   -597.54575722 </i>
    <i name="e_wo_entrp">   -597.54575722 </i>
    <i name="e_0_energy">   -597.54575722 </i>
   </energy>
  </scstep>
  <structure>
   <crystal>
    <varray name="basis" >
     <v>      13.12862340       0.00000000       0.00000000 </v>
     <v>      -6.56431170      11.36972138       0.00000000 </v>
     <v>       0.00000000       0.00000000      26.82809424 </v>
    </varray>
    <i name="volume">   4004.59716953 </i>
    <varray name="rec_basis" >
     <v>       0.07616945       0.04397645       0.00000000 </v>
     <v>       0.00000000       0.08795290       0.00000000 </v>
     <v>       0.00000000       0.00000000       0.03727436 </v>
    </varray>
   </crystal>
   <varray name="positions" >
    <v>       0.08051252       0.16093520       0.45062491 </v>
    <v>       0.08039093       0.41946071       0.45370012 </v>
    <v>       0.07788505       0.66029550       0.45772028 </v>
    <v>       0.08441578       0.91017201       0.45120193 </v>
    <v>       0.33284858       0.16299946       0.45121383 </v>
    <v>       0.32790051       0.41213719       0.44798391 </v>
    <v>       0.32692524       0.66814656       0.45601783 </v>
    <v>       0.34092057       0.91947336       0.45182736 </v>
    <v>       0.58158084       0.17496113       0.45180044 </v>
    <v>       0.59154616       0.41685265       0.44996666 </v>
    <v>       0.58891886       0.66496245       0.45346570 </v>
    <v>       0.57689769       0.91330635       0.45391869 </v>
    <v>       0.83026587       0.16965855       0.45342290 </v>
    <v>       0.83319047       0.41605909       0.45425732 </v>
    <v>       0.82541780       0.66344247       0.45340997 </v>
    <v>       0.82793713       0.91531135       0.45002076 </v>
    <v>       0.17452861       0.09134559       0.54582738 </v>
    <v>       0.16351808       0.33531744       0.54407468 </v>
    <v>       0.16525591       0.58554721       0.54977087 </v>
    <v>       0.16162343       0.83607015       0.55014636 </v>
    <v>       0.42163578       0.08328501       0.54856637 </v>
    <v>       0.41940657       0.33120166       0.54627449 </v>
    <v>       0.41923104       0.57831808       0.54781698 </v>
    <v>       0.40844050       0.83820900       0.54937703 </v>
    <v>       0.67008169       0.08157665       0.54905093 </v>
    <v>       0.66632158       0.33666437       0.54656942 </v>
    <v>       0.66485104       0.58161702       0.54503238 </v>
    <v>       0.67005563       0.83852233       0.54424992 </v>
    <v>       0.91914953       0.08403562       0.54879012 </v>
    <v>       0.91375933       0.33135158       0.54669911 </v>
    <v>       0.91307548       0.58345404       0.54806748 </v>
    <v>       0.92561166       0.83462071       0.54507546 </v>
    <v>       0.09258428       0.17731345       0.58848976 </v>
    <v>       0.06446671       0.39108058       0.59569328 </v>
    <v>       0.08780210       0.67805875       0.59547405 </v>
    <v>       0.08754994       0.92171640       0.59631490 </v>
    <v>       0.34718711       0.17998946       0.58858117 </v>
    <v>       0.34164983       0.42209008       0.58771951 </v>
    <v>       0.33714100       0.68256169       0.59169504 </v>
    <v>       0.33109220       0.92295029       0.59585729 </v>
    <v>       0.58381325       0.15190461       0.59252288 </v>
    <v>       0.59496940       0.42249113       0.58795913 </v>
    <v>       0.59242223       0.66600111       0.59098247 </v>
    <v>       0.57347579       0.90539562       0.59303997 </v>
    <v>       0.83472073       0.16061195       0.59617744 </v>
    <v>       0.82915173       0.40704921       0.58718114 </v>
    <v>       0.83899123       0.66736707       0.58771037 </v>
    <v>       0.83975741       0.92992292       0.59063667 </v>
    <v>       0.16523216       0.06559124       0.40636897 </v>
    <v>       0.16363471       0.33449797       0.40893552 </v>
    <v>       0.16391274       0.58556015       0.41230555 </v>
    <v>       0.16485681       0.82957091       0.40973564 </v>
    <v>       0.41793757       0.08509779       0.41039567 </v>
    <v>       0.42889311       0.33156454       0.40821882 </v>
    <v>       0.41051228       0.57538573       0.40800520 </v>
    <v>       0.42171009       0.84305204       0.40728423 </v>
    <v>       0.66346979       0.08952427       0.41321431 </v>
    <v>       0.67073016       0.33135415       0.40491941 </v>
    <v>       0.65911500       0.57322394       0.40639300 </v>
    <v>       0.66398713       0.83202871       0.41112662 </v>
    <v>       0.91876463       0.09012079       0.40932534 </v>
    <v>       0.90358619       0.33257170       0.40994155 </v>
    <v>       0.91455709       0.58291392       0.41226486 </v>
    <v>       0.91534010       0.82964321       0.41129577 </v>
    <v>       0.00018228       0.00152125       0.49687059 </v>
    <v>       0.00182324       0.24822358       0.49459354 </v>
    <v>       0.99993604       0.49781915       0.50288723 </v>
    <v>       0.00105703       0.74848355       0.50440665 </v>
    <v>       0.24970405       0.99727137       0.49700044 </v>
    <v>       0.25857745       0.25175725       0.49606940 </v>
    <v>       0.24563050       0.50267353       0.50293159 </v>
    <v>       0.24337349       0.75046623       0.49907564 </v>
    <v>       0.49679533       0.99934643       0.50068869 </v>
    <v>       0.50699803       0.25653351       0.49885033 </v>
    <v>       0.49757845       0.49495457       0.49727327 </v>
    <v>       0.50791773       0.75427527       0.49771057 </v>
    <v>       0.75391248       0.00349133       0.50075068 </v>
    <v>       0.75265362       0.25060307       0.50033892 </v>
    <v>       0.75499978       0.49628575       0.50083785 </v>
    <v>       0.75196916       0.75171369       0.49996604 </v>
   </varray>
  </structure>
  <varray name="forces" >
   <v>      -0.22196741       0.27039343      -0.24250853 </v>
   <v>       0.27750052      -0.50849871      -0.36254342 </v>
   <v>      -0.02732729       0.76224773      -1.14675117 </v>
   <v>      -0.07039832       0.54585122       0.01445435 </v>
   <v>      -0.11817073       0.13443862      -0.22310926 </v>
   <v>       0.76140600       0.49671640       0.42802721 </v>
   <v>       0.96289873      -0.10678079      -0.60008326 </v>
   <v>      -1.24110412      -0.32926316       0.06077853 </v>
   <v>       1.11899318      -0.80241819       0.15481662 </v>
   <v>      -1.19078392      -0.36504883       0.12643359 </v>
   <v>      -1.66401324      -0.14015685      -0.59412278 </v>
   <v>       0.43847139       0.50077334      -0.33880326 </v>
   <v>       0.39626318      -0.34515380      -0.47724992 </v>
   <v>       0.21369300      -0.08832117      -0.50401584 </v>
   <v>       1.07196485       0.29064435      -0.30115743 </v>
   <v>       0.72759301       0.72449843       0.47523780 </v>
   <v>      -0.33690767      -0.65985377      -0.29389833 </v>
   <v>       0.10839988      -0.31307735       0.49289575 </v>
   <v>       0.07710335       0.08905395       0.41618780 </v>
   <v>       0.63917401       0.11468587      -0.01982224 </v>
   <v>      -0.24645790       0.03370245      -0.32350016 </v>
   <v>      -0.33642455       0.86336932      -0.83818430 </v>
   <v>      -0.26898046       0.89830621      -0.53174848 </v>
   <v>       1.14419988      -0.24554880       0.09666328 </v>
   <v>      -0.22456853       0.05514854       0.08869270 </v>
   <v>       0.81665817      -0.72211238       0.17954407 </v>
   <v>      -0.00249521       0.34770687       0.61762557 </v>
   <v>      -0.20134662      -0.39512909       1.34582313 </v>
   <v>       0.03070878       0.05234367      -0.54290446 </v>
   <v>       0.43869841      -0.32319990       0.71834421 </v>
   <v>       0.60666729      -0.21325908       0.73217270 </v>
   <v>      -1.29038145       0.57014700       0.90132840 </v>
   <v>       0.12283208      -0.33121768      -0.12528493 </v>
   <v>       0.35443751       0.55193909      -0.81823304 </v>
   <v>       0.10513937      -0.45234255      -0.51556441 </v>
   <v>      -0.09326306       0.07849008      -1.01721915 </v>
   <v>      -0.22592181      -0.75166682       0.33670533 </v>
   <v>      -0.12674484      -0.43035323       0.25064262 </v>
   <v>      -0.01945750      -0.68066979      -0.16128232 </v>
   <v>       0.13723247      -0.02888228      -0.79995871 </v>
   <v>      -0.45081971       0.44904532      -0.22772017 </v>
   <v>      -0.46159310      -0.14478079       0.36752326 </v>
   <v>      -0.30251521      -0.13158185      -0.45657531 </v>
   <v>       0.16363409       0.37361903      -0.66995240 </v>
   <v>      -0.15793368       0.07708773      -0.98937847 </v>
   <v>      -0.10103398       0.44308801       0.57442569 </v>
   <v>      -0.50683914       0.01779784       0.31753058 </v>
   <v>       0.14017373      -0.59221927      -0.18950584 </v>
   <v>      -0.12720311       0.58099146       0.19688067 </v>
   <v>       0.14212030       0.10959454      -0.08240502 </v>
   <v>       0.07161540      -0.09490100      -0.07033958 </v>
   <v>      -0.00350965      -0.17195685       0.18424227 </v>
   <v>       0.17828472      -0.01119382      -0.27220265 </v>
   <v>      -0.48955992      -0.04961308      -0.01860931 </v>
   <v>      -0.08254210       0.20627298       0.36515824 </v>
   <v>      -0.01116222      -0.32569441       0.35705434 </v>
   <v>       0.16682582      -0.28243996      -0.33865924 </v>
   <v>      -0.15393859       0.16703570       0.66155857 </v>
   <v>       0.40627656       0.60672246       0.35526880 </v>
   <v>       0.15024280       0.07888450      -0.37063998 </v>
   <v>      -0.08954006      -0.50732834      -0.17028816 </v>
   <v>       0.57442353       0.17884619      -0.06456898 </v>
   <v>       0.00974809       0.05677616       0.05347890 </v>
   <v>      -0.09749901      -0.22400392      -0.17297382 </v>
   <v>       0.45893487      -0.24940084       0.73763894 </v>
   <v>      -0.12111980       0.50871714       1.30511095 </v>
   <v>      -0.13463669       0.19456060      -0.07286363 </v>
   <v>      -0.23528230      -0.01002706      -0.97306281 </v>
   <v>       0.00538192       0.54687289       1.22636866 </v>
   <v>      -0.71371756      -0.31816837       0.44350844 </v>
   <v>       0.44423419       0.08509359      -0.39456510 </v>
   <v>       0.84416010       0.02502626       1.10852894 </v>
   <v>       0.09626091       0.19384348       0.27496307 </v>
   <v>      -0.04743789      -0.66459697       0.26588265 </v>
   <v>       0.37144190       0.71804459       0.48304929 </v>
   <v>      -0.84141427      -0.76030558       0.56322052 </v>
   <v>      -0.30925964      -0.28224733      -0.17608187 </v>
   <v>      -0.56102579      -0.22614031       0.27040016 </v>
   <v>      -1.14149936       0.69513939      -0.55582569 </v>
   <v>       0.27400341      -0.41396245      -0.50400318 </v>
  </varray>
  <varray name="stress" >
   <v>       1.13832876      -0.77027236      -2.06711512 </v>
   <v>      -0.77027236       1.90633605      -2.27946819 </v>
   <v>      -2.06711515      -2.27946817      -3.02973246 </v>
  </varray>
  <energy>
   <i name="e_fr_energy">   -597.54575722 </i>
   <i name="e_wo_entrp">   -597.54575722 </i>
   <i name="e_0_energy">     -0.00000000 </i>
  </energy>
  <time name="totalsc"> 1776.38 1776.84</time>
  <eigenvalues>
   <array>
    <dimension dim="1">band</dimension>
    <dimension dim="2">kpoint</dimension>
    <dimension dim="3">spin</dimension>
    <field>eigene</field>
    <field>occ</field>
    <set>
     <set comment="spin 1">
      <set comment="kpoint 1">
       <r>  -51.8810    1.0000 </r>
       <r>  -51.8350    1.0000 </r>
       <r>  -51.8114    1.0000 </r>
       <r>  -51.7698    1.0000 </r>
       <r>  -51.7377    1.0000 </r>
       <r>  -51.7348    1.0000 </r>
       <r>  -51.7318    1.0000 </r>
       <r>  -51.7073    1.0000 </r>
       <r>  -51.6778    1.0000 </r>
       <r>  -51.6548    1.0000 </r>
       <r>  -51.6529    1.0000 </r>
       <r>  -51.5928    1.0000 </r>
       <r>  -51.5902    1.0000 </r>
       <r>  -51.5858    1.0000 </r>
       <r>  -51.5632    1.0000 </r>
       <r>  -51.5280    1.0000 </r>
       <r>  -51.5222    1.0000 </r>
       <r>  -51.5182    1.0000 </r>
       <r>  -51.5062    1.0000 </r>
       <r>  -51.5053    1.0000 </r>
       <r>  -51.4882    1.0000 </r>
       <r>  -51.4517    1.0000 </r>
       <r>  -51.4481    1.0000 </r>
       <r>  -51.4413    1.0000 </r>
       <r>  -51.4314    1.0000 </r>
       <r>  -51.4146    1.0000 </r>
       <r>  -51.4132    1.0000 </r>
       <r>  -51.3934    1.0000 </r>
       <r>  -51.3556    1.0000 </r>
       <r>  -51.2826    1.0000 </r>
       <r>  -51.2800    1.0000 </r>
       <r>  -51.2354    1.0000 </r>
       <r>  -30.7921    1.0000 </r>
       <r>  -30.7840    1.0000 </r>
       <r>  -30.7285    1.0000 </r>
       <r>  -30.7210    1.0000 </r>
       <r>  -30.7038    1.0000 </r>
       <r>  -30.6898    1.0000 </r>
       <r>  -30.6776    1.0000 </r>
       <r>  -30.6629    1.0000 </r>
       <r>  -30.6508    1.0000 </r>
       <r>  -30.6365    1.0000 </r>
       <r>  -30.6304    1.0000 </r>
       <r>  -30.6168    1.0000 </r>
       <r>  -30.6108    1.0000 </r>
       <r>  -30.5953    1.0000 </r>
       <r>  -30.5893    1.0000 </r>
       <r>  -30.5733    1.0000 </r>
       <r>  -30.5601    1.0000 </r>
       <r>  -30.5515    1.0000 </r>
       <r>  -30.5360    1.0000 </r>
       <r>  -30.5289    1.0000 </r>
       <r>  -30.5132    1.0000 </r>
       <r>  -30.5025    1.0000 </r>
       <r>  -30.4996    1.0000 </r>
       <r>  -30.4917    1.0000 </r>
       <r>  -30.4856    1.0000 </r>
       <r>  -30.4741    1.0000 </r>
       <r>  -30.4620    1.0000 </r>
       <r>  -30.4548    1.0000 </r>
       <r>  -30.4509    1.0000 </r>
       <r>  -30.4353    1.0000 </r>
       <r>  -30.4318    1.0000 </r>
       <r>  -30.4278    1.0000 </r>
       <r>  -30.4163    1.0000 </r>
       <r>  -30.4086    1.0000 </r>
       <r>  -30.3988    1.0000 </r>
       <r>  -30.3859    1.0000 </r>
       <r>  -30.3771    1.0000 </r>
       <r>  -30.3688    1.0000 </r>
       <r>  -30.3568    1.0000 </r>
       <r>  -30.3527    1.0000 </r>
       <r>  -30.3496    1.0000 </r>
       <r>  -30.3400    1.0000 </r>
       <r>  -30.3266    1.0000 </r>
       <r>  -30.3177    1.0000 </r>
       <r>  -30.3082    1.0000 </r>
       <r>  -30.2974    1.0000 </r>
       <r>  -30.2854    1.0000 </r>
       <r>  -30.2778    1.0000 </r>
       <r>  -30.2696    1.0000 </r>
       <r>  -30.2526    1.0000 </r>
       <r>  -30.2439    1.0000 </r>
       <r>  -30.2365    1.0000 </r>
       <r>  -30.2265    1.0000 </r>
       <r>  -30.2208    1.0000 </r>
       <r>  -30.2192    1.0000 </r>
       <r>  -30.2166    1.0000 </r>
       <r>  -30.2094    1.0000 </r>
       <r>  -30.2073    1.0000 </r>
       <r>  -30.1918    1.0000 </r>
       <r>  -30.1861    1.0000 </r>
       <r>  -30.1835    1.0000 </r>
       <r>  -30.1810    1.0000 </r>
       <r>  -30.1694    1.0000 </r>
       <r>  -30.1654    1.0000 </r>
       <r>  -30.1557    1.0000 </r>
       <r>  -30.1549    1.0000 </r>
       <r>  -30.1462    1.0000 </r>
       <r>  -30.1379    1.0000 </r>
       <r>  -30.1272    1.0000 </r>
       <r>  -30.1232    1.0000 </r>
       <r>  -30.1111    1.0000 </r>
       <r>  -30.1090    1.0000 </r>
       <r>  -30.1019    1.0000 </r>
       <r>  -30.0958    1.0000 </r>
       <r>  -30.0922    1.0000 </r>
       <r>  -30.0852    1.0000 </r>
       <r>  -30.0791    1.0000 </r>
       <r>  -30.0741    1.0000 </r>
       <r>  -30.0672    1.0000 </r>
       <r>  -30.0641    1.0000 </r>
       <r>  -30.0536    1.0000 </r>
       <r>  -30.0369    1.0000 </r>
       <r>  -30.0325    1.0000 </r>
       <r>  -30.0165    1.0000 </r>
       <r>  -30.0098    1.0000 </r>
       <r>  -30.0000    1.0000 </r>
       <r>  -29.9900    1.0000 </r>
       <r>  -29.9706    1.0000 </r>
       <r>  -29.9640    1.0000 </r>
       <r>  -29.9384    1.0000 </r>
       <r>  -29.9335    1.0000 </r>
       <r>  -29.9224    1.0000 </r>
       <r>  -29.9199    1.0000 </r>
       <r>  -29.9031    1.0000 </r>
       <r>  -29.8848    1.0000 </r>
       <r>  -29.8764    1.0000 </r>
       <r>  -27.0229    1.0000 </r>
       <r>  -26.9523    1.0000 </r>
       <r>  -26.9237    1.0000 </r>
       <r>  -26.9121    1.0000 </r>
       <r>  -26.8281    1.0000 </r>
       <r>  -26.8203    1.0000 </r>
       <r>  -26.7846    1.0000 </r>
       <r>  -26.7772    1.0000 </r>
       <r>  -26.7640    1.0000 </r>
       <r>  -26.7250    1.0000 </r>
       <r>  -26.7126    1.0000 </r>
       <r>  -26.7114    1.0000 </r>
       <r>  -26.6984    1.0000 </r>
       <r>  -26.6741    1.0000 </r>
       <r>  -26.6513    1.0000 </r>
       <r>  -26.6101    1.0000 </r>
       <r>  -26.5905    1.0000 </r>
       <r>  -26.5528    1.0000 </r>
       <r>  -26.5473    1.0000 </r>
       <r>  -26.5406    1.0000 </r>
       <r>  -26.4951    1.0000 </r>
       <r>  -26.4864    1.0000 </r>
       <r>  -26.4553    1.0000 </r>
       <r>  -26.4334    1.0000 </r>
       <r>  -26.4119    1.0000 </r>
       <r>  -26.3782    1.0000 </r>
       <r>  -26.3333    1.0000 </r>
       <r>  -26.3158    1.0000 </r>
       <r>  -26.2386    1.0000 </r>
       <r>  -26.2071    1.0000 </r>
       <r>  -26.2034    1.0000 </r>
       <r>  -26.1454    1.0000 </r>
       <r>  -12.1874    1.0000 </r>
       <r>  -11.7955    1.0000 </r>
       <r>  -11.7921    1.0000 </r>
       <r>  -11.7493    1.0000 </r>
       <r>  -11.7120    1.0000 </r>
       <r>  -11.6868    1.0000 </r>
       <r>  -11.6118    1.0000 </r>
       <r>  -11.2507    1.0000 </r>
       <r>  -11.2036    1.0000 </r>
       <r>  -11.1671    1.0000 </r>
       <r>  -11.1495    1.0000 </r>
       <r>  -11.1085    1.0000 </r>
       <r>  -11.0785    1.0000 </r>
       <r>  -11.0435    1.0000 </r>
       <r>  -10.9857    1.0000 </r>
       <r>  -10.9706    1.0000 </r>
       <r>   -9.3730    1.0000 </r>
       <r>   -9.3422    1.0000 </r>
       <r>   -9.2989    1.0000 </r>
       <r>   -9.2172    1.0000 </r>
       <r>   -9.2012    1.0000 </r>
       <r>   -9.1826    1.0000 </r>
       <r>   -9.1253    1.0000 </r>
       <r>   -9.1101    1.0000 </r>
       <r>   -9.0829    1.0000 </r>
       <r>   -9.0768    1.0000 </r>
       <r>   -9.0228    1.0000 </r>
       <r>   -9.0094    1.0000 </r>
       <r>   -8.9890    1.0000 </r>
       <r>   -8.9873    1.0000 </r>
       <r>   -8.9777    1.0000 </r>
       <r>   -8.9600    1.0000 </r>
       <r>   -8.9455    1.0000 </r>
       <r>   -8.9251    1.0000 </r>
       <r>   -8.9034    1.0000 </r>
       <r>   -8.8885    1.0000 </r>
       <r>   -8.8644    1.0000 </r>
       <r>   -8.8500    1.0000 </r>
       <r>   -8.8444    1.0000 </r>
       <r>   -8.8399    1.0000 </r>
       <r>   -8.8318    1.0000 </r>
       <r>   -8.8038    1.0000 </r>
       <r>   -8.7905    1.0000 </r>
       <r>   -8.7888    1.0000 </r>
       <r>   -8.7593    1.0000 </r>
       <r>   -8.7339    1.0000 </r>
       <r>   -8.7134    1.0000 </r>
       <r>   -8.7073    1.0000 </r>
       <r>   -8.6954    1.0000 </r>
       <r>   -8.6756    1.0000 </r>
       <r>   -8.6523    1.0000 </r>
       <r>   -8.6412    1.0000 </r>
       <r>   -8.6320    1.0000 </r>
       <r>   -8.6140    1.0000 </r>
       <r>   -8.5976    1.0000 </r>
       <r>   -8.5941    1.0000 </r>
       <r>   -8.5829    1.0000 </r>
       <r>   -8.5692    1.0000 </r>
       <r>   -8.5611    1.0000 </r>
       <r>   -8.5382    1.0000 </r>
       <r>   -8.5307    1.0000 </r>
       <r>   -8.5287    1.0000 </r>
       <r>   -8.5172    1.0000 </r>
       <r>   -8.5111    1.0000 </r>
       <r>   -8.4928    1.0000 </r>
       <r>   -8.4861    1.0000 </r>
       <r>   -8.4774    1.0000 </r>
       <r>   -8.4680    1.0000 </r>
       <r>   -8.4501    1.0000 </r>
       <r>   -8.4437    1.0000 </r>
       <r>   -8.4431    1.0000 </r>
       <r>   -8.4383    1.0000 </r>
       <r>   -8.4290    1.0000 </r>
       <r>   -8.4205    1.0000 </r>
       <r>   -8.3969    1.0000 </r>
       <r>   -8.3913    1.0000 </r>
       <r>   -8.3762    1.0000 </r>
       <r>   -8.3630    1.0000 </r>
       <r>   -8.3406    1.0000 </r>
       <r>   -8.3276    1.0000 </r>
       <r>   -8.3185    1.0000 </r>
       <r>   -8.3051    1.0000 </r>
       <r>   -8.3017    1.0000 </r>
       <r>   -8.2764    1.0000 </r>
       <r>   -8.2633    1.0000 </r>
       <r>   -8.2591    1.0000 </r>
       <r>   -8.2477    1.0000 </r>
       <r>   -8.2363    1.0000 </r>
       <r>   -8.2236    1.0000 </r>
       <r>   -8.2076    1.0000 </r>
       <r>   -8.2004    1.0000 </r>
       <r>   -8.1916    1.0000 </r>
       <r>   -8.1854    1.0000 </r>
       <r>   -8.1635    1.0000 </r>
       <r>   -8.1415    1.0000 </r>
       <r>   -8.1386    1.0000 </r>
       <r>   -8.1284    1.0000 </r>
       <r>   -8.1036    1.0000 </r>
       <r>   -8.0927    1.0000 </r>
       <r>   -8.0790    1.0000 </r>
       <r>   -8.0578    1.0000 </r>
       <r>   -8.0399    1.0000 </r>
       <r>   -8.0285    1.0000 </r>
       <r>   -8.0024    1.0000 </r>
       <r>   -7.9769    1.0000 </r>
       <r>   -7.9621    1.0000 </r>
       <r>   -7.9321    1.0000 </r>
       <r>   -7.9276    1.0000 </r>
       <r>   -7.9126    1.0000 </r>
       <r>   -7.9054    1.0000 </r>
       <r>   -7.8462    1.0000 </r>
       <r>   -7.7297    1.0000 </r>
       <r>   -5.2880    1.0000 </r>
       <r>   -5.2689    1.0000 </r>
       <r>   -5.2046    1.0000 </r>
       <r>   -4.9871    1.0000 </r>
       <r>   -4.9757    1.0000 </r>
       <r>   -4.9382    1.0000 </r>
       <r>   -4.9229    1.0000 </r>
       <r>   -4.9019    1.0000 </r>
       <r>   -4.8608    1.0000 </r>
       <r>   -4.6141    1.0000 </r>
       <r>   -4.4900    1.0000 </r>
       <r>   -4.4518    1.0000 </r>
       <r>   -4.4466    1.0000 </r>
       <r>   -4.4374    1.0000 </r>
       <r>   -4.3904    1.0000 </r>
       <r>   -4.3693    1.0000 </r>
       <r>   -4.3438    1.0000 </r>
       <r>   -4.3218    1.0000 </r>
       <r>   -4.3088    1.0000 </r>
       <r>   -4.2897    1.0000 </r>
       <r>   -4.2700    1.0000 </r>
       <r>   -4.2621    1.0000 </r>
       <r>   -4.2124    1.0000 </r>
       <r>   -4.2016    1.0000 </r>
       <r>   -4.1785    1.0000 </r>
       <r>   -4.1523    1.0000 </r>
       <r>   -4.1383    1.0000 </r>
       <r>   -4.1140    1.0000 </r>
       <r>   -4.1029    1.0000 </r>
       <r>   -4.0420    1.0000 </r>
       <r>   -4.0223    1.0000 </r>
       <r>   -3.9830    1.0000 </r>
       <r>   -3.9645    1.0000 </r>
       <r>   -3.9128    1.0000 </r>
       <r>   -3.9102    1.0000 </r>
       <r>   -3.8220    1.0000 </r>
       <r>   -3.7398    1.0000 </r>
       <r>   -3.4639    1.0000 </r>
       <r>   -3.4402    1.0000 </r>
       <r>   -3.4031    1.0000 </r>
       <r>   -3.3335    1.0000 </r>
       <r>   -3.2944    1.0000 </r>
       <r>   -3.2697    1.0000 </r>
       <r>   -3.2310    1.0000 </r>
       <r>   -3.1962    1.0000 </r>
       <r>   -3.1842    1.0000 </r>
       <r>   -2.9858    1.0000 </r>
       <r>   -2.9615    1.0000 </r>
       <r>   -2.0027    0.0000 </r>
       <r>   -1.9792    0.0000 </r>
       <r>   -1.9510    0.0000 </r>
       <r>   -1.3910    0.0000 </r>
       <r>   -1.3381    0.0000 </r>
       <r>   -1.3229    0.0000 </r>
       <r>   -1.3033    0.0000 </r>
       <r>   -1.2649    0.0000 </r>
       <r>   -1.2154    0.0000 </r>
       <r>   -0.6330    0.0000 </r>
       <r>   -0.5493    0.0000 </r>
       <r>   -0.5127    0.0000 </r>
       <r>   -0.4926    0.0000 </r>
       <r>   -0.4787    0.0000 </r>
       <r>   -0.4670    0.0000 </r>
       <r>   -0.4288    0.0000 </r>
       <r>   -0.3700    0.0000 </r>
       <r>   -0.3456    0.0000 </r>
       <r>   -0.2802    0.0000 </r>
       <r>   -0.2722    0.0000 </r>
       <r>   -0.2285    0.0000 </r>
       <r>   -0.1814    0.0000 </r>
       <r>   -0.1392    0.0000 </r>
       <r>   -0.1240    0.0000 </r>
       <r>    0.2179    0.0000 </r>
       <r>    0.2375    0.0000 </r>
       <r>    0.2668    0.0000 </r>
       <r>    0.3086    0.0000 </r>
       <r>    0.3314    0.0000 </r>
       <r>    0.3364    0.0000 </r>
       <r>    0.3502    0.0000 </r>
       <r>    0.3735    0.0000 </r>
       <r>    0.4029    0.0000 </r>
       <r>    0.4275    0.0000 </r>
       <r>    0.4796    0.0000 </r>
       <r>    0.4986    0.0000 </r>
       <r>    0.5470    0.0000 </r>
       <r>    0.5755    0.0000 </r>
       <r>    0.5911    0.0000 </r>
       <r>    0.6411    0.0000 </r>
       <r>    0.6568    0.0000 </r>
       <r>    0.6746    0.0000 </r>
       <r>    0.6990    0.0000 </r>
       <r>    0.7098    0.0000 </r>
       <r>    0.7487    0.0000 </r>
       <r>    0.7652    0.0000 </r>
       <r>    0.8024    0.0000 </r>
       <r>    0.8265    0.0000 </r>
       <r>    0.8629    0.0000 </r>
       <r>    0.8802    0.0000 </r>
       <r>    0.8870    0.0000 </r>
       <r>    0.9176    0.0000 </r>
       <r>    0.9373    0.0000 </r>
       <r>    0.9605    0.0000 </r>
       <r>    0.9748    0.0000 </r>
       <r>    0.9858    0.0000 </r>
       <r>    0.9884    0.0000 </r>
       <r>    1.0002    0.0000 </r>
       <r>    1.0208    0.0000 </r>
       <r>    1.0454    0.0000 </r>
       <r>    1.0608    0.0000 </r>
       <r>    1.0975    0.0000 </r>
       <r>    1.1089    0.0000 </r>
       <r>    1.1279    0.0000 </r>
      </set>
      <set comment="kpoint 2">
       <r>  -51.8810    1.0000 </r>
       <r>  -51.8350    1.0000 </r>
       <r>  -51.8114    1.0000 </r>
       <r>  -51.7698    1.0000 </r>
       <r>  -51.7377    1.0000 </r>
       <r>  -51.7347    1.0000 </r>
       <r>  -51.7318    1.0000 </r>
       <r>  -51.7073    1.0000 </r>
       <r>  -51.6778    1.0000 </r>
       <r>  -51.6548    1.0000 </r>
       <r>  -51.6529    1.0000 </r>
       <r>  -51.5928    1.0000 </r>
       <r>  -51.5902    1.0000 </r>
       <r>  -51.5858    1.0000 </r>
       <r>  -51.5632    1.0000 </r>
       <r>  -51.5280    1.0000 </r>
       <r>  -51.5222    1.0000 </r>
       <r>  -51.5181    1.0000 </r>
       <r>  -51.5064    1.0000 </r>
       <r>  -51.5051    1.0000 </r>
       <r>  -51.4882    1.0000 </r>
       <r>  -51.4517    1.0000 </r>
       <r>  -51.4481    1.0000 </r>
       <r>  -51.4413    1.0000 </r>
       <r>  -51.4314    1.0000 </r>
       <r>  -51.4146    1.0000 </r>
       <r>  -51.4133    1.0000 </r>
       <r>  -51.3934    1.0000 </r>
       <r>  -51.3556    1.0000 </r>
       <r>  -51.2826    1.0000 </r>
       <r>  -51.2800    1.0000 </r>
       <r>  -51.2354    1.0000 </r>
       <r>  -30.7873    1.0000 </r>
       <r>  -30.7799    1.0000 </r>
       <r>  -30.7229    1.0000 </r>
       <r>  -30.7118    1.0000 </r>
       <r>  -30.7001    1.0000 </r>
       <r>  -30.6932    1.0000 </r>
       <r>  -30.6755    1.0000 </r>
       <r>  -30.6687    1.0000 </r>
       <r>  -30.6518    1.0000 </r>
       <r>  -30.6360    1.0000 </r>
       <r>  -30.6284    1.0000 </r>
       <r>  -30.6195    1.0000 </r>
       <r>  -30.6104    1.0000 </r>
       <r>  -30.6023    1.0000 </r>
       <r>  -30.5907    1.0000 </r>
       <r>  -30.5773    1.0000 </r>
       <r>  -30.5683    1.0000 </r>
       <r>  -30.5575    1.0000 </r>
       <r>  -30.5400    1.0000 </r>
       <r>  -30.5300    1.0000 </r>
       <r>  -30.5248    1.0000 </r>
       <r>  -30.5089    1.0000 </r>
       <r>  -30.5012    1.0000 </r>
       <r>  -30.4965    1.0000 </r>
       <r>  -30.4818    1.0000 </r>
       <r>  -30.4750    1.0000 </r>
       <r>  -30.4661    1.0000 </r>
       <r>  -30.4584    1.0000 </r>
       <r>  -30.4547    1.0000 </r>
       <r>  -30.4456    1.0000 </r>
       <r>  -30.4328    1.0000 </r>
       <r>  -30.4184    1.0000 </r>
       <r>  -30.4110    1.0000 </r>
       <r>  -30.3995    1.0000 </r>
       <r>  -30.3912    1.0000 </r>
       <r>  -30.3817    1.0000 </r>
       <r>  -30.3744    1.0000 </r>
       <r>  -30.3640    1.0000 </r>
       <r>  -30.3592    1.0000 </r>
       <r>  -30.3524    1.0000 </r>
       <r>  -30.3436    1.0000 </r>
       <r>  -30.3402    1.0000 </r>
       <r>  -30.3233    1.0000 </r>
       <r>  -30.3150    1.0000 </r>
       <r>  -30.3050    1.0000 </r>
       <r>  -30.2992    1.0000 </r>
       <r>  -30.2885    1.0000 </r>
       <r>  -30.2854    1.0000 </r>
       <r>  -30.2728    1.0000 </r>
       <r>  -30.2548    1.0000 </r>
       <r>  -30.2425    1.0000 </r>
       <r>  -30.2383    1.0000 </r>
       <r>  -30.2303    1.0000 </r>
       <r>  -30.2256    1.0000 </r>
       <r>  -30.2176    1.0000 </r>
       <r>  -30.2136    1.0000 </r>
       <r>  -30.2099    1.0000 </r>
       <r>  -30.2044    1.0000 </r>
       <r>  -30.1887    1.0000 </r>
       <r>  -30.1868    1.0000 </r>
       <r>  -30.1810    1.0000 </r>
       <r>  -30.1718    1.0000 </r>
       <r>  -30.1626    1.0000 </r>
       <r>  -30.1580    1.0000 </r>
       <r>  -30.1544    1.0000 </r>
       <r>  -30.1453    1.0000 </r>
       <r>  -30.1397    1.0000 </r>
       <r>  -30.1330    1.0000 </r>
       <r>  -30.1278    1.0000 </r>
       <r>  -30.1234    1.0000 </r>
       <r>  -30.1154    1.0000 </r>
       <r>  -30.1084    1.0000 </r>
       <r>  -30.1045    1.0000 </r>
       <r>  -30.0953    1.0000 </r>
       <r>  -30.0923    1.0000 </r>
       <r>  -30.0874    1.0000 </r>
       <r>  -30.0748    1.0000 </r>
       <r>  -30.0714    1.0000 </r>
       <r>  -30.0664    1.0000 </r>
       <r>  -30.0611    1.0000 </r>
       <r>  -30.0567    1.0000 </r>
       <r>  -30.0388    1.0000 </r>
       <r>  -30.0316    1.0000 </r>
       <r>  -30.0189    1.0000 </r>
       <r>  -30.0116    1.0000 </r>
       <r>  -30.0092    1.0000 </r>
       <r>  -29.9896    1.0000 </r>
       <r>  -29.9709    1.0000 </r>
       <r>  -29.9642    1.0000 </r>
       <r>  -29.9431    1.0000 </r>
       <r>  -29.9338    1.0000 </r>
       <r>  -29.9223    1.0000 </r>
       <r>  -29.9205    1.0000 </r>
       <r>  -29.9087    1.0000 </r>
       <r>  -29.8864    1.0000 </r>
       <r>  -29.8787    1.0000 </r>
       <r>  -27.0224    1.0000 </r>
       <r>  -26.9523    1.0000 </r>
       <r>  -26.9223    1.0000 </r>
       <r>  -26.9129    1.0000 </r>
       <r>  -26.8277    1.0000 </r>
       <r>  -26.8203    1.0000 </r>
       <r>  -26.7860    1.0000 </r>
       <r>  -26.7764    1.0000 </r>
       <r>  -26.7638    1.0000 </r>
       <r>  -26.7250    1.0000 </r>
       <r>  -26.7126    1.0000 </r>
       <r>  -26.7114    1.0000 </r>
       <r>  -26.6986    1.0000 </r>
       <r>  -26.6742    1.0000 </r>
       <r>  -26.6514    1.0000 </r>
       <r>  -26.6102    1.0000 </r>
       <r>  -26.5904    1.0000 </r>
       <r>  -26.5531    1.0000 </r>
       <r>  -26.5472    1.0000 </r>
       <r>  -26.5404    1.0000 </r>
       <r>  -26.4953    1.0000 </r>
       <r>  -26.4864    1.0000 </r>
       <r>  -26.4552    1.0000 </r>
       <r>  -26.4334    1.0000 </r>
       <r>  -26.4119    1.0000 </r>
       <r>  -26.3782    1.0000 </r>
       <r>  -26.3334    1.0000 </r>
       <r>  -26.3158    1.0000 </r>
       <r>  -26.2386    1.0000 </r>
       <r>  -26.2072    1.0000 </r>
       <r>  -26.2033    1.0000 </r>
       <r>  -26.1454    1.0000 </r>
       <r>  -12.1370    1.0000 </r>
       <r>  -11.9806    1.0000 </r>
       <r>  -11.8088    1.0000 </r>
       <r>  -11.7990    1.0000 </r>
       <r>  -11.6015    1.0000 </r>
       <r>  -11.5512    1.0000 </r>
       <r>  -11.4334    1.0000 </r>
       <r>  -11.3812    1.0000 </r>
       <r>  -11.3346    1.0000 </r>
       <r>  -11.1927    1.0000 </r>
       <r>  -11.1637    1.0000 </r>
       <r>  -11.1081    1.0000 </r>
       <r>  -11.0872    1.0000 </r>
[...]
       <r>   -32.3592     0.0000    64.0000 </r>
       <r>   -32.1647     0.0000    64.0000 </r>
       <r>   -31.9702     0.0000    64.0000 </r>
       <r>   -31.7757     0.0000    64.0000 </r>
       <r>   -31.5811     0.0000    64.0000 </r>
       <r>   -31.3866     0.0000    64.0000 </r>
       <r>   -31.1921     0.0000    64.0000 </r>
       <r>   -30.9976     0.0000    64.0000 </r>
       <r>   -30.8031     5.7391    65.1163 </r>
       <r>   -30.6086   123.4867    89.1358 </r>
       <r>   -30.4141   203.9487   128.8061 </r>
       <r>   -30.2196   229.2185   173.3916 </r>
       <r>   -30.0251   289.5520   229.7127 </r>
       <r>   -29.8305   133.3730   255.6552 </r>
       <r>   -29.6360     1.7727   256.0000 </r>
       <r>   -29.4415     0.0000   256.0000 </r>
       <r>   -29.2470     0.0000   256.0000 </r>
       <r>   -29.0525     0.0000   256.0000 </r>
       <r>   -28.8580     0.0000   256.0000 </r>
       <r>   -28.6635     0.0000   256.0000 </r>
       <r>   -28.4690     0.0000   256.0000 </r>
       <r>   -28.2745     0.0000   256.0000 </r>
       <r>   -28.0799     0.0000   256.0000 </r>
       <r>   -27.8854     0.0000   256.0000 </r>
       <r>   -27.6909     0.0000   256.0000 </r>
       <r>   -27.4964     0.0000   256.0000 </r>
       <r>   -27.3019     0.0000   256.0000 </r>
       <r>   -27.1074     0.0838   256.0163 </r>
       <r>   -26.9129    30.6012   261.9686 </r>
       <r>   -26.7184    79.0891   277.3523 </r>
       <r>   -26.5239    91.4430   295.1390 </r>
       <r>   -26.3293    74.4121   309.6129 </r>
       <r>   -26.1348    48.9728   319.1387 </r>
       <r>   -25.9403     4.4282   320.0000 </r>
       <r>   -25.7458     0.0000   320.0000 </r>
       <r>   -25.5513     0.0000   320.0000 </r>
       <r>   -25.3568     0.0000   320.0000 </r>
       <r>   -25.1623     0.0000   320.0000 </r>
       <r>   -24.9678     0.0000   320.0000 </r>
       <r>   -24.7733     0.0000   320.0000 </r>
       <r>   -24.5787     0.0000   320.0000 </r>
       <r>   -24.3842     0.0000   320.0000 </r>
       <r>   -24.1897     0.0000   320.0000 </r>
       <r>   -23.9952     0.0000   320.0000 </r>
       <r>   -23.8007     0.0000   320.0000 </r>
       <r>   -23.6062     0.0000   320.0000 </r>
       <r>   -23.4117     0.0000   320.0000 </r>
       <r>   -23.2172     0.0000   320.0000 </r>
       <r>   -23.0227     0.0000   320.0000 </r>
       <r>   -22.8281     0.0000   320.0000 </r>
       <r>   -22.6336     0.0000   320.0000 </r>
       <r>   -22.4391     0.0000   320.0000 </r>
       <r>   -22.2446     0.0000   320.0000 </r>
       <r>   -22.0501     0.0000   320.0000 </r>
       <r>   -21.8556     0.0000   320.0000 </r>
       <r>   -21.6611     0.0000   320.0000 </r>
       <r>   -21.4666     0.0000   320.0000 </r>
       <r>   -21.2721     0.0000   320.0000 </r>
       <r>   -21.0776     0.0000   320.0000 </r>
       <r>   -20.8830     0.0000   320.0000 </r>
       <r>   -20.6885     0.0000   320.0000 </r>
       <r>   -20.4940     0.0000   320.0000 </r>
       <r>   -20.2995     0.0000   320.0000 </r>
       <r>   -20.1050     0.0000   320.0000 </r>
       <r>   -19.9105     0.0000   320.0000 </r>
       <r>   -19.7160     0.0000   320.0000 </r>
       <r>   -19.5215     0.0000   320.0000 </r>
       <r>   -19.3270     0.0000   320.0000 </r>
       <r>   -19.1324     0.0000   320.0000 </r>
       <r>   -18.9379     0.0000   320.0000 </r>
       <r>   -18.7434     0.0000   320.0000 </r>
       <r>   -18.5489     0.0000   320.0000 </r>
       <r>   -18.3544     0.0000   320.0000 </r>
       <r>   -18.1599     0.0000   320.0000 </r>
       <r>   -17.9654     0.0000   320.0000 </r>
       <r>   -17.7709     0.0000   320.0000 </r>
       <r>   -17.5764     0.0000   320.0000 </r>
       <r>   -17.3818     0.0000   320.0000 </r>
       <r>   -17.1873     0.0000   320.0000 </r>
       <r>   -16.9928     0.0000   320.0000 </r>
       <r>   -16.7983     0.0000   320.0000 </r>
       <r>   -16.6038     0.0000   320.0000 </r>
       <r>   -16.4093     0.0000   320.0000 </r>
       <r>   -16.2148     0.0000   320.0000 </r>
       <r>   -16.0203     0.0000   320.0000 </r>
       <r>   -15.8258     0.0000   320.0000 </r>
       <r>   -15.6312     0.0000   320.0000 </r>
       <r>   -15.4367     0.0000   320.0000 </r>
       <r>   -15.2422     0.0000   320.0000 </r>
       <r>   -15.0477     0.0000   320.0000 </r>
       <r>   -14.8532     0.0000   320.0000 </r>
       <r>   -14.6587     0.0000   320.0000 </r>
       <r>   -14.4642     0.0000   320.0000 </r>
       <r>   -14.2697     0.0000   320.0000 </r>
       <r>   -14.0752     0.0000   320.0000 </r>
       <r>   -13.8806     0.0000   320.0000 </r>
       <r>   -13.6861     0.0000   320.0000 </r>
       <r>   -13.4916     0.0000   320.0000 </r>
       <r>   -13.2971     0.0000   320.0000 </r>
       <r>   -13.1026     0.0000   320.0000 </r>
       <r>   -12.9081     0.0000   320.0000 </r>
       <r>   -12.7136     0.0000   320.0000 </r>
       <r>   -12.5191     0.0000   320.0000 </r>
       <r>   -12.3246     0.0001   320.0000 </r>
       <r>   -12.1300     5.5473   321.0790 </r>
       <r>   -11.9355    14.2448   323.8498 </r>
       <r>   -11.7410    18.2265   327.3950 </r>
       <r>   -11.5465    20.0340   331.2919 </r>
       <r>   -11.3520    20.9759   335.3719 </r>
       <r>   -11.1575    32.6816   341.7288 </r>
       <r>   -10.9630    38.3626   349.1908 </r>
       <r>   -10.7685    14.4411   351.9998 </r>
       <r>   -10.5740     0.0012   352.0000 </r>
       <r>   -10.3794     0.0000   352.0000 </r>
       <r>   -10.1849     0.0000   352.0000 </r>
       <r>    -9.9904     0.0000   352.0000 </r>
       <r>    -9.7959     0.0000   352.0000 </r>
       <r>    -9.6014     0.0000   352.0000 </r>
       <r>    -9.4069     0.8397   352.1633 </r>
       <r>    -9.2124    38.7894   359.7083 </r>
       <r>    -9.0179    78.4350   374.9648 </r>
       <r>    -8.8234   132.6675   400.7701 </r>
       <r>    -8.6288   129.2185   425.9045 </r>
       <r>    -8.4343   186.6511   462.2102 </r>
       <r>    -8.2398   165.2736   494.3577 </r>
       <r>    -8.0453   144.1382   522.3942 </r>
       <r>    -7.8508    92.8426   540.4531 </r>
       <r>    -7.6563    17.9892   543.9522 </r>
       <r>    -7.4618     0.2456   544.0000 </r>
       <r>    -7.2673     0.0000   544.0000 </r>
       <r>    -7.0728     0.0000   544.0000 </r>
       <r>    -6.8782     0.0000   544.0000 </r>
       <r>    -6.6837     0.0000   544.0000 </r>
       <r>    -6.4892     0.0000   544.0000 </r>
       <r>    -6.2947     0.0000   544.0000 </r>
       <r>    -6.1002     0.0000   544.0000 </r>
       <r>    -5.9057     0.0000   544.0000 </r>
       <r>    -5.7112     0.0000   544.0000 </r>
       <r>    -5.5167     0.0000   544.0000 </r>
       <r>    -5.3222     0.3964   544.0771 </r>
       <r>    -5.1276    25.8486   549.1049 </r>
       <r>    -4.9331    42.7159   557.4137 </r>
       <r>    -4.7386    33.0754   563.8472 </r>
       <r>    -4.5441    22.1330   568.1523 </r>
       <r>    -4.3496    42.2138   576.3634 </r>
       <r>    -4.1551    61.4436   588.3148 </r>
       <r>    -3.9606    79.6707   603.8116 </r>
       <r>    -3.7661    54.9957   614.5089 </r>
       <r>    -3.5716    37.7778   621.8571 </r>
       <r>    -3.3770    38.4798   629.3419 </r>
       <r>    -3.1825    31.5726   635.4831 </r>
       <r>    -2.9880    19.9024   639.3543 </r>
       <r>    -2.7935     3.3194   640.0000 </r>
       <r>    -2.5990     0.0000   640.0000 </r>
       <r>    -2.4045     0.0000   640.0000 </r>
       <r>    -2.2100     0.0000   640.0000 </r>
       <r>    -2.0155     0.6399   640.1245 </r>
       <r>    -1.8210     9.5185   641.9759 </r>
       <r>    -1.6264    19.4132   645.7520 </r>
       <r>    -1.4319    14.3490   648.5431 </r>
       <r>    -1.2374    18.1947   652.0821 </r>
       <r>    -1.0429    21.9962   656.3606 </r>
       <r>    -0.8484    28.1595   661.8380 </r>
       <r>    -0.6539    15.7922   664.9097 </r>
       <r>    -0.4594    37.0601   672.1183 </r>
       <r>    -0.2649    31.1533   678.1780 </r>
       <r>    -0.0704    32.5093   684.5014 </r>
       <r>     0.1242    27.2351   689.7989 </r>
       <r>     0.3187    30.0544   695.6448 </r>
       <r>     0.5132    40.9953   703.6189 </r>
       <r>     0.7077    90.6337   721.2481 </r>
       <r>     0.9022   110.2650   742.6959 </r>
       <r>     1.0967   107.4529   763.5967 </r>
       <r>     1.2912    22.6373   767.9999 </r>
       <r>     1.4857     0.0006   768.0000 </r>
       <r>     1.6802     0.0000   768.0000 </r>
       <r>     1.8747     0.0000   768.0000 </r>
       <r>     2.0693     0.0000   768.0000 </r>
       <r>     2.2638     0.0000   768.0000 </r>
       <r>     2.4583     0.0000   768.0000 </r>
       <r>     2.6528     0.0000   768.0000 </r>
       <r>     2.8473     0.0000   768.0000 </r>
       <r>     3.0418     0.0000   768.0000 </r>
       <r>     3.2363     0.0000   768.0000 </r>
       <r>     3.4308     0.0000   768.0000 </r>
       <r>     3.6253     0.0000   768.0000 </r>
       <r>     3.8199     0.0000   768.0000 </r>
      </set>
     </set>
    </array>
   </total>
  </dos>
 </calculation>
 <structure name="finalpos" >
  <crystal>
   <varray name="basis" >
    <v>      13.12862340       0.00000000       0.00000000 </v>
    <v>      -6.56431170      11.36972138       0.00000000 </v>
    <v>       0.00000000       0.00000000      26.82809424 </v>
   </varray>
   <i name="volume">   4004.59716953 </i>
   <varray name="rec_basis" >
    <v>       0.07616945       0.04397645       0.00000000 </v>
    <v>       0.00000000       0.08795290       0.00000000 </v>
    <v>       0.00000000       0.00000000       0.03727436 </v>
   </varray>
  </crystal>
  <varray name="positions" >
   <v>       0.08051252       0.16093520       0.45062491 </v>
   <v>       0.08039093       0.41946071       0.45370012 </v>
   <v>       0.07788505       0.66029550       0.45772028 </v>
   <v>       0.08441578       0.91017201       0.45120193 </v>
   <v>       0.33284858       0.16299946       0.45121383 </v>
   <v>       0.32790051       0.41213719       0.44798391 </v>
   <v>       0.32692524       0.66814656       0.45601783 </v>
   <v>       0.34092057       0.91947336       0.45182736 </v>
   <v>       0.58158084       0.17496113       0.45180044 </v>
   <v>       0.59154616       0.41685265       0.44996666 </v>
   <v>       0.58891886       0.66496245       0.45346570 </v>
   <v>       0.57689769       0.91330635       0.45391869 </v>
   <v>       0.83026587       0.16965855       0.45342290 </v>
   <v>       0.83319047       0.41605909       0.45425732 </v>
   <v>       0.82541780       0.66344247       0.45340997 </v>
   <v>       0.82793713       0.91531135       0.45002076 </v>
   <v>       0.17452861       0.09134559       0.54582738 </v>
   <v>       0.16351808       0.33531744       0.54407468 </v>
   <v>       0.16525591       0.58554721       0.54977087 </v>
   <v>       0.16162343       0.83607015       0.55014636 </v>
   <v>       0.42163578       0.08328501       0.54856637 </v>
   <v>       0.41940657       0.33120166       0.54627449 </v>
   <v>       0.41923104       0.57831808       0.54781698 </v>
   <v>       0.40844050       0.83820900       0.54937703 </v>
   <v>       0.67008169       0.08157665       0.54905093 </v>
   <v>       0.66632158       0.33666437       0.54656942 </v>
   <v>       0.66485104       0.58161702       0.54503238 </v>
   <v>       0.67005563       0.83852233       0.54424992 </v>
   <v>       0.91914953       0.08403562       0.54879012 </v>
   <v>       0.91375933       0.33135158       0.54669911 </v>
   <v>       0.91307548       0.58345404       0.54806748 </v>
   <v>       0.92561166       0.83462071       0.54507546 </v>
   <v>       0.09258428       0.17731345       0.58848976 </v>
   <v>       0.06446671       0.39108058       0.59569328 </v>
   <v>       0.08780210       0.67805875       0.59547405 </v>
   <v>       0.08754994       0.92171640       0.59631490 </v>
   <v>       0.34718711       0.17998946       0.58858117 </v>
   <v>       0.34164983       0.42209008       0.58771951 </v>
   <v>       0.33714100       0.68256169       0.59169504 </v>
   <v>       0.33109220       0.92295029       0.59585729 </v>
   <v>       0.58381325       0.15190461       0.59252288 </v>
   <v>       0.59496940       0.42249113       0.58795913 </v>
   <v>       0.59242223       0.66600111       0.59098247 </v>
   <v>       0.57347579       0.90539562       0.59303997 </v>
   <v>       0.83472073       0.16061195       0.59617744 </v>
   <v>       0.82915173       0.40704921       0.58718114 </v>
   <v>       0.83899123       0.66736707       0.58771037 </v>
   <v>       0.83975741       0.92992292       0.59063667 </v>
   <v>       0.16523216       0.06559124       0.40636897 </v>
   <v>       0.16363471       0.33449797       0.40893552 </v>
   <v>       0.16391274       0.58556015       0.41230555 </v>
   <v>       0.16485681       0.82957091       0.40973564 </v>
   <v>       0.41793757       0.08509779       0.41039567 </v>
   <v>       0.42889311       0.33156454       0.40821882 </v>
   <v>       0.41051228       0.57538573       0.40800520 </v>
   <v>       0.42171009       0.84305204       0.40728423 </v>
   <v>       0.66346979       0.08952427       0.41321431 </v>
   <v>       0.67073016       0.33135415       0.40491941 </v>
   <v>       0.65911500       0.57322394       0.40639300 </v>
   <v>       0.66398713       0.83202871       0.41112662 </v>
   <v>       0.91876463       0.09012079       0.40932534 </v>
   <v>       0.90358619       0.33257170       0.40994155 </v>
   <v>       0.91455709       0.58291392       0.41226486 </v>
   <v>       0.91534010       0.82964321       0.41129577 </v>
   <v>       0.00018228       0.00152125       0.49687059 </v>
   <v>       0.00182324       0.24822358       0.49459354 </v>
   <v>       0.99993604       0.49781915       0.50288723 </v>
   <v>       0.00105703       0.74848355       0.50440665 </v>
   <v>       0.24970405       0.99727137       0.49700044 </v>
   <v>       0.25857745       0.25175725       0.49606940 </v>
   <v>       0.24563050       0.50267353       0.50293159 </v>
   <v>       0.24337349       0.75046623       0.49907564 </v>
   <v>       0.49679533       0.99934643       0.50068869 </v>
   <v>       0.50699803       0.25653351       0.49885033 </v>
   <v>       0.49757845       0.49495457       0.49727327 </v>
   <v>       0.50791773       0.75427527       0.49771057 </v>
   <v>       0.75391248       0.00349133       0.50075068 </v>
   <v>       0.75265362       0.25060307       0.50033892 </v>
   <v>       0.75499978       0.49628575       0.50083785 </v>
   <v>       0.75196916       0.75171369       0.49996604 </v>
  </varray>
  <varray name="velocities" >
   <v>       0.00000000       0.00000000       0.00000000 </v>
   <v>       0.00000000       0.00000000       0.00000000 </v>
   <v>       0.00000000       0.00000000       0.00000000 </v>
   <v>       0.00000000       0.00000000       0.00000000 </v>
   <v>       0.00000000       0.00000000       0.00000000 </v>
   <v>       0.00000000       0.00000000       0.00000000 </v>
   <v>       0.00000000       0.00000000       0.00000000 </v>
   <v>       0.00000000       0.00000000       0.00000000 </v>
   <v>       0.00000000       0.00000000       0.00000000 </v>
   <v>       0.00000000       0.00000000       0.00000000 </v>
   <v>       0.00000000       0.00000000       0.00000000 </v>
   <v>       0.00000000       0.00000000       0.00000000 </v>
   <v>       0.00000000       0.00000000       0.00000000 </v>
   <v>       0.00000000       0.00000000       0.00000000 </v>
   <v>       0.00000000       0.00000000       0.00000000 </v>
   <v>       0.00000000       0.00000000       0.00000000 </v>
   <v>       0.00000000       0.00000000       0.00000000 </v>
   <v>       0.00000000       0.00000000       0.00000000 </v>
   <v>       0.00000000       0.00000000       0.00000000 </v>
   <v>       0.00000000       0.00000000       0.00000000 </v>
   <v>       0.00000000       0.00000000       0.00000000 </v>
   <v>       0.00000000       0.00000000       0.00000000 </v>
   <v>       0.00000000       0.00000000       0.00000000 </v>
   <v>       0.00000000       0.00000000       0.00000000 </v>
   <v>       0.00000000       0.00000000       0.00000000 </v>
   <v>       0.00000000       0.00000000       0.00000000 </v>
   <v>       0.00000000       0.00000000       0.00000000 </v>
   <v>       0.00000000       0.00000000       0.00000000 </v>
   <v>       0.00000000       0.00000000       0.00000000 </v>
   <v>       0.00000000       0.00000000       0.00000000 </v>
   <v>       0.00000000       0.00000000       0.00000000 </v>
   <v>       0.00000000       0.00000000       0.00000000 </v>
   <v>       0.00000000       0.00000000       0.00000000 </v>
   <v>       0.00000000       0.00000000       0.00000000 </v>
   <v>       0.00000000       0.00000000       0.00000000 </v>
   <v>       0.00000000       0.00000000       0.00000000 </v>
   <v>       0.00000000       0.00000000       0.00000000 </v>
   <v>       0.00000000       0.00000000       0.00000000 </v>
   <v>       0.00000000       0.00000000       0.00000000 </v>
   <v>       0.00000000       0.00000000       0.00000000 </v>
   <v>       0.00000000       0.00000000       0.00000000 </v>
   <v>       0.00000000       0.00000000       0.00000000 </v>
   <v>       0.00000000       0.00000000       0.00000000 </v>
   <v>       0.00000000       0.00000000       0.00000000 </v>
   <v>       0.00000000       0.00000000       0.00000000 </v>
   <v>       0.00000000       0.00000000       0.00000000 </v>
   <v>       0.00000000       0.00000000       0.00000000 </v>
   <v>       0.00000000       0.00000000       0.00000000 </v>
   <v>       0.00000000       0.00000000       0.00000000 </v>
   <v>       0.00000000       0.00000000       0.00000000 </v>
   <v>       0.00000000       0.00000000       0.00000000 </v>
   <v>       0.00000000       0.00000000       0.00000000 </v>
   <v>       0.00000000       0.00000000       0.00000000 </v>
   <v>       0.00000000       0.00000000       0.00000000 </v>
   <v>       0.00000000       0.00000000       0.00000000 </v>
   <v>       0.00000000       0.00000000       0.00000000 </v>
   <v>       0.00000000       0.00000000       0.00000000 </v>
   <v>       0.00000000       0.00000000       0.00000000 </v>
   <v>       0.00000000       0.00000000       0.00000000 </v>
   <v>       0.00000000       0.00000000       0.00000000 </v>
   <v>       0.00000000       0.00000000       0.00000000 </v>
   <v>       0.00000000       0.00000000       0.00000000 </v>
   <v>       0.00000000       0.00000000       0.00000000 </v>
   <v>       0.00000000       0.00000000       0.00000000 </v>
   <v>       0.00000000       0.00000000       0.00000000 </v>
   <v>       0.00000000       0.00000000       0.00000000 </v>
   <v>       0.00000000       0.00000000       0.00000000 </v>
   <v>       0.00000000       0.00000000       0.00000000 </v>
   <v>       0.00000000       0.00000000       0.00000000 </v>
   <v>       0.00000000       0.00000000       0.00000000 </v>
   <v>       0.00000000       0.00000000       0.00000000 </v>
   <v>       0.00000000       0.00000000       0.00000000 </v>
   <v>       0.00000000       0.00000000       0.00000000 </v>
   <v>       0.00000000       0.00000000       0.00000000 </v>
   <v>       0.00000000       0.00000000       0.00000000 </v>
   <v>       0.00000000       0.00000000       0.00000000 </v>
   <v>       0.00000000       0.00000000       0.00000000 </v>
   <v>       0.00000000       0.00000000       0.00000000 </v>
   <v>       0.00000000       0.00000000       0.00000000 </v>
   <v>       0.00000000       0.00000000       0.00000000 </v>
  </varray>
 </structure>
</modeling>
