<?xml version="1.0" encoding="ISO-8859-1"?>
<modeling>
 <generator>
  <i name="program" type="string">vasp </i>
  <i name="version" type="string">5.4.4.18Apr17-6-g9f103f2a35  </i>
  <i name="subversion" type="string">(build Mar 16 2023 09:39:13) complex            parallel </i>
  <i name="platform" type="string">LinuxIFC </i>
  <i name="date" type="string">2024 04 29 </i>
  <i name="time" type="string">21:35:33 </i>
 </generator>
 <incar>
  <i type="int" name="ISTART">     0</i>
  <i type="string" name="PREC">a</i>
  <i type="logical" name="ADDGRID"> T  </i>
  <i type="int" name="IBRION">    -1</i>
  <i name="EDIFF">      0.00000100</i>
  <i name="EDIFFG">     -0.01000000</i>
  <i type="int" name="NSW">     1</i>
  <i type="int" name="ISIF">     2</i>
  <i type="int" name="ISYM">     0</i>
  <i name="ENCUT">    600.00000000</i>
  <i name="POTIM">      1.00000000</i>
  <i type="string" name="LREAL">  A</i>
  <i type="int" name="ISMEAR">     0</i>
  <i name="SIGMA">      0.05000000</i>
  <i name="KSPACING">      0.30000000</i>
  <i type="logical" name="KGAMMA"> T  </i>
  <i type="logical" name="LWAVE"> F  </i>
  <i type="logical" name="LCHARG"> F  </i>
  <i type="logical" name="LSCALAPACK"> F  </i>
  <v type="int" name="KPOINT_BSE">    -1     0     0     0</v>
 </incar>
 <structure name="primitive_cell" >
  <crystal>
   <varray name="basis" >
    <v>      11.12194768       0.00000000       0.00000000 </v>
    <v>       0.00000000      11.12194768       0.00000000 </v>
    <v>       0.00000000       0.00000000      11.12194768 </v>
   </varray>
   <i name="volume">   1375.75957216 </i>
   <varray name="rec_basis" >
    <v>       0.08991231       0.00000000       0.00000000 </v>
    <v>       0.00000000       0.08991231       0.00000000 </v>
    <v>       0.00000000       0.00000000       0.08991231 </v>
   </varray>
  </crystal>
  <varray name="positions" >
   <v>       0.12423214       0.31511082      -0.16512153 </v>
   <v>       0.12265637      -0.48547401      -0.17492232 </v>
   <v>       0.07771640       0.19098469      -0.31583057 </v>
   <v>       0.11445672       0.34112704       0.03663388 </v>
   <v>       0.32553764       0.35192544      -0.23139132 </v>
   <v>       0.03936145       0.11879647      -0.07894899 </v>
   <v>       0.29002658       0.16222038      -0.08904801 </v>
   <v>      -0.07371060       0.34817479      -0.30970419 </v>
   <v>       0.14903245       0.38906847      -0.40071443 </v>
   <v>       0.21754562       0.45131962       0.03690049 </v>
   <v>       0.26351354       0.45177258      -0.35629222 </v>
   <v>       0.39171072       0.26089056      -0.10470257 </v>
   <v>       0.05854412       0.25647570      -0.43102349 </v>
   <v>       0.16393162       0.03734874      -0.19273262 </v>
   <v>       0.33703480       0.33458985       0.01907714 </v>
   <v>       0.29959396      -0.48308967      -0.06823961 </v>
   <v>      -0.07330134       0.16377828      -0.01145250 </v>
   <v>      -0.16031997       0.26132523      -0.10437697 </v>
   <v>       0.06424405      -0.38897798      -0.07738072 </v>
   <v>      -0.02156906      -0.47044445      -0.34355301 </v>
   <v>      -0.10046305       0.41028274       0.04252701 </v>
   <v>       0.00944569       0.38518862       0.12611796 </v>
   <v>      -0.13049780       0.13869743      -0.27254360 </v>
   <v>       0.08667046      -0.45859459       0.07127735 </v>
   <v>       0.34321846       0.19424512      -0.38713671 </v>
   <v>      -0.05160378       0.22036968       0.11525814 </v>
   <v>      -0.21098508       0.37576347      -0.22333573 </v>
   <v>       0.26034641       0.11502914       0.09035516 </v>
   <v>       0.22851010      -0.40582325      -0.38539866 </v>
   <v>       0.35883651       0.38989872      -0.45289611 </v>
   <v>       0.49223975       0.38739816      -0.09658512 </v>
   <v>      -0.07107380       0.15226372      -0.45278942 </v>
   <v>       0.49601531       0.19769098      -0.19417375 </v>
   <v>      -0.01507724       0.34023560       0.47007791 </v>
   <v>      -0.07325954      -0.37025672      -0.03964983 </v>
   <v>      -0.02191121      -0.03359106      -0.30705921 </v>
   <v>       0.45155010      -0.48792515      -0.03086519 </v>
   <v>       0.26527885       0.49231240       0.17907386 </v>
   <v>       0.16510122       0.19377320       0.44322737 </v>
   <v>      -0.47624387       0.40407574      -0.28719995 </v>
   <v>       0.18088930      -0.28630782      -0.01696377 </v>
   <v>       0.43226137      -0.40938933      -0.28963147 </v>
   <v>      -0.28040780       0.45220211      -0.09887545 </v>
   <v>       0.23570175      -0.10078527      -0.11578127 </v>
   <v>      -0.25061663       0.49474630      -0.29608129 </v>
   <v>       0.04097136      -0.25948919      -0.22442203 </v>
   <v>      -0.19506878       0.07128400       0.01266860 </v>
   <v>       0.47035003       0.16776144       0.06221554 </v>
   <v>      -0.22827636       0.47843813       0.04210540 </v>
   <v>       0.24007724      -0.26325249      -0.24414400 </v>
   <v>       0.01270238       0.39142819       0.26022368 </v>
   <v>       0.18663546       0.39319071       0.39983545 </v>
   <v>       0.26400846       0.26433135       0.25675649 </v>
   <v>       0.12322267      -0.00657344      -0.47597635 </v>
   <v>       0.27706481      -0.06308491      -0.35210911 </v>
   <v>       0.00300771       0.05009867       0.17935157 </v>
   <v>      -0.31592037       0.29329351      -0.26720851 </v>
   <v>       0.43708286      -0.01997898      -0.13663926 </v>
   <v>       0.02347443      -0.13113914      -0.03486911 </v>
   <v>       0.06689896      -0.40986558       0.43935860 </v>
   <v>       0.32099936       0.04399803       0.47553579 </v>
   <v>       0.47572055      -0.47467167       0.11753413 </v>
   <v>      -0.16990324      -0.44463472      -0.49013749 </v>
   <v>      -0.24760098       0.30261856       0.49761892 </v>
   <v>      -0.36128480       0.24950467      -0.04974835 </v>
   <v>      -0.44592950       0.25080414      -0.41919348 </v>
   <v>      -0.32397131       0.08337936      -0.18868562 </v>
   <v>       0.11795355      -0.33548495       0.20064248 </v>
   <v>      -0.16425732      -0.10360418      -0.15837056 </v>
   <v>       0.18755808       0.06488604       0.27626671 </v>
   <v>      -0.26948732       0.08810594      -0.40029417 </v>
   <v>       0.49732783       0.04008608      -0.38568086 </v>
   <v>       0.47487694       0.29299986       0.21454393 </v>
   <v>      -0.39604854       0.17255341      -0.29999261 </v>
   <v>      -0.45394297      -0.38920191      -0.09722938 </v>
   <v>       0.35898789      -0.08848675       0.07208766 </v>
   <v>       0.42259371       0.23262867       0.41238303 </v>
   <v>      -0.00812762       0.17884050       0.34374500 </v>
   <v>      -0.07460848      -0.49776744       0.38277888 </v>
   <v>      -0.23007323       0.28275811       0.22688313 </v>
   <v>       0.40575266      -0.23966144      -0.10987129 </v>
   <v>       0.29028489       0.15549099       0.35708805 </v>
   <v>      -0.05942528      -0.17347919      -0.27799705 </v>
   <v>      -0.32726209       0.40159922       0.12166317 </v>
   <v>      -0.14939707      -0.25635233      -0.35284864 </v>
   <v>       0.08403118      -0.22261173      -0.44572254 </v>
   <v>       0.28627017      -0.17579752       0.00275567 </v>
   <v>       0.09444495      -0.05502588       0.23293365 </v>
   <v>       0.49999992       0.36728810       0.44222457 </v>
   <v>      -0.27213459      -0.31367190      -0.10730188 </v>
   <v>      -0.19400435       0.04422370       0.48235204 </v>
   <v>      -0.49464614      -0.29857931      -0.23647938 </v>
   <v>       0.34446082      -0.28455904       0.13659016 </v>
   <v>       0.37368260      -0.08451776      -0.44420091 </v>
   <v>       0.41143694      -0.36066986       0.49919820 </v>
   <v>       0.37963959      -0.41386302       0.23770727 </v>
   <v>       0.10808241      -0.15152702       0.12395386 </v>
   <v>      -0.28343207      -0.04375254      -0.07973641 </v>
   <v>       0.17728099      -0.29006395       0.45217329 </v>
   <v>      -0.27105351      -0.38369067       0.08033405 </v>
   <v>       0.41563764       0.07504764       0.25752071 </v>
   <v>      -0.10377371      -0.40282584       0.27245576 </v>
   <v>      -0.29903597      -0.40311733      -0.41931249 </v>
   <v>      -0.04211509      -0.02994401       0.41439665 </v>
   <v>      -0.47102108       0.04673055       0.15691353 </v>
   <v>      -0.41435428       0.49800512      -0.47077437 </v>
   <v>      -0.19486560       0.16511828       0.36847978 </v>
   <v>      -0.18655590       0.41886639       0.34564027 </v>
   <v>      -0.43583333      -0.02449273       0.03578240 </v>
   <v>       0.28571269      -0.36861604       0.36038544 </v>
   <v>       0.42249143       0.47497281       0.34373530 </v>
   <v>      -0.17684965      -0.27926093       0.15544732 </v>
   <v>       0.46287796      -0.20359716      -0.34894266 </v>
   <v>      -0.22936517      -0.05286125       0.19842933 </v>
   <v>      -0.35152275       0.13392201       0.20611962 </v>
   <v>       0.28650840      -0.18402414       0.47689755 </v>
   <v>      -0.36969844      -0.31344344      -0.31715127 </v>
   <v>      -0.21658724      -0.18859905       0.04352160 </v>
   <v>      -0.07450485      -0.24501777       0.41220882 </v>
   <v>      -0.07680676      -0.19368735       0.20385189 </v>
   <v>      -0.45573671      -0.23989639       0.06346627 </v>
   <v>      -0.45163282       0.05253084       0.40013412 </v>
   <v>      -0.34581057      -0.12463370      -0.35625359 </v>
   <v>      -0.25368448      -0.08424163       0.44181006 </v>
   <v>       0.37055755      -0.12653732       0.28345296 </v>
   <v>      -0.40481453       0.34512523       0.34079239 </v>
   <v>      -0.38427969      -0.15923254      -0.12043651 </v>
   <v>      -0.36910937      -0.47204862       0.27507592 </v>
   <v>      -0.32452915      -0.28679824       0.48188091 </v>
   <v>       0.13713930      -0.18423747       0.32294123 </v>
   <v>      -0.27818974      -0.28491129       0.25939854 </v>
   <v>       0.49847350      -0.28914352       0.29192939 </v>
   <v>      -0.49538563      -0.14540712       0.44113920 </v>
   <v>      -0.41033109      -0.10644778       0.24575781 </v>
   <v>      -0.38073452      -0.20828646       0.35862339 </v>
  </varray>
 </structure>
 <varray name="primitive_index" >
  <v type="int" >        1 </v>
  <v type="int" >       71 </v>
  <v type="int" >       78 </v>
  <v type="int" >      120 </v>
  <v type="int" >       72 </v>
  <v type="int" >       55 </v>
  <v type="int" >      111 </v>
  <v type="int" >      124 </v>
  <v type="int" >      127 </v>
  <v type="int" >       51 </v>
  <v type="int" >       54 </v>
  <v type="int" >       34 </v>
  <v type="int" >       41 </v>
  <v type="int" >       25 </v>
  <v type="int" >       56 </v>
  <v type="int" >      131 </v>
  <v type="int" >       37 </v>
  <v type="int" >       87 </v>
  <v type="int" >       31 </v>
  <v type="int" >        2 </v>
  <v type="int" >       91 </v>
  <v type="int" >       44 </v>
  <v type="int" >       20 </v>
  <v type="int" >       83 </v>
  <v type="int" >        4 </v>
  <v type="int" >      135 </v>
  <v type="int" >       35 </v>
  <v type="int" >       19 </v>
  <v type="int" >       68 </v>
  <v type="int" >      126 </v>
  <v type="int" >      110 </v>
  <v type="int" >       65 </v>
  <v type="int" >      114 </v>
  <v type="int" >       74 </v>
  <v type="int" >      129 </v>
  <v type="int" >       89 </v>
  <v type="int" >       29 </v>
  <v type="int" >       97 </v>
  <v type="int" >      134 </v>
  <v type="int" >       26 </v>
  <v type="int" >       79 </v>
  <v type="int" >      132 </v>
  <v type="int" >      128 </v>
  <v type="int" >       95 </v>
  <v type="int" >       70 </v>
  <v type="int" >      105 </v>
  <v type="int" >       98 </v>
  <v type="int" >       76 </v>
  <v type="int" >       28 </v>
  <v type="int" >       27 </v>
  <v type="int" >       58 </v>
  <v type="int" >       10 </v>
  <v type="int" >       99 </v>
  <v type="int" >       11 </v>
  <v type="int" >       86 </v>
  <v type="int" >      121 </v>
  <v type="int" >       73 </v>
  <v type="int" >        8 </v>
  <v type="int" >        6 </v>
  <v type="int" >       77 </v>
  <v type="int" >      116 </v>
  <v type="int" >      133 </v>
  <v type="int" >      117 </v>
  <v type="int" >        9 </v>
  <v type="int" >        7 </v>
  <v type="int" >       67 </v>
  <v type="int" >      118 </v>
  <v type="int" >       18 </v>
  <v type="int" >      109 </v>
  <v type="int" >       92 </v>
  <v type="int" >       81 </v>
  <v type="int" >      115 </v>
  <v type="int" >       24 </v>
  <v type="int" >       47 </v>
  <v type="int" >       85 </v>
  <v type="int" >       75 </v>
  <v type="int" >      103 </v>
  <v type="int" >        3 </v>
  <v type="int" >       38 </v>
  <v type="int" >       21 </v>
  <v type="int" >       69 </v>
  <v type="int" >       32 </v>
  <v type="int" >       30 </v>
  <v type="int" >      130 </v>
  <v type="int" >      104 </v>
  <v type="int" >      108 </v>
  <v type="int" >       53 </v>
  <v type="int" >       52 </v>
  <v type="int" >       33 </v>
  <v type="int" >       13 </v>
  <v type="int" >       40 </v>
  <v type="int" >       48 </v>
  <v type="int" >       62 </v>
  <v type="int" >       49 </v>
  <v type="int" >       14 </v>
  <v type="int" >       50 </v>
  <v type="int" >      123 </v>
  <v type="int" >       43 </v>
  <v type="int" >       39 </v>
  <v type="int" >       90 </v>
  <v type="int" >       61 </v>
  <v type="int" >       94 </v>
  <v type="int" >       42 </v>
  <v type="int" >      102 </v>
  <v type="int" >       36 </v>
  <v type="int" >      100 </v>
  <v type="int" >      112 </v>
  <v type="int" >      125 </v>
  <v type="int" >      106 </v>
  <v type="int" >       60 </v>
  <v type="int" >      119 </v>
  <v type="int" >       46 </v>
  <v type="int" >       96 </v>
  <v type="int" >       22 </v>
  <v type="int" >      113 </v>
  <v type="int" >       88 </v>
  <v type="int" >       84 </v>
  <v type="int" >      101 </v>
  <v type="int" >       16 </v>
  <v type="int" >       82 </v>
  <v type="int" >        5 </v>
  <v type="int" >       12 </v>
  <v type="int" >       15 </v>
  <v type="int" >      122 </v>
  <v type="int" >       17 </v>
  <v type="int" >       59 </v>
  <v type="int" >       80 </v>
  <v type="int" >       23 </v>
  <v type="int" >       66 </v>
  <v type="int" >       57 </v>
  <v type="int" >       93 </v>
  <v type="int" >       64 </v>
  <v type="int" >       63 </v>
  <v type="int" >      107 </v>
  <v type="int" >       45 </v>
 </varray>
 <kpoints>
  <generation param="Gamma">
   <v type="int" name="divisions">       2        2        2 </v>
   <v name="usershift">      0.00000000       0.00000000       0.00000000 </v>
   <v name="genvec1">      0.50000000       0.00000000       0.00000000 </v>
   <v name="genvec2">      0.00000000       0.50000000       0.00000000 </v>
   <v name="genvec3">      0.00000000       0.00000000       0.50000000 </v>
   <v name="shift">      0.00000000       0.00000000       0.00000000 </v>
  </generation>
  <varray name="kpointlist" >
   <v>       0.00000000       0.00000000       0.00000000 </v>
   <v>       0.50000000       0.00000000       0.00000000 </v>
   <v>       0.00000000       0.50000000       0.00000000 </v>
   <v>       0.50000000       0.50000000       0.00000000 </v>
   <v>       0.00000000       0.00000000       0.50000000 </v>
   <v>       0.50000000       0.00000000       0.50000000 </v>
   <v>       0.00000000       0.50000000       0.50000000 </v>
   <v>       0.50000000       0.50000000       0.50000000 </v>
  </varray>
  <varray name="weights" >
   <v>       0.12500000 </v>
   <v>       0.12500000 </v>
   <v>       0.12500000 </v>
   <v>       0.12500000 </v>
   <v>       0.12500000 </v>
   <v>       0.12500000 </v>
   <v>       0.12500000 </v>
   <v>       0.12500000 </v>
  </varray>
 </kpoints>
 <parameters>
  <separator name="general" >
   <i type="string" name="SYSTEM">unknown system</i>
   <i type="logical" name="LCOMPAT"> F  </i>
  </separator>
  <separator name="electronic" >
   <i type="string" name="PREC">a</i>
   <i name="ENMAX">    600.00000000</i>
   <i name="ENAUG">    605.39200000</i>
   <i name="EDIFF">      0.00000100</i>
   <i type="int" name="IALGO">    38</i>
   <i type="int" name="IWAVPR">    10</i>
   <i type="int" name="NBANDS">   520</i>
   <i name="NELECT">    864.00000000</i>
   <i type="int" name="TURBO">     0</i>
   <i type="int" name="IRESTART">     0</i>
   <i type="int" name="NREBOOT">     0</i>
   <i type="int" name="NMIN">     0</i>
   <i name="EREF">      0.00000000</i>
   <separator name="electronic smearing" >
    <i type="int" name="ISMEAR">     0</i>
    <i name="SIGMA">      0.05000000</i>
    <i name="KSPACING">      0.30000000</i>
    <i type="logical" name="KGAMMA"> T  </i>
   </separator>
   <separator name="electronic projectors" >
    <i type="logical" name="LREAL"> T  </i>
    <v name="ROPT">     -0.00025000     -0.00025000     -0.00025000</v>
    <i type="int" name="LMAXPAW">  -100</i>
    <i type="int" name="LMAXMIX">     2</i>
    <i type="logical" name="NLSPLINE"> F  </i>
   </separator>
   <separator name="electronic startup" >
    <i type="int" name="ISTART">     0</i>
    <i type="int" name="ICHARG">     2</i>
    <i type="int" name="INIWAV">     1</i>
   </separator>
   <separator name="electronic spin" >
    <i type="int" name="ISPIN">     1</i>
    <i type="logical" name="LNONCOLLINEAR"> F  </i>
    <v name="MAGMOM">      1.00000000      1.00000000      1.00000000      1.00000000      1.00000000      1.00000000      1.00000000      1.00000000      1.00000000      1.00000000      1.00000000      1.00000000      1.00000000      1.00000000      1.00000000      1.00000000      1.00000000      1.00000000      1.00000000      1.00000000
      1.00000000      1.00000000      1.00000000      1.00000000      1.00000000      1.00000000      1.00000000      1.00000000      1.00000000      1.00000000      1.00000000      1.00000000      1.00000000      1.00000000      1.00000000      1.00000000      1.00000000      1.00000000      1.00000000      1.00000000
      1.00000000      1.00000000      1.00000000      1.00000000      1.00000000      1.00000000      1.00000000      1.00000000      1.00000000      1.00000000      1.00000000      1.00000000      1.00000000      1.00000000      1.00000000      1.00000000      1.00000000      1.00000000      1.00000000      1.00000000
      1.00000000      1.00000000      1.00000000      1.00000000      1.00000000      1.00000000      1.00000000      1.00000000      1.00000000      1.00000000      1.00000000      1.00000000      1.00000000      1.00000000      1.00000000      1.00000000      1.00000000      1.00000000      1.00000000      1.00000000
      1.00000000      1.00000000      1.00000000      1.00000000      1.00000000      1.00000000      1.00000000      1.00000000      1.00000000      1.00000000      1.00000000      1.00000000      1.00000000      1.00000000      1.00000000      1.00000000      1.00000000      1.00000000      1.00000000      1.00000000
      1.00000000      1.00000000      1.00000000      1.00000000      1.00000000      1.00000000      1.00000000      1.00000000      1.00000000      1.00000000      1.00000000      1.00000000      1.00000000      1.00000000      1.00000000      1.00000000      1.00000000      1.00000000      1.00000000      1.00000000
      1.00000000      1.00000000      1.00000000      1.00000000      1.00000000      1.00000000      1.00000000      1.00000000      1.00000000      1.00000000      1.00000000      1.00000000      1.00000000      1.00000000      1.00000000</v>
    <i name="NUPDOWN">     -1.00000000</i>
    <i type="logical" name="LSORBIT"> F  </i>
    <v name="SAXIS">      0.00000000      0.00000000      1.00000000</v>
    <i type="logical" name="LSPIRAL"> F  </i>
    <v name="QSPIRAL">      0.00000000      0.00000000      0.00000000</v>
    <i type="logical" name="LZEROZ"> F  </i>
   </separator>
   <separator name="electronic exchange-correlation" >
    <i type="logical" name="LASPH"> F  </i>
    <i type="logical" name="LMETAGGA"> F  </i>
   </separator>
   <separator name="electronic convergence" >
    <i type="int" name="NELM">    60</i>
    <i type="int" name="NELMDL">    -5</i>
    <i type="int" name="NELMIN">     2</i>
    <i name="ENINI">    600.00000000</i>
    <separator name="electronic convergence detail" >
     <i type="logical" name="LDIAG"> T  </i>
     <i type="logical" name="LSUBROT"> F  </i>
     <i name="WEIMIN">      0.00000000</i>
     <i name="EBREAK">      0.00000000</i>
     <i name="DEPER">      0.30000000</i>
     <i type="int" name="NRMM">     4</i>
     <i name="TIME">      0.40000000</i>
    </separator>
   </separator>
   <separator name="electronic mixer" >
    <i name="AMIX">      0.40000000</i>
    <i name="BMIX">      1.00000000</i>
    <i name="AMIN">      0.10000000</i>
    <i name="AMIX_MAG">      1.60000000</i>
    <i name="BMIX_MAG">      1.00000000</i>
    <separator name="electronic mixer details" >
     <i type="int" name="IMIX">     4</i>
     <i type="logical" name="MIXFIRST"> F  </i>
     <i type="int" name="MAXMIX">   -45</i>
     <i name="WC">    100.00000000</i>
     <i type="int" name="INIMIX">     1</i>
     <i type="int" name="MIXPRE">     1</i>
     <i type="int" name="MREMOVE">     5</i>
    </separator>
   </separator>
   <separator name="electronic dipolcorrection" >
    <i type="logical" name="LDIPOL"> F  </i>
    <i type="logical" name="LMONO"> F  </i>
    <i type="int" name="IDIPOL">     0</i>
    <i name="EPSILON">      1.00000000</i>
    <v name="DIPOL">   -100.00000000   -100.00000000   -100.00000000</v>
    <i name="EFIELD">      0.00000000</i>
   </separator>
  </separator>
  <separator name="grids" >
   <i type="int" name="NGX">    90</i>
   <i type="int" name="NGY">    90</i>
   <i type="int" name="NGZ">    90</i>
   <i type="int" name="NGXF">   180</i>
   <i type="int" name="NGYF">   180</i>
   <i type="int" name="NGZF">   180</i>
   <i type="logical" name="ADDGRID"> T  </i>
  </separator>
  <separator name="ionic" >
   <i type="int" name="NSW">     1</i>
   <i type="int" name="IBRION">    -1</i>
   <i type="int" name="MDALGO">     0</i>
   <i type="int" name="ISIF">     2</i>
   <i name="PSTRESS">      0.00000000</i>
   <i name="EDIFFG">     -0.01000000</i>
   <i type="int" name="NFREE">     0</i>
   <i name="POTIM">      1.00000000</i>
   <i name="SMASS">     -3.00000000</i>
   <i name="SCALEE">      1.00000000</i>
  </separator>
  <separator name="ionic md" >
   <i name="TEBEG">      0.00010000</i>
   <i name="TEEND">      0.00010000</i>
   <i type="int" name="NBLOCK">     1</i>
   <i type="int" name="KBLOCK">     1</i>
   <i type="int" name="NPACO">   256</i>
   <i name="APACO">     16.00000000</i>
  </separator>
  <separator name="symmetry" >
   <i type="int" name="ISYM">     0</i>
   <i name="SYMPREC">      0.00001000</i>
  </separator>
  <separator name="dos" >
   <i type="int" name="LORBIT">     0</i>
   <v name="RWIGS">     -1.00000000     -1.00000000     -1.00000000</v>
   <i type="int" name="NEDOS">   301</i>
   <i name="EMIN">     10.00000000</i>
   <i name="EMAX">    -10.00000000</i>
   <i name="EFERMI">      0.00000000</i>
  </separator>
  <separator name="writing" >
   <i type="int" name="NWRITE">     2</i>
   <i type="logical" name="LWAVE"> F  </i>
   <i type="logical" name="LDOWNSAMPLE"> F  </i>
   <i type="logical" name="LCHARG"> F  </i>
   <i type="logical" name="LPARD"> F  </i>
   <i type="logical" name="LVTOT"> F  </i>
   <i type="logical" name="LVHAR"> F  </i>
   <i type="logical" name="LELF"> F  </i>
   <i type="logical" name="LOPTICS"> F  </i>
   <v name="STM">      0.00000000      0.00000000      0.00000000      0.00000000      0.00000000      0.00000000      0.00000000</v>
  </separator>
  <separator name="performance" >
   <i type="int" name="NPAR">     4</i>
   <i type="int" name="NSIM">     4</i>
   <i type="int" name="NBLK">    -1</i>
   <i type="logical" name="LPLANE"> T  </i>
   <i type="logical" name="LSCALAPACK"> F  </i>
   <i type="logical" name="LSCAAWARE"> F  </i>
   <i type="logical" name="LSCALU"> F  </i>
   <i type="logical" name="LASYNC"> F  </i>
   <i type="logical" name="LORBITALREAL"> F  </i>
  </separator>
  <separator name="miscellaneous" >
   <i type="int" name="IDIOT">     3</i>
   <i type="int" name="ISPECIAL">     0</i>
   <i type="logical" name="LMUSIC"> F  </i>
   <v name="POMASS">     40.07800000     28.08500000     16.00000000</v>
   <v name="DARWINR">      0.00000000      0.00000000      0.00000000</v>
   <v name="DARWINV">      1.00000000      1.00000000      1.00000000</v>
   <i type="logical" name="LCORR"> T  </i>
  </separator>
  <i type="logical" name="GGA_COMPAT"> T  </i>
  <i type="logical" name="LBERRY"> F  </i>
  <i type="int" name="ICORELEVEL">     0</i>
  <i type="logical" name="LDAU"> F  </i>
  <i type="int" name="I_CONSTRAINED_M">     0</i>
  <separator name="electronic exchange-correlation" >
   <i type="string" name="GGA">--</i>
   <i type="int" name="VOSKOWN">     0</i>
   <i type="logical" name="LHFCALC"> F  </i>
   <i type="string" name="PRECFOCK"></i>
   <i type="logical" name="LSYMGRAD"> F  </i>
   <i type="logical" name="LHFONE"> F  </i>
   <i type="logical" name="LRHFCALC"> F  </i>
   <i type="logical" name="LTHOMAS"> F  </i>
   <i type="logical" name="LMODELHF"> F  </i>
   <i name="ENCUT4O">     -1.00000000</i>
   <i type="int" name="EXXOEP">     0</i>
   <i type="int" name="FOURORBIT">     0</i>
   <i name="AEXX">      0.00000000</i>
   <i name="HFALPHA">      0.00000000</i>
   <i name="MCALPHA">      0.00000000</i>
   <i name="ALDAX">      1.00000000</i>
   <i name="AGGAX">      1.00000000</i>
   <i name="ALDAC">      1.00000000</i>
   <i name="AGGAC">      1.00000000</i>
   <i type="int" name="NKREDX">     1</i>
   <i type="int" name="NKREDY">     1</i>
   <i type="int" name="NKREDZ">     1</i>
   <i type="logical" name="SHIFTRED"> F  </i>
   <i type="logical" name="ODDONLY"> F  </i>
   <i type="logical" name="EVENONLY"> F  </i>
   <i type="int" name="LMAXFOCK">     0</i>
   <i type="int" name="NMAXFOCKAE">     0</i>
   <i type="logical" name="LFOCKAEDFT"> F  </i>
   <i name="HFSCREEN">      0.00000000</i>
   <i name="HFSCREENC">      0.00000000</i>
   <i type="int" name="NBANDSGWLOW">     0</i>
  </separator>
  <separator name="vdW DFT" >
   <i type="logical" name="LUSE_VDW"> F  </i>
   <i name="Zab_VDW">     -0.84910000</i>
   <i name="PARAM1">      0.12340000</i>
   <i name="PARAM2">      1.00000000</i>
   <i name="PARAM3">      0.00000000</i>
  </separator>
  <separator name="model GW" >
   <i type="int" name="MODEL_GW">     0</i>
   <i name="MODEL_EPS0">      6.11448699</i>
   <i name="MODEL_ALPHA">      1.00000000</i>
  </separator>
  <separator name="linear response parameters" >
   <i type="logical" name="LEPSILON"> F  </i>
   <i type="logical" name="LRPA"> F  </i>
   <i type="logical" name="LNABLA"> F  </i>
   <i type="logical" name="LVEL"> F  </i>
   <i type="int" name="KINTER">     0</i>
   <i name="CSHIFT">      0.10000000</i>
   <i name="OMEGAMAX">     -1.00000000</i>
   <i name="DEG_THRESHOLD">      0.00200000</i>
   <i name="RTIME">     -0.10000000</i>
   <i name="WPLASMAI">      0.00000000</i>
   <v name="DFIELD">      0.00000000      0.00000000      0.00000000</v>
   <v name="WPLASMA">      0.00000000      0.00000000      0.00000000      0.00000000      0.00000000      0.00000000      0.00000000      0.00000000      0.00000000</v>
  </separator>
  <separator name="orbital magnetization" >
   <i type="logical" name="NUCIND"> F  </i>
   <v name="MAGPOS">      0.00000000      0.00000000      0.00000000</v>
   <i type="logical" name="LNICSALL"> T  </i>
   <i type="logical" name="ORBITALMAG"> F  </i>
   <i type="logical" name="LMAGBLOCH"> F  </i>
   <i type="logical" name="LCHIMAG"> F  </i>
   <i type="logical" name="LGAUGE"> T  </i>
   <i type="int" name="MAGATOM">     0</i>
   <v name="MAGDIPOL">      0.00000000      0.00000000      0.00000000</v>
   <v name="AVECCONST">      0.00000000      0.00000000      0.00000000</v>
  </separator>
  <separator name="response functions" >
   <i type="logical" name="LADDER"> F  </i>
   <i type="logical" name="LRPAFORCE"> F  </i>
   <i type="logical" name="LFXC"> F  </i>
   <i type="logical" name="LHARTREE"> T  </i>
   <i type="int" name="IBSE">     0</i>
   <v type="int" name="KPOINT">    -1     0     0     0</v>
   <i type="logical" name="LTCTE"> F  </i>
   <i type="logical" name="LTETE"> F  </i>
   <i type="logical" name="LTRIPLET"> F  </i>
   <i type="logical" name="LFXCEPS"> F  </i>
   <i type="logical" name="LFXHEG"> F  </i>
   <i type="int" name="NATURALO">     2</i>
   <i type="logical" name="L2ORDER"> F  </i>
   <i type="logical" name="LMP2LT"> F  </i>
   <i type="logical" name="LUSEW"> F  </i>
   <i name="ENCUTGW">     -2.00000000</i>
   <i name="ENCUTGWSOFT">     -2.00000000</i>
   <i name="ENCUTLF">     -1.00000000</i>
   <i type="int" name="LMAXMP2">    -1</i>
   <i name="SCISSOR">      0.00000000</i>
   <i type="int" name="NOMEGA">     0</i>
   <i type="int" name="NOMEGAR">     0</i>
   <i type="int" name="NBANDSGW">    -1</i>
   <i type="int" name="NBANDSO">    -1</i>
   <i type="int" name="NBANDSV">    -1</i>
   <i type="int" name="NELM">     1</i>
   <i type="int" name="NELMHF">     1</i>
   <i type="int" name="DIM">     3</i>
   <i type="int" name="ANTIRES">     0</i>
   <i name="OMEGAMAX">    -30.00000000</i>
   <i name="OMEGAMIN">    -30.00000000</i>
   <i name="OMEGATL">   -200.00000000</i>
   <i type="int" name="OMEGAGRID">   140</i>
   <i name="CSHIFT">     -0.10000000</i>
   <i type="logical" name="SELFENERGY"> F  </i>
   <i type="logical" name="LSPECTRAL"> F  </i>
   <i type="logical" name="LSPECTRALGW"> F  </i>
   <i type="logical" name="LSINGLES"> F  </i>
   <i type="logical" name="LFERMIGW"> F  </i>
   <i type="logical" name="ODDONLYGW"> F  </i>
   <i type="logical" name="EVENONLYGW"> F  </i>
   <i type="int" name="NKREDLFX">     1</i>
   <i type="int" name="NKREDLFY">     1</i>
   <i type="int" name="NKREDLFZ">     1</i>
   <i type="int" name="MAXMEM">  2800</i>
   <i type="int" name="TELESCOPE">     0</i>
   <i type="int" name="TAUPAR">     1</i>
   <i type="int" name="OMEGAPAR">    -1</i>
   <i name="LAMBDA">      1.00000000</i>
  </separator>
  <separator name="External order field" >
   <i name="OFIELD_KAPPA">      0.00000000</i>
   <v name="OFIELD_K">      0.00000000      0.00000000      0.00000000</v>
   <i name="OFIELD_Q6_NEAR">      0.00000000</i>
   <i name="OFIELD_Q6_FAR">      0.00000000</i>
   <i name="OFIELD_A">      0.00000000</i>
  </separator>
 </parameters>
 <atominfo>
  <atoms>     135 </atoms>
  <types>       3 </types>
  <array name="atoms" >
   <dimension dim="1">ion</dimension>
   <field type="string">element</field>
   <field type="int">atomtype</field>
   <set>
    <rc><c>Ca</c><c>   1</c></rc>
    <rc><c>Ca</c><c>   1</c></rc>
    <rc><c>Ca</c><c>   1</c></rc>
    <rc><c>Ca</c><c>   1</c></rc>
    <rc><c>Ca</c><c>   1</c></rc>
    <rc><c>Ca</c><c>   1</c></rc>
    <rc><c>Ca</c><c>   1</c></rc>
    <rc><c>Ca</c><c>   1</c></rc>
    <rc><c>Ca</c><c>   1</c></rc>
    <rc><c>Ca</c><c>   1</c></rc>
    <rc><c>Ca</c><c>   1</c></rc>
    <rc><c>Ca</c><c>   1</c></rc>
    <rc><c>Ca</c><c>   1</c></rc>
    <rc><c>Ca</c><c>   1</c></rc>
    <rc><c>Ca</c><c>   1</c></rc>
    <rc><c>Ca</c><c>   1</c></rc>
    <rc><c>Ca</c><c>   1</c></rc>
    <rc><c>Ca</c><c>   1</c></rc>
    <rc><c>Ca</c><c>   1</c></rc>
    <rc><c>Ca</c><c>   1</c></rc>
    <rc><c>Ca</c><c>   1</c></rc>
    <rc><c>Ca</c><c>   1</c></rc>
    <rc><c>Ca</c><c>   1</c></rc>
    <rc><c>Ca</c><c>   1</c></rc>
    <rc><c>Ca</c><c>   1</c></rc>
    <rc><c>Ca</c><c>   1</c></rc>
    <rc><c>Ca</c><c>   1</c></rc>
    <rc><c>Si</c><c>   2</c></rc>
    <rc><c>Si</c><c>   2</c></rc>
    <rc><c>Si</c><c>   2</c></rc>
    <rc><c>Si</c><c>   2</c></rc>
    <rc><c>Si</c><c>   2</c></rc>
    <rc><c>Si</c><c>   2</c></rc>
    <rc><c>Si</c><c>   2</c></rc>
    <rc><c>Si</c><c>   2</c></rc>
    <rc><c>Si</c><c>   2</c></rc>
    <rc><c>Si</c><c>   2</c></rc>
    <rc><c>Si</c><c>   2</c></rc>
    <rc><c>Si</c><c>   2</c></rc>
    <rc><c>Si</c><c>   2</c></rc>
    <rc><c>Si</c><c>   2</c></rc>
    <rc><c>Si</c><c>   2</c></rc>
    <rc><c>Si</c><c>   2</c></rc>
    <rc><c>Si</c><c>   2</c></rc>
    <rc><c>Si</c><c>   2</c></rc>
    <rc><c>Si</c><c>   2</c></rc>
    <rc><c>Si</c><c>   2</c></rc>
    <rc><c>Si</c><c>   2</c></rc>
    <rc><c>Si</c><c>   2</c></rc>
    <rc><c>Si</c><c>   2</c></rc>
    <rc><c>Si</c><c>   2</c></rc>
    <rc><c>Si</c><c>   2</c></rc>
    <rc><c>Si</c><c>   2</c></rc>
    <rc><c>Si</c><c>   2</c></rc>
    <rc><c>O </c><c>   3</c></rc>
    <rc><c>O </c><c>   3</c></rc>
    <rc><c>O </c><c>   3</c></rc>
    <rc><c>O </c><c>   3</c></rc>
    <rc><c>O </c><c>   3</c></rc>
    <rc><c>O </c><c>   3</c></rc>
    <rc><c>O </c><c>   3</c></rc>
    <rc><c>O </c><c>   3</c></rc>
    <rc><c>O </c><c>   3</c></rc>
    <rc><c>O </c><c>   3</c></rc>
    <rc><c>O </c><c>   3</c></rc>
    <rc><c>O </c><c>   3</c></rc>
    <rc><c>O </c><c>   3</c></rc>
    <rc><c>O </c><c>   3</c></rc>
    <rc><c>O </c><c>   3</c></rc>
    <rc><c>O </c><c>   3</c></rc>
    <rc><c>O </c><c>   3</c></rc>
    <rc><c>O </c><c>   3</c></rc>
    <rc><c>O </c><c>   3</c></rc>
    <rc><c>O </c><c>   3</c></rc>
    <rc><c>O </c><c>   3</c></rc>
    <rc><c>O </c><c>   3</c></rc>
    <rc><c>O </c><c>   3</c></rc>
    <rc><c>O </c><c>   3</c></rc>
    <rc><c>O </c><c>   3</c></rc>
    <rc><c>O </c><c>   3</c></rc>
    <rc><c>O </c><c>   3</c></rc>
    <rc><c>O </c><c>   3</c></rc>
    <rc><c>O </c><c>   3</c></rc>
    <rc><c>O </c><c>   3</c></rc>
    <rc><c>O </c><c>   3</c></rc>
    <rc><c>O </c><c>   3</c></rc>
    <rc><c>O </c><c>   3</c></rc>
    <rc><c>O </c><c>   3</c></rc>
    <rc><c>O </c><c>   3</c></rc>
    <rc><c>O </c><c>   3</c></rc>
    <rc><c>O </c><c>   3</c></rc>
    <rc><c>O </c><c>   3</c></rc>
    <rc><c>O </c><c>   3</c></rc>
    <rc><c>O </c><c>   3</c></rc>
    <rc><c>O </c><c>   3</c></rc>
    <rc><c>O </c><c>   3</c></rc>
    <rc><c>O </c><c>   3</c></rc>
    <rc><c>O </c><c>   3</c></rc>
    <rc><c>O </c><c>   3</c></rc>
    <rc><c>O </c><c>   3</c></rc>
    <rc><c>O </c><c>   3</c></rc>
    <rc><c>O </c><c>   3</c></rc>
    <rc><c>O </c><c>   3</c></rc>
    <rc><c>O </c><c>   3</c></rc>
    <rc><c>O </c><c>   3</c></rc>
    <rc><c>O </c><c>   3</c></rc>
    <rc><c>O </c><c>   3</c></rc>
    <rc><c>O </c><c>   3</c></rc>
    <rc><c>O </c><c>   3</c></rc>
    <rc><c>O </c><c>   3</c></rc>
    <rc><c>O </c><c>   3</c></rc>
    <rc><c>O </c><c>   3</c></rc>
    <rc><c>O </c><c>   3</c></rc>
    <rc><c>O </c><c>   3</c></rc>
    <rc><c>O </c><c>   3</c></rc>
    <rc><c>O </c><c>   3</c></rc>
    <rc><c>O </c><c>   3</c></rc>
    <rc><c>O </c><c>   3</c></rc>
    <rc><c>O </c><c>   3</c></rc>
    <rc><c>O </c><c>   3</c></rc>
    <rc><c>O </c><c>   3</c></rc>
    <rc><c>O </c><c>   3</c></rc>
    <rc><c>O </c><c>   3</c></rc>
    <rc><c>O </c><c>   3</c></rc>
    <rc><c>O </c><c>   3</c></rc>
    <rc><c>O </c><c>   3</c></rc>
    <rc><c>O </c><c>   3</c></rc>
    <rc><c>O </c><c>   3</c></rc>
    <rc><c>O </c><c>   3</c></rc>
    <rc><c>O </c><c>   3</c></rc>
    <rc><c>O </c><c>   3</c></rc>
    <rc><c>O </c><c>   3</c></rc>
    <rc><c>O </c><c>   3</c></rc>
    <rc><c>O </c><c>   3</c></rc>
    <rc><c>O </c><c>   3</c></rc>
   </set>
  </array>
  <array name="atomtypes" >
   <dimension dim="1">type</dimension>
   <field type="int">atomspertype</field>
   <field type="string">element</field>
   <field>mass</field>
   <field>valence</field>
   <field type="string">pseudopotential</field>
   <set>
    <rc><c>  27</c><c>Ca</c><c>     40.07800000</c><c>     10.00000000</c><c>  PAW_PBE Ca_sv 06Sep2000               </c></rc>
    <rc><c>  27</c><c>Si</c><c>     28.08500000</c><c>      4.00000000</c><c>  PAW_PBE Si 05Jan2001                  </c></rc>
    <rc><c>  81</c><c>O </c><c>     16.00000000</c><c>      6.00000000</c><c>  PAW_PBE O 08Apr2002                   </c></rc>
   </set>
  </array>
 </atominfo>
 <structure name="initialpos" >
  <crystal>
   <varray name="basis" >
    <v>      11.12194768       0.00000000       0.00000000 </v>
    <v>       0.00000000      11.12194768       0.00000000 </v>
    <v>       0.00000000       0.00000000      11.12194768 </v>
   </varray>
   <i name="volume">   1375.75957216 </i>
   <varray name="rec_basis" >
    <v>       0.08991231       0.00000000       0.00000000 </v>
    <v>       0.00000000       0.08991231       0.00000000 </v>
    <v>       0.00000000       0.00000000       0.08991231 </v>
   </varray>
  </crystal>
  <varray name="positions" >
   <v>       0.12423214       0.31511082       0.83487847 </v>
   <v>       0.97843094       0.52955555       0.65644699 </v>
   <v>       0.99187238       0.17884050       0.34374500 </v>
   <v>       0.34321846       0.19424512       0.61286329 </v>
   <v>       0.54426329       0.76010361       0.06346627 </v>
   <v>       0.02347443       0.86886086       0.96513089 </v>
   <v>       0.63871520       0.24950467       0.95025165 </v>
   <v>       0.43708286       0.98002102       0.86336074 </v>
   <v>       0.75239902       0.30261856       0.49761892 </v>
   <v>       0.18663546       0.39319071       0.39983545 </v>
   <v>       0.12322267       0.99342656       0.52402365 </v>
   <v>       0.54836718       0.05253084       0.40013412 </v>
   <v>       0.72786541       0.68632810       0.89269812 </v>
   <v>       0.41143694       0.63933014       0.49919820 </v>
   <v>       0.65418943       0.87536630       0.64374641 </v>
   <v>       0.92549515       0.75498223       0.41220882 </v>
   <v>       0.37055755       0.87346268       0.28345296 </v>
   <v>       0.11795355       0.66451505       0.20064248 </v>
   <v>       0.26034641       0.11502914       0.09035516 </v>
   <v>       0.86950220       0.13869743       0.72745640 </v>
   <v>       0.76992677       0.28275811       0.22688313 </v>
   <v>       0.77063483       0.94713875       0.19842933 </v>
   <v>       0.63089063       0.52795138       0.27507592 </v>
   <v>       0.47487694       0.29299986       0.21454393 </v>
   <v>       0.16393162       0.03734874       0.80726738 </v>
   <v>       0.52375613       0.40407574       0.71280005 </v>
   <v>       0.24007724       0.73674751       0.75585600 </v>
   <v>       0.77172364       0.47843813       0.04210540 </v>
   <v>       0.45155010       0.51207485       0.96913481 </v>
   <v>       0.94057472       0.82652081       0.72200295 </v>
   <v>       0.06424405       0.61102202       0.92261928 </v>
   <v>       0.29028489       0.15549099       0.35708805 </v>
   <v>       0.49999992       0.36728810       0.44222457 </v>
   <v>       0.39171072       0.26089056       0.89529743 </v>
   <v>       0.78901492       0.37576347       0.77666427 </v>
   <v>       0.52897892       0.04673055       0.15691353 </v>
   <v>       0.92669866       0.16377828       0.98854750 </v>
   <v>       0.92539152       0.50223256       0.38277888 </v>
   <v>       0.17728099       0.70993605       0.45217329 </v>
   <v>       0.80599565       0.04422370       0.48235204 </v>
   <v>       0.05854412       0.25647570       0.56897651 </v>
   <v>       0.70096403       0.59688267       0.58068751 </v>
   <v>       0.71656793       0.95624746       0.92026359 </v>
   <v>       0.00944569       0.38518862       0.12611796 </v>
   <v>       0.61926548       0.79171354       0.35862339 </v>
   <v>       0.82315035       0.72073907       0.15544732 </v>
   <v>       0.60395146       0.17255341       0.70000739 </v>
   <v>       0.50535386       0.70142069       0.76352062 </v>
   <v>       0.37368260       0.91548224       0.55579909 </v>
   <v>       0.37963959       0.58613698       0.23770727 </v>
   <v>       0.21754562       0.45131962       0.03690049 </v>
   <v>       0.09444495       0.94497412       0.23293365 </v>
   <v>       0.28627017       0.82420248       0.00275567 </v>
   <v>       0.26351354       0.45177258       0.64370778 </v>
   <v>       0.03936145       0.11879647       0.92105101 </v>
   <v>       0.33703480       0.33458985       0.01907714 </v>
   <v>       0.13713930       0.81576253       0.32294123 </v>
   <v>       0.01270238       0.39142819       0.26022368 </v>
   <v>       0.59518547       0.34512523       0.34079239 </v>
   <v>       0.28571269       0.63138396       0.36038544 </v>
   <v>       0.41563764       0.07504764       0.25752071 </v>
   <v>       0.34446082       0.71544096       0.13659016 </v>
   <v>       0.50461437       0.85459288       0.44113920 </v>
   <v>       0.49847350       0.71085648       0.29192939 </v>
   <v>       0.92892620       0.15226372       0.54721058 </v>
   <v>       0.67547085       0.71320176       0.48188091 </v>
   <v>       0.55407050       0.25080414       0.58080652 </v>
   <v>       0.22851010       0.59417675       0.61460134 </v>
   <v>       0.40575266       0.76033856       0.89012871 </v>
   <v>       0.74938337       0.49474630       0.70391871 </v>
   <v>       0.12265637       0.51452599       0.82507768 </v>
   <v>       0.32553764       0.35192544       0.76860868 </v>
   <v>       0.68407963       0.29329351       0.73279149 </v>
   <v>       0.98492276       0.34023560       0.47007791 </v>
   <v>       0.35898789       0.91151325       0.07208766 </v>
   <v>       0.47035003       0.16776144       0.06221554 </v>
   <v>       0.06689896       0.59013442       0.43935860 </v>
   <v>       0.07771640       0.19098469       0.68416943 </v>
   <v>       0.18088930       0.71369218       0.98303623 </v>
   <v>       0.61572031       0.84076746       0.87956349 </v>
   <v>       0.73051268       0.08810594       0.59970583 </v>
   <v>       0.92319324       0.80631265       0.20385189 </v>
   <v>       0.08667046       0.54140541       0.07127735 </v>
   <v>       0.63030156       0.68655656       0.68284873 </v>
   <v>       0.54605703       0.61079809       0.90277062 </v>
   <v>       0.27706481       0.93691509       0.64789089 </v>
   <v>       0.83968003       0.26132523       0.89562303 </v>
   <v>       0.28650840       0.81597586       0.47689755 </v>
   <v>       0.97808879       0.96640894       0.69294079 </v>
   <v>       0.72894649       0.61630933       0.08033405 </v>
   <v>       0.89953695       0.41028274       0.04252701 </v>
   <v>       0.18755808       0.06488604       0.27626671 </v>
   <v>       0.72181026       0.71508871       0.25939854 </v>
   <v>       0.89622629       0.59717416       0.27245576 </v>
   <v>       0.23570175       0.89921473       0.88421873 </v>
   <v>       0.46287796       0.79640284       0.65105734 </v>
   <v>       0.26527885       0.49231240       0.17907386 </v>
   <v>       0.80493122       0.07128400       0.01266860 </v>
   <v>       0.26400846       0.26433135       0.25675649 </v>
   <v>       0.58564572       0.49800512       0.52922563 </v>
   <v>       0.78341276       0.81140095       0.04352160 </v>
   <v>       0.95788491       0.97005599       0.41439665 </v>
   <v>       0.42259371       0.23262867       0.41238303 </v>
   <v>       0.85060293       0.74364767       0.64715136 </v>
   <v>       0.04097136       0.74051081       0.77557797 </v>
   <v>       0.56416667       0.97550727       0.03578240 </v>
   <v>       0.58966891       0.89355222       0.24575781 </v>
   <v>       0.08403118       0.77738827       0.55427746 </v>
   <v>       0.83574268       0.89639582       0.84162944 </v>
   <v>       0.49223975       0.38739816       0.90341488 </v>
   <v>       0.29002658       0.16222038       0.91095199 </v>
   <v>       0.80513440       0.16511828       0.36847978 </v>
   <v>       0.64847725       0.13392201       0.20611962 </v>
   <v>       0.49601531       0.19769098       0.80582625 </v>
   <v>       0.49732783       0.04008608       0.61431914 </v>
   <v>       0.32099936       0.04399803       0.47553579 </v>
   <v>       0.83009676       0.55536528       0.50986251 </v>
   <v>       0.67602869       0.08337936       0.81131438 </v>
   <v>       0.42249143       0.47497281       0.34373530 </v>
   <v>       0.11445672       0.34112704       0.03663388 </v>
   <v>       0.00300771       0.05009867       0.17935157 </v>
   <v>       0.74631552       0.91575837       0.44181006 </v>
   <v>       0.10808241       0.84847298       0.12395386 </v>
   <v>       0.92628940       0.34817479       0.69029581 </v>
   <v>       0.81344410       0.41886639       0.34564027 </v>
   <v>       0.35883651       0.38989872       0.54710389 </v>
   <v>       0.14903245       0.38906847       0.59928557 </v>
   <v>       0.71959220       0.45220211       0.90112455 </v>
   <v>       0.92674046       0.62974328       0.96035017 </v>
   <v>       0.67273791       0.40159922       0.12166317 </v>
   <v>       0.29959396       0.51691033       0.93176039 </v>
   <v>       0.43226137       0.59061067       0.71036853 </v>
   <v>       0.47572055       0.52532833       0.11753413 </v>
   <v>       0.16510122       0.19377320       0.44322737 </v>
   <v>       0.94839622       0.22036968       0.11525814 </v>
  </varray>
  <varray name="velocities" >
   <v>       0.00000000       0.00000000       0.00000000 </v>
   <v>       0.00000000       0.00000000       0.00000000 </v>
   <v>       0.00000000       0.00000000       0.00000000 </v>
   <v>       0.00000000       0.00000000       0.00000000 </v>
   <v>       0.00000000       0.00000000       0.00000000 </v>
   <v>       0.00000000       0.00000000       0.00000000 </v>
   <v>       0.00000000       0.00000000       0.00000000 </v>
   <v>       0.00000000       0.00000000       0.00000000 </v>
   <v>       0.00000000       0.00000000       0.00000000 </v>
   <v>       0.00000000       0.00000000       0.00000000 </v>
   <v>       0.00000000       0.00000000       0.00000000 </v>
   <v>       0.00000000       0.00000000       0.00000000 </v>
   <v>       0.00000000       0.00000000       0.00000000 </v>
   <v>       0.00000000       0.00000000       0.00000000 </v>
   <v>       0.00000000       0.00000000       0.00000000 </v>
   <v>       0.00000000       0.00000000       0.00000000 </v>
   <v>       0.00000000       0.00000000       0.00000000 </v>
   <v>       0.00000000       0.00000000       0.00000000 </v>
   <v>       0.00000000       0.00000000       0.00000000 </v>
   <v>       0.00000000       0.00000000       0.00000000 </v>
   <v>       0.00000000       0.00000000       0.00000000 </v>
   <v>       0.00000000       0.00000000       0.00000000 </v>
   <v>       0.00000000       0.00000000       0.00000000 </v>
   <v>       0.00000000       0.00000000       0.00000000 </v>
   <v>       0.00000000       0.00000000       0.00000000 </v>
   <v>       0.00000000       0.00000000       0.00000000 </v>
   <v>       0.00000000       0.00000000       0.00000000 </v>
   <v>       0.00000000       0.00000000       0.00000000 </v>
   <v>       0.00000000       0.00000000       0.00000000 </v>
   <v>       0.00000000       0.00000000       0.00000000 </v>
   <v>       0.00000000       0.00000000       0.00000000 </v>
   <v>       0.00000000       0.00000000       0.00000000 </v>
   <v>       0.00000000       0.00000000       0.00000000 </v>
   <v>       0.00000000       0.00000000       0.00000000 </v>
   <v>       0.00000000       0.00000000       0.00000000 </v>
   <v>       0.00000000       0.00000000       0.00000000 </v>
   <v>       0.00000000       0.00000000       0.00000000 </v>
   <v>       0.00000000       0.00000000       0.00000000 </v>
   <v>       0.00000000       0.00000000       0.00000000 </v>
   <v>       0.00000000       0.00000000       0.00000000 </v>
   <v>       0.00000000       0.00000000       0.00000000 </v>
   <v>       0.00000000       0.00000000       0.00000000 </v>
   <v>       0.00000000       0.00000000       0.00000000 </v>
   <v>       0.00000000       0.00000000       0.00000000 </v>
   <v>       0.00000000       0.00000000       0.00000000 </v>
   <v>       0.00000000       0.00000000       0.00000000 </v>
   <v>       0.00000000       0.00000000       0.00000000 </v>
   <v>       0.00000000       0.00000000       0.00000000 </v>
   <v>       0.00000000       0.00000000       0.00000000 </v>
   <v>       0.00000000       0.00000000       0.00000000 </v>
   <v>       0.00000000       0.00000000       0.00000000 </v>
   <v>       0.00000000       0.00000000       0.00000000 </v>
   <v>       0.00000000       0.00000000       0.00000000 </v>
   <v>       0.00000000       0.00000000       0.00000000 </v>
   <v>       0.00000000       0.00000000       0.00000000 </v>
   <v>       0.00000000       0.00000000       0.00000000 </v>
   <v>       0.00000000       0.00000000       0.00000000 </v>
   <v>       0.00000000       0.00000000       0.00000000 </v>
   <v>       0.00000000       0.00000000       0.00000000 </v>
   <v>       0.00000000       0.00000000       0.00000000 </v>
   <v>       0.00000000       0.00000000       0.00000000 </v>
   <v>       0.00000000       0.00000000       0.00000000 </v>
   <v>       0.00000000       0.00000000       0.00000000 </v>
   <v>       0.00000000       0.00000000       0.00000000 </v>
   <v>       0.00000000       0.00000000       0.00000000 </v>
   <v>       0.00000000       0.00000000       0.00000000 </v>
   <v>       0.00000000       0.00000000       0.00000000 </v>
   <v>       0.00000000       0.00000000       0.00000000 </v>
   <v>       0.00000000       0.00000000       0.00000000 </v>
   <v>       0.00000000       0.00000000       0.00000000 </v>
   <v>       0.00000000       0.00000000       0.00000000 </v>
   <v>       0.00000000       0.00000000       0.00000000 </v>
   <v>       0.00000000       0.00000000       0.00000000 </v>
   <v>       0.00000000       0.00000000       0.00000000 </v>
   <v>       0.00000000       0.00000000       0.00000000 </v>
   <v>       0.00000000       0.00000000       0.00000000 </v>
   <v>       0.00000000       0.00000000       0.00000000 </v>
   <v>       0.00000000       0.00000000       0.00000000 </v>
   <v>       0.00000000       0.00000000       0.00000000 </v>
   <v>       0.00000000       0.00000000       0.00000000 </v>
   <v>       0.00000000       0.00000000       0.00000000 </v>
   <v>       0.00000000       0.00000000       0.00000000 </v>
   <v>       0.00000000       0.00000000       0.00000000 </v>
   <v>       0.00000000       0.00000000       0.00000000 </v>
   <v>       0.00000000       0.00000000       0.00000000 </v>
   <v>       0.00000000       0.00000000       0.00000000 </v>
   <v>       0.00000000       0.00000000       0.00000000 </v>
   <v>       0.00000000       0.00000000       0.00000000 </v>
   <v>       0.00000000       0.00000000       0.00000000 </v>
   <v>       0.00000000       0.00000000       0.00000000 </v>
   <v>       0.00000000       0.00000000       0.00000000 </v>
   <v>       0.00000000       0.00000000       0.00000000 </v>
   <v>       0.00000000       0.00000000       0.00000000 </v>
   <v>       0.00000000       0.00000000       0.00000000 </v>
   <v>       0.00000000       0.00000000       0.00000000 </v>
   <v>       0.00000000       0.00000000       0.00000000 </v>
   <v>       0.00000000       0.00000000       0.00000000 </v>
   <v>       0.00000000       0.00000000       0.00000000 </v>
   <v>       0.00000000       0.00000000       0.00000000 </v>
   <v>       0.00000000       0.00000000       0.00000000 </v>
   <v>       0.00000000       0.00000000       0.00000000 </v>
   <v>       0.00000000       0.00000000       0.00000000 </v>
   <v>       0.00000000       0.00000000       0.00000000 </v>
   <v>       0.00000000       0.00000000       0.00000000 </v>
   <v>       0.00000000       0.00000000       0.00000000 </v>
   <v>       0.00000000       0.00000000       0.00000000 </v>
   <v>       0.00000000       0.00000000       0.00000000 </v>
   <v>       0.00000000       0.00000000       0.00000000 </v>
   <v>       0.00000000       0.00000000       0.00000000 </v>
   <v>       0.00000000       0.00000000       0.00000000 </v>
   <v>       0.00000000       0.00000000       0.00000000 </v>
   <v>       0.00000000       0.00000000       0.00000000 </v>
   <v>       0.00000000       0.00000000       0.00000000 </v>
   <v>       0.00000000       0.00000000       0.00000000 </v>
   <v>       0.00000000       0.00000000       0.00000000 </v>
   <v>       0.00000000       0.00000000       0.00000000 </v>
   <v>       0.00000000       0.00000000       0.00000000 </v>
   <v>       0.00000000       0.00000000       0.00000000 </v>
   <v>       0.00000000       0.00000000       0.00000000 </v>
   <v>       0.00000000       0.00000000       0.00000000 </v>
   <v>       0.00000000       0.00000000       0.00000000 </v>
   <v>       0.00000000       0.00000000       0.00000000 </v>
   <v>       0.00000000       0.00000000       0.00000000 </v>
   <v>       0.00000000       0.00000000       0.00000000 </v>
   <v>       0.00000000       0.00000000       0.00000000 </v>
   <v>       0.00000000       0.00000000       0.00000000 </v>
   <v>       0.00000000       0.00000000       0.00000000 </v>
   <v>       0.00000000       0.00000000       0.00000000 </v>
   <v>       0.00000000       0.00000000       0.00000000 </v>
   <v>       0.00000000       0.00000000       0.00000000 </v>
   <v>       0.00000000       0.00000000       0.00000000 </v>
   <v>       0.00000000       0.00000000       0.00000000 </v>
   <v>       0.00000000       0.00000000       0.00000000 </v>
   <v>       0.00000000       0.00000000       0.00000000 </v>
   <v>       0.00000000       0.00000000       0.00000000 </v>
  </varray>
 </structure>
 <calculation>
  <scstep>
   <time name="dav">   30.13   30.24</time>
   <time name="total">   30.51   30.63</time>
   <energy>
    <i name="alphaZ">   3473.39795963 </i>
    <i name="ewald"> -52952.17581553 </i>
    <i name="hartreedc"> -13568.30767491 </i>
    <i name="XCdc">   3219.53762850 </i>
    <i name="pawpsdc">  50594.51003143 </i>
    <i name="pawaedc"> -49994.65612350 </i>
    <i name="eentropy">     -0.03431720 </i>
    <i name="bandstr">   4138.44760618 </i>
    <i name="atom">  64968.54023382 </i>
    <i name="e_fr_energy">   9879.25952843 </i>
    <i name="e_wo_entrp">   9879.29384562 </i>
    <i name="e_0_energy">   9879.27668703 </i>
   </energy>
  </scstep>
  <scstep>
   <time name="dav">   33.14   33.28</time>
   <time name="total">   33.14   33.28</time>
   <energy>
    <i name="e_fr_energy">     70.89453354 </i>
    <i name="e_wo_entrp">     70.89453354 </i>
    <i name="e_0_energy">     70.89453354 </i>
   </energy>
  </scstep>
  <scstep>
   <time name="dav">   34.72   34.84</time>
   <time name="total">   34.72   34.84</time>
   <energy>
    <i name="e_fr_energy">   -998.18494563 </i>
    <i name="e_wo_entrp">   -998.18494563 </i>
    <i name="e_0_energy">   -998.18494563 </i>
   </energy>
  </scstep>
  <scstep>
   <time name="dav">   38.19   38.32</time>
   <time name="total">   38.19   38.32</time>
   <energy>
    <i name="e_fr_energy">  -1049.89714651 </i>
    <i name="e_wo_entrp">  -1049.89714651 </i>
    <i name="e_0_energy">  -1049.89714651 </i>
   </energy>
  </scstep>
  <scstep>
   <time name="dav">   46.31   46.46</time>
   <time name="total">   47.41   47.57</time>
   <energy>
    <i name="e_fr_energy">  -1054.26415504 </i>
    <i name="e_wo_entrp">  -1054.26415504 </i>
    <i name="e_0_energy">  -1054.26415504 </i>
   </energy>
  </scstep>
  <scstep>
   <time name="dav">   34.52   34.64</time>
   <time name="total">   35.96   36.09</time>
   <energy>
    <i name="e_fr_energy">   -927.90258611 </i>
    <i name="e_wo_entrp">   -927.90258611 </i>
    <i name="e_0_energy">   -927.90258611 </i>
   </energy>
  </scstep>
  <scstep>
   <time name="dav">   37.75   38.40</time>
   <time name="total">   39.19   39.85</time>
   <energy>
    <i name="e_fr_energy">   -930.37378900 </i>
    <i name="e_wo_entrp">   -930.37378900 </i>
    <i name="e_0_energy">   -930.37378900 </i>
   </energy>
  </scstep>
  <scstep>
   <time name="dav">   35.96   36.78</time>
   <time name="total">   37.37   38.23</time>
   <energy>
    <i name="e_fr_energy">   -929.65773831 </i>
    <i name="e_wo_entrp">   -929.65773831 </i>
    <i name="e_0_energy">   -929.65773831 </i>
   </energy>
  </scstep>
  <scstep>
   <time name="dav">   34.63   34.74</time>
   <time name="total">   36.10   36.22</time>
   <energy>
    <i name="e_fr_energy">   -929.45203928 </i>
    <i name="e_wo_entrp">   -929.45203928 </i>
    <i name="e_0_energy">   -929.45203928 </i>
   </energy>
  </scstep>
  <scstep>
   <time name="dav">   37.83   37.97</time>
   <time name="total">   39.33   39.49</time>
   <energy>
    <i name="e_fr_energy">   -929.51554547 </i>
    <i name="e_wo_entrp">   -929.51554547 </i>
    <i name="e_0_energy">   -929.51554547 </i>
   </energy>
  </scstep>
  <scstep>
   <time name="dav">   37.81   38.02</time>
   <time name="total">   39.25   39.46</time>
   <energy>
    <i name="e_fr_energy">   -929.51426490 </i>
    <i name="e_wo_entrp">   -929.51426490 </i>
    <i name="e_0_energy">   -929.51426490 </i>
   </energy>
  </scstep>
  <scstep>
   <time name="dav">   35.47   35.97</time>
   <time name="total">   36.90   37.42</time>
   <energy>
    <i name="e_fr_energy">   -929.51626786 </i>
    <i name="e_wo_entrp">   -929.51626786 </i>
    <i name="e_0_energy">   -929.51626786 </i>
   </energy>
  </scstep>
  <scstep>
   <time name="dav">   40.29   40.41</time>
   <time name="total">   41.79   41.93</time>
   <energy>
    <i name="e_fr_energy">   -929.51706249 </i>
    <i name="e_wo_entrp">   -929.51706249 </i>
    <i name="e_0_energy">   -929.51706249 </i>
   </energy>
  </scstep>
  <scstep>
   <time name="dav">   37.62   37.82</time>
   <time name="total">   39.08   39.28</time>
   <energy>
    <i name="e_fr_energy">   -929.51715333 </i>
    <i name="e_wo_entrp">   -929.51715333 </i>
    <i name="e_0_energy">   -929.51715333 </i>
   </energy>
  </scstep>
  <scstep>
   <time name="dav">   37.34   37.51</time>
   <time name="total">   38.78   38.96</time>
   <energy>
    <i name="e_fr_energy">   -929.51714736 </i>
    <i name="e_wo_entrp">   -929.51714736 </i>
    <i name="e_0_energy">   -929.51714736 </i>
   </energy>
  </scstep>
  <scstep>
   <time name="dav">   34.36   34.82</time>
   <time name="total">   35.79   36.27</time>
   <energy>
    <i name="e_fr_energy">   -929.51713331 </i>
    <i name="e_wo_entrp">   -929.51713331 </i>
    <i name="e_0_energy">   -929.51713331 </i>
   </energy>
  </scstep>
  <scstep>
   <time name="dav">   40.04   40.17</time>
   <time name="total">   41.50   41.65</time>
   <energy>
    <i name="e_fr_energy">   -929.51713453 </i>
    <i name="e_wo_entrp">   -929.51713453 </i>
    <i name="e_0_energy">   -929.51713453 </i>
   </energy>
  </scstep>
  <scstep>
   <time name="dav">   32.83   32.95</time>
   <time name="total">   33.19   33.32</time>
   <energy>
    <i name="alphaZ">   3473.39795963 </i>
    <i name="ewald"> -52952.17581553 </i>
    <i name="hartreedc"> -14783.71327496 </i>
    <i name="XCdc">   3306.86409422 </i>
    <i name="pawpsdc">  89748.51966451 </i>
    <i name="pawaedc"> -89412.26745328 </i>
    <i name="eentropy">     -0.00000000 </i>
    <i name="bandstr">  -5278.68254242 </i>
    <i name="atom">  64968.54023382 </i>
    <i name="e_fr_energy">   -929.51713400 </i>
    <i name="e_wo_entrp">   -929.51713400 </i>
    <i name="e_0_energy">   -929.51713400 </i>
   </energy>
  </scstep>
  <structure>
   <crystal>
    <varray name="basis" >
     <v>      11.12194768       0.00000000       0.00000000 </v>
     <v>       0.00000000      11.12194768       0.00000000 </v>
     <v>       0.00000000       0.00000000      11.12194768 </v>
    </varray>
    <i name="volume">   1375.75957216 </i>
    <varray name="rec_basis" >
     <v>       0.08991231       0.00000000       0.00000000 </v>
     <v>       0.00000000       0.08991231       0.00000000 </v>
     <v>       0.00000000       0.00000000       0.08991231 </v>
    </varray>
   </crystal>
   <varray name="positions" >
    <v>       0.12423214       0.31511082       0.83487847 </v>
    <v>       0.97843094       0.52955555       0.65644699 </v>
    <v>       0.99187238       0.17884050       0.34374500 </v>
    <v>       0.34321846       0.19424512       0.61286329 </v>
    <v>       0.54426329       0.76010361       0.06346627 </v>
    <v>       0.02347443       0.86886086       0.96513089 </v>
    <v>       0.63871520       0.24950467       0.95025165 </v>
    <v>       0.43708286       0.98002102       0.86336074 </v>
    <v>       0.75239902       0.30261856       0.49761892 </v>
    <v>       0.18663546       0.39319071       0.39983545 </v>
    <v>       0.12322267       0.99342656       0.52402365 </v>
    <v>       0.54836718       0.05253084       0.40013412 </v>
    <v>       0.72786541       0.68632810       0.89269812 </v>
    <v>       0.41143694       0.63933014       0.49919820 </v>
    <v>       0.65418943       0.87536630       0.64374641 </v>
    <v>       0.92549515       0.75498223       0.41220882 </v>
    <v>       0.37055755       0.87346268       0.28345296 </v>
    <v>       0.11795355       0.66451505       0.20064248 </v>
    <v>       0.26034641       0.11502914       0.09035516 </v>
    <v>       0.86950220       0.13869743       0.72745640 </v>
    <v>       0.76992677       0.28275811       0.22688313 </v>
    <v>       0.77063483       0.94713875       0.19842933 </v>
    <v>       0.63089063       0.52795138       0.27507592 </v>
    <v>       0.47487694       0.29299986       0.21454393 </v>
    <v>       0.16393162       0.03734874       0.80726738 </v>
    <v>       0.52375613       0.40407574       0.71280005 </v>
    <v>       0.24007724       0.73674751       0.75585600 </v>
    <v>       0.77172364       0.47843813       0.04210540 </v>
    <v>       0.45155010       0.51207485       0.96913481 </v>
    <v>       0.94057472       0.82652081       0.72200295 </v>
    <v>       0.06424405       0.61102202       0.92261928 </v>
    <v>       0.29028489       0.15549099       0.35708805 </v>
    <v>       0.49999992       0.36728810       0.44222457 </v>
    <v>       0.39171072       0.26089056       0.89529743 </v>
    <v>       0.78901492       0.37576347       0.77666427 </v>
    <v>       0.52897892       0.04673055       0.15691353 </v>
    <v>       0.92669866       0.16377828       0.98854750 </v>
    <v>       0.92539152       0.50223256       0.38277888 </v>
    <v>       0.17728099       0.70993605       0.45217329 </v>
    <v>       0.80599565       0.04422370       0.48235204 </v>
    <v>       0.05854412       0.25647570       0.56897651 </v>
    <v>       0.70096403       0.59688267       0.58068751 </v>
    <v>       0.71656793       0.95624746       0.92026359 </v>
    <v>       0.00944569       0.38518862       0.12611796 </v>
    <v>       0.61926548       0.79171354       0.35862339 </v>
    <v>       0.82315035       0.72073907       0.15544732 </v>
    <v>       0.60395146       0.17255341       0.70000739 </v>
    <v>       0.50535386       0.70142069       0.76352062 </v>
    <v>       0.37368260       0.91548224       0.55579909 </v>
    <v>       0.37963959       0.58613698       0.23770727 </v>
    <v>       0.21754562       0.45131962       0.03690049 </v>
    <v>       0.09444495       0.94497412       0.23293365 </v>
    <v>       0.28627017       0.82420248       0.00275567 </v>
    <v>       0.26351354       0.45177258       0.64370778 </v>
    <v>       0.03936145       0.11879647       0.92105101 </v>
    <v>       0.33703480       0.33458985       0.01907714 </v>
    <v>       0.13713930       0.81576253       0.32294123 </v>
    <v>       0.01270238       0.39142819       0.26022368 </v>
    <v>       0.59518547       0.34512523       0.34079239 </v>
    <v>       0.28571269       0.63138396       0.36038544 </v>
    <v>       0.41563764       0.07504764       0.25752071 </v>
    <v>       0.34446082       0.71544096       0.13659016 </v>
    <v>       0.50461437       0.85459288       0.44113920 </v>
    <v>       0.49847350       0.71085648       0.29192939 </v>
    <v>       0.92892620       0.15226372       0.54721058 </v>
    <v>       0.67547085       0.71320176       0.48188091 </v>
    <v>       0.55407050       0.25080414       0.58080652 </v>
    <v>       0.22851010       0.59417675       0.61460134 </v>
    <v>       0.40575266       0.76033856       0.89012871 </v>
    <v>       0.74938337       0.49474630       0.70391871 </v>
    <v>       0.12265637       0.51452599       0.82507768 </v>
    <v>       0.32553764       0.35192544       0.76860868 </v>
    <v>       0.68407963       0.29329351       0.73279149 </v>
    <v>       0.98492276       0.34023560       0.47007791 </v>
    <v>       0.35898789       0.91151325       0.07208766 </v>
    <v>       0.47035003       0.16776144       0.06221554 </v>
    <v>       0.06689896       0.59013442       0.43935860 </v>
    <v>       0.07771640       0.19098469       0.68416943 </v>
    <v>       0.18088930       0.71369218       0.98303623 </v>
    <v>       0.61572031       0.84076746       0.87956349 </v>
    <v>       0.73051268       0.08810594       0.59970583 </v>
    <v>       0.92319324       0.80631265       0.20385189 </v>
    <v>       0.08667046       0.54140541       0.07127735 </v>
    <v>       0.63030156       0.68655656       0.68284873 </v>
    <v>       0.54605703       0.61079809       0.90277062 </v>
    <v>       0.27706481       0.93691509       0.64789089 </v>
    <v>       0.83968003       0.26132523       0.89562303 </v>
    <v>       0.28650840       0.81597586       0.47689755 </v>
    <v>       0.97808879       0.96640894       0.69294079 </v>
    <v>       0.72894649       0.61630933       0.08033405 </v>
    <v>       0.89953695       0.41028274       0.04252701 </v>
    <v>       0.18755808       0.06488604       0.27626671 </v>
    <v>       0.72181026       0.71508871       0.25939854 </v>
    <v>       0.89622629       0.59717416       0.27245576 </v>
    <v>       0.23570175       0.89921473       0.88421873 </v>
    <v>       0.46287796       0.79640284       0.65105734 </v>
    <v>       0.26527885       0.49231240       0.17907386 </v>
    <v>       0.80493122       0.07128400       0.01266860 </v>
    <v>       0.26400846       0.26433135       0.25675649 </v>
    <v>       0.58564572       0.49800512       0.52922563 </v>
    <v>       0.78341276       0.81140095       0.04352160 </v>
    <v>       0.95788491       0.97005599       0.41439665 </v>
    <v>       0.42259371       0.23262867       0.41238303 </v>
    <v>       0.85060293       0.74364767       0.64715136 </v>
    <v>       0.04097136       0.74051081       0.77557797 </v>
    <v>       0.56416667       0.97550727       0.03578240 </v>
    <v>       0.58966891       0.89355222       0.24575781 </v>
    <v>       0.08403118       0.77738827       0.55427746 </v>
    <v>       0.83574268       0.89639582       0.84162944 </v>
    <v>       0.49223975       0.38739816       0.90341488 </v>
    <v>       0.29002658       0.16222038       0.91095199 </v>
    <v>       0.80513440       0.16511828       0.36847978 </v>
    <v>       0.64847725       0.13392201       0.20611962 </v>
    <v>       0.49601531       0.19769098       0.80582625 </v>
    <v>       0.49732783       0.04008608       0.61431914 </v>
    <v>       0.32099936       0.04399803       0.47553579 </v>
    <v>       0.83009676       0.55536528       0.50986251 </v>
    <v>       0.67602869       0.08337936       0.81131438 </v>
    <v>       0.42249143       0.47497281       0.34373530 </v>
    <v>       0.11445672       0.34112704       0.03663388 </v>
    <v>       0.00300771       0.05009867       0.17935157 </v>
    <v>       0.74631552       0.91575837       0.44181006 </v>
    <v>       0.10808241       0.84847298       0.12395386 </v>
    <v>       0.92628940       0.34817479       0.69029581 </v>
    <v>       0.81344410       0.41886639       0.34564027 </v>
    <v>       0.35883651       0.38989872       0.54710389 </v>
    <v>       0.14903245       0.38906847       0.59928557 </v>
    <v>       0.71959220       0.45220211       0.90112455 </v>
    <v>       0.92674046       0.62974328       0.96035017 </v>
    <v>       0.67273791       0.40159922       0.12166317 </v>
    <v>       0.29959396       0.51691033       0.93176039 </v>
    <v>       0.43226137       0.59061067       0.71036853 </v>
    <v>       0.47572055       0.52532833       0.11753413 </v>
    <v>       0.16510122       0.19377320       0.44322737 </v>
    <v>       0.94839622       0.22036968       0.11525814 </v>
   </varray>
  </structure>
  <varray name="forces" >
   <v>      -0.56614504      -0.43949730       0.05284315 </v>
   <v>       0.60277227       2.32657935      -0.80345391 </v>
   <v>       0.62608505      -1.27929407      -2.61285113 </v>
   <v>       0.80946058      -0.92622111      -0.17968839 </v>
   <v>      -0.85005804       0.20669190       0.88581064 </v>
   <v>      -2.12534939       0.25769714      -0.24125123 </v>
   <v>       0.95453626      -0.57549907       2.06775625 </v>
   <v>       0.55443343      -0.63914682      -0.00307094 </v>
   <v>       1.28415503       1.30543861       0.50320863 </v>
   <v>       0.71654283       1.90184607      -3.07502545 </v>
   <v>      -1.81416094      -1.88743392       0.05329223 </v>
   <v>       1.29175463       1.06646529       2.20585384 </v>
   <v>       3.14585570      -1.06178018      -2.20482341 </v>
   <v>       2.83736026       0.30506750       1.80406449 </v>
   <v>       0.58435756       0.74305515      -1.18179674 </v>
   <v>      -0.87663942       1.87726476       1.09723702 </v>
   <v>      -1.73460506      -1.73720395      -0.23279863 </v>
   <v>       0.57415933       0.85560571       1.01885479 </v>
   <v>      -0.32096482       1.32934897       1.54616444 </v>
   <v>       1.84416870      -1.39112100       1.27587372 </v>
   <v>       1.03698043      -1.55049737      -1.10677066 </v>
   <v>       2.63545259       2.72158539       0.22345788 </v>
   <v>       1.20703349       1.10665284       0.24970236 </v>
   <v>      -2.94693781       0.40365873      -3.21617004 </v>
   <v>      -1.13042779       1.73029516      -3.61881248 </v>
   <v>      -0.74887631       3.50356908      -0.81768457 </v>
   <v>       0.71855518      -0.11954360      -0.80998659 </v>
   <v>      -1.87395928      -1.00029223      -1.35534536 </v>
   <v>      -1.87546694       0.58133307       0.29763563 </v>
   <v>      -1.64702058       2.02618831      -1.65000588 </v>
   <v>       1.62940555       0.68174526       1.44424556 </v>
   <v>      -0.01766771      -0.75089575      -1.34687067 </v>
   <v>      -3.70427718       1.55728539       2.52526199 </v>
   <v>      -0.80807848       4.60601338       2.62389350 </v>
   <v>       4.82189396       2.19445505       2.76340140 </v>
   <v>       1.19937091       4.09896528      -1.59361486 </v>
   <v>      -4.61729982       0.19681973       0.88312534 </v>
   <v>      -0.41612062      -0.35077702      -0.46366132 </v>
   <v>      -1.89405679       2.36543718       0.66427024 </v>
   <v>       6.90864444       1.46331659      -4.05151898 </v>
   <v>      -3.78965641       2.47254569      -4.84774368 </v>
   <v>       0.65211659      -0.42670047      -0.59766539 </v>
   <v>       0.96193951       0.02814222      -0.11848017 </v>
   <v>       0.17707385      -1.60332883      -3.84043933 </v>
   <v>      -0.37072019      -1.80800906       0.69485441 </v>
   <v>      -0.24929647      -2.91850611      -0.30242568 </v>
   <v>      -0.40731288      -5.44450217      -2.00938733 </v>
   <v>      -2.66935504      -0.34922479       2.00747318 </v>
   <v>       5.29889599      -1.64951688      -2.21872792 </v>
   <v>      -1.72104730       0.65937122      -2.23746119 </v>
   <v>       4.19049627      -0.33606107       3.34192776 </v>
   <v>      -2.27753338       0.17361179       1.50216217 </v>
   <v>      -2.68241935      -8.27681332      -2.59381989 </v>
   <v>       4.40922740       2.96604847       2.83107183 </v>
   <v>       0.67638624      -0.68024118      -0.70502795 </v>
   <v>      -1.98985144       0.13356897       1.36905867 </v>
   <v>      -0.18680473       0.91858798       1.66659555 </v>
   <v>       1.43267736       0.89264034       4.61399895 </v>
   <v>       3.82690031      -1.00280254       1.82538067 </v>
   <v>      -3.16872967       0.49711950      -0.46617230 </v>
   <v>       0.60753714      -1.33008108      -0.98978131 </v>
   <v>      -0.20570414      -0.96098419       1.05656076 </v>
   <v>      -0.95927746       2.66990551       1.83411638 </v>
   <v>      -0.06933401      -3.92146233       0.00830258 </v>
   <v>       0.59543090      -0.16133372      -1.03239286 </v>
   <v>      -0.84911908      -0.36845150      -1.38560573 </v>
   <v>      -0.29864321       1.00788183      -1.04000283 </v>
   <v>       0.50615840      -1.22701262      -0.89697770 </v>
   <v>      -0.86867846       1.44727950      -0.33486582 </v>
   <v>      -0.39017931       2.59399899      -2.31764385 </v>
   <v>      -2.48289792       0.85094742       0.25839720 </v>
   <v>      -1.96663798      -0.18193392      -2.09085874 </v>
   <v>       0.18864478      -2.35831629       0.00908392 </v>
   <v>       0.30666583       2.42688633      -0.35197762 </v>
   <v>       2.83572609       6.36690726       3.12462773 </v>
   <v>       0.44788757      -0.85530462      -0.93711713 </v>
   <v>      -1.22538426      -1.83861813      -1.57052863 </v>
   <v>       4.54471481      -3.52853532       5.34400496 </v>
   <v>      -2.41448558      -1.57349052      -2.45714624 </v>
   <v>       0.12438401       2.37659892      -1.68259526 </v>
   <v>      -2.22465126       0.31730788      -0.00875825 </v>
   <v>       1.14843723       0.79763561       1.18996478 </v>
   <v>      -0.06844162      -2.76056218      -3.35759177 </v>
   <v>       1.95058353      -1.68596815       2.31527864 </v>
   <v>      -0.24452302      -0.70071990       0.44926869 </v>
   <v>      -4.03529230       2.11739212       6.90122183 </v>
   <v>       1.16655205      -0.54661076      -0.68645191 </v>
   <v>       2.09024555      -0.61485090       0.07337598 </v>
   <v>       1.35544368      -1.30740111       0.12074588 </v>
   <v>       1.32642382      -2.25735016       0.22078673 </v>
   <v>      -2.86098241       2.79871231      -0.18751929 </v>
   <v>       0.77365284      -3.39893347       0.52148991 </v>
   <v>      -2.55213129       2.70405914       2.78092541 </v>
   <v>       1.82067384       0.99048996      -1.23720538 </v>
   <v>      -0.11568324      -0.36890841       2.05631434 </v>
   <v>      -1.71759308       2.51757215       0.33452246 </v>
   <v>      -0.38654029       0.43020845       0.10962617 </v>
   <v>      -0.92614035      -1.97426833      -1.31530694 </v>
   <v>       0.76029468      -0.61759883       0.25017363 </v>
   <v>      -0.11935767      -1.07125967      -0.72351901 </v>
   <v>      -1.54535738       2.32862732      -0.64699529 </v>
   <v>      -1.20197624       0.81279082       0.14622483 </v>
   <v>      -0.77609824       0.03690154       0.22360750 </v>
   <v>      -0.59411071       0.47126807       0.16677643 </v>
   <v>       0.75158429      -0.98220824       3.16746899 </v>
   <v>       3.09254368      -1.31748592      -1.85172688 </v>
   <v>      -0.79052659       2.72194609      -0.88516751 </v>
   <v>       0.63033684      -0.40422014      -1.02259124 </v>
   <v>      -0.05898325      -0.23511600      -0.15758821 </v>
   <v>       2.08164019      -0.95409467       0.24591857 </v>
   <v>      -1.23786991      -2.77221578      -3.98353287 </v>
   <v>      -2.53923857      -3.71023189       2.69289605 </v>
   <v>      -3.06630755      -2.77719345      -0.31445603 </v>
   <v>      -1.28380122      -0.68777902      -0.70191022 </v>
   <v>       0.21725999      -0.53735509       1.39997323 </v>
   <v>       0.86695842       0.04368588      -2.50673454 </v>
   <v>       1.90825055      -0.19124918      -0.52701189 </v>
   <v>      -0.37905666      -1.80078323       0.96226262 </v>
   <v>       1.42534215      -0.44184543       0.47362420 </v>
   <v>       1.93036222      -1.26668558      -1.07466223 </v>
   <v>       0.23964027      -3.85069829       0.45380131 </v>
   <v>      -2.07515832       0.55783797      -0.66758586 </v>
   <v>       3.54896466       2.22837710      -1.07742397 </v>
   <v>      -3.03050186       0.12867748       2.84973033 </v>
   <v>      -1.76567360      -0.92965817       0.67124796 </v>
   <v>       1.58647060       1.03298648      -0.42773434 </v>
   <v>      -3.56806016      -2.88674775       0.39835312 </v>
   <v>       2.07344080      -0.52192156       0.91602921 </v>
   <v>      -0.70305861       1.24444911      -1.13519803 </v>
   <v>       0.10915544       0.05969871      -1.72534839 </v>
   <v>       2.22973642       2.36233368       0.75474964 </v>
   <v>      -1.63078896      -2.63763821      -0.36613552 </v>
   <v>       0.55016689       0.66722640      -0.06212187 </v>
   <v>      -0.41459389       1.40738399       4.13012780 </v>
   <v>      -0.27632336       4.04800249       1.59026724 </v>
  </varray>
  <varray name="stress" >
   <v>     149.70670063       5.42493678      29.14542248 </v>
   <v>       5.42493684     123.37975543      12.21507336 </v>
   <v>      29.14542244      12.21507343     153.24858542 </v>
  </varray>
  <energy>
   <i name="e_fr_energy">   -929.51713400 </i>
   <i name="e_wo_entrp">   -929.51713400 </i>
   <i name="e_0_energy">     -0.00000000 </i>
  </energy>
  <time name="totalsc">  714.43  719.16</time>
  <eigenvalues>
   <array>
    <dimension dim="1">band</dimension>
    <dimension dim="2">kpoint</dimension>
    <dimension dim="3">spin</dimension>
    <field>eigene</field>
    <field>occ</field>
    <set>
     <set comment="spin 1">
      <set comment="kpoint 1">
       <r>  -34.1051    1.0000 </r>
       <r>  -34.0992    1.0000 </r>
       <r>  -33.7397    1.0000 </r>
       <r>  -33.6044    1.0000 </r>
       <r>  -33.5368    1.0000 </r>
       <r>  -33.4927    1.0000 </r>
       <r>  -33.3244    1.0000 </r>
       <r>  -33.2624    1.0000 </r>
       <r>  -33.2171    1.0000 </r>
       <r>  -33.2020    1.0000 </r>
       <r>  -33.1857    1.0000 </r>
       <r>  -33.0613    1.0000 </r>
       <r>  -33.0571    1.0000 </r>
       <r>  -32.9312    1.0000 </r>
       <r>  -32.9087    1.0000 </r>
       <r>  -32.8504    1.0000 </r>
       <r>  -32.8226    1.0000 </r>
       <r>  -32.7988    1.0000 </r>
       <r>  -32.6902    1.0000 </r>
       <r>  -32.6717    1.0000 </r>
       <r>  -32.5406    1.0000 </r>
       <r>  -32.3943    1.0000 </r>
       <r>  -32.3738    1.0000 </r>
       <r>  -32.2702    1.0000 </r>
       <r>  -32.1998    1.0000 </r>
       <r>  -31.9394    1.0000 </r>
       <r>  -31.6789    1.0000 </r>
       <r>  -17.1763    1.0000 </r>
       <r>  -16.3420    1.0000 </r>
       <r>  -16.2979    1.0000 </r>
       <r>  -16.0306    1.0000 </r>
       <r>  -15.8860    1.0000 </r>
       <r>  -15.8603    1.0000 </r>
       <r>  -15.7465    1.0000 </r>
       <r>  -15.6737    1.0000 </r>
       <r>  -15.6331    1.0000 </r>
       <r>  -15.5755    1.0000 </r>
       <r>  -15.4779    1.0000 </r>
       <r>  -15.4428    1.0000 </r>
       <r>  -15.4237    1.0000 </r>
       <r>  -15.3998    1.0000 </r>
       <r>  -15.3611    1.0000 </r>
[...]
       <r>     7.4824     0.0000   864.0000 </r>
       <r>     7.6540     0.0000   864.0000 </r>
       <r>     7.8256     0.0000   864.0000 </r>
       <r>     7.9971     0.0000   864.0000 </r>
       <r>     8.1687     0.0000   864.0000 </r>
       <r>     8.3403     1.1192   864.1920 </r>
       <r>     8.5119     0.4473   864.2688 </r>
       <r>     8.6835     3.3559   864.8447 </r>
       <r>     8.8551     6.8369   866.0178 </r>
       <r>     9.0267     6.3584   867.1088 </r>
       <r>     9.1983     8.4773   868.5635 </r>
       <r>     9.3699     8.9386   870.0972 </r>
       <r>     9.5415    10.7748   871.9461 </r>
       <r>     9.7131    15.6197   874.6263 </r>
       <r>     9.8846     9.8021   876.3083 </r>
       <r>    10.0562    17.2271   879.2643 </r>
       <r>    10.2278    27.3278   883.9535 </r>
       <r>    10.3994    40.1852   890.8489 </r>
       <r>    10.5710    31.0462   896.1762 </r>
       <r>    10.7426    44.3713   903.7899 </r>
       <r>    10.9142    48.1170   912.0464 </r>
       <r>    11.0858    53.2335   921.1808 </r>
       <r>    11.2574    60.0538   931.4855 </r>
       <r>    11.4290    56.8512   941.2406 </r>
       <r>    11.6006    68.9509   953.0720 </r>
       <r>    11.7722    76.4925   966.1975 </r>
       <r>    11.9437    83.3921   980.5068 </r>
       <r>    12.1153    83.1759   994.7791 </r>
       <r>    12.2869    85.9267  1009.5233 </r>
       <r>    12.4585    87.0523  1024.4607 </r>
       <r>    12.6301    74.1245  1037.1799 </r>
       <r>    12.8017    16.4324  1039.9995 </r>
       <r>    12.9733     0.0028  1040.0000 </r>
       <r>    13.1449     0.0000  1040.0000 </r>
       <r>    13.3165     0.0000  1040.0000 </r>
       <r>    13.4881     0.0000  1040.0000 </r>
       <r>    13.6597     0.0000  1040.0000 </r>
       <r>    13.8312     0.0000  1040.0000 </r>
       <r>    14.0028     0.0000  1040.0000 </r>
       <r>    14.1744     0.0000  1040.0000 </r>
       <r>    14.3460     0.0000  1040.0000 </r>
       <r>    14.5176     0.0000  1040.0000 </r>
       <r>    14.6892     0.0000  1040.0000 </r>
       <r>    14.8608     0.0000  1040.0000 </r>
       <r>    15.0324     0.0000  1040.0000 </r>
      </set>
     </set>
    </array>
   </total>
  </dos>
 </calculation>
 <structure name="finalpos" >
  <crystal>
   <varray name="basis" >
    <v>      11.12194768       0.00000000       0.00000000 </v>
    <v>       0.00000000      11.12194768       0.00000000 </v>
    <v>       0.00000000       0.00000000      11.12194768 </v>
   </varray>
   <i name="volume">   1375.75957216 </i>
   <varray name="rec_basis" >
    <v>       0.08991231       0.00000000       0.00000000 </v>
    <v>       0.00000000       0.08991231       0.00000000 </v>
    <v>       0.00000000       0.00000000       0.08991231 </v>
   </varray>
  </crystal>
  <varray name="positions" >
   <v>       0.12423214       0.31511082       0.83487847 </v>
   <v>       0.97843094       0.52955555       0.65644699 </v>
   <v>       0.99187238       0.17884050       0.34374500 </v>
   <v>       0.34321846       0.19424512       0.61286329 </v>
   <v>       0.54426329       0.76010361       0.06346627 </v>
   <v>       0.02347443       0.86886086       0.96513089 </v>
   <v>       0.63871520       0.24950467       0.95025165 </v>
   <v>       0.43708286       0.98002102       0.86336074 </v>
   <v>       0.75239902       0.30261856       0.49761892 </v>
   <v>       0.18663546       0.39319071       0.39983545 </v>
   <v>       0.12322267       0.99342656       0.52402365 </v>
   <v>       0.54836718       0.05253084       0.40013412 </v>
   <v>       0.72786541       0.68632810       0.89269812 </v>
   <v>       0.41143694       0.63933014       0.49919820 </v>
   <v>       0.65418943       0.87536630       0.64374641 </v>
   <v>       0.92549515       0.75498223       0.41220882 </v>
   <v>       0.37055755       0.87346268       0.28345296 </v>
   <v>       0.11795355       0.66451505       0.20064248 </v>
   <v>       0.26034641       0.11502914       0.09035516 </v>
   <v>       0.86950220       0.13869743       0.72745640 </v>
   <v>       0.76992677       0.28275811       0.22688313 </v>
   <v>       0.77063483       0.94713875       0.19842933 </v>
   <v>       0.63089063       0.52795138       0.27507592 </v>
   <v>       0.47487694       0.29299986       0.21454393 </v>
   <v>       0.16393162       0.03734874       0.80726738 </v>
   <v>       0.52375613       0.40407574       0.71280005 </v>
   <v>       0.24007724       0.73674751       0.75585600 </v>
   <v>       0.77172364       0.47843813       0.04210540 </v>
   <v>       0.45155010       0.51207485       0.96913481 </v>
   <v>       0.94057472       0.82652081       0.72200295 </v>
   <v>       0.06424405       0.61102202       0.92261928 </v>
   <v>       0.29028489       0.15549099       0.35708805 </v>
   <v>       0.49999992       0.36728810       0.44222457 </v>
   <v>       0.39171072       0.26089056       0.89529743 </v>
   <v>       0.78901492       0.37576347       0.77666427 </v>
   <v>       0.52897892       0.04673055       0.15691353 </v>
   <v>       0.92669866       0.16377828       0.98854750 </v>
   <v>       0.92539152       0.50223256       0.38277888 </v>
   <v>       0.17728099       0.70993605       0.45217329 </v>
   <v>       0.80599565       0.04422370       0.48235204 </v>
   <v>       0.05854412       0.25647570       0.56897651 </v>
   <v>       0.70096403       0.59688267       0.58068751 </v>
   <v>       0.71656793       0.95624746       0.92026359 </v>
   <v>       0.00944569       0.38518862       0.12611796 </v>
   <v>       0.61926548       0.79171354       0.35862339 </v>
   <v>       0.82315035       0.72073907       0.15544732 </v>
   <v>       0.60395146       0.17255341       0.70000739 </v>
   <v>       0.50535386       0.70142069       0.76352062 </v>
   <v>       0.37368260       0.91548224       0.55579909 </v>
   <v>       0.37963959       0.58613698       0.23770727 </v>
   <v>       0.21754562       0.45131962       0.03690049 </v>
   <v>       0.09444495       0.94497412       0.23293365 </v>
   <v>       0.28627017       0.82420248       0.00275567 </v>
   <v>       0.26351354       0.45177258       0.64370778 </v>
   <v>       0.03936145       0.11879647       0.92105101 </v>
   <v>       0.33703480       0.33458985       0.01907714 </v>
   <v>       0.13713930       0.81576253       0.32294123 </v>
   <v>       0.01270238       0.39142819       0.26022368 </v>
   <v>       0.59518547       0.34512523       0.34079239 </v>
   <v>       0.28571269       0.63138396       0.36038544 </v>
   <v>       0.41563764       0.07504764       0.25752071 </v>
   <v>       0.34446082       0.71544096       0.13659016 </v>
   <v>       0.50461437       0.85459288       0.44113920 </v>
   <v>       0.49847350       0.71085648       0.29192939 </v>
   <v>       0.92892620       0.15226372       0.54721058 </v>
   <v>       0.67547085       0.71320176       0.48188091 </v>
   <v>       0.55407050       0.25080414       0.58080652 </v>
   <v>       0.22851010       0.59417675       0.61460134 </v>
   <v>       0.40575266       0.76033856       0.89012871 </v>
   <v>       0.74938337       0.49474630       0.70391871 </v>
   <v>       0.12265637       0.51452599       0.82507768 </v>
   <v>       0.32553764       0.35192544       0.76860868 </v>
   <v>       0.68407963       0.29329351       0.73279149 </v>
   <v>       0.98492276       0.34023560       0.47007791 </v>
   <v>       0.35898789       0.91151325       0.07208766 </v>
   <v>       0.47035003       0.16776144       0.06221554 </v>
   <v>       0.06689896       0.59013442       0.43935860 </v>
   <v>       0.07771640       0.19098469       0.68416943 </v>
   <v>       0.18088930       0.71369218       0.98303623 </v>
   <v>       0.61572031       0.84076746       0.87956349 </v>
   <v>       0.73051268       0.08810594       0.59970583 </v>
   <v>       0.92319324       0.80631265       0.20385189 </v>
   <v>       0.08667046       0.54140541       0.07127735 </v>
   <v>       0.63030156       0.68655656       0.68284873 </v>
   <v>       0.54605703       0.61079809       0.90277062 </v>
   <v>       0.27706481       0.93691509       0.64789089 </v>
   <v>       0.83968003       0.26132523       0.89562303 </v>
   <v>       0.28650840       0.81597586       0.47689755 </v>
   <v>       0.97808879       0.96640894       0.69294079 </v>
   <v>       0.72894649       0.61630933       0.08033405 </v>
   <v>       0.89953695       0.41028274       0.04252701 </v>
   <v>       0.18755808       0.06488604       0.27626671 </v>
   <v>       0.72181026       0.71508871       0.25939854 </v>
   <v>       0.89622629       0.59717416       0.27245576 </v>
   <v>       0.23570175       0.89921473       0.88421873 </v>
   <v>       0.46287796       0.79640284       0.65105734 </v>
   <v>       0.26527885       0.49231240       0.17907386 </v>
   <v>       0.80493122       0.07128400       0.01266860 </v>
   <v>       0.26400846       0.26433135       0.25675649 </v>
   <v>       0.58564572       0.49800512       0.52922563 </v>
   <v>       0.78341276       0.81140095       0.04352160 </v>
   <v>       0.95788491       0.97005599       0.41439665 </v>
   <v>       0.42259371       0.23262867       0.41238303 </v>
   <v>       0.85060293       0.74364767       0.64715136 </v>
   <v>       0.04097136       0.74051081       0.77557797 </v>
   <v>       0.56416667       0.97550727       0.03578240 </v>
   <v>       0.58966891       0.89355222       0.24575781 </v>
   <v>       0.08403118       0.77738827       0.55427746 </v>
   <v>       0.83574268       0.89639582       0.84162944 </v>
   <v>       0.49223975       0.38739816       0.90341488 </v>
   <v>       0.29002658       0.16222038       0.91095199 </v>
   <v>       0.80513440       0.16511828       0.36847978 </v>
   <v>       0.64847725       0.13392201       0.20611962 </v>
   <v>       0.49601531       0.19769098       0.80582625 </v>
   <v>       0.49732783       0.04008608       0.61431914 </v>
   <v>       0.32099936       0.04399803       0.47553579 </v>
   <v>       0.83009676       0.55536528       0.50986251 </v>
   <v>       0.67602869       0.08337936       0.81131438 </v>
   <v>       0.42249143       0.47497281       0.34373530 </v>
   <v>       0.11445672       0.34112704       0.03663388 </v>
   <v>       0.00300771       0.05009867       0.17935157 </v>
   <v>       0.74631552       0.91575837       0.44181006 </v>
   <v>       0.10808241       0.84847298       0.12395386 </v>
   <v>       0.92628940       0.34817479       0.69029581 </v>
   <v>       0.81344410       0.41886639       0.34564027 </v>
   <v>       0.35883651       0.38989872       0.54710389 </v>
   <v>       0.14903245       0.38906847       0.59928557 </v>
   <v>       0.71959220       0.45220211       0.90112455 </v>
   <v>       0.92674046       0.62974328       0.96035017 </v>
   <v>       0.67273791       0.40159922       0.12166317 </v>
   <v>       0.29959396       0.51691033       0.93176039 </v>
   <v>       0.43226137       0.59061067       0.71036853 </v>
   <v>       0.47572055       0.52532833       0.11753413 </v>
   <v>       0.16510122       0.19377320       0.44322737 </v>
   <v>       0.94839622       0.22036968       0.11525814 </v>
  </varray>
  <varray name="velocities" >
   <v>       0.00000000       0.00000000       0.00000000 </v>
   <v>       0.00000000       0.00000000       0.00000000 </v>
   <v>       0.00000000       0.00000000       0.00000000 </v>
   <v>       0.00000000       0.00000000       0.00000000 </v>
   <v>       0.00000000       0.00000000       0.00000000 </v>
   <v>       0.00000000       0.00000000       0.00000000 </v>
   <v>       0.00000000       0.00000000       0.00000000 </v>
   <v>       0.00000000       0.00000000       0.00000000 </v>
   <v>       0.00000000       0.00000000       0.00000000 </v>
   <v>       0.00000000       0.00000000       0.00000000 </v>
   <v>       0.00000000       0.00000000       0.00000000 </v>
   <v>       0.00000000       0.00000000       0.00000000 </v>
   <v>       0.00000000       0.00000000       0.00000000 </v>
   <v>       0.00000000       0.00000000       0.00000000 </v>
   <v>       0.00000000       0.00000000       0.00000000 </v>
   <v>       0.00000000       0.00000000       0.00000000 </v>
   <v>       0.00000000       0.00000000       0.00000000 </v>
   <v>       0.00000000       0.00000000       0.00000000 </v>
   <v>       0.00000000       0.00000000       0.00000000 </v>
   <v>       0.00000000       0.00000000       0.00000000 </v>
   <v>       0.00000000       0.00000000       0.00000000 </v>
   <v>       0.00000000       0.00000000       0.00000000 </v>
   <v>       0.00000000       0.00000000       0.00000000 </v>
   <v>       0.00000000       0.00000000       0.00000000 </v>
   <v>       0.00000000       0.00000000       0.00000000 </v>
   <v>       0.00000000       0.00000000       0.00000000 </v>
   <v>       0.00000000       0.00000000       0.00000000 </v>
   <v>       0.00000000       0.00000000       0.00000000 </v>
   <v>       0.00000000       0.00000000       0.00000000 </v>
   <v>       0.00000000       0.00000000       0.00000000 </v>
   <v>       0.00000000       0.00000000       0.00000000 </v>
   <v>       0.00000000       0.00000000       0.00000000 </v>
   <v>       0.00000000       0.00000000       0.00000000 </v>
   <v>       0.00000000       0.00000000       0.00000000 </v>
   <v>       0.00000000       0.00000000       0.00000000 </v>
   <v>       0.00000000       0.00000000       0.00000000 </v>
   <v>       0.00000000       0.00000000       0.00000000 </v>
   <v>       0.00000000       0.00000000       0.00000000 </v>
   <v>       0.00000000       0.00000000       0.00000000 </v>
   <v>       0.00000000       0.00000000       0.00000000 </v>
   <v>       0.00000000       0.00000000       0.00000000 </v>
   <v>       0.00000000       0.00000000       0.00000000 </v>
   <v>       0.00000000       0.00000000       0.00000000 </v>
   <v>       0.00000000       0.00000000       0.00000000 </v>
   <v>       0.00000000       0.00000000       0.00000000 </v>
   <v>       0.00000000       0.00000000       0.00000000 </v>
   <v>       0.00000000       0.00000000       0.00000000 </v>
   <v>       0.00000000       0.00000000       0.00000000 </v>
   <v>       0.00000000       0.00000000       0.00000000 </v>
   <v>       0.00000000       0.00000000       0.00000000 </v>
   <v>       0.00000000       0.00000000       0.00000000 </v>
   <v>       0.00000000       0.00000000       0.00000000 </v>
   <v>       0.00000000       0.00000000       0.00000000 </v>
   <v>       0.00000000       0.00000000       0.00000000 </v>
   <v>       0.00000000       0.00000000       0.00000000 </v>
   <v>       0.00000000       0.00000000       0.00000000 </v>
   <v>       0.00000000       0.00000000       0.00000000 </v>
   <v>       0.00000000       0.00000000       0.00000000 </v>
   <v>       0.00000000       0.00000000       0.00000000 </v>
   <v>       0.00000000       0.00000000       0.00000000 </v>
   <v>       0.00000000       0.00000000       0.00000000 </v>
   <v>       0.00000000       0.00000000       0.00000000 </v>
   <v>       0.00000000       0.00000000       0.00000000 </v>
   <v>       0.00000000       0.00000000       0.00000000 </v>
   <v>       0.00000000       0.00000000       0.00000000 </v>
   <v>       0.00000000       0.00000000       0.00000000 </v>
   <v>       0.00000000       0.00000000       0.00000000 </v>
   <v>       0.00000000       0.00000000       0.00000000 </v>
   <v>       0.00000000       0.00000000       0.00000000 </v>
   <v>       0.00000000       0.00000000       0.00000000 </v>
   <v>       0.00000000       0.00000000       0.00000000 </v>
   <v>       0.00000000       0.00000000       0.00000000 </v>
   <v>       0.00000000       0.00000000       0.00000000 </v>
   <v>       0.00000000       0.00000000       0.00000000 </v>
   <v>       0.00000000       0.00000000       0.00000000 </v>
   <v>       0.00000000       0.00000000       0.00000000 </v>
   <v>       0.00000000       0.00000000       0.00000000 </v>
   <v>       0.00000000       0.00000000       0.00000000 </v>
   <v>       0.00000000       0.00000000       0.00000000 </v>
   <v>       0.00000000       0.00000000       0.00000000 </v>
   <v>       0.00000000       0.00000000       0.00000000 </v>
   <v>       0.00000000       0.00000000       0.00000000 </v>
   <v>       0.00000000       0.00000000       0.00000000 </v>
   <v>       0.00000000       0.00000000       0.00000000 </v>
   <v>       0.00000000       0.00000000       0.00000000 </v>
   <v>       0.00000000       0.00000000       0.00000000 </v>
   <v>       0.00000000       0.00000000       0.00000000 </v>
   <v>       0.00000000       0.00000000       0.00000000 </v>
   <v>       0.00000000       0.00000000       0.00000000 </v>
   <v>       0.00000000       0.00000000       0.00000000 </v>
   <v>       0.00000000       0.00000000       0.00000000 </v>
   <v>       0.00000000       0.00000000       0.00000000 </v>
   <v>       0.00000000       0.00000000       0.00000000 </v>
   <v>       0.00000000       0.00000000       0.00000000 </v>
   <v>       0.00000000       0.00000000       0.00000000 </v>
   <v>       0.00000000       0.00000000       0.00000000 </v>
   <v>       0.00000000       0.00000000       0.00000000 </v>
   <v>       0.00000000       0.00000000       0.00000000 </v>
   <v>       0.00000000       0.00000000       0.00000000 </v>
   <v>       0.00000000       0.00000000       0.00000000 </v>
   <v>       0.00000000       0.00000000       0.00000000 </v>
   <v>       0.00000000       0.00000000       0.00000000 </v>
   <v>       0.00000000       0.00000000       0.00000000 </v>
   <v>       0.00000000       0.00000000       0.00000000 </v>
   <v>       0.00000000       0.00000000       0.00000000 </v>
   <v>       0.00000000       0.00000000       0.00000000 </v>
   <v>       0.00000000       0.00000000       0.00000000 </v>
   <v>       0.00000000       0.00000000       0.00000000 </v>
   <v>       0.00000000       0.00000000       0.00000000 </v>
   <v>       0.00000000       0.00000000       0.00000000 </v>
   <v>       0.00000000       0.00000000       0.00000000 </v>
   <v>       0.00000000       0.00000000       0.00000000 </v>
   <v>       0.00000000       0.00000000       0.00000000 </v>
   <v>       0.00000000       0.00000000       0.00000000 </v>
   <v>       0.00000000       0.00000000       0.00000000 </v>
   <v>       0.00000000       0.00000000       0.00000000 </v>
   <v>       0.00000000       0.00000000       0.00000000 </v>
   <v>       0.00000000       0.00000000       0.00000000 </v>
   <v>       0.00000000       0.00000000       0.00000000 </v>
   <v>       0.00000000       0.00000000       0.00000000 </v>
   <v>       0.00000000       0.00000000       0.00000000 </v>
   <v>       0.00000000       0.00000000       0.00000000 </v>
   <v>       0.00000000       0.00000000       0.00000000 </v>
   <v>       0.00000000       0.00000000       0.00000000 </v>
   <v>       0.00000000       0.00000000       0.00000000 </v>
   <v>       0.00000000       0.00000000       0.00000000 </v>
   <v>       0.00000000       0.00000000       0.00000000 </v>
   <v>       0.00000000       0.00000000       0.00000000 </v>
   <v>       0.00000000       0.00000000       0.00000000 </v>
   <v>       0.00000000       0.00000000       0.00000000 </v>
   <v>       0.00000000       0.00000000       0.00000000 </v>
   <v>       0.00000000       0.00000000       0.00000000 </v>
   <v>       0.00000000       0.00000000       0.00000000 </v>
   <v>       0.00000000       0.00000000       0.00000000 </v>
   <v>       0.00000000       0.00000000       0.00000000 </v>
  </varray>
 </structure>
</modeling>
