 running on   52 total cores
 distrk:  each k-point on   52 cores,    1 groups
 distr:  one band on   13 cores,    4 groups
 using from now: INCAR     
 vasp.5.4.4.18Apr17-6-g9f103f2a35 (build Oct 31 2019 15:01:46) complex          
  
 POSCAR found type information on POSCAR  Sc F  C 
 POSCAR found :  3 types and      80 ions
 scaLAPACK is switched off
 LDA part: xc-table for Pade appr. of Perdew
 generate k-points for:    3    3    1
 POSCAR, INCAR and KPOINTS ok, starting setup
 FFT: planning ...
 WAVECAR not read
 entering main loop
       N       E                     dE             d eps       ncg     rms          rms(c)
DAV:   1     0.136882110746E+05    0.13688E+05   -0.27868E+05  4224   0.156E+03
DAV:   2     0.248580508859E+04   -0.11202E+05   -0.10901E+05  4640   0.534E+02
DAV:   3    -0.385898838946E+03   -0.28717E+04   -0.27571E+04  6800   0.294E+02
DAV:   4    -0.741524320549E+03   -0.35563E+03   -0.35146E+03  6072   0.138E+02
DAV:   5    -0.755748232278E+03   -0.14224E+02   -0.14168E+02  6080   0.348E+01    0.767E+01
DAV:   6    -0.599799181413E+03    0.15595E+03   -0.83867E+02  5656   0.642E+01    0.250E+01
DAV:   7    -0.599866307180E+03   -0.67126E-01   -0.52880E+01  5920   0.210E+01    0.163E+01
DAV:   8    -0.598254287487E+03    0.16120E+01   -0.10686E+01  5592   0.750E+00    0.448E+00
DAV:   9    -0.597710024320E+03    0.54426E+00   -0.32108E+00  5496   0.506E+00    0.216E+00
DAV:  10    -0.597673079195E+03    0.36945E-01   -0.23169E-01  5864   0.161E+00    0.108E+00
DAV:  11    -0.597534068414E+03    0.13901E+00   -0.18534E-01  5560   0.100E+00    0.721E-01
DAV:  12    -0.597513252885E+03    0.20816E-01   -0.47493E-02  5936   0.593E-01    0.322E-01
DAV:  13    -0.597503601852E+03    0.96510E-02   -0.38004E-02  5552   0.440E-01    0.333E-01
DAV:  14    -0.597501853497E+03    0.17484E-02   -0.17999E-02  5568   0.314E-01    0.162E-01
DAV:  15    -0.597507936882E+03   -0.60834E-02   -0.77965E-03  5688   0.215E-01    0.115E-01
DAV:  16    -0.597511993428E+03   -0.40565E-02   -0.26054E-03  5408   0.144E-01    0.775E-02
DAV:  17    -0.597516578557E+03   -0.45851E-02   -0.17646E-03  6056   0.933E-02    0.805E-02
DAV:  18    -0.597520163114E+03   -0.35846E-02   -0.92474E-04  5384   0.764E-02    0.401E-02
DAV:  19    -0.597521954606E+03   -0.17915E-02   -0.28278E-04  5928   0.404E-02    0.194E-02
DAV:  20    -0.597525184907E+03   -0.32303E-02   -0.14721E-04  5200   0.226E-02    0.206E-02
DAV:  21    -0.597527190950E+03   -0.20060E-02   -0.10363E-04  4888   0.166E-02    0.990E-03
DAV:  22    -0.597528349380E+03   -0.11584E-02   -0.89941E-05  4616   0.146E-02    0.846E-03
DAV:  23    -0.597528713367E+03   -0.36399E-03   -0.13574E-05  4632   0.975E-03    0.485E-03
DAV:  24    -0.597529009773E+03   -0.29641E-03   -0.12401E-05  4440   0.566E-03    0.291E-03
DAV:  25    -0.597529187192E+03   -0.17742E-03   -0.43185E-06  3848   0.354E-03    0.148E-03
DAV:  26    -0.597529259782E+03   -0.72590E-04   -0.17488E-06  3088   0.249E-03    0.129E-03
DAV:  27    -0.597529284419E+03   -0.24637E-04   -0.41287E-07  2640   0.222E-03    0.103E-03
DAV:  28    -0.597529307856E+03   -0.23437E-04   -0.56800E-07  2872   0.159E-03    0.723E-04
DAV:  29    -0.597529313189E+03   -0.53330E-05   -0.28700E-07  2616   0.178E-03    0.790E-04
DAV:  30    -0.597529317726E+03   -0.45371E-05   -0.26069E-07  2560   0.123E-03    0.943E-04
DAV:  31    -0.597529320237E+03   -0.25115E-05   -0.14568E-07  2632   0.137E-03    0.760E-04
DAV:  32    -0.597529320703E+03   -0.46527E-06   -0.86940E-08  2496   0.728E-04
   1 F= -.59752932E+03 E0= -.59752932E+03  d E =-.734016E-20
