<?xml version="1.0" encoding="ISO-8859-1"?>
<modeling>
 <generator>
  <i name="program" type="string">vasp </i>
  <i name="version" type="string">5.4.4.18Apr17-6-g9f103f2a35  </i>
  <i name="subversion" type="string">(build Oct 31 2019 15:01:46) complex            parallel </i>
  <i name="platform" type="string">LinuxIFC </i>
  <i name="date" type="string">2024 04 19 </i>
  <i name="time" type="string">07:09:06 </i>
 </generator>
 <incar>
  <i type="int" name="ISTART">     0</i>
  <i type="string" name="PREC">anormal</i>
  <i type="logical" name="ADDGRID"> T  </i>
  <i type="int" name="IBRION">    -1</i>
  <i name="EDIFF">      0.00000100</i>
  <i name="EDIFFG">     -0.01000000</i>
  <i type="int" name="NSW">     1</i>
  <i type="int" name="ISIF">     2</i>
  <i type="int" name="ISYM">     2</i>
  <i name="ENCUT">    600.00000000</i>
  <i name="POTIM">      1.00000000</i>
  <i type="string" name="LREAL"> Auto.</i>
  <i type="int" name="ISMEAR">     0</i>
  <i name="SIGMA">      0.05000000</i>
  <i name="KSPACING">      0.25000000</i>
  <i type="logical" name="LWAVE"> F  </i>
  <i type="logical" name="LCHARG"> F  </i>
  <i type="logical" name="LSCALAPACK"> F  </i>
  <v type="int" name="KPOINT_BSE">    -1     0     0     0</v>
 </incar>
 <structure name="primitive_cell" >
  <crystal>
   <varray name="basis" >
    <v>      13.12862340       0.00000000       0.00000000 </v>
    <v>      -6.56431170      11.36972138       0.00000000 </v>
    <v>       0.00000000       0.00000000      26.82809424 </v>
   </varray>
   <i name="volume">   4004.59716953 </i>
   <varray name="rec_basis" >
    <v>       0.07616945       0.04397645       0.00000000 </v>
    <v>       0.00000000       0.08795290       0.00000000 </v>
    <v>       0.00000000       0.00000000       0.03727436 </v>
   </varray>
  </crystal>
  <varray name="positions" >
   <v>       0.07976635       0.16793082       0.45691096 </v>
   <v>      -0.00161651       0.24889772       0.49990287 </v>
   <v>       0.23809415       0.24303866      -0.49727243 </v>
   <v>      -0.08566213       0.08024215       0.41085459 </v>
   <v>       0.00727250       0.00279286      -0.49641210 </v>
   <v>       0.16796263       0.33638207       0.41102624 </v>
   <v>       0.18025181       0.08590498       0.40928218 </v>
   <v>       0.16344107       0.32538058      -0.45032767 </v>
   <v>      -0.08867048       0.08016891      -0.45165800 </v>
   <v>       0.16919455       0.08218599      -0.44883561 </v>
   <v>       0.08741573       0.41660474       0.45117503 </v>
   <v>       0.33199452       0.41155839       0.45049548 </v>
   <v>      -0.16884718       0.16776904       0.45401235 </v>
   <v>      -0.17039024      -0.08034353       0.45342581 </v>
   <v>       0.08226242      -0.08805688       0.45283726 </v>
   <v>       0.34057000       0.16125495       0.45497851 </v>
   <v>       0.10133522       0.17742798      -0.40600808 </v>
   <v>       0.40406411       0.31596294       0.41396152 </v>
   <v>      -0.24565183       0.00972805      -0.49689367 </v>
   <v>      -0.08503037       0.33406659       0.41229668 </v>
   <v>       0.25330720      -0.49829263       0.49795412 </v>
   <v>      -0.09349649      -0.16661840       0.40893234 </v>
   <v>       0.25567483       0.00248758      -0.49790453 </v>
   <v>      -0.08647267       0.33670684      -0.45541420 </v>
   <v>       0.41206485       0.32964799      -0.45331018 </v>
   <v>      -0.07798630      -0.16311721      -0.45243623 </v>
   <v>       0.32999361       0.41294924      -0.41386113 </v>
   <v>      -0.15736503       0.17558527      -0.40859369 </v>
   <v>      -0.17587124      -0.08990276      -0.41036912 </v>
   <v>       0.09430814       0.44283238      -0.41322583 </v>
   <v>       0.07904257      -0.08618735      -0.40341787 </v>
   <v>       0.49127236       0.48994482      -0.49920632 </v>
   <v>       0.16121904      -0.42922302       0.40027851 </v>
   <v>      -0.24912185       0.25034254       0.49973974 </v>
   <v>       0.35001416       0.16884616      -0.40663355 </v>
   <v>      -0.00758963      -0.24622149      -0.49951881 </v>
   <v>      -0.33033044      -0.17096078       0.41275651 </v>
   <v>      -0.00060385      -0.49646497       0.49670408 </v>
   <v>      -0.33659586       0.07744180       0.40906945 </v>
   <v>      -0.24853256      -0.25143346       0.49934720 </v>
   <v>       0.42122157      -0.42025191       0.40860900 </v>
   <v>      -0.49909603       0.25180420      -0.49887141 </v>
   <v>       0.42571950       0.08590437       0.41023169 </v>
   <v>       0.17112594      -0.17345555       0.40582195 </v>
   <v>       0.40921474      -0.42345053      -0.45314615 </v>
   <v>      -0.33050201       0.08292109      -0.45138273 </v>
   <v>       0.16704172      -0.41564610      -0.45633647 </v>
   <v>      -0.16559292      -0.32076483       0.45209316 </v>
   <v>      -0.34060348      -0.16422966      -0.45226745 </v>
   <v>       0.17298219      -0.16194165      -0.45246087 </v>
   <v>      -0.42101646       0.42171449       0.45212857 </v>
   <v>       0.34026776      -0.33267165       0.45387711 </v>
   <v>       0.42054625       0.08595470      -0.44888742 </v>
   <v>      -0.42181354      -0.08539582       0.45219670 </v>
   <v>      -0.17397304       0.41802329       0.44725099 </v>
   <v>       0.33433055      -0.08661083       0.45056216 </v>
   <v>      -0.40999669       0.16567223       0.45362177 </v>
   <v>       0.08800259      -0.33536180       0.44932580 </v>
   <v>      -0.42021534      -0.33548708       0.45522245 </v>
   <v>      -0.17545383      -0.33234380      -0.41437578 </v>
   <v>      -0.42173682      -0.08848779      -0.41148880 </v>
   <v>       0.33263990      -0.33243322      -0.40862388 </v>
   <v>      -0.16307546       0.42461256      -0.40856884 </v>
   <v>      -0.41366671       0.41361102      -0.41307827 </v>
   <v>      -0.34856310      -0.41892781       0.40836274 </v>
   <v>       0.25207845      -0.25150421       0.49671038 </v>
   <v>       0.33359684      -0.08774223      -0.40559280 </v>
   <v>      -0.49753118       0.00533917      -0.49981906 </v>
   <v>      -0.49766214      -0.25227707       0.49985892 </v>
   <v>      -0.34018294       0.32930924       0.41347075 </v>
   <v>      -0.09813903      -0.42379182       0.40989866 </v>
   <v>      -0.08569400      -0.42234350      -0.45708955 </v>
   <v>      -0.32948033      -0.41020570      -0.45295075 </v>
   <v>      -0.33377181       0.33817141      -0.45447033 </v>
   <v>      -0.39927454       0.17160379      -0.40937797 </v>
   <v>       0.10132607      -0.32056034      -0.41288337 </v>
   <v>      -0.42038209      -0.32682391      -0.41044214 </v>
   <v>       0.42115001      -0.16353154       0.41171847 </v>
   <v>      -0.25398310       0.49471570       0.49733175 </v>
   <v>       0.41417734      -0.16742150      -0.44959474 </v>
  </varray>
 </structure>
 <varray name="primitive_index" >
  <v type="int" >        1 </v>
  <v type="int" >       66 </v>
  <v type="int" >       70 </v>
  <v type="int" >       61 </v>
  <v type="int" >       65 </v>
  <v type="int" >       50 </v>
  <v type="int" >       49 </v>
  <v type="int" >       18 </v>
  <v type="int" >       29 </v>
  <v type="int" >       17 </v>
  <v type="int" >        2 </v>
  <v type="int" >        6 </v>
  <v type="int" >       13 </v>
  <v type="int" >       16 </v>
  <v type="int" >        4 </v>
  <v type="int" >        5 </v>
  <v type="int" >       33 </v>
  <v type="int" >       54 </v>
  <v type="int" >       77 </v>
  <v type="int" >       62 </v>
  <v type="int" >       71 </v>
  <v type="int" >       64 </v>
  <v type="int" >       69 </v>
  <v type="int" >       30 </v>
  <v type="int" >       22 </v>
  <v type="int" >       32 </v>
  <v type="int" >       38 </v>
  <v type="int" >       45 </v>
  <v type="int" >       48 </v>
  <v type="int" >       34 </v>
  <v type="int" >       36 </v>
  <v type="int" >       75 </v>
  <v type="int" >       51 </v>
  <v type="int" >       78 </v>
  <v type="int" >       37 </v>
  <v type="int" >       68 </v>
  <v type="int" >       60 </v>
  <v type="int" >       67 </v>
  <v type="int" >       57 </v>
  <v type="int" >       80 </v>
  <v type="int" >       55 </v>
  <v type="int" >       74 </v>
  <v type="int" >       53 </v>
  <v type="int" >       52 </v>
  <v type="int" >       23 </v>
  <v type="int" >       25 </v>
  <v type="int" >       19 </v>
  <v type="int" >       15 </v>
  <v type="int" >       28 </v>
  <v type="int" >       20 </v>
  <v type="int" >       10 </v>
  <v type="int" >        7 </v>
  <v type="int" >       21 </v>
  <v type="int" >       12 </v>
  <v type="int" >       14 </v>
  <v type="int" >        8 </v>
  <v type="int" >        9 </v>
  <v type="int" >        3 </v>
  <v type="int" >       11 </v>
  <v type="int" >       47 </v>
  <v type="int" >       44 </v>
  <v type="int" >       39 </v>
  <v type="int" >       46 </v>
  <v type="int" >       42 </v>
  <v type="int" >       59 </v>
  <v type="int" >       72 </v>
  <v type="int" >       40 </v>
  <v type="int" >       73 </v>
  <v type="int" >       76 </v>
  <v type="int" >       58 </v>
  <v type="int" >       63 </v>
  <v type="int" >       31 </v>
  <v type="int" >       27 </v>
  <v type="int" >       26 </v>
  <v type="int" >       41 </v>
  <v type="int" >       35 </v>
  <v type="int" >       43 </v>
  <v type="int" >       56 </v>
  <v type="int" >       79 </v>
  <v type="int" >       24 </v>
 </varray>
 <kpoints>
  <generation param="Gamma">
   <v type="int" name="divisions">       3        3        1 </v>
   <v name="usershift">      0.00000000       0.00000000       0.00000000 </v>
   <v name="genvec1">      0.33333333       0.00000000       0.00000000 </v>
   <v name="genvec2">      0.00000000       0.33333333       0.00000000 </v>
   <v name="genvec3">      0.00000000       0.00000000       1.00000000 </v>
   <v name="shift">      0.00000000       0.00000000       0.00000000 </v>
  </generation>
  <varray name="kpointlist" >
   <v>       0.00000000       0.00000000       0.00000000 </v>
   <v>       0.33333333      -0.00000000       0.00000000 </v>
   <v>       0.00000000       0.33333333       0.00000000 </v>
   <v>       0.33333333       0.33333333       0.00000000 </v>
   <v>      -0.33333333       0.33333333       0.00000000 </v>
  </varray>
  <varray name="weights" >
   <v>       0.11111111 </v>
   <v>       0.22222222 </v>
   <v>       0.22222222 </v>
   <v>       0.22222222 </v>
   <v>       0.22222222 </v>
  </varray>
 </kpoints>
 <parameters>
  <separator name="general" >
   <i type="string" name="SYSTEM">unknown system</i>
   <i type="logical" name="LCOMPAT"> F  </i>
  </separator>
  <separator name="electronic" >
   <i type="string" name="PREC">anorma</i>
   <i name="ENMAX">    600.00000000</i>
   <i name="ENAUG">    644.87300000</i>
   <i name="EDIFF">      0.00000100</i>
   <i type="int" name="IALGO">    38</i>
   <i type="int" name="IWAVPR">    10</i>
   <i type="int" name="NBANDS">   384</i>
   <i name="NELECT">    640.00000000</i>
   <i type="int" name="TURBO">     0</i>
   <i type="int" name="IRESTART">     0</i>
   <i type="int" name="NREBOOT">     0</i>
   <i type="int" name="NMIN">     0</i>
   <i name="EREF">      0.00000000</i>
   <separator name="electronic smearing" >
    <i type="int" name="ISMEAR">     0</i>
    <i name="SIGMA">      0.05000000</i>
    <i name="KSPACING">      0.25000000</i>
    <i type="logical" name="KGAMMA"> T  </i>
   </separator>
   <separator name="electronic projectors" >
    <i type="logical" name="LREAL"> T  </i>
    <v name="ROPT">     -0.00025000     -0.00025000     -0.00025000</v>
    <i type="int" name="LMAXPAW">  -100</i>
    <i type="int" name="LMAXMIX">     2</i>
    <i type="logical" name="NLSPLINE"> F  </i>
   </separator>
   <separator name="electronic startup" >
    <i type="int" name="ISTART">     0</i>
    <i type="int" name="ICHARG">     2</i>
    <i type="int" name="INIWAV">     1</i>
   </separator>
   <separator name="electronic spin" >
    <i type="int" name="ISPIN">     1</i>
    <i type="logical" name="LNONCOLLINEAR"> F  </i>
    <v name="MAGMOM">      1.00000000      1.00000000      1.00000000      1.00000000      1.00000000      1.00000000      1.00000000      1.00000000      1.00000000      1.00000000      1.00000000      1.00000000      1.00000000      1.00000000      1.00000000      1.00000000      1.00000000      1.00000000      1.00000000      1.00000000
      1.00000000      1.00000000      1.00000000      1.00000000      1.00000000      1.00000000      1.00000000      1.00000000      1.00000000      1.00000000      1.00000000      1.00000000      1.00000000      1.00000000      1.00000000      1.00000000      1.00000000      1.00000000      1.00000000      1.00000000
      1.00000000      1.00000000      1.00000000      1.00000000      1.00000000      1.00000000      1.00000000      1.00000000      1.00000000      1.00000000      1.00000000      1.00000000      1.00000000      1.00000000      1.00000000      1.00000000      1.00000000      1.00000000      1.00000000      1.00000000
      1.00000000      1.00000000      1.00000000      1.00000000      1.00000000      1.00000000      1.00000000      1.00000000      1.00000000      1.00000000      1.00000000      1.00000000      1.00000000      1.00000000      1.00000000      1.00000000      1.00000000      1.00000000      1.00000000      1.00000000
</v>
    <i name="NUPDOWN">     -1.00000000</i>
    <i type="logical" name="LSORBIT"> F  </i>
    <v name="SAXIS">      0.00000000      0.00000000      1.00000000</v>
    <i type="logical" name="LSPIRAL"> F  </i>
    <v name="QSPIRAL">      0.00000000      0.00000000      0.00000000</v>
    <i type="logical" name="LZEROZ"> F  </i>
   </separator>
   <separator name="electronic exchange-correlation" >
    <i type="logical" name="LASPH"> F  </i>
    <i type="logical" name="LMETAGGA"> F  </i>
   </separator>
   <separator name="electronic convergence" >
    <i type="int" name="NELM">    60</i>
    <i type="int" name="NELMDL">    -5</i>
    <i type="int" name="NELMIN">     2</i>
    <i name="ENINI">    600.00000000</i>
    <separator name="electronic convergence detail" >
     <i type="logical" name="LDIAG"> T  </i>
     <i type="logical" name="LSUBROT"> F  </i>
     <i name="WEIMIN">      0.00000000</i>
     <i name="EBREAK">      0.00000000</i>
     <i name="DEPER">      0.30000000</i>
     <i type="int" name="NRMM">     4</i>
     <i name="TIME">      0.40000000</i>
    </separator>
   </separator>
   <separator name="electronic mixer" >
    <i name="AMIX">      0.40000000</i>
    <i name="BMIX">      1.00000000</i>
    <i name="AMIN">      0.10000000</i>
    <i name="AMIX_MAG">      1.60000000</i>
    <i name="BMIX_MAG">      1.00000000</i>
    <separator name="electronic mixer details" >
     <i type="int" name="IMIX">     4</i>
     <i type="logical" name="MIXFIRST"> F  </i>
     <i type="int" name="MAXMIX">   -45</i>
     <i name="WC">    100.00000000</i>
     <i type="int" name="INIMIX">     1</i>
     <i type="int" name="MIXPRE">     1</i>
     <i type="int" name="MREMOVE">     5</i>
    </separator>
   </separator>
   <separator name="electronic dipolcorrection" >
    <i type="logical" name="LDIPOL"> F  </i>
    <i type="logical" name="LMONO"> F  </i>
    <i type="int" name="IDIPOL">     0</i>
    <i name="EPSILON">      1.00000000</i>
    <v name="DIPOL">   -100.00000000   -100.00000000   -100.00000000</v>
    <i name="EFIELD">      0.00000000</i>
   </separator>
  </separator>
  <separator name="grids" >
   <i type="int" name="NGX">   108</i>
   <i type="int" name="NGY">   108</i>
   <i type="int" name="NGZ">   216</i>
   <i type="int" name="NGXF">   216</i>
   <i type="int" name="NGYF">   216</i>
   <i type="int" name="NGZF">   432</i>
   <i type="logical" name="ADDGRID"> T  </i>
  </separator>
  <separator name="ionic" >
   <i type="int" name="NSW">     1</i>
   <i type="int" name="IBRION">    -1</i>
   <i type="int" name="MDALGO">     0</i>
   <i type="int" name="ISIF">     2</i>
   <i name="PSTRESS">      0.00000000</i>
   <i name="EDIFFG">     -0.01000000</i>
   <i type="int" name="NFREE">     0</i>
   <i name="POTIM">      1.00000000</i>
   <i name="SMASS">     -3.00000000</i>
   <i name="SCALEE">      1.00000000</i>
  </separator>
  <separator name="ionic md" >
   <i name="TEBEG">      0.00010000</i>
   <i name="TEEND">      0.00010000</i>
   <i type="int" name="NBLOCK">     1</i>
   <i type="int" name="KBLOCK">     1</i>
   <i type="int" name="NPACO">   256</i>
   <i name="APACO">     16.00000000</i>
  </separator>
  <separator name="symmetry" >
   <i type="int" name="ISYM">     2</i>
   <i name="SYMPREC">      0.00001000</i>
  </separator>
  <separator name="dos" >
   <i type="int" name="LORBIT">     0</i>
   <v name="RWIGS">     -1.00000000     -1.00000000     -1.00000000</v>
   <i type="int" name="NEDOS">   301</i>
   <i name="EMIN">     10.00000000</i>
   <i name="EMAX">    -10.00000000</i>
   <i name="EFERMI">      0.00000000</i>
  </separator>
  <separator name="writing" >
   <i type="int" name="NWRITE">     2</i>
   <i type="logical" name="LWAVE"> F  </i>
   <i type="logical" name="LDOWNSAMPLE"> F  </i>
   <i type="logical" name="LCHARG"> F  </i>
   <i type="logical" name="LPARD"> F  </i>
   <i type="logical" name="LVTOT"> F  </i>
   <i type="logical" name="LVHAR"> F  </i>
   <i type="logical" name="LELF"> F  </i>
   <i type="logical" name="LOPTICS"> F  </i>
   <v name="STM">      0.00000000      0.00000000      0.00000000      0.00000000      0.00000000      0.00000000      0.00000000</v>
  </separator>
  <separator name="performance" >
   <i type="int" name="NPAR">     4</i>
   <i type="int" name="NSIM">     4</i>
   <i type="int" name="NBLK">    -1</i>
   <i type="logical" name="LPLANE"> T  </i>
   <i type="logical" name="LSCALAPACK"> F  </i>
   <i type="logical" name="LSCAAWARE"> F  </i>
   <i type="logical" name="LSCALU"> F  </i>
   <i type="logical" name="LASYNC"> F  </i>
   <i type="logical" name="LORBITALREAL"> F  </i>
  </separator>
  <separator name="miscellaneous" >
   <i type="int" name="IDIOT">     3</i>
   <i type="int" name="ISPECIAL">     0</i>
   <i type="logical" name="LMUSIC"> F  </i>
   <v name="POMASS">     44.95600000     18.99800000     12.01100000</v>
   <v name="DARWINR">      0.00000000      0.00000000      0.00000000</v>
   <v name="DARWINV">      1.00000000      1.00000000      1.00000000</v>
   <i type="logical" name="LCORR"> T  </i>
  </separator>
  <i type="logical" name="GGA_COMPAT"> T  </i>
  <i type="logical" name="LBERRY"> F  </i>
  <i type="int" name="ICORELEVEL">     0</i>
  <i type="logical" name="LDAU"> F  </i>
  <i type="int" name="I_CONSTRAINED_M">     0</i>
  <separator name="electronic exchange-correlation" >
   <i type="string" name="GGA">--</i>
   <i type="int" name="VOSKOWN">     0</i>
   <i type="logical" name="LHFCALC"> F  </i>
   <i type="string" name="PRECFOCK"></i>
   <i type="logical" name="LSYMGRAD"> F  </i>
   <i type="logical" name="LHFONE"> F  </i>
   <i type="logical" name="LRHFCALC"> F  </i>
   <i type="logical" name="LTHOMAS"> F  </i>
   <i type="logical" name="LMODELHF"> F  </i>
   <i name="ENCUT4O">     -1.00000000</i>
   <i type="int" name="EXXOEP">     0</i>
   <i type="int" name="FOURORBIT">     0</i>
   <i name="AEXX">      0.00000000</i>
   <i name="HFALPHA">      0.00000000</i>
   <i name="MCALPHA">      0.00000000</i>
   <i name="ALDAX">      1.00000000</i>
   <i name="AGGAX">      1.00000000</i>
   <i name="ALDAC">      1.00000000</i>
   <i name="AGGAC">      1.00000000</i>
   <i type="int" name="NKREDX">     1</i>
   <i type="int" name="NKREDY">     1</i>
   <i type="int" name="NKREDZ">     1</i>
   <i type="logical" name="SHIFTRED"> F  </i>
   <i type="logical" name="ODDONLY"> F  </i>
   <i type="logical" name="EVENONLY"> F  </i>
   <i type="int" name="LMAXFOCK">     0</i>
   <i type="int" name="NMAXFOCKAE">     0</i>
   <i type="logical" name="LFOCKAEDFT"> F  </i>
   <i name="HFSCREEN">      0.00000000</i>
   <i name="HFSCREENC">      0.00000000</i>
   <i type="int" name="NBANDSGWLOW">     0</i>
  </separator>
  <separator name="vdW DFT" >
   <i type="logical" name="LUSE_VDW"> F  </i>
   <i name="Zab_VDW">     -0.84910000</i>
   <i name="PARAM1">      0.12340000</i>
   <i name="PARAM2">      1.00000000</i>
   <i name="PARAM3">      0.00000000</i>
  </separator>
  <separator name="model GW" >
   <i type="int" name="MODEL_GW">     0</i>
   <i name="MODEL_EPS0">     30.03447877</i>
   <i name="MODEL_ALPHA">      1.00000000</i>
  </separator>
  <separator name="linear response parameters" >
   <i type="logical" name="LEPSILON"> F  </i>
   <i type="logical" name="LRPA"> F  </i>
   <i type="logical" name="LNABLA"> F  </i>
   <i type="logical" name="LVEL"> F  </i>
   <i type="int" name="KINTER">     0</i>
   <i name="CSHIFT">      0.10000000</i>
   <i name="OMEGAMAX">     -1.00000000</i>
   <i name="DEG_THRESHOLD">      0.00200000</i>
   <i name="RTIME">     -0.10000000</i>
   <i name="WPLASMAI">      0.00000000</i>
   <v name="DFIELD">      0.00000000      0.00000000      0.00000000</v>
   <v name="WPLASMA">      0.00000000      0.00000000      0.00000000      0.00000000      0.00000000      0.00000000      0.00000000      0.00000000      0.00000000</v>
  </separator>
  <separator name="orbital magnetization" >
   <i type="logical" name="NUCIND"> F  </i>
   <v name="MAGPOS">      0.00000000      0.00000000      0.00000000</v>
   <i type="logical" name="LNICSALL"> T  </i>
   <i type="logical" name="ORBITALMAG"> F  </i>
   <i type="logical" name="LMAGBLOCH"> F  </i>
   <i type="logical" name="LCHIMAG"> F  </i>
   <i type="logical" name="LGAUGE"> T  </i>
   <i type="int" name="MAGATOM">     0</i>
   <v name="MAGDIPOL">      0.00000000      0.00000000      0.00000000</v>
   <v name="AVECCONST">      0.00000000      0.00000000      0.00000000</v>
  </separator>
  <separator name="response functions" >
   <i type="logical" name="LADDER"> F  </i>
   <i type="logical" name="LRPAFORCE"> F  </i>
   <i type="logical" name="LFXC"> F  </i>
   <i type="logical" name="LHARTREE"> T  </i>
   <i type="int" name="IBSE">     0</i>
   <v type="int" name="KPOINT">    -1     0     0     0</v>
   <i type="logical" name="LTCTE"> F  </i>
   <i type="logical" name="LTETE"> F  </i>
   <i type="logical" name="LTRIPLET"> F  </i>
   <i type="logical" name="LFXCEPS"> F  </i>
   <i type="logical" name="LFXHEG"> F  </i>
   <i type="int" name="NATURALO">     2</i>
   <i type="logical" name="L2ORDER"> F  </i>
   <i type="logical" name="LMP2LT"> F  </i>
   <i type="logical" name="LUSEW"> F  </i>
   <i name="ENCUTGW">     -2.00000000</i>
   <i name="ENCUTGWSOFT">     -2.00000000</i>
   <i name="ENCUTLF">     -1.00000000</i>
   <i type="int" name="LMAXMP2">    -1</i>
   <i name="SCISSOR">      0.00000000</i>
   <i type="int" name="NOMEGA">     0</i>
   <i type="int" name="NOMEGAR">     0</i>
   <i type="int" name="NBANDSGW">    -1</i>
   <i type="int" name="NBANDSO">    -1</i>
   <i type="int" name="NBANDSV">    -1</i>
   <i type="int" name="NELM">     1</i>
   <i type="int" name="NELMHF">     1</i>
   <i type="int" name="DIM">     3</i>
   <i type="int" name="ANTIRES">     0</i>
   <i name="OMEGAMAX">    -30.00000000</i>
   <i name="OMEGAMIN">    -30.00000000</i>
   <i name="OMEGATL">   -200.00000000</i>
   <i type="int" name="OMEGAGRID">   140</i>
   <i name="CSHIFT">     -0.10000000</i>
   <i type="logical" name="SELFENERGY"> F  </i>
   <i type="logical" name="LSPECTRAL"> F  </i>
   <i type="logical" name="LSPECTRALGW"> F  </i>
   <i type="logical" name="LSINGLES"> F  </i>
   <i type="logical" name="LFERMIGW"> F  </i>
   <i type="logical" name="ODDONLYGW"> F  </i>
   <i type="logical" name="EVENONLYGW"> F  </i>
   <i type="int" name="NKREDLFX">     1</i>
   <i type="int" name="NKREDLFY">     1</i>
   <i type="int" name="NKREDLFZ">     1</i>
   <i type="int" name="MAXMEM">  2800</i>
   <i type="int" name="TELESCOPE">     0</i>
   <i type="int" name="TAUPAR">     1</i>
   <i type="int" name="OMEGAPAR">    -1</i>
   <i name="LAMBDA">      1.00000000</i>
  </separator>
  <separator name="External order field" >
   <i name="OFIELD_KAPPA">      0.00000000</i>
   <v name="OFIELD_K">      0.00000000      0.00000000      0.00000000</v>
   <i name="OFIELD_Q6_NEAR">      0.00000000</i>
   <i name="OFIELD_Q6_FAR">      0.00000000</i>
   <i name="OFIELD_A">      0.00000000</i>
  </separator>
 </parameters>
 <atominfo>
  <atoms>      80 </atoms>
  <types>       3 </types>
  <array name="atoms" >
   <dimension dim="1">ion</dimension>
   <field type="string">element</field>
   <field type="int">atomtype</field>
   <set>
    <rc><c>Sc</c><c>   1</c></rc>
    <rc><c>Sc</c><c>   1</c></rc>
    <rc><c>Sc</c><c>   1</c></rc>
    <rc><c>Sc</c><c>   1</c></rc>
    <rc><c>Sc</c><c>   1</c></rc>
    <rc><c>Sc</c><c>   1</c></rc>
    <rc><c>Sc</c><c>   1</c></rc>
    <rc><c>Sc</c><c>   1</c></rc>
    <rc><c>Sc</c><c>   1</c></rc>
    <rc><c>Sc</c><c>   1</c></rc>
    <rc><c>Sc</c><c>   1</c></rc>
    <rc><c>Sc</c><c>   1</c></rc>
    <rc><c>Sc</c><c>   1</c></rc>
    <rc><c>Sc</c><c>   1</c></rc>
    <rc><c>Sc</c><c>   1</c></rc>
    <rc><c>Sc</c><c>   1</c></rc>
    <rc><c>Sc</c><c>   1</c></rc>
    <rc><c>Sc</c><c>   1</c></rc>
    <rc><c>Sc</c><c>   1</c></rc>
    <rc><c>Sc</c><c>   1</c></rc>
    <rc><c>Sc</c><c>   1</c></rc>
    <rc><c>Sc</c><c>   1</c></rc>
    <rc><c>Sc</c><c>   1</c></rc>
    <rc><c>Sc</c><c>   1</c></rc>
    <rc><c>Sc</c><c>   1</c></rc>
    <rc><c>Sc</c><c>   1</c></rc>
    <rc><c>Sc</c><c>   1</c></rc>
    <rc><c>Sc</c><c>   1</c></rc>
    <rc><c>Sc</c><c>   1</c></rc>
    <rc><c>Sc</c><c>   1</c></rc>
    <rc><c>Sc</c><c>   1</c></rc>
    <rc><c>Sc</c><c>   1</c></rc>
    <rc><c>F </c><c>   2</c></rc>
    <rc><c>F </c><c>   2</c></rc>
    <rc><c>F </c><c>   2</c></rc>
    <rc><c>F </c><c>   2</c></rc>
    <rc><c>F </c><c>   2</c></rc>
    <rc><c>F </c><c>   2</c></rc>
    <rc><c>F </c><c>   2</c></rc>
    <rc><c>F </c><c>   2</c></rc>
    <rc><c>F </c><c>   2</c></rc>
    <rc><c>F </c><c>   2</c></rc>
    <rc><c>F </c><c>   2</c></rc>
    <rc><c>F </c><c>   2</c></rc>
    <rc><c>F </c><c>   2</c></rc>
    <rc><c>F </c><c>   2</c></rc>
    <rc><c>F </c><c>   2</c></rc>
    <rc><c>F </c><c>   2</c></rc>
    <rc><c>F </c><c>   2</c></rc>
    <rc><c>F </c><c>   2</c></rc>
    <rc><c>F </c><c>   2</c></rc>
    <rc><c>F </c><c>   2</c></rc>
    <rc><c>F </c><c>   2</c></rc>
    <rc><c>F </c><c>   2</c></rc>
    <rc><c>F </c><c>   2</c></rc>
    <rc><c>F </c><c>   2</c></rc>
    <rc><c>F </c><c>   2</c></rc>
    <rc><c>F </c><c>   2</c></rc>
    <rc><c>F </c><c>   2</c></rc>
    <rc><c>F </c><c>   2</c></rc>
    <rc><c>F </c><c>   2</c></rc>
    <rc><c>F </c><c>   2</c></rc>
    <rc><c>F </c><c>   2</c></rc>
    <rc><c>F </c><c>   2</c></rc>
    <rc><c>C </c><c>   3</c></rc>
    <rc><c>C </c><c>   3</c></rc>
    <rc><c>C </c><c>   3</c></rc>
    <rc><c>C </c><c>   3</c></rc>
    <rc><c>C </c><c>   3</c></rc>
    <rc><c>C </c><c>   3</c></rc>
    <rc><c>C </c><c>   3</c></rc>
    <rc><c>C </c><c>   3</c></rc>
    <rc><c>C </c><c>   3</c></rc>
    <rc><c>C </c><c>   3</c></rc>
    <rc><c>C </c><c>   3</c></rc>
    <rc><c>C </c><c>   3</c></rc>
    <rc><c>C </c><c>   3</c></rc>
    <rc><c>C </c><c>   3</c></rc>
    <rc><c>C </c><c>   3</c></rc>
    <rc><c>C </c><c>   3</c></rc>
   </set>
  </array>
  <array name="atomtypes" >
   <dimension dim="1">type</dimension>
   <field type="int">atomspertype</field>
   <field type="string">element</field>
   <field>mass</field>
   <field>valence</field>
   <field type="string">pseudopotential</field>
   <set>
    <rc><c>  32</c><c>Sc</c><c>     44.95600000</c><c>     11.00000000</c><c>  PAW_PBE Sc_sv 07Sep2000               </c></rc>
    <rc><c>  32</c><c>F </c><c>     18.99800000</c><c>      7.00000000</c><c>  PAW_PBE F 08Apr2002                   </c></rc>
    <rc><c>  16</c><c>C </c><c>     12.01100000</c><c>      4.00000000</c><c>  PAW_PBE C 08Apr2002                   </c></rc>
   </set>
  </array>
 </atominfo>
 <structure name="initialpos" >
  <crystal>
   <varray name="basis" >
    <v>      13.12862340       0.00000000       0.00000000 </v>
    <v>      -6.56431170      11.36972138       0.00000000 </v>
    <v>       0.00000000       0.00000000      26.82809424 </v>
   </varray>
   <i name="volume">   4004.59716953 </i>
   <varray name="rec_basis" >
    <v>       0.07616945       0.04397645       0.00000000 </v>
    <v>       0.00000000       0.08795290       0.00000000 </v>
    <v>       0.00000000       0.00000000       0.03727436 </v>
   </varray>
  </crystal>
  <varray name="positions" >
   <v>       0.07976635       0.16793082       0.45691096 </v>
   <v>       0.08741573       0.41660474       0.45117503 </v>
   <v>       0.08800259       0.66463820       0.44932580 </v>
   <v>       0.08226242       0.91194312       0.45283726 </v>
   <v>       0.34057000       0.16125495       0.45497851 </v>
   <v>       0.33199452       0.41155839       0.45049548 </v>
   <v>       0.34026776       0.66732835       0.45387711 </v>
   <v>       0.33433055       0.91338917       0.45056216 </v>
   <v>       0.59000331       0.16567223       0.45362177 </v>
   <v>       0.57898354       0.42171449       0.45212857 </v>
   <v>       0.57978466       0.66451292       0.45522245 </v>
   <v>       0.57818646       0.91460418       0.45219670 </v>
   <v>       0.83115282       0.16776904       0.45401235 </v>
   <v>       0.82602696       0.41802329       0.44725099 </v>
   <v>       0.83440708       0.67923517       0.45209316 </v>
   <v>       0.82960976       0.91965647       0.45342581 </v>
   <v>       0.16919455       0.08218599       0.55116439 </v>
   <v>       0.16344107       0.32538058       0.54967233 </v>
   <v>       0.16704172       0.58435390       0.54366353 </v>
   <v>       0.17298219       0.83805835       0.54753913 </v>
   <v>       0.42054625       0.08595470       0.55111258 </v>
   <v>       0.41206485       0.32964799       0.54668982 </v>
   <v>       0.40921474       0.57654947       0.54685385 </v>
   <v>       0.41417734       0.83257850       0.55040526 </v>
   <v>       0.66949799       0.08292109       0.54861727 </v>
   <v>       0.66622819       0.33817141       0.54552967 </v>
   <v>       0.67051967       0.58979430       0.54704925 </v>
   <v>       0.65939652       0.83577034       0.54773255 </v>
   <v>       0.91132952       0.08016891       0.54834200 </v>
   <v>       0.91352733       0.33670684       0.54458580 </v>
   <v>       0.91430600       0.57765650       0.54291045 </v>
   <v>       0.92201370       0.83688279       0.54756377 </v>
   <v>       0.10133522       0.17742798       0.59399192 </v>
   <v>       0.09430814       0.44283238       0.58677417 </v>
   <v>       0.10132607       0.67943966       0.58711663 </v>
   <v>       0.07904257       0.91381265       0.59658213 </v>
   <v>       0.35001416       0.16884616       0.59336645 </v>
   <v>       0.32999361       0.41294924       0.58613887 </v>
   <v>       0.33263990       0.66756678       0.59137612 </v>
   <v>       0.33359684       0.91225777       0.59440720 </v>
   <v>       0.60072546       0.17160379       0.59062203 </v>
   <v>       0.58633329       0.41361102       0.58692173 </v>
   <v>       0.57961791       0.67317609       0.58955786 </v>
   <v>       0.57826318       0.91151221       0.58851120 </v>
   <v>       0.84263497       0.17558527       0.59140631 </v>
   <v>       0.83692454       0.42461256       0.59143116 </v>
   <v>       0.82454617       0.66765620       0.58562422 </v>
   <v>       0.82412876       0.91009724       0.58963088 </v>
   <v>       0.18025181       0.08590498       0.40928218 </v>
   <v>       0.16796263       0.33638207       0.41102624 </v>
   <v>       0.16121904       0.57077698       0.40027851 </v>
   <v>       0.17112594       0.82654445       0.40582195 </v>
   <v>       0.42571950       0.08590437       0.41023169 </v>
   <v>       0.40406411       0.31596294       0.41396152 </v>
   <v>       0.42122157       0.57974809       0.40860900 </v>
   <v>       0.42115001       0.83646846       0.41171847 </v>
   <v>       0.66340414       0.07744180       0.40906945 </v>
   <v>       0.65981706       0.32930924       0.41347075 </v>
   <v>       0.65143690       0.58107219       0.40836274 </v>
   <v>       0.66966956       0.82903922       0.41275651 </v>
   <v>       0.91433787       0.08024215       0.41085459 </v>
   <v>       0.91496963       0.33406659       0.41229668 </v>
   <v>       0.90186097       0.57620818       0.40989866 </v>
   <v>       0.90650351       0.83338160       0.40893234 </v>
   <v>       0.00727250       0.00279286       0.50358790 </v>
   <v>       0.99838349       0.24889772       0.49990287 </v>
   <v>       0.99939615       0.50353503       0.49670408 </v>
   <v>       0.99241037       0.75377851       0.50048119 </v>
   <v>       0.25567483       0.00248758       0.50209547 </v>
   <v>       0.23809415       0.24303866       0.50272757 </v>
   <v>       0.25330720       0.50170737       0.49795412 </v>
   <v>       0.25207845       0.74849579       0.49671038 </v>
   <v>       0.50246882       0.00533917       0.50018094 </v>
   <v>       0.50090397       0.25180420       0.50112859 </v>
   <v>       0.49127236       0.48994482       0.50079368 </v>
   <v>       0.50233786       0.74772293       0.49985892 </v>
   <v>       0.75434817       0.00972805       0.50310633 </v>
   <v>       0.75087815       0.25034254       0.49973974 </v>
   <v>       0.74601690       0.49471570       0.49733175 </v>
   <v>       0.75146744       0.74856654       0.49934720 </v>
  </varray>
  <varray name="velocities" >
   <v>       0.00000000       0.00000000       0.00000000 </v>
   <v>       0.00000000       0.00000000       0.00000000 </v>
   <v>       0.00000000       0.00000000       0.00000000 </v>
   <v>       0.00000000       0.00000000       0.00000000 </v>
   <v>       0.00000000       0.00000000       0.00000000 </v>
   <v>       0.00000000       0.00000000       0.00000000 </v>
   <v>       0.00000000       0.00000000       0.00000000 </v>
   <v>       0.00000000       0.00000000       0.00000000 </v>
   <v>       0.00000000       0.00000000       0.00000000 </v>
   <v>       0.00000000       0.00000000       0.00000000 </v>
   <v>       0.00000000       0.00000000       0.00000000 </v>
   <v>       0.00000000       0.00000000       0.00000000 </v>
   <v>       0.00000000       0.00000000       0.00000000 </v>
   <v>       0.00000000       0.00000000       0.00000000 </v>
   <v>       0.00000000       0.00000000       0.00000000 </v>
   <v>       0.00000000       0.00000000       0.00000000 </v>
   <v>       0.00000000       0.00000000       0.00000000 </v>
   <v>       0.00000000       0.00000000       0.00000000 </v>
   <v>       0.00000000       0.00000000       0.00000000 </v>
   <v>       0.00000000       0.00000000       0.00000000 </v>
   <v>       0.00000000       0.00000000       0.00000000 </v>
   <v>       0.00000000       0.00000000       0.00000000 </v>
   <v>       0.00000000       0.00000000       0.00000000 </v>
   <v>       0.00000000       0.00000000       0.00000000 </v>
   <v>       0.00000000       0.00000000       0.00000000 </v>
   <v>       0.00000000       0.00000000       0.00000000 </v>
   <v>       0.00000000       0.00000000       0.00000000 </v>
   <v>       0.00000000       0.00000000       0.00000000 </v>
   <v>       0.00000000       0.00000000       0.00000000 </v>
   <v>       0.00000000       0.00000000       0.00000000 </v>
   <v>       0.00000000       0.00000000       0.00000000 </v>
   <v>       0.00000000       0.00000000       0.00000000 </v>
   <v>       0.00000000       0.00000000       0.00000000 </v>
   <v>       0.00000000       0.00000000       0.00000000 </v>
   <v>       0.00000000       0.00000000       0.00000000 </v>
   <v>       0.00000000       0.00000000       0.00000000 </v>
   <v>       0.00000000       0.00000000       0.00000000 </v>
   <v>       0.00000000       0.00000000       0.00000000 </v>
   <v>       0.00000000       0.00000000       0.00000000 </v>
   <v>       0.00000000       0.00000000       0.00000000 </v>
   <v>       0.00000000       0.00000000       0.00000000 </v>
   <v>       0.00000000       0.00000000       0.00000000 </v>
   <v>       0.00000000       0.00000000       0.00000000 </v>
   <v>       0.00000000       0.00000000       0.00000000 </v>
   <v>       0.00000000       0.00000000       0.00000000 </v>
   <v>       0.00000000       0.00000000       0.00000000 </v>
   <v>       0.00000000       0.00000000       0.00000000 </v>
   <v>       0.00000000       0.00000000       0.00000000 </v>
   <v>       0.00000000       0.00000000       0.00000000 </v>
   <v>       0.00000000       0.00000000       0.00000000 </v>
   <v>       0.00000000       0.00000000       0.00000000 </v>
   <v>       0.00000000       0.00000000       0.00000000 </v>
   <v>       0.00000000       0.00000000       0.00000000 </v>
   <v>       0.00000000       0.00000000       0.00000000 </v>
   <v>       0.00000000       0.00000000       0.00000000 </v>
   <v>       0.00000000       0.00000000       0.00000000 </v>
   <v>       0.00000000       0.00000000       0.00000000 </v>
   <v>       0.00000000       0.00000000       0.00000000 </v>
   <v>       0.00000000       0.00000000       0.00000000 </v>
   <v>       0.00000000       0.00000000       0.00000000 </v>
   <v>       0.00000000       0.00000000       0.00000000 </v>
   <v>       0.00000000       0.00000000       0.00000000 </v>
   <v>       0.00000000       0.00000000       0.00000000 </v>
   <v>       0.00000000       0.00000000       0.00000000 </v>
   <v>       0.00000000       0.00000000       0.00000000 </v>
   <v>       0.00000000       0.00000000       0.00000000 </v>
   <v>       0.00000000       0.00000000       0.00000000 </v>
   <v>       0.00000000       0.00000000       0.00000000 </v>
   <v>       0.00000000       0.00000000       0.00000000 </v>
   <v>       0.00000000       0.00000000       0.00000000 </v>
   <v>       0.00000000       0.00000000       0.00000000 </v>
   <v>       0.00000000       0.00000000       0.00000000 </v>
   <v>       0.00000000       0.00000000       0.00000000 </v>
   <v>       0.00000000       0.00000000       0.00000000 </v>
   <v>       0.00000000       0.00000000       0.00000000 </v>
   <v>       0.00000000       0.00000000       0.00000000 </v>
   <v>       0.00000000       0.00000000       0.00000000 </v>
   <v>       0.00000000       0.00000000       0.00000000 </v>
   <v>       0.00000000       0.00000000       0.00000000 </v>
   <v>       0.00000000       0.00000000       0.00000000 </v>
  </varray>
 </structure>
 <calculation>
  <scstep>
   <time name="dav">   46.71   46.71</time>
   <time name="total">   47.58   47.60</time>
   <energy>
    <i name="alphaZ">    871.83850952 </i>
    <i name="ewald"> 287564.78949555 </i>
    <i name="hartreedc">-341901.42084738 </i>
    <i name="XCdc">   3043.73012517 </i>
    <i name="pawpsdc">  50525.51240023 </i>
    <i name="pawaedc"> -50422.77561733 </i>
    <i name="eentropy">     -0.06402452 </i>
    <i name="bandstr">   -200.83489233 </i>
    <i name="atom">  64207.43592568 </i>
    <i name="e_fr_energy">  13688.21107459 </i>
    <i name="e_wo_entrp">  13688.27509911 </i>
    <i name="e_0_energy">  13688.24308685 </i>
   </energy>
  </scstep>
  <scstep>
   <time name="dav">   50.29   50.30</time>
   <time name="total">   50.29   50.30</time>
   <energy>
    <i name="e_fr_energy">   2485.80508859 </i>
    <i name="e_wo_entrp">   2485.85453768 </i>
    <i name="e_0_energy">   2485.82981314 </i>
   </energy>
  </scstep>
  <scstep>
   <time name="dav">   68.87   68.88</time>
   <time name="total">   68.87   68.88</time>
   <energy>
    <i name="e_fr_energy">   -385.89883895 </i>
    <i name="e_wo_entrp">   -385.89883895 </i>
    <i name="e_0_energy">   -385.89883895 </i>
   </energy>
  </scstep>
  <scstep>
   <time name="dav">   62.92   62.93</time>
   <time name="total">   62.92   62.93</time>
   <energy>
    <i name="e_fr_energy">   -741.52432055 </i>
    <i name="e_wo_entrp">   -741.52432055 </i>
    <i name="e_0_energy">   -741.52432055 </i>
   </energy>
  </scstep>
  <scstep>
   <time name="dav">   62.95   62.97</time>
   <time name="total">   66.61   66.63</time>
   <energy>
    <i name="e_fr_energy">   -755.74823228 </i>
    <i name="e_wo_entrp">   -755.74823228 </i>
    <i name="e_0_energy">   -755.74823228 </i>
   </energy>
  </scstep>
  <scstep>
   <time name="dav">   59.27   59.28</time>
   <time name="total">   63.70   63.72</time>
   <energy>
    <i name="e_fr_energy">   -599.79918141 </i>
    <i name="e_wo_entrp">   -599.79918141 </i>
    <i name="e_0_energy">   -599.79918141 </i>
   </energy>
  </scstep>
  <scstep>
   <time name="dav">   61.53   61.53</time>
   <time name="total">   65.98   65.99</time>
   <energy>
    <i name="e_fr_energy">   -599.86630718 </i>
    <i name="e_wo_entrp">   -599.86630718 </i>
    <i name="e_0_energy">   -599.86630718 </i>
   </energy>
  </scstep>
  <scstep>
   <time name="dav">   58.71   58.72</time>
   <time name="total">   63.25   63.26</time>
   <energy>
    <i name="e_fr_energy">   -598.25428749 </i>
    <i name="e_wo_entrp">   -598.25428749 </i>
    <i name="e_0_energy">   -598.25428749 </i>
   </energy>
  </scstep>
  <scstep>
   <time name="dav">   57.92   57.92</time>
   <time name="total">   62.45   62.47</time>
   <energy>
    <i name="e_fr_energy">   -597.71002432 </i>
    <i name="e_wo_entrp">   -597.71002432 </i>
    <i name="e_0_energy">   -597.71002432 </i>
   </energy>
  </scstep>
  <scstep>
   <time name="dav">   61.05   61.05</time>
   <time name="total">   65.65   65.66</time>
   <energy>
    <i name="e_fr_energy">   -597.67307919 </i>
    <i name="e_wo_entrp">   -597.67307919 </i>
    <i name="e_0_energy">   -597.67307919 </i>
   </energy>
  </scstep>
  <scstep>
   <time name="dav">   58.57   58.57</time>
   <time name="total">   63.13   63.14</time>
   <energy>
    <i name="e_fr_energy">   -597.53406841 </i>
    <i name="e_wo_entrp">   -597.53406841 </i>
    <i name="e_0_energy">   -597.53406841 </i>
   </energy>
  </scstep>
  <scstep>
   <time name="dav">   61.69   61.69</time>
   <time name="total">   66.21   66.22</time>
   <energy>
    <i name="e_fr_energy">   -597.51325288 </i>
    <i name="e_wo_entrp">   -597.51325288 </i>
    <i name="e_0_energy">   -597.51325288 </i>
   </energy>
  </scstep>
  <scstep>
   <time name="dav">   58.50   58.51</time>
   <time name="total">   63.12   63.15</time>
   <energy>
    <i name="e_fr_energy">   -597.50360185 </i>
    <i name="e_wo_entrp">   -597.50360185 </i>
    <i name="e_0_energy">   -597.50360185 </i>
   </energy>
  </scstep>
  <scstep>
   <time name="dav">   58.56   58.56</time>
   <time name="total">   63.10   63.11</time>
   <energy>
    <i name="e_fr_energy">   -597.50185350 </i>
    <i name="e_wo_entrp">   -597.50185350 </i>
    <i name="e_0_energy">   -597.50185350 </i>
   </energy>
  </scstep>
  <scstep>
   <time name="dav">   59.62   59.62</time>
   <time name="total">   64.17   64.19</time>
   <energy>
    <i name="e_fr_energy">   -597.50793688 </i>
    <i name="e_wo_entrp">   -597.50793688 </i>
    <i name="e_0_energy">   -597.50793688 </i>
   </energy>
  </scstep>
  <scstep>
   <time name="dav">   57.20   57.20</time>
   <time name="total">   61.78   61.79</time>
   <energy>
    <i name="e_fr_energy">   -597.51199343 </i>
    <i name="e_wo_entrp">   -597.51199343 </i>
    <i name="e_0_energy">   -597.51199343 </i>
   </energy>
  </scstep>
  <scstep>
   <time name="dav">   62.70   62.70</time>
   <time name="total">   67.34   67.35</time>
   <energy>
    <i name="e_fr_energy">   -597.51657856 </i>
    <i name="e_wo_entrp">   -597.51657856 </i>
    <i name="e_0_energy">   -597.51657856 </i>
   </energy>
  </scstep>
  <scstep>
   <time name="dav">   57.09   57.10</time>
   <time name="total">   61.70   61.72</time>
   <energy>
    <i name="e_fr_energy">   -597.52016311 </i>
    <i name="e_wo_entrp">   -597.52016311 </i>
    <i name="e_0_energy">   -597.52016311 </i>
   </energy>
  </scstep>
  <scstep>
   <time name="dav">   61.71   61.71</time>
   <time name="total">   66.27   66.28</time>
   <energy>
    <i name="e_fr_energy">   -597.52195461 </i>
    <i name="e_wo_entrp">   -597.52195461 </i>
    <i name="e_0_energy">   -597.52195461 </i>
   </energy>
  </scstep>
  <scstep>
   <time name="dav">   55.44   55.44</time>
   <time name="total">   60.05   60.07</time>
   <energy>
    <i name="e_fr_energy">   -597.52518491 </i>
    <i name="e_wo_entrp">   -597.52518491 </i>
    <i name="e_0_energy">   -597.52518491 </i>
   </energy>
  </scstep>
  <scstep>
   <time name="dav">   52.70   52.70</time>
   <time name="total">   57.31   57.33</time>
   <energy>
    <i name="e_fr_energy">   -597.52719095 </i>
    <i name="e_wo_entrp">   -597.52719095 </i>
    <i name="e_0_energy">   -597.52719095 </i>
   </energy>
  </scstep>
  <scstep>
   <time name="dav">   50.46   50.46</time>
   <time name="total">   55.02   55.03</time>
   <energy>
    <i name="e_fr_energy">   -597.52834938 </i>
    <i name="e_wo_entrp">   -597.52834938 </i>
    <i name="e_0_energy">   -597.52834938 </i>
   </energy>
  </scstep>
  <scstep>
   <time name="dav">   50.58   50.58</time>
   <time name="total">   55.07   55.08</time>
   <energy>
    <i name="e_fr_energy">   -597.52871337 </i>
    <i name="e_wo_entrp">   -597.52871337 </i>
    <i name="e_0_energy">   -597.52871337 </i>
   </energy>
  </scstep>
  <scstep>
   <time name="dav">   48.97   48.97</time>
   <time name="total">   53.53   53.53</time>
   <energy>
    <i name="e_fr_energy">   -597.52900977 </i>
    <i name="e_wo_entrp">   -597.52900977 </i>
    <i name="e_0_energy">   -597.52900977 </i>
   </energy>
  </scstep>
  <scstep>
   <time name="dav">   43.90   43.91</time>
   <time name="total">   48.44   48.45</time>
   <energy>
    <i name="e_fr_energy">   -597.52918719 </i>
    <i name="e_wo_entrp">   -597.52918719 </i>
    <i name="e_0_energy">   -597.52918719 </i>
   </energy>
  </scstep>
  <scstep>
   <time name="dav">   37.45   37.45</time>
   <time name="total">   42.01   42.01</time>
   <energy>
    <i name="e_fr_energy">   -597.52925978 </i>
    <i name="e_wo_entrp">   -597.52925978 </i>
    <i name="e_0_energy">   -597.52925978 </i>
   </energy>
  </scstep>
  <scstep>
   <time name="dav">   33.64   33.64</time>
   <time name="total">   38.19   38.21</time>
   <energy>
    <i name="e_fr_energy">   -597.52928442 </i>
    <i name="e_wo_entrp">   -597.52928442 </i>
    <i name="e_0_energy">   -597.52928442 </i>
   </energy>
  </scstep>
  <scstep>
   <time name="dav">   35.59   35.59</time>
   <time name="total">   40.15   40.15</time>
   <energy>
    <i name="e_fr_energy">   -597.52930786 </i>
    <i name="e_wo_entrp">   -597.52930786 </i>
    <i name="e_0_energy">   -597.52930786 </i>
   </energy>
  </scstep>
  <scstep>
   <time name="dav">   33.42   33.43</time>
   <time name="total">   37.92   37.94</time>
   <energy>
    <i name="e_fr_energy">   -597.52931319 </i>
    <i name="e_wo_entrp">   -597.52931319 </i>
    <i name="e_0_energy">   -597.52931319 </i>
   </energy>
  </scstep>
  <scstep>
   <time name="dav">   32.94   32.95</time>
   <time name="total">   37.51   37.52</time>
   <energy>
    <i name="e_fr_energy">   -597.52931773 </i>
    <i name="e_wo_entrp">   -597.52931773 </i>
    <i name="e_0_energy">   -597.52931773 </i>
   </energy>
  </scstep>
  <scstep>
   <time name="dav">   33.60   33.60</time>
   <time name="total">   38.18   38.19</time>
   <energy>
    <i name="e_fr_energy">   -597.52932024 </i>
    <i name="e_wo_entrp">   -597.52932024 </i>
    <i name="e_0_energy">   -597.52932024 </i>
   </energy>
  </scstep>
  <scstep>
   <time name="dav">   32.42   32.42</time>
   <time name="total">   33.24   33.25</time>
   <energy>
    <i name="alphaZ">    871.83850952 </i>
    <i name="ewald"> 287564.78949555 </i>
    <i name="hartreedc">-343156.52627517 </i>
    <i name="XCdc">   3055.27271057 </i>
    <i name="pawpsdc">  66437.44336194 </i>
    <i name="pawaedc"> -66430.75314762 </i>
    <i name="eentropy">     -0.00000000 </i>
    <i name="bandstr"> -13147.02990117 </i>
    <i name="atom">  64207.43592568 </i>
    <i name="e_fr_energy">   -597.52932070 </i>
    <i name="e_wo_entrp">   -597.52932070 </i>
    <i name="e_0_energy">   -597.52932070 </i>
   </energy>
  </scstep>
  <structure>
   <crystal>
    <varray name="basis" >
     <v>      13.12862340       0.00000000       0.00000000 </v>
     <v>      -6.56431170      11.36972138       0.00000000 </v>
     <v>       0.00000000       0.00000000      26.82809424 </v>
    </varray>
    <i name="volume">   4004.59716953 </i>
    <varray name="rec_basis" >
     <v>       0.07616945       0.04397645       0.00000000 </v>
     <v>       0.00000000       0.08795290       0.00000000 </v>
     <v>       0.00000000       0.00000000       0.03727436 </v>
    </varray>
   </crystal>
   <varray name="positions" >
    <v>       0.07976635       0.16793082       0.45691096 </v>
    <v>       0.08741573       0.41660474       0.45117503 </v>
    <v>       0.08800259       0.66463820       0.44932580 </v>
    <v>       0.08226242       0.91194312       0.45283726 </v>
    <v>       0.34057000       0.16125495       0.45497851 </v>
    <v>       0.33199452       0.41155839       0.45049548 </v>
    <v>       0.34026776       0.66732835       0.45387711 </v>
    <v>       0.33433055       0.91338917       0.45056216 </v>
    <v>       0.59000331       0.16567223       0.45362177 </v>
    <v>       0.57898354       0.42171449       0.45212857 </v>
    <v>       0.57978466       0.66451292       0.45522245 </v>
    <v>       0.57818646       0.91460418       0.45219670 </v>
    <v>       0.83115282       0.16776904       0.45401235 </v>
    <v>       0.82602696       0.41802329       0.44725099 </v>
    <v>       0.83440708       0.67923517       0.45209316 </v>
    <v>       0.82960976       0.91965647       0.45342581 </v>
    <v>       0.16919455       0.08218599       0.55116439 </v>
    <v>       0.16344107       0.32538058       0.54967233 </v>
    <v>       0.16704172       0.58435390       0.54366353 </v>
    <v>       0.17298219       0.83805835       0.54753913 </v>
    <v>       0.42054625       0.08595470       0.55111258 </v>
    <v>       0.41206485       0.32964799       0.54668982 </v>
    <v>       0.40921474       0.57654947       0.54685385 </v>
    <v>       0.41417734       0.83257850       0.55040526 </v>
    <v>       0.66949799       0.08292109       0.54861727 </v>
    <v>       0.66622819       0.33817141       0.54552967 </v>
    <v>       0.67051967       0.58979430       0.54704925 </v>
    <v>       0.65939652       0.83577034       0.54773255 </v>
    <v>       0.91132952       0.08016891       0.54834200 </v>
    <v>       0.91352733       0.33670684       0.54458580 </v>
    <v>       0.91430600       0.57765650       0.54291045 </v>
    <v>       0.92201370       0.83688279       0.54756377 </v>
    <v>       0.10133522       0.17742798       0.59399192 </v>
    <v>       0.09430814       0.44283238       0.58677417 </v>
    <v>       0.10132607       0.67943966       0.58711663 </v>
    <v>       0.07904257       0.91381265       0.59658213 </v>
    <v>       0.35001416       0.16884616       0.59336645 </v>
    <v>       0.32999361       0.41294924       0.58613887 </v>
    <v>       0.33263990       0.66756678       0.59137612 </v>
    <v>       0.33359684       0.91225777       0.59440720 </v>
    <v>       0.60072546       0.17160379       0.59062203 </v>
    <v>       0.58633329       0.41361102       0.58692173 </v>
    <v>       0.57961791       0.67317609       0.58955786 </v>
    <v>       0.57826318       0.91151221       0.58851120 </v>
    <v>       0.84263497       0.17558527       0.59140631 </v>
    <v>       0.83692454       0.42461256       0.59143116 </v>
    <v>       0.82454617       0.66765620       0.58562422 </v>
    <v>       0.82412876       0.91009724       0.58963088 </v>
    <v>       0.18025181       0.08590498       0.40928218 </v>
    <v>       0.16796263       0.33638207       0.41102624 </v>
    <v>       0.16121904       0.57077698       0.40027851 </v>
    <v>       0.17112594       0.82654445       0.40582195 </v>
    <v>       0.42571950       0.08590437       0.41023169 </v>
    <v>       0.40406411       0.31596294       0.41396152 </v>
    <v>       0.42122157       0.57974809       0.40860900 </v>
    <v>       0.42115001       0.83646846       0.41171847 </v>
    <v>       0.66340414       0.07744180       0.40906945 </v>
    <v>       0.65981706       0.32930924       0.41347075 </v>
    <v>       0.65143690       0.58107219       0.40836274 </v>
    <v>       0.66966956       0.82903922       0.41275651 </v>
    <v>       0.91433787       0.08024215       0.41085459 </v>
    <v>       0.91496963       0.33406659       0.41229668 </v>
    <v>       0.90186097       0.57620818       0.40989866 </v>
    <v>       0.90650351       0.83338160       0.40893234 </v>
    <v>       0.00727250       0.00279286       0.50358790 </v>
    <v>       0.99838349       0.24889772       0.49990287 </v>
    <v>       0.99939615       0.50353503       0.49670408 </v>
    <v>       0.99241037       0.75377851       0.50048119 </v>
    <v>       0.25567483       0.00248758       0.50209547 </v>
    <v>       0.23809415       0.24303866       0.50272757 </v>
    <v>       0.25330720       0.50170737       0.49795412 </v>
    <v>       0.25207845       0.74849579       0.49671038 </v>
    <v>       0.50246882       0.00533917       0.50018094 </v>
    <v>       0.50090397       0.25180420       0.50112859 </v>
    <v>       0.49127236       0.48994482       0.50079368 </v>
    <v>       0.50233786       0.74772293       0.49985892 </v>
    <v>       0.75434817       0.00972805       0.50310633 </v>
    <v>       0.75087815       0.25034254       0.49973974 </v>
    <v>       0.74601690       0.49471570       0.49733175 </v>
    <v>       0.75146744       0.74856654       0.49934720 </v>
   </varray>
  </structure>
  <varray name="forces" >
   <v>       0.87245696      -0.62766839      -0.85537610 </v>
   <v>      -0.45779550       0.12794686      -0.06885687 </v>
   <v>      -0.34561382      -0.26356583      -0.09761882 </v>
   <v>      -0.03856902       1.19203607       0.16781245 </v>
   <v>      -0.96253930      -0.09675644      -0.23811478 </v>
   <v>      -0.38732104       0.05089591       0.72809686 </v>
   <v>      -0.42567654      -0.63451546      -0.67302487 </v>
   <v>      -0.17494572       0.58833865       0.79400297 </v>
   <v>      -0.99696188       0.03122255       0.19034163 </v>
   <v>       0.53264107      -0.64232672       0.28534147 </v>
   <v>       0.47114672      -0.06413819      -0.47238374 </v>
   <v>       0.44169065       0.44815728       0.66720378 </v>
   <v>       0.36485705       0.22704039      -0.30075175 </v>
   <v>       0.52122281      -0.07740414       1.03114235 </v>
   <v>       0.18909742      -1.37946447      -0.12490951 </v>
   <v>       0.59095898      -0.16678181       0.34567046 </v>
   <v>      -0.26556610       0.06730088      -0.45895928 </v>
   <v>      -0.35021659       0.76623150      -0.70971064 </v>
   <v>      -0.02055116       0.48044415      -0.09946251 </v>
   <v>      -0.50566018      -0.42903049      -0.16767452 </v>
   <v>       0.52145519       0.11799152      -0.88318717 </v>
   <v>       0.61241817       0.05067741       0.06483269 </v>
   <v>       0.39182767       0.24628641       0.13972151 </v>
   <v>      -0.09216574      -0.06293387      -0.90369769 </v>
   <v>      -0.59634328       0.78193132      -0.14111482 </v>
   <v>       0.32221298      -0.38007274       0.20509084 </v>
   <v>      -0.43304202      -0.77013023      -0.25745952 </v>
   <v>       1.28705842      -0.55089305      -0.06441030 </v>
   <v>       0.44574386       0.35519964       0.35926200 </v>
   <v>       0.39974196       0.07101239       0.43138948 </v>
   <v>      -0.33465448       0.69339521       0.27678209 </v>
   <v>      -0.58799913      -0.10129715       0.43639242 </v>
   <v>      -0.43492161      -0.51309384       0.30596041 </v>
   <v>      -0.01322058      -1.60500075       0.75406465 </v>
   <v>      -0.40943864      -0.49441587       0.14364974 </v>
   <v>       0.28992231       0.05217329      -0.69616817 </v>
   <v>      -0.69769213       0.02127860       0.16226412 </v>
   <v>      -0.02477329       0.18287547       0.86290695 </v>
   <v>       0.05792636       0.02035928      -0.35575896 </v>
   <v>      -0.00153139       0.10216081      -0.45454359 </v>
   <v>      -0.63164701      -0.07014168       0.18097050 </v>
   <v>      -0.44883491       0.35642310       0.53068380 </v>
   <v>       0.20234770      -0.30862503      -0.02888621 </v>
   <v>      -0.08956990       0.28800579       0.57112076 </v>
   <v>      -0.10216551      -0.16285485      -0.11977623 </v>
   <v>       0.08625243      -0.09228613      -0.54038982 </v>
   <v>       0.69446494      -0.07263075       0.79456865 </v>
   <v>       0.11563488       0.31333324       0.06842260 </v>
   <v>      -0.34946953      -0.38441462       0.43748552 </v>
   <v>       0.06517274      -0.37158330      -0.24979056 </v>
   <v>      -0.16285729       0.34018691       1.09012510 </v>
   <v>      -0.32018662       0.27232227       0.39495592 </v>
   <v>      -0.21555951      -0.20827384       0.00208197 </v>
   <v>       0.17516143       0.81471608      -0.72347279 </v>
   <v>      -0.19890063       0.06798181       0.16683364 </v>
   <v>       0.04576516      -0.19401683      -0.57632958 </v>
   <v>       0.14676077       0.11070814       0.10375992 </v>
   <v>      -0.04025065       0.03697475      -0.90692678 </v>
   <v>       0.35997109       0.00963808       0.12636158 </v>
   <v>      -0.43689318       0.33373393      -0.23494202 </v>
   <v>      -0.06062645       0.07377933       0.07913738 </v>
   <v>       0.08644822      -0.12825250      -0.49486412 </v>
   <v>       0.32843391       0.72338991      -0.53774071 </v>
   <v>       0.41305938       0.39808107       0.01442414 </v>
   <v>      -0.70718474      -0.32013371      -0.50929187 </v>
   <v>      -0.16566091       0.36910985       0.48040870 </v>
   <v>       0.23094360      -0.00043730      -0.00292793 </v>
   <v>       1.60073336      -0.15603160      -0.73895859 </v>
   <v>       0.00445739      -0.84404210       0.09891967 </v>
   <v>       1.13242180       0.53235971      -0.01631351 </v>
   <v>      -0.21938356      -0.04474377       0.00418304 </v>
   <v>      -0.17970815       0.59999771       0.18364272 </v>
   <v>       0.46419202      -1.15014461       0.39126380 </v>
   <v>       0.13310391      -0.51026215       0.09903604 </v>
   <v>       0.05244067       1.07657058      -0.25522961 </v>
   <v>      -0.89426535       0.48298143       0.10649567 </v>
   <v>       0.13210319      -1.41239914      -0.69042816 </v>
   <v>       0.11491924      -0.01035253      -0.11420747 </v>
   <v>      -0.16992306       0.96744112       0.28943231 </v>
   <v>      -0.94688032       0.45842548       0.19741730 </v>
  </varray>
  <varray name="stress" >
   <v>       3.25317810      -0.20994422      -0.85653824 </v>
   <v>      -0.20994419       3.72884734      -2.55504504 </v>
   <v>      -0.85653827      -2.55504504       0.13743373 </v>
  </varray>
  <energy>
   <i name="e_fr_energy">   -597.52932070 </i>
   <i name="e_wo_entrp">   -597.52932070 </i>
   <i name="e_0_energy">     -0.00000000 </i>
  </energy>
  <time name="totalsc"> 1857.32 1857.76</time>
  <eigenvalues>
   <array>
    <dimension dim="1">band</dimension>
    <dimension dim="2">kpoint</dimension>
    <dimension dim="3">spin</dimension>
    <field>eigene</field>
    <field>occ</field>
    <set>
     <set comment="spin 1">
      <set comment="kpoint 1">
       <r>  -51.8841    1.0000 </r>
       <r>  -51.7155    1.0000 </r>
       <r>  -51.6796    1.0000 </r>
       <r>  -51.6447    1.0000 </r>
       <r>  -51.6190    1.0000 </r>
       <r>  -51.5876    1.0000 </r>
       <r>  -51.5721    1.0000 </r>
       <r>  -51.5194    1.0000 </r>
       <r>  -51.4987    1.0000 </r>
       <r>  -51.4955    1.0000 </r>
       <r>  -51.4774    1.0000 </r>
       <r>  -51.4636    1.0000 </r>
       <r>  -51.4393    1.0000 </r>
       <r>  -51.3973    1.0000 </r>
       <r>  -51.3798    1.0000 </r>
       <r>  -51.3521    1.0000 </r>
       <r>  -51.3438    1.0000 </r>
       <r>  -51.3398    1.0000 </r>
       <r>  -51.3191    1.0000 </r>
       <r>  -51.2907    1.0000 </r>
       <r>  -51.2620    1.0000 </r>
       <r>  -51.2561    1.0000 </r>
       <r>  -51.2443    1.0000 </r>
       <r>  -51.2358    1.0000 </r>
       <r>  -51.2225    1.0000 </r>
       <r>  -51.1978    1.0000 </r>
       <r>  -51.1676    1.0000 </r>
       <r>  -51.1565    1.0000 </r>
       <r>  -51.1387    1.0000 </r>
       <r>  -51.1089    1.0000 </r>
       <r>  -51.0505    1.0000 </r>
       <r>  -50.9700    1.0000 </r>
       <r>  -30.8627    1.0000 </r>
       <r>  -30.7897    1.0000 </r>
       <r>  -30.7202    1.0000 </r>
       <r>  -30.6329    1.0000 </r>
       <r>  -30.6120    1.0000 </r>
       <r>  -30.5707    1.0000 </r>
       <r>  -30.5606    1.0000 </r>
       <r>  -30.5262    1.0000 </r>
       <r>  -30.5226    1.0000 </r>
       <r>  -30.5154    1.0000 </r>
       <r>  -30.4961    1.0000 </r>
       <r>  -30.4894    1.0000 </r>
       <r>  -30.4833    1.0000 </r>
       <r>  -30.4621    1.0000 </r>
       <r>  -30.4446    1.0000 </r>
       <r>  -30.4422    1.0000 </r>
       <r>  -30.4299    1.0000 </r>
       <r>  -30.4277    1.0000 </r>
       <r>  -30.4041    1.0000 </r>
       <r>  -30.3939    1.0000 </r>
       <r>  -30.3763    1.0000 </r>
       <r>  -30.3670    1.0000 </r>
       <r>  -30.3611    1.0000 </r>
       <r>  -30.3465    1.0000 </r>
       <r>  -30.3426    1.0000 </r>
       <r>  -30.3292    1.0000 </r>
       <r>  -30.3093    1.0000 </r>
       <r>  -30.3058    1.0000 </r>
       <r>  -30.2997    1.0000 </r>
       <r>  -30.2911    1.0000 </r>
       <r>  -30.2857    1.0000 </r>
       <r>  -30.2648    1.0000 </r>
       <r>  -30.2594    1.0000 </r>
       <r>  -30.2557    1.0000 </r>
       <r>  -30.2459    1.0000 </r>
       <r>  -30.2342    1.0000 </r>
       <r>  -30.2239    1.0000 </r>
       <r>  -30.2170    1.0000 </r>
       <r>  -30.2048    1.0000 </r>
       <r>  -30.1912    1.0000 </r>
       <r>  -30.1793    1.0000 </r>
       <r>  -30.1746    1.0000 </r>
       <r>  -30.1676    1.0000 </r>
       <r>  -30.1620    1.0000 </r>
       <r>  -30.1436    1.0000 </r>
       <r>  -30.1378    1.0000 </r>
       <r>  -30.1282    1.0000 </r>
       <r>  -30.1132    1.0000 </r>
       <r>  -30.1109    1.0000 </r>
       <r>  -30.0982    1.0000 </r>
       <r>  -30.0811    1.0000 </r>
       <r>  -30.0762    1.0000 </r>
       <r>  -30.0554    1.0000 </r>
       <r>  -30.0503    1.0000 </r>
       <r>  -30.0383    1.0000 </r>
       <r>  -30.0324    1.0000 </r>
       <r>  -30.0244    1.0000 </r>
       <r>  -30.0129    1.0000 </r>
       <r>  -30.0021    1.0000 </r>
       <r>  -30.0006    1.0000 </r>
       <r>  -29.9887    1.0000 </r>
       <r>  -29.9780    1.0000 </r>
       <r>  -29.9683    1.0000 </r>
       <r>  -29.9650    1.0000 </r>
       <r>  -29.9628    1.0000 </r>
       <r>  -29.9513    1.0000 </r>
       <r>  -29.9458    1.0000 </r>
       <r>  -29.9385    1.0000 </r>
       <r>  -29.9353    1.0000 </r>
       <r>  -29.9300    1.0000 </r>
       <r>  -29.9283    1.0000 </r>
       <r>  -29.9247    1.0000 </r>
       <r>  -29.9126    1.0000 </r>
       <r>  -29.9064    1.0000 </r>
       <r>  -29.8986    1.0000 </r>
       <r>  -29.8898    1.0000 </r>
       <r>  -29.8870    1.0000 </r>
       <r>  -29.8717    1.0000 </r>
       <r>  -29.8642    1.0000 </r>
       <r>  -29.8551    1.0000 </r>
       <r>  -29.8514    1.0000 </r>
       <r>  -29.8359    1.0000 </r>
       <r>  -29.8269    1.0000 </r>
       <r>  -29.8154    1.0000 </r>
       <r>  -29.8069    1.0000 </r>
       <r>  -29.8005    1.0000 </r>
       <r>  -29.7911    1.0000 </r>
       <r>  -29.7832    1.0000 </r>
       <r>  -29.7772    1.0000 </r>
       <r>  -29.7507    1.0000 </r>
       <r>  -29.7376    1.0000 </r>
       <r>  -29.7178    1.0000 </r>
       <r>  -29.6897    1.0000 </r>
       <r>  -29.6772    1.0000 </r>
       <r>  -29.6653    1.0000 </r>
       <r>  -29.6155    1.0000 </r>
       <r>  -27.1536    1.0000 </r>
       <r>  -27.0767    1.0000 </r>
       <r>  -26.8857    1.0000 </r>
       <r>  -26.8227    1.0000 </r>
       <r>  -26.7813    1.0000 </r>
       <r>  -26.7584    1.0000 </r>
       <r>  -26.7437    1.0000 </r>
       <r>  -26.7186    1.0000 </r>
       <r>  -26.7050    1.0000 </r>
       <r>  -26.6887    1.0000 </r>
       <r>  -26.6521    1.0000 </r>
       <r>  -26.6012    1.0000 </r>
       <r>  -26.5862    1.0000 </r>
       <r>  -26.5784    1.0000 </r>
       <r>  -26.5348    1.0000 </r>
       <r>  -26.5231    1.0000 </r>
       <r>  -26.5222    1.0000 </r>
       <r>  -26.5132    1.0000 </r>
       <r>  -26.5099    1.0000 </r>
       <r>  -26.4891    1.0000 </r>
       <r>  -26.4774    1.0000 </r>
       <r>  -26.4622    1.0000 </r>
       <r>  -26.4609    1.0000 </r>
       <r>  -26.4256    1.0000 </r>
       <r>  -26.3950    1.0000 </r>
       <r>  -26.3792    1.0000 </r>
       <r>  -26.3745    1.0000 </r>
       <r>  -26.3639    1.0000 </r>
       <r>  -26.3341    1.0000 </r>
       <r>  -26.2766    1.0000 </r>
       <r>  -25.9615    1.0000 </r>
       <r>  -25.8419    1.0000 </r>
       <r>  -11.9958    1.0000 </r>
       <r>  -11.6269    1.0000 </r>
       <r>  -11.6031    1.0000 </r>
       <r>  -11.5596    1.0000 </r>
       <r>  -11.5193    1.0000 </r>
       <r>  -11.4886    1.0000 </r>
       <r>  -11.4773    1.0000 </r>
       <r>  -11.0911    1.0000 </r>
       <r>  -10.9902    1.0000 </r>
       <r>  -10.9808    1.0000 </r>
       <r>  -10.9334    1.0000 </r>
       <r>  -10.9016    1.0000 </r>
       <r>  -10.8910    1.0000 </r>
       <r>  -10.8655    1.0000 </r>
       <r>  -10.8206    1.0000 </r>
       <r>  -10.7904    1.0000 </r>
       <r>   -9.4498    1.0000 </r>
       <r>   -9.4274    1.0000 </r>
       <r>   -9.3693    1.0000 </r>
       <r>   -9.3388    1.0000 </r>
       <r>   -9.2531    1.0000 </r>
       <r>   -9.2141    1.0000 </r>
       <r>   -9.1807    1.0000 </r>
       <r>   -9.1469    1.0000 </r>
       <r>   -9.1157    1.0000 </r>
       <r>   -9.0717    1.0000 </r>
       <r>   -9.0540    1.0000 </r>
       <r>   -9.0323    1.0000 </r>
       <r>   -9.0099    1.0000 </r>
       <r>   -8.9887    1.0000 </r>
       <r>   -8.9733    1.0000 </r>
       <r>   -8.9468    1.0000 </r>
       <r>   -8.9390    1.0000 </r>
       <r>   -8.9273    1.0000 </r>
       <r>   -8.9067    1.0000 </r>
       <r>   -8.8922    1.0000 </r>
       <r>   -8.8594    1.0000 </r>
       <r>   -8.8427    1.0000 </r>
       <r>   -8.8246    1.0000 </r>
       <r>   -8.8162    1.0000 </r>
       <r>   -8.8016    1.0000 </r>
       <r>   -8.7770    1.0000 </r>
       <r>   -8.7650    1.0000 </r>
       <r>   -8.7433    1.0000 </r>
       <r>   -8.7332    1.0000 </r>
       <r>   -8.7161    1.0000 </r>
       <r>   -8.7038    1.0000 </r>
       <r>   -8.6869    1.0000 </r>
       <r>   -8.6734    1.0000 </r>
       <r>   -8.6556    1.0000 </r>
       <r>   -8.6418    1.0000 </r>
       <r>   -8.6368    1.0000 </r>
       <r>   -8.6226    1.0000 </r>
       <r>   -8.5926    1.0000 </r>
       <r>   -8.5863    1.0000 </r>
       <r>   -8.5648    1.0000 </r>
       <r>   -8.5501    1.0000 </r>
       <r>   -8.5431    1.0000 </r>
       <r>   -8.5389    1.0000 </r>
       <r>   -8.5283    1.0000 </r>
       <r>   -8.5168    1.0000 </r>
       <r>   -8.5127    1.0000 </r>
       <r>   -8.5040    1.0000 </r>
       <r>   -8.4872    1.0000 </r>
       <r>   -8.4819    1.0000 </r>
       <r>   -8.4743    1.0000 </r>
       <r>   -8.4622    1.0000 </r>
       <r>   -8.4572    1.0000 </r>
       <r>   -8.4464    1.0000 </r>
       <r>   -8.4327    1.0000 </r>
       <r>   -8.4229    1.0000 </r>
       <r>   -8.4128    1.0000 </r>
       <r>   -8.4053    1.0000 </r>
       <r>   -8.3888    1.0000 </r>
       <r>   -8.3854    1.0000 </r>
       <r>   -8.3750    1.0000 </r>
       <r>   -8.3600    1.0000 </r>
       <r>   -8.3530    1.0000 </r>
       <r>   -8.3356    1.0000 </r>
       <r>   -8.3255    1.0000 </r>
       <r>   -8.3190    1.0000 </r>
       <r>   -8.3049    1.0000 </r>
       <r>   -8.2996    1.0000 </r>
       <r>   -8.2751    1.0000 </r>
       <r>   -8.2619    1.0000 </r>
       <r>   -8.2532    1.0000 </r>
       <r>   -8.2406    1.0000 </r>
       <r>   -8.2390    1.0000 </r>
       <r>   -8.2300    1.0000 </r>
       <r>   -8.2182    1.0000 </r>
       <r>   -8.2089    1.0000 </r>
       <r>   -8.1976    1.0000 </r>
       <r>   -8.1869    1.0000 </r>
       <r>   -8.1689    1.0000 </r>
       <r>   -8.1625    1.0000 </r>
       <r>   -8.1497    1.0000 </r>
       <r>   -8.1462    1.0000 </r>
       <r>   -8.1383    1.0000 </r>
       <r>   -8.1153    1.0000 </r>
       <r>   -8.1030    1.0000 </r>
       <r>   -8.0942    1.0000 </r>
       <r>   -8.0785    1.0000 </r>
       <r>   -8.0648    1.0000 </r>
       <r>   -8.0425    1.0000 </r>
       <r>   -8.0268    1.0000 </r>
       <r>   -8.0034    1.0000 </r>
       <r>   -7.8005    1.0000 </r>
       <r>   -7.7464    1.0000 </r>
       <r>   -7.7262    1.0000 </r>
       <r>   -7.6791    1.0000 </r>
       <r>   -7.6603    1.0000 </r>
       <r>   -7.5345    1.0000 </r>
       <r>   -5.0965    1.0000 </r>
       <r>   -5.0641    1.0000 </r>
       <r>   -5.0341    1.0000 </r>
       <r>   -4.7984    1.0000 </r>
       <r>   -4.7849    1.0000 </r>
       <r>   -4.7583    1.0000 </r>
       <r>   -4.7210    1.0000 </r>
       <r>   -4.6896    1.0000 </r>
       <r>   -4.6509    1.0000 </r>
       <r>   -4.3944    1.0000 </r>
       <r>   -4.3068    1.0000 </r>
       <r>   -4.2708    1.0000 </r>
       <r>   -4.2442    1.0000 </r>
       <r>   -4.2097    1.0000 </r>
       <r>   -4.2039    1.0000 </r>
       <r>   -4.1625    1.0000 </r>
       <r>   -4.1400    1.0000 </r>
       <r>   -4.1218    1.0000 </r>
       <r>   -4.1025    1.0000 </r>
       <r>   -4.0852    1.0000 </r>
       <r>   -4.0610    1.0000 </r>
       <r>   -4.0562    1.0000 </r>
       <r>   -4.0258    1.0000 </r>
       <r>   -4.0054    1.0000 </r>
       <r>   -3.9830    1.0000 </r>
       <r>   -3.9679    1.0000 </r>
       <r>   -3.9436    1.0000 </r>
       <r>   -3.9274    1.0000 </r>
       <r>   -3.8849    1.0000 </r>
       <r>   -3.8721    1.0000 </r>
       <r>   -3.8265    1.0000 </r>
       <r>   -3.8025    1.0000 </r>
       <r>   -3.7760    1.0000 </r>
       <r>   -3.7443    1.0000 </r>
       <r>   -3.7157    1.0000 </r>
       <r>   -3.6871    1.0000 </r>
       <r>   -3.5921    1.0000 </r>
       <r>   -3.2393    1.0000 </r>
       <r>   -3.2089    1.0000 </r>
       <r>   -3.1840    1.0000 </r>
       <r>   -3.1296    1.0000 </r>
       <r>   -3.1174    1.0000 </r>
       <r>   -3.0789    1.0000 </r>
       <r>   -3.0454    1.0000 </r>
       <r>   -3.0155    1.0000 </r>
       <r>   -2.9578    1.0000 </r>
       <r>   -2.7801    1.0000 </r>
       <r>   -2.7534    1.0000 </r>
       <r>   -1.8170    0.0000 </r>
       <r>   -1.7397    0.0000 </r>
       <r>   -1.7131    0.0000 </r>
       <r>   -1.1772    0.0000 </r>
       <r>   -1.1465    0.0000 </r>
       <r>   -1.1265    0.0000 </r>
       <r>   -1.1107    0.0000 </r>
       <r>   -1.0656    0.0000 </r>
       <r>   -1.0253    0.0000 </r>
       <r>   -0.4325    0.0000 </r>
       <r>   -0.3802    0.0000 </r>
       <r>   -0.3584    0.0000 </r>
       <r>   -0.3199    0.0000 </r>
       <r>   -0.3073    0.0000 </r>
       <r>   -0.2440    0.0000 </r>
       <r>   -0.2035    0.0000 </r>
       <r>   -0.1726    0.0000 </r>
       <r>   -0.1473    0.0000 </r>
       <r>   -0.0787    0.0000 </r>
       <r>   -0.0169    0.0000 </r>
       <r>    0.0082    0.0000 </r>
       <r>    0.0475    0.0000 </r>
       <r>    0.0720    0.0000 </r>
       <r>    0.1155    0.0000 </r>
       <r>    0.4042    0.0000 </r>
       <r>    0.4183    0.0000 </r>
       <r>    0.4653    0.0000 </r>
       <r>    0.4745    0.0000 </r>
       <r>    0.5118    0.0000 </r>
       <r>    0.5273    0.0000 </r>
       <r>    0.5488    0.0000 </r>
       <r>    0.5744    0.0000 </r>
       <r>    0.6002    0.0000 </r>
       <r>    0.6074    0.0000 </r>
       <r>    0.6308    0.0000 </r>
       <r>    0.6484    0.0000 </r>
       <r>    0.6607    0.0000 </r>
       <r>    0.6974    0.0000 </r>
       <r>    0.7238    0.0000 </r>
       <r>    0.7686    0.0000 </r>
       <r>    0.8068    0.0000 </r>
       <r>    0.8298    0.0000 </r>
       <r>    0.8383    0.0000 </r>
       <r>    0.8528    0.0000 </r>
       <r>    0.8869    0.0000 </r>
       <r>    0.8904    0.0000 </r>
       <r>    0.9344    0.0000 </r>
       <r>    0.9985    0.0000 </r>
       <r>    1.0136    0.0000 </r>
       <r>    1.0243    0.0000 </r>
       <r>    1.0436    0.0000 </r>
       <r>    1.0591    0.0000 </r>
       <r>    1.0735    0.0000 </r>
       <r>    1.0993    0.0000 </r>
       <r>    1.1155    0.0000 </r>
       <r>    1.1289    0.0000 </r>
       <r>    1.1560    0.0000 </r>
       <r>    1.1671    0.0000 </r>
       <r>    1.1996    0.0000 </r>
       <r>    1.2199    0.0000 </r>
       <r>    1.2245    0.0000 </r>
       <r>    1.2393    0.0000 </r>
       <r>    1.2761    0.0000 </r>
       <r>    1.3181    0.0000 </r>
      </set>
      <set comment="kpoint 2">
       <r>  -51.8841    1.0000 </r>
       <r>  -51.7155    1.0000 </r>
       <r>  -51.6796    1.0000 </r>
       <r>  -51.6448    1.0000 </r>
       <r>  -51.6190    1.0000 </r>
       <r>  -51.5876    1.0000 </r>
       <r>  -51.5721    1.0000 </r>
       <r>  -51.5194    1.0000 </r>
       <r>  -51.4986    1.0000 </r>
       <r>  -51.4956    1.0000 </r>
       <r>  -51.4774    1.0000 </r>
       <r>  -51.4636    1.0000 </r>
       <r>  -51.4393    1.0000 </r>
       <r>  -51.3973    1.0000 </r>
       <r>  -51.3797    1.0000 </r>
       <r>  -51.3522    1.0000 </r>
       <r>  -51.3437    1.0000 </r>
       <r>  -51.3399    1.0000 </r>
       <r>  -51.3190    1.0000 </r>
       <r>  -51.2907    1.0000 </r>
       <r>  -51.2621    1.0000 </r>
       <r>  -51.2561    1.0000 </r>
       <r>  -51.2443    1.0000 </r>
       <r>  -51.2357    1.0000 </r>
       <r>  -51.2226    1.0000 </r>
       <r>  -51.1978    1.0000 </r>
       <r>  -51.1676    1.0000 </r>
       <r>  -51.1565    1.0000 </r>
       <r>  -51.1387    1.0000 </r>
       <r>  -51.1089    1.0000 </r>
       <r>  -51.0505    1.0000 </r>
       <r>  -50.9700    1.0000 </r>
       <r>  -30.8618    1.0000 </r>
       <r>  -30.7868    1.0000 </r>
       <r>  -30.7190    1.0000 </r>
       <r>  -30.6316    1.0000 </r>
       <r>  -30.6078    1.0000 </r>
       <r>  -30.5736    1.0000 </r>
       <r>  -30.5612    1.0000 </r>
       <r>  -30.5316    1.0000 </r>
       <r>  -30.5196    1.0000 </r>
       <r>  -30.5089    1.0000 </r>
       <r>  -30.4964    1.0000 </r>
       <r>  -30.4882    1.0000 </r>
       <r>  -30.4811    1.0000 </r>
       <r>  -30.4719    1.0000 </r>
       <r>  -30.4510    1.0000 </r>
       <r>  -30.4441    1.0000 </r>
       <r>  -30.4329    1.0000 </r>
       <r>  -30.4283    1.0000 </r>
       <r>  -30.4096    1.0000 </r>
       <r>  -30.3946    1.0000 </r>
       <r>  -30.3866    1.0000 </r>
       <r>  -30.3765    1.0000 </r>
       <r>  -30.3533    1.0000 </r>
       <r>  -30.3421    1.0000 </r>
       <r>  -30.3319    1.0000 </r>
       <r>  -30.3271    1.0000 </r>
       <r>  -30.3204    1.0000 </r>
       <r>  -30.3068    1.0000 </r>
       <r>  -30.2971    1.0000 </r>
       <r>  -30.2914    1.0000 </r>
       <r>  -30.2810    1.0000 </r>
       <r>  -30.2625    1.0000 </r>
       <r>  -30.2580    1.0000 </r>
       <r>  -30.2492    1.0000 </r>
       <r>  -30.2439    1.0000 </r>
       <r>  -30.2342    1.0000 </r>
       <r>  -30.2260    1.0000 </r>
       <r>  -30.2208    1.0000 </r>
       <r>  -30.2079    1.0000 </r>
       <r>  -30.2007    1.0000 </r>
       <r>  -30.1844    1.0000 </r>
       <r>  -30.1776    1.0000 </r>
       <r>  -30.1740    1.0000 </r>
       <r>  -30.1512    1.0000 </r>
       <r>  -30.1466    1.0000 </r>
       <r>  -30.1407    1.0000 </r>
       <r>  -30.1312    1.0000 </r>
       <r>  -30.1105    1.0000 </r>
       <r>  -30.1028    1.0000 </r>
       <r>  -30.0938    1.0000 </r>
       <r>  -30.0755    1.0000 </r>
       <r>  -30.0616    1.0000 </r>
       <r>  -30.0534    1.0000 </r>
       <r>  -30.0462    1.0000 </r>
       <r>  -30.0411    1.0000 </r>
       <r>  -30.0312    1.0000 </r>
       <r>  -30.0178    1.0000 </r>
       <r>  -30.0120    1.0000 </r>
       <r>  -30.0002    1.0000 </r>
       <r>  -29.9936    1.0000 </r>
       <r>  -29.9877    1.0000 </r>
       <r>  -29.9797    1.0000 </r>
       <r>  -29.9767    1.0000 </r>
       <r>  -29.9673    1.0000 </r>
       <r>  -29.9593    1.0000 </r>
       <r>  -29.9545    1.0000 </r>
       <r>  -29.9507    1.0000 </r>
       <r>  -29.9460    1.0000 </r>
       <r>  -29.9357    1.0000 </r>
       <r>  -29.9302    1.0000 </r>
       <r>  -29.9201    1.0000 </r>
       <r>  -29.9170    1.0000 </r>
       <r>  -29.9145    1.0000 </r>
       <r>  -29.9040    1.0000 </r>
       <r>  -29.8983    1.0000 </r>
       <r>  -29.8943    1.0000 </r>
       <r>  -29.8822    1.0000 </r>
       <r>  -29.8726    1.0000 </r>
       <r>  -29.8675    1.0000 </r>
       <r>  -29.8620    1.0000 </r>
       <r>  -29.8465    1.0000 </r>
       <r>  -29.8365    1.0000 </r>
       <r>  -29.8247    1.0000 </r>
       <r>  -29.8136    1.0000 </r>
       <r>  -29.8040    1.0000 </r>
       <r>  -29.7989    1.0000 </r>
       <r>  -29.7955    1.0000 </r>
       <r>  -29.7862    1.0000 </r>
       <r>  -29.7743    1.0000 </r>
       <r>  -29.7543    1.0000 </r>
       <r>  -29.7387    1.0000 </r>
       <r>  -29.7180    1.0000 </r>
       <r>  -29.6932    1.0000 </r>
       <r>  -29.6777    1.0000 </r>
       <r>  -29.6671    1.0000 </r>
       <r>  -29.6193    1.0000 </r>
       <r>  -27.1534    1.0000 </r>
       <r>  -27.0765    1.0000 </r>
       <r>  -26.8854    1.0000 </r>
       <r>  -26.8205    1.0000 </r>
       <r>  -26.7814    1.0000 </r>
       <r>  -26.7584    1.0000 </r>
       <r>  -26.7467    1.0000 </r>
       <r>  -26.7190    1.0000 </r>
       <r>  -26.7047    1.0000 </r>
       <r>  -26.6879    1.0000 </r>
       <r>  -26.6522    1.0000 </r>
       <r>  -26.5999    1.0000 </r>
       <r>  -26.5861    1.0000 </r>
       <r>  -26.5794    1.0000 </r>
       <r>  -26.5341    1.0000 </r>
       <r>  -26.5238    1.0000 </r>
       <r>  -26.5222    1.0000 </r>
       <r>  -26.5149    1.0000 </r>
       <r>  -26.5095    1.0000 </r>
       <r>  -26.4887    1.0000 </r>
       <r>  -26.4760    1.0000 </r>
       <r>  -26.4626    1.0000 </r>
       <r>  -26.4611    1.0000 </r>
       <r>  -26.4253    1.0000 </r>
       <r>  -26.3957    1.0000 </r>
       <r>  -26.3791    1.0000 </r>
       <r>  -26.3744    1.0000 </r>
       <r>  -26.3637    1.0000 </r>
       <r>  -26.3342    1.0000 </r>
       <r>  -26.2766    1.0000 </r>
       <r>  -25.9615    1.0000 </r>
       <r>  -25.8419    1.0000 </r>
       <r>  -11.9456    1.0000 </r>
       <r>  -11.7949    1.0000 </r>
       <r>  -11.6379    1.0000 </r>
       <r>  -11.6103    1.0000 </r>
       <r>  -11.4166    1.0000 </r>
[...]
       <r>   -32.3057     0.0000    64.0000 </r>
       <r>   -32.1106     0.0000    64.0000 </r>
       <r>   -31.9155     0.0000    64.0000 </r>
       <r>   -31.7204     0.0000    64.0000 </r>
       <r>   -31.5254     0.0000    64.0000 </r>
       <r>   -31.3303     0.0000    64.0000 </r>
       <r>   -31.1352     0.0000    64.0000 </r>
       <r>   -30.9401     0.1389    64.0271 </r>
       <r>   -30.7451    21.4851    68.2183 </r>
       <r>   -30.5500    50.8922    78.1460 </r>
       <r>   -30.3549   164.8721   110.3084 </r>
       <r>   -30.1598   204.2500   150.1524 </r>
       <r>   -29.9648   215.7429   192.2384 </r>
       <r>   -29.7697   245.5553   240.1399 </r>
       <r>   -29.5746    80.1093   255.7672 </r>
       <r>   -29.3795     1.1932   256.0000 </r>
       <r>   -29.1845     0.0000   256.0000 </r>
       <r>   -28.9894     0.0000   256.0000 </r>
       <r>   -28.7943     0.0000   256.0000 </r>
       <r>   -28.5992     0.0000   256.0000 </r>
       <r>   -28.4042     0.0000   256.0000 </r>
       <r>   -28.2091     0.0000   256.0000 </r>
       <r>   -28.0140     0.0000   256.0000 </r>
       <r>   -27.8189     0.0000   256.0000 </r>
       <r>   -27.6239     0.0000   256.0000 </r>
       <r>   -27.4288     0.0000   256.0000 </r>
       <r>   -27.2337     0.1185   256.0231 </r>
       <r>   -27.0386    18.9185   259.7136 </r>
       <r>   -26.8436    13.6317   262.3728 </r>
       <r>   -26.6485    74.7493   276.9545 </r>
       <r>   -26.4534   117.2129   299.8198 </r>
       <r>   -26.2584    79.6466   315.3568 </r>
       <r>   -26.0633     3.3176   316.0040 </r>
       <r>   -25.8682    12.5288   318.4480 </r>
       <r>   -25.6731     7.9558   320.0000 </r>
       <r>   -25.4781     0.0000   320.0000 </r>
       <r>   -25.2830     0.0000   320.0000 </r>
       <r>   -25.0879     0.0000   320.0000 </r>
       <r>   -24.8928     0.0000   320.0000 </r>
       <r>   -24.6978     0.0000   320.0000 </r>
       <r>   -24.5027     0.0000   320.0000 </r>
       <r>   -24.3076     0.0000   320.0000 </r>
       <r>   -24.1125     0.0000   320.0000 </r>
       <r>   -23.9175     0.0000   320.0000 </r>
       <r>   -23.7224     0.0000   320.0000 </r>
       <r>   -23.5273     0.0000   320.0000 </r>
       <r>   -23.3322     0.0000   320.0000 </r>
       <r>   -23.1372     0.0000   320.0000 </r>
       <r>   -22.9421     0.0000   320.0000 </r>
       <r>   -22.7470     0.0000   320.0000 </r>
       <r>   -22.5519     0.0000   320.0000 </r>
       <r>   -22.3569     0.0000   320.0000 </r>
       <r>   -22.1618     0.0000   320.0000 </r>
       <r>   -21.9667     0.0000   320.0000 </r>
       <r>   -21.7716     0.0000   320.0000 </r>
       <r>   -21.5766     0.0000   320.0000 </r>
       <r>   -21.3815     0.0000   320.0000 </r>
       <r>   -21.1864     0.0000   320.0000 </r>
       <r>   -20.9913     0.0000   320.0000 </r>
       <r>   -20.7963     0.0000   320.0000 </r>
       <r>   -20.6012     0.0000   320.0000 </r>
       <r>   -20.4061     0.0000   320.0000 </r>
       <r>   -20.2110     0.0000   320.0000 </r>
       <r>   -20.0160     0.0000   320.0000 </r>
       <r>   -19.8209     0.0000   320.0000 </r>
       <r>   -19.6258     0.0000   320.0000 </r>
       <r>   -19.4307     0.0000   320.0000 </r>
       <r>   -19.2357     0.0000   320.0000 </r>
       <r>   -19.0406     0.0000   320.0000 </r>
       <r>   -18.8455     0.0000   320.0000 </r>
       <r>   -18.6504     0.0000   320.0000 </r>
       <r>   -18.4554     0.0000   320.0000 </r>
       <r>   -18.2603     0.0000   320.0000 </r>
       <r>   -18.0652     0.0000   320.0000 </r>
       <r>   -17.8701     0.0000   320.0000 </r>
       <r>   -17.6751     0.0000   320.0000 </r>
       <r>   -17.4800     0.0000   320.0000 </r>
       <r>   -17.2849     0.0000   320.0000 </r>
       <r>   -17.0898     0.0000   320.0000 </r>
       <r>   -16.8948     0.0000   320.0000 </r>
       <r>   -16.6997     0.0000   320.0000 </r>
       <r>   -16.5046     0.0000   320.0000 </r>
       <r>   -16.3095     0.0000   320.0000 </r>
       <r>   -16.1145     0.0000   320.0000 </r>
       <r>   -15.9194     0.0000   320.0000 </r>
       <r>   -15.7243     0.0000   320.0000 </r>
       <r>   -15.5292     0.0000   320.0000 </r>
       <r>   -15.3342     0.0000   320.0000 </r>
       <r>   -15.1391     0.0000   320.0000 </r>
       <r>   -14.9440     0.0000   320.0000 </r>
       <r>   -14.7489     0.0000   320.0000 </r>
       <r>   -14.5539     0.0000   320.0000 </r>
       <r>   -14.3588     0.0000   320.0000 </r>
       <r>   -14.1637     0.0000   320.0000 </r>
       <r>   -13.9687     0.0000   320.0000 </r>
       <r>   -13.7736     0.0000   320.0000 </r>
       <r>   -13.5785     0.0000   320.0000 </r>
       <r>   -13.3834     0.0000   320.0000 </r>
       <r>   -13.1884     0.0000   320.0000 </r>
       <r>   -12.9933     0.0000   320.0000 </r>
       <r>   -12.7982     0.0000   320.0000 </r>
       <r>   -12.6031     0.0000   320.0000 </r>
       <r>   -12.4081     0.0000   320.0000 </r>
       <r>   -12.2130     0.0000   320.0000 </r>
       <r>   -12.0179     0.4764   320.0929 </r>
       <r>   -11.8228    12.0310   322.4399 </r>
       <r>   -11.6278    17.1436   325.7842 </r>
       <r>   -11.4327    17.0831   329.1166 </r>
       <r>   -11.2376    22.8682   333.5776 </r>
       <r>   -11.0425    27.0077   338.8462 </r>
       <r>   -10.8475    40.1344   346.6754 </r>
       <r>   -10.6524    27.0056   351.9435 </r>
       <r>   -10.4573     0.2898   352.0000 </r>
       <r>   -10.2622     0.0000   352.0000 </r>
       <r>   -10.0672     0.0000   352.0000 </r>
       <r>    -9.8721     0.0000   352.0000 </r>
       <r>    -9.6770     0.0000   352.0000 </r>
       <r>    -9.4819     1.7697   352.3452 </r>
       <r>    -9.2869    38.7262   359.8997 </r>
       <r>    -9.0918    53.1783   370.2735 </r>
       <r>    -8.8967    99.3670   389.6574 </r>
       <r>    -8.7016   120.3370   413.1321 </r>
       <r>    -8.5066   158.1407   443.9814 </r>
       <r>    -8.3115   194.5195   481.9272 </r>
       <r>    -8.1164   179.7225   516.9865 </r>
       <r>    -7.9213    76.7300   531.9546 </r>
       <r>    -7.7263    23.6844   536.5748 </r>
       <r>    -7.5312    33.0230   543.0167 </r>
       <r>    -7.3361     5.0404   544.0000 </r>
       <r>    -7.1410     0.0000   544.0000 </r>
       <r>    -6.9460     0.0000   544.0000 </r>
       <r>    -6.7509     0.0000   544.0000 </r>
       <r>    -6.5558     0.0000   544.0000 </r>
       <r>    -6.3607     0.0000   544.0000 </r>
       <r>    -6.1657     0.0000   544.0000 </r>
       <r>    -5.9706     0.0000   544.0000 </r>
       <r>    -5.7755     0.0000   544.0000 </r>
       <r>    -5.5804     0.0000   544.0000 </r>
       <r>    -5.3854     0.0000   544.0000 </r>
       <r>    -5.1903     0.0049   544.0010 </r>
       <r>    -4.9952    17.9759   547.5076 </r>
       <r>    -4.8001    35.2244   554.3790 </r>
       <r>    -4.6051    38.5900   561.9069 </r>
       <r>    -4.4100    22.8803   566.3703 </r>
       <r>    -4.2149    39.7230   574.1192 </r>
       <r>    -4.0198    43.0962   582.5262 </r>
       <r>    -3.8248    85.3642   599.1786 </r>
       <r>    -3.6297    71.5813   613.1423 </r>
       <r>    -3.4346    30.4028   619.0731 </r>
       <r>    -3.2395    38.9338   626.6681 </r>
       <r>    -3.0445    34.9627   633.4884 </r>
       <r>    -2.8494    24.8551   638.3370 </r>
       <r>    -2.6543     8.5216   639.9994 </r>
       <r>    -2.4593     0.0032   640.0000 </r>
       <r>    -2.2642     0.0000   640.0000 </r>
       <r>    -2.0691     0.0000   640.0000 </r>
       <r>    -1.8740     0.0613   640.0120 </r>
       <r>    -1.6790     6.9704   641.3717 </r>
       <r>    -1.4839    11.9447   643.7018 </r>
       <r>    -1.2888    21.0205   647.8024 </r>
       <r>    -1.0937    15.4038   650.8073 </r>
       <r>    -0.8987    18.2763   654.3725 </r>
       <r>    -0.7036    26.3665   659.5159 </r>
       <r>    -0.5085    23.1211   664.0263 </r>
       <r>    -0.3134    32.0661   670.2815 </r>
       <r>    -0.1184    31.9237   676.5090 </r>
       <r>     0.0767    33.0979   682.9656 </r>
       <r>     0.2718    25.3246   687.9058 </r>
       <r>     0.4669    30.4575   693.8473 </r>
       <r>     0.6619    52.3479   704.0590 </r>
       <r>     0.8570    90.2766   721.6697 </r>
       <r>     1.0521   108.1942   742.7756 </r>
       <r>     1.2472   101.0203   762.4821 </r>
       <r>     1.4422    28.2853   767.9999 </r>
       <r>     1.6373     0.0007   768.0000 </r>
       <r>     1.8324     0.0000   768.0000 </r>
       <r>     2.0275     0.0000   768.0000 </r>
       <r>     2.2225     0.0000   768.0000 </r>
       <r>     2.4176     0.0000   768.0000 </r>
       <r>     2.6127     0.0000   768.0000 </r>
       <r>     2.8078     0.0000   768.0000 </r>
       <r>     3.0028     0.0000   768.0000 </r>
       <r>     3.1979     0.0000   768.0000 </r>
       <r>     3.3930     0.0000   768.0000 </r>
       <r>     3.5881     0.0000   768.0000 </r>
       <r>     3.7831     0.0000   768.0000 </r>
       <r>     3.9782     0.0000   768.0000 </r>
      </set>
     </set>
    </array>
   </total>
  </dos>
 </calculation>
 <structure name="finalpos" >
  <crystal>
   <varray name="basis" >
    <v>      13.12862340       0.00000000       0.00000000 </v>
    <v>      -6.56431170      11.36972138       0.00000000 </v>
    <v>       0.00000000       0.00000000      26.82809424 </v>
   </varray>
   <i name="volume">   4004.59716953 </i>
   <varray name="rec_basis" >
    <v>       0.07616945       0.04397645       0.00000000 </v>
    <v>       0.00000000       0.08795290       0.00000000 </v>
    <v>       0.00000000       0.00000000       0.03727436 </v>
   </varray>
  </crystal>
  <varray name="positions" >
   <v>       0.07976635       0.16793082       0.45691096 </v>
   <v>       0.08741573       0.41660474       0.45117503 </v>
   <v>       0.08800259       0.66463820       0.44932580 </v>
   <v>       0.08226242       0.91194312       0.45283726 </v>
   <v>       0.34057000       0.16125495       0.45497851 </v>
   <v>       0.33199452       0.41155839       0.45049548 </v>
   <v>       0.34026776       0.66732835       0.45387711 </v>
   <v>       0.33433055       0.91338917       0.45056216 </v>
   <v>       0.59000331       0.16567223       0.45362177 </v>
   <v>       0.57898354       0.42171449       0.45212857 </v>
   <v>       0.57978466       0.66451292       0.45522245 </v>
   <v>       0.57818646       0.91460418       0.45219670 </v>
   <v>       0.83115282       0.16776904       0.45401235 </v>
   <v>       0.82602696       0.41802329       0.44725099 </v>
   <v>       0.83440708       0.67923517       0.45209316 </v>
   <v>       0.82960976       0.91965647       0.45342581 </v>
   <v>       0.16919455       0.08218599       0.55116439 </v>
   <v>       0.16344107       0.32538058       0.54967233 </v>
   <v>       0.16704172       0.58435390       0.54366353 </v>
   <v>       0.17298219       0.83805835       0.54753913 </v>
   <v>       0.42054625       0.08595470       0.55111258 </v>
   <v>       0.41206485       0.32964799       0.54668982 </v>
   <v>       0.40921474       0.57654947       0.54685385 </v>
   <v>       0.41417734       0.83257850       0.55040526 </v>
   <v>       0.66949799       0.08292109       0.54861727 </v>
   <v>       0.66622819       0.33817141       0.54552967 </v>
   <v>       0.67051967       0.58979430       0.54704925 </v>
   <v>       0.65939652       0.83577034       0.54773255 </v>
   <v>       0.91132952       0.08016891       0.54834200 </v>
   <v>       0.91352733       0.33670684       0.54458580 </v>
   <v>       0.91430600       0.57765650       0.54291045 </v>
   <v>       0.92201370       0.83688279       0.54756377 </v>
   <v>       0.10133522       0.17742798       0.59399192 </v>
   <v>       0.09430814       0.44283238       0.58677417 </v>
   <v>       0.10132607       0.67943966       0.58711663 </v>
   <v>       0.07904257       0.91381265       0.59658213 </v>
   <v>       0.35001416       0.16884616       0.59336645 </v>
   <v>       0.32999361       0.41294924       0.58613887 </v>
   <v>       0.33263990       0.66756678       0.59137612 </v>
   <v>       0.33359684       0.91225777       0.59440720 </v>
   <v>       0.60072546       0.17160379       0.59062203 </v>
   <v>       0.58633329       0.41361102       0.58692173 </v>
   <v>       0.57961791       0.67317609       0.58955786 </v>
   <v>       0.57826318       0.91151221       0.58851120 </v>
   <v>       0.84263497       0.17558527       0.59140631 </v>
   <v>       0.83692454       0.42461256       0.59143116 </v>
   <v>       0.82454617       0.66765620       0.58562422 </v>
   <v>       0.82412876       0.91009724       0.58963088 </v>
   <v>       0.18025181       0.08590498       0.40928218 </v>
   <v>       0.16796263       0.33638207       0.41102624 </v>
   <v>       0.16121904       0.57077698       0.40027851 </v>
   <v>       0.17112594       0.82654445       0.40582195 </v>
   <v>       0.42571950       0.08590437       0.41023169 </v>
   <v>       0.40406411       0.31596294       0.41396152 </v>
   <v>       0.42122157       0.57974809       0.40860900 </v>
   <v>       0.42115001       0.83646846       0.41171847 </v>
   <v>       0.66340414       0.07744180       0.40906945 </v>
   <v>       0.65981706       0.32930924       0.41347075 </v>
   <v>       0.65143690       0.58107219       0.40836274 </v>
   <v>       0.66966956       0.82903922       0.41275651 </v>
   <v>       0.91433787       0.08024215       0.41085459 </v>
   <v>       0.91496963       0.33406659       0.41229668 </v>
   <v>       0.90186097       0.57620818       0.40989866 </v>
   <v>       0.90650351       0.83338160       0.40893234 </v>
   <v>       0.00727250       0.00279286       0.50358790 </v>
   <v>       0.99838349       0.24889772       0.49990287 </v>
   <v>       0.99939615       0.50353503       0.49670408 </v>
   <v>       0.99241037       0.75377851       0.50048119 </v>
   <v>       0.25567483       0.00248758       0.50209547 </v>
   <v>       0.23809415       0.24303866       0.50272757 </v>
   <v>       0.25330720       0.50170737       0.49795412 </v>
   <v>       0.25207845       0.74849579       0.49671038 </v>
   <v>       0.50246882       0.00533917       0.50018094 </v>
   <v>       0.50090397       0.25180420       0.50112859 </v>
   <v>       0.49127236       0.48994482       0.50079368 </v>
   <v>       0.50233786       0.74772293       0.49985892 </v>
   <v>       0.75434817       0.00972805       0.50310633 </v>
   <v>       0.75087815       0.25034254       0.49973974 </v>
   <v>       0.74601690       0.49471570       0.49733175 </v>
   <v>       0.75146744       0.74856654       0.49934720 </v>
  </varray>
  <varray name="velocities" >
   <v>       0.00000000       0.00000000       0.00000000 </v>
   <v>       0.00000000       0.00000000       0.00000000 </v>
   <v>       0.00000000       0.00000000       0.00000000 </v>
   <v>       0.00000000       0.00000000       0.00000000 </v>
   <v>       0.00000000       0.00000000       0.00000000 </v>
   <v>       0.00000000       0.00000000       0.00000000 </v>
   <v>       0.00000000       0.00000000       0.00000000 </v>
   <v>       0.00000000       0.00000000       0.00000000 </v>
   <v>       0.00000000       0.00000000       0.00000000 </v>
   <v>       0.00000000       0.00000000       0.00000000 </v>
   <v>       0.00000000       0.00000000       0.00000000 </v>
   <v>       0.00000000       0.00000000       0.00000000 </v>
   <v>       0.00000000       0.00000000       0.00000000 </v>
   <v>       0.00000000       0.00000000       0.00000000 </v>
   <v>       0.00000000       0.00000000       0.00000000 </v>
   <v>       0.00000000       0.00000000       0.00000000 </v>
   <v>       0.00000000       0.00000000       0.00000000 </v>
   <v>       0.00000000       0.00000000       0.00000000 </v>
   <v>       0.00000000       0.00000000       0.00000000 </v>
   <v>       0.00000000       0.00000000       0.00000000 </v>
   <v>       0.00000000       0.00000000       0.00000000 </v>
   <v>       0.00000000       0.00000000       0.00000000 </v>
   <v>       0.00000000       0.00000000       0.00000000 </v>
   <v>       0.00000000       0.00000000       0.00000000 </v>
   <v>       0.00000000       0.00000000       0.00000000 </v>
   <v>       0.00000000       0.00000000       0.00000000 </v>
   <v>       0.00000000       0.00000000       0.00000000 </v>
   <v>       0.00000000       0.00000000       0.00000000 </v>
   <v>       0.00000000       0.00000000       0.00000000 </v>
   <v>       0.00000000       0.00000000       0.00000000 </v>
   <v>       0.00000000       0.00000000       0.00000000 </v>
   <v>       0.00000000       0.00000000       0.00000000 </v>
   <v>       0.00000000       0.00000000       0.00000000 </v>
   <v>       0.00000000       0.00000000       0.00000000 </v>
   <v>       0.00000000       0.00000000       0.00000000 </v>
   <v>       0.00000000       0.00000000       0.00000000 </v>
   <v>       0.00000000       0.00000000       0.00000000 </v>
   <v>       0.00000000       0.00000000       0.00000000 </v>
   <v>       0.00000000       0.00000000       0.00000000 </v>
   <v>       0.00000000       0.00000000       0.00000000 </v>
   <v>       0.00000000       0.00000000       0.00000000 </v>
   <v>       0.00000000       0.00000000       0.00000000 </v>
   <v>       0.00000000       0.00000000       0.00000000 </v>
   <v>       0.00000000       0.00000000       0.00000000 </v>
   <v>       0.00000000       0.00000000       0.00000000 </v>
   <v>       0.00000000       0.00000000       0.00000000 </v>
   <v>       0.00000000       0.00000000       0.00000000 </v>
   <v>       0.00000000       0.00000000       0.00000000 </v>
   <v>       0.00000000       0.00000000       0.00000000 </v>
   <v>       0.00000000       0.00000000       0.00000000 </v>
   <v>       0.00000000       0.00000000       0.00000000 </v>
   <v>       0.00000000       0.00000000       0.00000000 </v>
   <v>       0.00000000       0.00000000       0.00000000 </v>
   <v>       0.00000000       0.00000000       0.00000000 </v>
   <v>       0.00000000       0.00000000       0.00000000 </v>
   <v>       0.00000000       0.00000000       0.00000000 </v>
   <v>       0.00000000       0.00000000       0.00000000 </v>
   <v>       0.00000000       0.00000000       0.00000000 </v>
   <v>       0.00000000       0.00000000       0.00000000 </v>
   <v>       0.00000000       0.00000000       0.00000000 </v>
   <v>       0.00000000       0.00000000       0.00000000 </v>
   <v>       0.00000000       0.00000000       0.00000000 </v>
   <v>       0.00000000       0.00000000       0.00000000 </v>
   <v>       0.00000000       0.00000000       0.00000000 </v>
   <v>       0.00000000       0.00000000       0.00000000 </v>
   <v>       0.00000000       0.00000000       0.00000000 </v>
   <v>       0.00000000       0.00000000       0.00000000 </v>
   <v>       0.00000000       0.00000000       0.00000000 </v>
   <v>       0.00000000       0.00000000       0.00000000 </v>
   <v>       0.00000000       0.00000000       0.00000000 </v>
   <v>       0.00000000       0.00000000       0.00000000 </v>
   <v>       0.00000000       0.00000000       0.00000000 </v>
   <v>       0.00000000       0.00000000       0.00000000 </v>
   <v>       0.00000000       0.00000000       0.00000000 </v>
   <v>       0.00000000       0.00000000       0.00000000 </v>
   <v>       0.00000000       0.00000000       0.00000000 </v>
   <v>       0.00000000       0.00000000       0.00000000 </v>
   <v>       0.00000000       0.00000000       0.00000000 </v>
   <v>       0.00000000       0.00000000       0.00000000 </v>
   <v>       0.00000000       0.00000000       0.00000000 </v>
  </varray>
 </structure>
</modeling>
