80
Time=50000.00000004 pbc="T T F" Lattice="13.12862340 0.00000000 0.00000000 -6.56431170 11.36972138 0.00000000 0.00000000 0.00000000 26.82809424" energy=-597.58147240 virial="8.97050183 -1.98843535 -1.85001965 -1.98843535 7.75902657 6.00315551 -1.85001965 6.00315551 2.93657051" stress="0.00275650 -0.00049654 -0.00046197 -0.00049654 0.00245398 0.00149907 -0.00046197 0.00149907 0.00124975" Properties=species:S:1:pos:R:3
Sc 0.02565227 1.98150877 12.19017405
Sc -1.55633109 4.68724705 12.16153530
Sc -3.22581375 7.69967432 12.04858890
Sc -4.87317417 10.50175415 12.10417113
Sc 3.31646928 1.88893591 12.13482870
Sc 1.68375885 4.74001304 12.26417030
Sc 0.03519994 7.61708626 12.08312904
Sc -1.58826794 10.45156108 12.17865159
Sc 6.59061636 1.89527943 12.24030744
Sc 4.91983374 4.70876223 12.14131784
Sc 3.20419432 7.53430563 12.03624884
Sc 1.71106371 10.44436155 12.13733919
Sc 9.77166023 1.90441937 12.27377308
Sc 8.26276853 4.73153687 12.13378768
Sc 6.53760876 7.54268189 12.07020233
Sc 4.94624202 10.43584963 12.04700924
Sc 1.65614324 0.95027523 14.57010634
Sc -0.04463242 3.79274285 14.79162502
Sc -1.66081981 6.66041046 14.66639358
Sc -3.38572214 9.45332560 14.64757999
Sc 4.87286034 0.86996182 14.63296330
Sc 3.24288711 3.72269586 14.71272589
Sc 1.61836478 6.65519448 14.71179718
Sc -0.01205455 9.52293099 14.69353912
Sc 8.27208433 0.88906591 14.77410297
Sc 6.51452063 3.79275589 14.75519812
Sc 4.84768041 6.64938891 14.61763533
Sc 3.30438038 9.51880901 14.59415337
Sc 11.56890006 0.88685067 14.60392020
Sc 9.84465795 3.75584280 14.72918338
Sc 8.23228466 6.59349097 14.68117396
Sc 6.58970090 9.35978142 14.64456727
F 0.00168887 1.84823410 15.83694844
F -1.66795166 4.96584158 16.00494079
F -3.32402686 7.40241871 15.93625592
F -4.96096790 10.27270230 15.74937745
F 3.16265835 1.64638481 15.86950106
F 1.54759002 4.77547772 15.85506196
F -0.10394572 7.74955733 15.81230345
F -1.69178361 10.40975640 15.91987641
F 6.62039144 1.93708239 15.81976518
F 4.82424350 4.72554558 15.95233185
F 3.28826064 7.56169993 15.78760106
F 1.76695940 10.35544049 15.80866006
F 9.93549359 2.04768055 15.93917418
F 8.29610218 4.73614773 15.78853692
F 6.63395906 7.52561295 15.83134590
F 5.12543769 10.31367926 15.74027529
F 1.58575794 1.06493141 10.96028820
F 0.13199283 3.86766994 11.01196382
F -1.56770467 6.82247477 10.98171944
F -3.17409069 9.59262009 11.00058143
F 4.89716484 0.93381148 11.05987195
F 3.36871609 3.65976236 11.04071516
F 1.71247665 6.51803768 10.97180215
F 0.05864473 9.49798405 11.01846028
F 7.93006381 0.96608974 10.96421755
F 6.62643351 3.79938328 11.09449160
F 4.73964290 6.67604520 10.94603165
F 3.15906500 9.49450333 11.02034634
F 11.38112996 1.04008261 10.99764659
F 9.74305062 3.66157478 10.98535320
F 8.12456128 6.68207709 11.11534547
F 6.31317993 9.42036739 10.92960649
C 6.54234790 11.35963007 13.32575963
C -1.57680536 2.90705408 13.41793340
C 9.89182296 5.55948568 13.29232690
C -4.90155640 8.55470656 13.28209291
C -3.34697951 11.36399144 13.36089855
C 1.65320167 2.84563940 13.51385866
C 0.01461989 5.77526556 13.45774142
C -1.62609578 8.61035064 13.37085049
C 6.58883476 0.07743882 13.45897392
C 4.95366807 2.80084069 13.49612266
C 3.30213728 5.67412101 13.40857285
C 1.70644896 8.52719017 13.41058084
C 9.88171180 0.05682107 13.38046961
C 8.23493803 2.85196570 13.50994343
C 6.46261661 5.64146880 13.44559868
C 4.87019143 8.55295182 13.36547172
80
Time=99999.99999996 pbc="T T F" Lattice="13.12862340 0.00000000 0.00000000 -6.56431170 11.36972138 0.00000000 0.00000000 0.00000000 26.82809424" energy=-597.80209780 virial="7.45813184 -0.05999661 -2.09017904 -0.05999661 6.15095047 -0.44430053 -2.09017904 -0.44430053 -0.40689113" stress="0.00237884 -0.00001498 -0.00052194 -0.00001498 0.00205242 -0.00011095 -0.00052194 -0.00011095 0.00041484" Properties=species:S:1:pos:R:3
Sc 0.07818395 1.92435245 12.27554346
Sc -1.65825996 4.73728351 12.13727801
Sc -3.33413997 7.61223195 12.16522419
Sc -4.99336612 10.48177404 12.32551617
Sc 3.29986239 1.88394079 12.12612379
Sc 1.59878025 4.72538425 12.17967042
Sc -0.01211550 7.57631883 12.17860733
Sc -1.70661829 10.37441503 12.07241909
Sc 6.51645018 1.90643472 12.01068207
Sc 4.90998155 4.75462581 12.11761009
Sc 3.20663180 7.55510698 12.15290914
Sc 1.60916770 10.43012115 12.02039425
Sc 9.87867794 1.83685361 12.12917455
Sc 8.16996731 4.75328728 12.10465266
Sc 6.59449358 7.60235649 12.17954034
Sc 4.95564650 10.37378992 12.16623674
Sc 1.65897136 1.01949058 14.76923761
Sc 0.07743848 3.77999928 14.73130665
Sc -1.63267784 6.58967030 14.61954905
Sc -3.23748507 9.50351676 14.70779008
Sc 4.96604190 0.98036613 14.63492522
Sc 3.34605088 3.79969371 14.70230024
Sc 1.62450033 6.59685622 14.76772669
Sc -0.04612792 9.41884775 14.65645786
Sc 8.10864705 0.94811369 14.60314322
Sc 6.61738296 3.77456925 14.59483475
Sc 4.86203355 6.68542402 14.74314664
Sc 3.15837575 9.51050928 14.59123772
Sc 11.47344508 0.97992513 14.74969719
Sc 9.81218305 3.78287173 14.71058355
Sc 8.27414665 6.64780155 14.65161138
Sc 6.56087106 9.50571319 14.75824985
F 0.04515887 1.90956128 15.73986920
F -1.65876437 4.75735082 15.83204066
F -3.14651952 7.52815268 15.86003973
F -4.86866534 10.44701217 15.82385325
F 3.24363843 1.82144539 16.01338312
F 1.62701626 4.68630790 15.87873894
F 0.18562470 7.74881811 15.90705465
F -1.53700509 10.38795377 15.67359548
F 6.56151553 1.92537983 15.79893359
F 5.05812500 4.81718052 15.77287865
F 3.25180924 7.43661856 15.77302470
F 1.63400976 10.39850989 15.73102397
F 9.80974295 1.74975591 15.96802616
F 8.11005744 4.72333722 15.83085693
F 6.45877700 7.56182693 15.92788352
F 5.05448504 10.52136985 15.84822618
F 1.68782060 0.88329881 10.93508669
F 0.09743420 3.82788499 10.98869322
F -1.67798039 6.53846769 11.11373017
F -3.37111507 9.51568917 10.99954809
F 4.87741016 0.81521014 10.89597410
F 3.43856467 3.89990232 10.86748969
F 1.62693713 6.59039458 11.05704096
F -0.18580592 9.34518064 10.74122027
F 8.15773898 0.94905248 10.93184614
F 6.73207326 3.68879734 10.82741074
F 4.94575029 6.60059446 11.04588863
F 3.23059498 9.38613724 11.01810120
F 11.50999867 0.95499893 11.14264631
F 9.92394480 3.83759435 11.00555096
F 8.17331811 6.72748679 10.96895562
F 6.74461738 9.52176231 11.16047890
C -0.04333506 0.09392810 13.53740094
C -1.62357175 2.83662802 13.44841501
C -3.24827938 5.64595213 13.44157509
C -4.90623381 8.55352795 13.48278719
C -3.31289276 11.35735771 13.39553590
C 1.72851676 2.92044363 13.46645296
C -0.02606236 5.66555488 13.50150419
C -1.56844446 8.50651668 13.36221269
C -0.10498744 11.35250191 13.28075287
C 4.98739576 2.81217198 13.31003769
C 3.35007256 5.68002769 13.44790834
C 1.59248260 8.61389739 13.34366853
C 9.76243196 0.01844202 13.33158583
C 8.14356277 2.79627561 13.36534222
C 6.61421471 5.68382841 13.42187067
C 4.87958791 8.56378287 13.44329194
80
Time=149999.99999957 pbc="T T F" Lattice="13.12862340 0.00000000 0.00000000 -6.56431170 11.36972138 0.00000000 0.00000000 0.00000000 26.82809424" energy=-597.84325504 virial="2.52649952 -1.53386882 -4.72139460 -1.53386882 6.57658743 -2.48391920 -4.72139460 -2.48391920 -7.08141273" stress="0.00114735 -0.00038303 -0.00117899 -0.00038303 0.00215871 -0.00062027 -0.00117899 -0.00062027 -0.00125187" Properties=species:S:1:pos:R:3
Sc 0.06147224 1.87996368 12.12890670
Sc -1.60186959 4.76980423 12.25511048
Sc -3.28631977 7.44682217 12.17381168
Sc -4.85049937 10.40568806 12.16705394
Sc 3.28805502 1.95924887 12.17947816
Sc 1.64272760 4.80337792 12.23380075
Sc 0.09883704 7.56242689 12.08389877
Sc -1.71614526 10.32752089 12.15658207
Sc 6.48241105 1.97512285 12.20480314
Sc 4.91217893 4.77957464 12.09255462
Sc 3.32178471 7.73152089 12.03354354
Sc 1.52468575 10.49707094 12.03999771
Sc 9.94081809 1.93134713 12.08576861
Sc 8.09311984 4.70204032 12.13243831
Sc 6.50087954 7.57799017 12.18376104
Sc 4.95540037 10.51250898 12.04017667
Sc 1.65900449 0.98122974 14.72021807
Sc 0.03368214 3.71208623 14.76398794
Sc -1.68721352 6.62004657 14.71207009
Sc -3.29418139 9.43621526 14.70768563
Sc 4.90785410 0.91672169 14.72682691
Sc 3.26364952 3.80465821 14.81421545
Sc 1.60621970 6.72722233 14.64608402
Sc -0.04080225 9.55141169 14.59552727
Sc 8.23436530 1.04517027 14.68968712
Sc 6.56161910 3.80942878 14.71194087
Sc 4.90121915 6.61540570 14.71609844
Sc 3.29499292 9.58016872 14.61752169
Sc 11.51274501 0.89013976 14.62674205
Sc 9.85884352 3.77377909 14.69273941
Sc 8.18944241 6.58351327 14.60329879
Sc 6.63037259 9.46172053 14.70144111
F 0.04532653 1.68127396 15.96295514
F -1.62328992 4.73754017 15.79860338
F -3.28371156 7.54504581 15.79389446
F -4.83052284 10.50586663 15.79382700
F 3.31986705 1.79240414 15.82578885
F 1.62590101 4.62266851 15.86999751
F -0.01744513 7.62906226 15.75224458
F -1.63912776 10.38493813 15.90576563
F 6.64899734 1.94206315 15.87632805
F 5.02316788 4.62954904 15.91458621
F 3.13220267 7.52005910 15.87497166
F 1.81941372 10.33979837 15.90450784
F 9.82993305 1.97775038 15.86417367
F 8.16674137 4.77547614 15.85767696
F 6.48313998 7.47725780 15.88534710
F 5.09703671 10.46785807 15.83737451
F 1.66611544 0.93099289 11.01401927
F 0.03070484 3.80617032 11.00767797
F -1.69081163 6.33942429 11.07338551
F -3.30810435 9.44955508 10.87869430
F 4.85891022 0.82679324 11.07484877
F 3.24313486 3.84065544 10.97635458
F 1.62843147 6.74765322 10.89978867
F -0.10909015 9.45059038 11.01884896
F 8.05946004 0.92526630 10.99170066
F 6.45803233 3.81507248 10.97289533
F 4.96523120 6.59171285 10.97204568
F 3.30320258 9.46787189 10.83454596
F 11.49774978 0.79118402 10.81735009
F 9.80314888 3.76963525 11.05588215
F 8.19923915 6.58402099 10.97537816
F 6.66469986 9.38515834 10.95326116
C 6.52887149 11.34087134 13.36762480
C -1.58085143 2.84678732 13.38808750
C 9.80718205 5.70238285 13.43252273
C 8.17138375 8.53155605 13.47300307
C -3.18860443 11.29274102 13.46337177
C 1.64314621 2.83371581 13.47662727
C 0.04651287 5.73868976 13.47910928
C -1.64546918 8.56433031 13.39395913
C 6.60770542 0.00911903 13.40626098
C 4.97885258 2.91413996 13.39193169
C 3.27548751 5.63397648 13.50689256
C 1.66612078 8.59371237 13.32513563
C 9.78008922 0.04718349 13.40965980
C 8.22705270 2.87490368 13.41841743
C 6.53709892 5.67499224 13.42123740
C 4.83825309 8.49715206 13.33818863
80
Time=199999.99999918 pbc="T T F" Lattice="13.12862340 0.00000000 0.00000000 -6.56431170 11.36972138 0.00000000 0.00000000 0.00000000 26.82809424" energy=-598.01904869 virial="5.32133568 -0.13579723 -5.99634793 -0.13579723 3.22857039 -0.52835815 -5.99634793 -0.52835815 -8.59477619" stress="0.00184525 -0.00003391 -0.00149737 -0.00003391 0.00132266 -0.00013194 -0.00149737 -0.00013194 -0.00162978" Properties=species:S:1:pos:R:3
Sc -0.04925561 1.88305572 12.06981211
Sc -1.69507613 4.74972281 12.14587705
Sc -3.31686886 7.50710268 12.14171308
Sc -4.93688305 10.45399371 12.11216571
Sc 3.35112780 1.85310563 12.12352878
Sc 1.57698207 4.77094767 12.10900568
Sc -0.00724313 7.60579090 12.16490642
Sc -1.56451608 10.43120972 12.12346552
Sc 6.56088798 1.88960193 12.19698316
Sc 4.87251718 4.64703464 12.22062566
Sc 3.28180972 7.54488891 12.09235978
Sc 1.65400796 10.36747297 12.14381836
Sc 9.74454533 1.84815463 12.08550949
Sc 8.13201237 4.79187432 12.09793485
Sc 6.48821048 7.52411458 12.21273391
Sc 4.88523755 10.40924576 12.11262404
Sc 1.66804165 0.95704287 14.57950974
Sc -0.11053928 3.85420934 14.75354114
Sc -1.59297205 6.65053964 14.73481746
Sc -3.25176141 9.45608223 14.69604246
Sc 5.02241878 0.93237566 14.69260274
Sc 3.21960375 3.69181573 14.65871033
Sc 1.69713083 6.61606165 14.67212812
Sc -0.02193265 9.42010230 14.71679335
Sc 8.25706911 0.93583752 14.72401375
Sc 6.59788773 3.79028572 14.81751850
Sc 4.92002320 6.64507497 14.76467526
Sc 3.38069219 9.49696894 14.61477142
Sc 11.55311585 0.97042587 14.63306304
Sc 9.84300626 3.77418461 14.69122946
Sc 8.25062340 6.76308661 14.70293199
Sc 6.55383545 9.53962261 14.59379874
F -0.04488255 1.96025486 15.93589016
F -1.65123110 4.77678362 15.91864436
F -3.23292536 7.65953954 15.98753238
F -4.93508029 10.45365280 15.70156548
F 3.17477535 1.85793045 15.81267199
F 1.62996150 4.67036487 15.81737208
F -0.01307068 7.63846493 16.02607960
F -1.58614043 10.38442705 15.86311535
F 6.58631496 1.80022048 15.82287549
F 4.94322997 4.70095962 15.80122377
F 3.32449382 7.67622405 15.75517077
F 1.60723951 10.57946560 15.92342529
F 9.81932958 1.77908819 15.81353591
F 8.30402722 4.60034846 15.97612465
F 6.51886484 7.66454258 15.86864475
F 5.06446422 10.49366450 15.75299515
F 1.77976750 0.90163737 10.83788732
F -0.06011636 3.82405111 10.89513445
F -1.56894250 6.47887690 10.96310765
F -3.28044363 9.56337333 10.96885908
F 5.00932794 0.98820171 11.04230912
F 3.25880059 3.82422869 10.94023088
F 1.48968490 6.71145205 10.93733506
F -0.01669407 9.44636697 10.97857255
F 8.22608238 0.91748410 11.11618004
F 6.42926985 3.85544016 11.14094107
F 4.91052857 6.84594651 11.06449476
F 3.32425876 9.59985394 10.94145656
F 11.50409327 0.89596294 10.87502017
F 9.76736285 3.79034809 10.95456079
F 8.15129992 6.60547378 10.94834441
F 6.60216190 9.40456280 11.07859684
C 0.04033409 0.04246805 13.31724476
C 11.46158658 2.86654453 13.44171895
C 9.84528793 5.64565917 13.44014968
C -4.78288643 8.48684756 13.40306832
C -3.21362909 11.34818473 13.38440494
C 1.62920160 2.81175141 13.30983072
C -0.07459108 5.68881682 13.42961227
C -1.64519604 8.51374494 13.37386728
C 0.04903756 11.36446048 13.36921048
C 4.93774422 2.84107668 13.45633849
C 3.28592008 5.66053885 13.40211210
C 1.67091360 8.36345096 13.46799875
C 3.25893263 11.36437615 13.35840303
C 8.24744243 2.92634521 13.43158547
C 6.57612239 5.74885089 13.51849450
C 4.89737642 8.50933294 13.37614020
80
Time=249999.99999879 pbc="T T F" Lattice="13.12862340 0.00000000 0.00000000 -6.56431170 11.36972138 0.00000000 0.00000000 0.00000000 26.82809424" energy=-597.75288296 virial="6.98507355 0.48029880 -0.30942126 0.48029880 7.03385066 2.96965181 -0.30942126 2.96965181 2.37622651" stress="0.00226071 0.00011994 -0.00007727 0.00011994 0.00227289 0.00074156 -0.00007727 0.00074156 0.00110982" Properties=species:S:1:pos:R:3
Sc 0.05613913 1.91636919 12.22143284
Sc -1.58107070 4.75240010 12.22270869
Sc -3.31987775 7.52286820 12.05510681
Sc -4.90205105 10.36779942 12.19656912
Sc 3.23572790 1.91062220 12.16004380
Sc 1.67513198 4.71068765 12.16343211
Sc -0.07407293 7.61960389 12.20129821
Sc -1.65363745 10.54455327 12.14125489
Sc 6.52517971 1.88323537 12.12448535
Sc 4.91887979 4.81739574 12.05798764
Sc 3.26122410 7.62149105 12.11681368
Sc 1.59230185 10.41621198 12.17834854
Sc 9.82142811 1.95333936 12.02408723
Sc 8.24528241 4.78010534 12.20065931
Sc 6.52316576 7.57214198 12.24896415
Sc 4.92144557 10.36993851 12.06082359
Sc 1.58776131 0.93014422 14.63319701
Sc -0.01379952 3.84390633 14.75977668
Sc -1.57998139 6.59212298 14.71197921
Sc -3.32152268 9.32110983 14.73912706
Sc 4.92120178 0.97898085 14.56233913
Sc 3.30030555 3.82601324 14.69203795
Sc 1.72207910 6.66062276 14.64413754
Sc -0.02305608 9.44423254 14.70839525
Sc 8.13421511 0.85831335 14.69084213
Sc 6.66901473 3.72920842 14.66576476
Sc 4.86566590 6.58392670 14.70984579
Sc 3.38278344 9.54767162 14.67361090
Sc 11.43172014 0.91484902 14.56901123
Sc 9.93295710 3.70834544 14.71911172
Sc 8.19301883 6.55590457 14.76240452
Sc 6.53218647 9.45910481 14.66348625
F -0.00431995 1.73557735 15.72766427
F -1.59226376 4.73827564 15.88121171
F -3.29533156 7.58043988 15.84900877
F -4.96181260 10.33189887 15.81622567
F 3.16580427 1.95253234 15.77882011
F 1.62525818 4.74839685 15.92239432
F -0.03316404 7.65034289 15.88105983
F -1.60055122 10.52894902 15.86141560
F 6.56097986 1.84750110 15.77441700
F 4.94073386 4.81111672 15.90808759
F 3.43682696 7.63310212 15.81273891
F 1.61078932 10.46550281 15.83821774
F 9.89346188 2.03510990 15.91589918
F 8.20738272 4.64764915 15.86461071
F 6.49699086 7.69388823 15.84159787
F 4.87426629 10.42006268 15.83794693
F 1.66860859 0.84219435 11.01732856
F 0.00509299 3.84866707 11.02065438
F -1.70354210 6.63295004 11.08442894
F -3.33942934 9.46328293 10.99187879
F 4.85529066 0.97011261 10.88925923
F 3.30312910 3.84115439 11.00020248
F 1.66052689 6.49246779 10.95220541
F 0.21385100 9.26908720 10.95900514
F 8.21193608 1.00407717 10.98645934
F 6.62299271 3.90383166 10.96577620
F 4.87253119 6.60429156 10.89229763
F 3.47285898 9.50893872 10.96408325
F 11.58978128 0.92572928 10.92913420
F 9.85308260 3.88511533 11.00746684
F 8.09187130 6.74572715 11.03620814
F 6.52994829 9.54425463 11.04581497
C 13.03754239 0.08940782 13.42922269
C -1.66857119 2.93655193 13.46077172
C -3.25705632 5.72359032 13.42159053
C -4.87113379 8.56801778 13.45879805
C -3.27979913 11.31386733 13.45684004
C 1.64811750 2.85080030 13.37707740
C 0.02176924 5.72584457 13.52491808
C -1.63496787 8.51394167 13.41759922
C -0.10929348 11.31252326 13.35888101
C 4.91968086 2.84028214 13.26364783
C 3.32952810 5.65384139 13.43151878
C 1.67722432 8.51570970 13.42219413
C 3.14370479 11.35987298 13.28224007
C 8.19893433 2.81800904 13.38970673
C 6.61471959 5.73939533 13.44750919
C 4.91183760 8.51146769 13.36515060
80
Time=299999.99999840 pbc="T T F" Lattice="13.12862340 0.00000000 0.00000000 -6.56431170 11.36972138 0.00000000 0.00000000 0.00000000 26.82809424" energy=-597.79491806 virial="10.99999574 -0.07876293 -2.24399495 -0.07876293 7.95184223 6.76426382 -2.24399495 6.76426382 9.40091580" stress="0.00326329 -0.00001967 -0.00056035 -0.00001967 0.00250213 0.00168912 -0.00056035 0.00168912 0.00286398" Properties=species:S:1:pos:R:3
Sc -0.00030119 1.91630460 12.23868910
Sc -1.66785790 4.66005991 12.11649609
Sc -3.19025054 7.51815217 12.14132315
Sc -4.94199511 10.43947362 12.16419738
Sc 3.31832900 1.98788632 12.21571992
Sc 1.58859579 4.81095523 12.18319390
Sc -0.00401100 7.52657802 12.13866112
Sc -1.71669083 10.42136746 12.17467798
Sc 6.56435137 1.89065415 12.14680801
Sc 4.93861647 4.73670723 12.19224215
Sc 3.35534877 7.59855989 12.08977765
Sc 1.54822480 10.38279661 12.10538760
Sc 9.77264723 1.95242208 12.09321166
Sc 8.22439867 4.68892980 12.06984032
Sc 6.54930106 7.64837227 12.16872146
Sc 4.85995237 10.48908790 12.19254693
Sc 1.62813228 1.00832360 14.68071232
Sc 0.09598801 3.86889815 14.69169141
Sc -1.67835515 6.62799343 14.65883915
Sc -3.38929366 9.46096385 14.69054885
Sc 4.86070503 0.95015940 14.68331858
Sc 3.45898904 3.81614360 14.73947302
Sc 1.60537231 6.66019707 14.66525104
Sc 0.01952166 9.40715811 14.61679011
Sc 8.24205553 0.92429224 14.65386472
Sc 6.68934255 3.71255163 14.80325748
Sc 4.90884913 6.68922279 14.72475073
Sc 3.19291420 9.46984724 14.68160551
Sc 11.39521313 0.95014876 14.67508559
Sc 9.85139575 3.82773213 14.67746561
Sc 8.20139239 6.56563771 14.66039319
Sc 6.54956558 9.51649785 14.54425815
F -0.00033897 1.81318980 15.77672510
F -1.66347643 4.76801679 15.76231230
F -3.22476077 7.59621556 15.78471205
F -4.96893822 10.52054664 15.81493439
F 3.25706654 1.90124290 15.93591753
F 1.85874035 4.68971953 15.73705212
F 0.03086282 7.45757267 15.78046510
F -1.66958442 10.22579142 15.84179627
F 6.65167317 1.75832904 15.89833274
F 5.05084193 4.78477142 15.80155997
F 3.31188628 7.60473788 15.85327227
F 1.62877372 10.29778827 15.83688539
F 9.83515543 1.76487618 15.81255736
F 8.26912389 4.60036758 15.90919017
F 6.56202804 7.63398227 15.80810955
F 4.82190178 10.26142043 15.76858773
F 1.65531874 1.01550753 11.02450923
F -0.03228425 3.97804932 10.99051062
F -1.56355550 6.46132310 11.05522385
F -3.33020745 9.53753710 11.08565857
F 5.00209924 0.93320878 11.02861038
F 3.40001980 3.83137332 11.08384916
F 1.58220069 6.66317235 10.95060405
F -0.05231527 9.52580180 10.91606712
F 8.27105748 1.09218979 10.89192334
F 6.62137262 3.73613419 11.11268968
F 4.86013368 6.65656692 10.93798020
F 3.37584279 9.53221722 10.97051146
F 11.43576512 0.98591995 11.05804145
F 9.84211504 3.74951535 10.84347704
F 8.29356673 6.46859831 11.05150765
F 6.46807418 9.50260514 10.98611538
C 13.03247518 0.02538619 13.41558224
C -1.66300770 2.90328953 13.44205691
C -3.30627006 5.73496876 13.39330263
C 8.15832087 8.54442344 13.48691695
C 3.34049207 0.03440735 13.45625831
C 1.70724044 2.86359618 13.40289195
C -0.03610215 5.71608294 13.46153804
C -1.68442661 8.52851203 13.39459341
C 6.57086878 0.05899677 13.51387034
C 4.95821216 2.80004754 13.45445944
C 3.27609383 5.68029602 13.39366714
C 1.59071565 8.50185417 13.35523152
C 9.87088125 0.01104350 13.33815005
C 8.23231145 2.78225065 13.47466580
C 6.51217410 5.68340840 13.38244480
C 4.95442930 8.46650222 13.37060050
80
Time=349999.99999862 pbc="T T F" Lattice="13.12862340 0.00000000 0.00000000 -6.56431170 11.36972138 0.00000000 0.00000000 0.00000000 26.82809424" energy=-597.48410225 virial="6.17924451 0.76250611 5.40581517 0.76250611 6.35767012 0.47056930 5.40581517 0.47056930 -4.30998685" stress="0.00205948 0.00019041 0.00134990 0.00019041 0.00210404 0.00011751 0.00134990 0.00011751 -0.00055981" Properties=species:S:1:pos:R:3
Sc 0.00620419 1.91904850 12.13777637
Sc -1.65033480 4.76223579 12.11585660
Sc -3.27478150 7.47582587 12.07351004
Sc -4.96007281 10.35134174 12.17359373
Sc 3.31913986 1.83327078 12.16478506
Sc 1.66279646 4.87650690 12.14858933
Sc -0.01646288 7.63592121 12.14485792
Sc -1.67547127 10.45091771 12.02278106
Sc 6.60178363 1.94316144 12.13375631
Sc 4.94426819 4.79871727 12.16412663
Sc 3.21075522 7.65857888 12.20081511
Sc 1.67238807 10.48811315 12.07211845
Sc 9.97247152 1.81663719 12.13117820
Sc 8.27340817 4.64624774 12.20580742
Sc 6.61657650 7.49224750 12.16612060
Sc 4.87562767 10.40252210 12.19155819
Sc 1.64692906 0.87947508 14.66219388
Sc -0.08764066 3.77787747 14.63160111
Sc -1.60501596 6.68779618 14.66871544
Sc -3.26383288 9.42828067 14.52027482
Sc 4.99681004 1.05004948 14.75043708
Sc 3.28825066 3.76414030 14.57576575
Sc 1.62717321 6.50467235 14.75963333
Sc -0.02438432 9.55211559 14.71894218
Sc 8.19372118 0.93423774 14.61181463
Sc 6.61158150 3.77576585 14.73407150
Sc 4.95734504 6.71201510 14.74583389
Sc 3.23420756 9.54346453 14.77522702
Sc 11.46745052 0.90427612 14.72714982
Sc 9.84615083 3.71728352 14.66382543
Sc 8.20522894 6.53855689 14.78130219
Sc 6.56167609 9.45925959 14.67811570
F -0.02233274 1.96227577 15.83810320
F -1.64990454 4.83062612 15.82684673
F -3.33244109 7.60055425 15.76697487
F -4.96061590 10.32306018 15.72272234
F 3.33897112 1.88583465 15.82919613
F 1.52525690 4.65218431 15.91970422
F -0.20363584 7.64312361 15.99452895
F -1.69986409 10.40560632 15.88280507
F 6.50132962 1.79314083 15.93935390
F 4.94711791 4.89912425 15.79306114
F 3.29314899 7.56269326 15.83676327
F 1.62122827 10.67495806 15.97577640
F 9.83660552 1.82744594 15.68413141
F 8.15608875 4.76666985 15.84625536
F 6.58622421 7.47644812 15.83088381
F 4.86852282 10.49759757 15.96733624
F 1.62230632 0.90322925 11.02457126
F -0.08539379 3.69998465 11.00286596
F -1.64429520 6.57880678 10.85348767
F -3.19914420 9.44535801 10.96223571
F 4.74284359 0.93114191 10.99377303
F 3.46975936 3.80399881 11.00509130
F 1.61826298 6.67377349 10.97071445
F 0.07297863 9.42700383 10.84136004
F 8.31053848 1.04788297 10.92726275
F 6.63182755 3.77325367 10.95323954
F 4.95557109 6.80845211 11.01183320
F 3.30736837 9.54167935 11.05072410
F 11.53185113 0.86214316 10.98273599
F 9.88688340 3.83421415 10.94793791
F 8.08259193 6.73235962 11.03680617
F 6.55855000 9.43100253 11.09746031
C 6.46566854 11.30671324 13.49030791
C 11.39499631 2.76978568 13.46951137
C -3.22773577 5.71436130 13.36635152
C 8.20591648 8.46940156 13.39369782
C 3.21873655 0.00363859 13.34768869
C 1.59919092 2.82202068 13.31982614
C -0.03312589 5.76653075 13.38531903
C -1.55102469 8.51490087 13.38769733
C -0.10666511 11.34051642 13.30310785
C 4.93370247 2.81741416 13.42318498
C 3.23002192 5.68443300 13.41405043
C 1.72215916 8.62321290 13.58310069
C 9.84510624 0.02161211 13.35113588
C 8.21542674 2.79797994 13.41644210
C 6.59923948 5.63894237 13.41813177
C 4.93502811 8.57033024 13.43929115
80
Time=400000.00000008 pbc="T T F" Lattice="13.12862340 0.00000000 0.00000000 -6.56431170 11.36972138 0.00000000 0.00000000 0.00000000 26.82809424" energy=-598.31643534 virial="6.60411579 0.18976477 -4.26598271 0.18976477 6.16988044 3.00828732 -4.26598271 3.00828732 5.12732206" stress="0.00216558 0.00004739 -0.00106527 0.00004739 0.00205715 0.00075121 -0.00106527 0.00075121 0.00179681" Properties=species:S:1:pos:R:3
Sc -0.02184807 1.85419653 12.19150970
Sc -1.60220256 4.75882106 12.16505928
Sc -3.29928678 7.52459612 12.17773347
Sc -4.83191224 10.41569092 12.09273384
Sc 3.25385671 2.01338048 12.09483418
Sc 1.65723217 4.73520013 12.14353562
Sc 0.02082664 7.59116995 12.12930852
Sc -1.64880581 10.40348826 12.06935892
Sc 6.54396665 1.94712542 12.06427268
Sc 4.94963677 4.82626680 12.14715172
Sc 3.23415308 7.57715680 12.14013909
Sc 1.60624881 10.44609602 12.14937423
Sc 9.81738036 1.90306987 12.22383700
Sc 8.14806904 4.76473035 12.18827539
Sc 6.60701155 7.57324167 12.19352300
Sc 4.94116471 10.38408480 12.23565074
Sc 1.65074688 0.89634623 14.72151309
Sc 0.13687404 3.74974196 14.67256389
Sc -1.59450880 6.69732259 14.64935289
Sc -3.24257744 9.53630054 14.56269111
Sc 4.98008799 0.93443646 14.58726305
Sc 3.35015790 3.75226423 14.64596175
Sc 1.68326692 6.53300344 14.70180147
Sc -0.05748334 9.47328134 14.62737155
Sc 8.12147769 0.96222179 14.68047654
Sc 6.58547199 3.74459405 14.69503308
Sc 4.89382925 6.65431986 14.69783670
Sc 3.22755376 9.41465966 14.67206662
Sc 11.48433701 0.98863112 14.70448049
Sc 9.87775458 3.77269651 14.71180771
Sc 8.31542193 6.61297006 14.71627702
Sc 6.57618283 9.45887945 14.73933123
F -0.01341556 1.83636980 15.79666429
F -1.60051967 4.69625871 15.86967442
F -3.26484121 7.75045956 15.81094401
F -4.76435729 10.35333711 15.78706418
F 3.37839415 1.73845784 15.82973926
F 1.62775046 4.66902751 15.82800751
F 0.07667015 7.49235301 15.79599153
F -1.69780514 10.35688136 15.71196765
F 6.53793666 1.91403505 15.85800164
F 4.82623799 4.77527330 15.84640641
F 3.23631545 7.52965206 15.85700869
F 1.55590574 10.27762815 15.84374815
F 9.78310937 1.99649205 15.83459656
F 8.21801148 4.84239944 15.93195097
F 6.46738173 7.72961613 15.91985959
F 4.91730147 10.54541409 15.86948660
F 1.48197842 0.83940958 10.97209278
F 0.00657810 3.81109053 11.05637968
F -1.67088357 6.54277313 11.05170481
F -3.37765256 9.49956454 10.94023435
F 4.88818848 0.96988249 10.98400880
F 3.27337251 3.80656848 10.96686929
F 1.69519661 6.58565399 11.07598403
F 0.02152273 9.46408239 10.94847556
F 8.05477955 0.85373021 10.88246687
F 6.55473220 3.85132055 11.00542314
F 4.84899445 6.58281332 10.90407049
F 3.32879192 9.61845723 11.11498916
F 11.37187073 1.00242326 11.00968749
F 9.88598516 3.82046525 11.12046678
F 8.04742597 6.78635240 10.85524728
F 6.53812752 9.47225773 11.00491209
C 13.10250501 0.02896531 13.57111076
C 11.43609554 2.84509920 13.42243666
C -3.27626279 5.71266272 13.45568082
C 8.19615037 8.47635503 13.41318864
C 3.30111275 0.00154145 13.28333252
C 1.63516791 2.77127757 13.41705573
C 0.05878731 5.70430347 13.44736833
C -1.65794859 8.52436530 13.35920462
C -0.07732716 11.28469847 13.25909656
C 4.99229224 2.83295922 13.41063881
C 3.40654143 5.64881187 13.50207478
C 1.64632874 8.53212904 13.40861830
C 9.79325387 0.06935079 13.46903601
C 8.16102567 2.83596552 13.41322838
C 6.56283474 5.67734103 13.46968417
C 4.93155043 8.55025399 13.48297534
80
Time=450000.00000155 pbc="T T F" Lattice="13.12862340 0.00000000 0.00000000 -6.56431170 11.36972138 0.00000000 0.00000000 0.00000000 26.82809424" energy=-597.58718395 virial="6.96134692 -1.50586781 2.61013374 -1.50586781 6.37339776 2.40865804 2.61013374 2.40865804 -4.81207417" stress="0.00225479 -0.00037603 0.00065178 -0.00037603 0.00210797 0.00060147 0.00065178 0.00060147 -0.00068519" Properties=species:S:1:pos:R:3
Sc 0.05629248 1.94691694 12.26627879
Sc -1.51496227 4.66218095 12.15600757
Sc -3.29478581 7.64745201 12.13439547
Sc -4.92820983 10.46845186 12.16285795
Sc 3.32767559 1.93091417 12.18356970
Sc 1.71485142 4.67599509 12.18802338
Sc -0.00916426 7.48480838 12.02759611
Sc -1.59504026 10.46914605 12.08424250
Sc 6.53338839 1.93718070 12.14784947
Sc 5.02485945 4.84857404 12.21586917
Sc 3.35572928 7.58496309 12.08847528
Sc 1.58071468 10.46127978 12.03517881
Sc 9.77682879 1.89291645 12.13926969
Sc 8.25408966 4.74355988 12.17843725
Sc 6.63327792 7.69026348 12.07820304
Sc 4.79559782 10.47869358 12.15845161
Sc 1.71188787 0.91537728 14.74520334
Sc 0.04760111 3.73619891 14.69108109
Sc -1.68717797 6.62218436 14.67869954
Sc -3.19897658 9.49205643 14.75381480
Sc 4.91676747 0.91267791 14.72466698
Sc 3.26932765 3.68449111 14.76601449
Sc 1.64468285 6.62048925 14.58040250
Sc 0.00272656 9.39285902 14.67102621
Sc 8.15465385 0.94840698 14.63572149
Sc 6.54320582 3.71950569 14.72741387
Sc 4.90129561 6.69982409 14.73760329
Sc 3.17401025 9.51132883 14.64274245
Sc 11.40305937 0.97121431 14.75630110
Sc 9.78006577 3.71662220 14.65405112
Sc 8.07991223 6.64844480 14.71676414
Sc 6.45237194 9.56800294 14.63327352
F 0.05418820 1.93485509 15.92675363
F -1.68666280 4.64786505 15.83417180
F -3.21495581 7.65030102 15.81267069
F -4.80742097 10.45915973 15.87668280
F 3.34484296 1.94001714 15.91247240
F 1.55189452 4.76911907 15.82125891
F 0.04722138 7.42261229 15.70201379
F -1.42028678 10.40915438 15.87235949
F 6.51814268 1.81046571 15.83907364
F 4.88039214 4.82069994 15.82028818
F 3.11718545 7.60978472 15.83461505
F 1.65781627 10.35059154 15.76748331
F 9.72467889 1.93315994 15.96716837
F 8.25583392 4.65846948 15.83877649
F 6.50449841 7.59653848 15.78748044
F 4.92573460 10.41493560 15.87502716
F 1.67902465 0.88458932 11.07499875
F 0.04220439 3.58705019 10.98838280
F -1.48018931 6.55176535 10.90257701
F -3.20782580 9.50426303 11.02978823
F 4.88841321 0.91857543 10.98384249
F 3.35495969 3.91102815 11.02382226
F 1.83033458 6.58534226 10.89505455
F -0.00180063 9.42216508 10.91916230
F 8.07516227 0.91855442 10.79125132
F 6.45158981 3.73213561 10.96748261
F 4.91537229 6.66439564 11.10095623
F 3.28587103 9.40697678 10.95708884
F 11.37185581 1.03030950 11.08639988
F 9.76893959 4.01242980 10.96651013
F 8.22137732 6.68246258 10.88123305
F 6.59181295 9.43779442 11.00584670
C -0.00030028 0.08353542 13.43175872
C 11.51391841 2.71047426 13.39370536
C 9.91218804 5.55908685 13.45417434
C 8.21424965 8.48837975 13.44132976
C -3.31873682 11.34694771 13.49965009
C 1.76557224 2.81479911 13.44329607