<?xml version="1.0" encoding="ISO-8859-1"?>
<modeling>
 <generator>
  <i name="program" type="string">vasp </i>
  <i name="version" type="string">5.4.4.18Apr17-6-g9f103f2a35  </i>
  <i name="subversion" type="string">(build Oct 31 2019 15:01:46) complex            parallel </i>
  <i name="platform" type="string">LinuxIFC </i>
  <i name="date" type="string">2024 04 30 </i>
  <i name="time" type="string">00:17:13 </i>
 </generator>
 <incar>
  <i type="int" name="ISTART">     0</i>
  <i type="string" name="PREC">a</i>
  <i type="logical" name="ADDGRID"> T  </i>
  <i type="int" name="IBRION">    -1</i>
  <i name="EDIFF">      0.00000100</i>
  <i name="EDIFFG">     -0.01000000</i>
  <i type="int" name="NSW">     1</i>
  <i type="int" name="ISIF">     2</i>
  <i type="int" name="ISYM">     0</i>
  <i name="ENCUT">    600.00000000</i>
  <i name="POTIM">      1.00000000</i>
  <i type="string" name="LREAL">  Auto</i>
  <i type="int" name="ISMEAR">     0</i>
  <i name="SIGMA">      0.05000000</i>
  <i name="KSPACING">      0.30000000</i>
  <i type="logical" name="KGAMMA"> T  </i>
  <i type="logical" name="LWAVE"> F  </i>
  <i type="logical" name="LCHARG"> F  </i>
  <i type="logical" name="LSCALAPACK"> F  </i>
  <v type="int" name="KPOINT_BSE">    -1     0     0     0</v>
 </incar>
 <structure name="primitive_cell" >
  <crystal>
   <varray name="basis" >
    <v>      10.26287559       0.00000000       0.00000000 </v>
    <v>       0.00000000      10.26287559       0.00000000 </v>
    <v>       0.00000000       0.00000000      10.26287559 </v>
   </varray>
   <i name="volume">   1080.95394992 </i>
   <varray name="rec_basis" >
    <v>       0.09743858       0.00000000       0.00000000 </v>
    <v>       0.00000000       0.09743858       0.00000000 </v>
    <v>       0.00000000       0.00000000       0.09743858 </v>
   </varray>
  </crystal>
  <varray name="positions" >
   <v>       0.03729653      -0.09801728      -0.06344168 </v>
   <v>       0.17995876      -0.08987923       0.06078332 </v>
   <v>       0.02270254       0.05343205      -0.18875768 </v>
   <v>      -0.03461355      -0.28251036      -0.07273637 </v>
   <v>      -0.16788042      -0.11484204      -0.08944026 </v>
   <v>       0.19978932      -0.08207610      -0.19271423 </v>
   <v>       0.20121395      -0.25496287      -0.05760952 </v>
   <v>      -0.03284479      -0.15573646      -0.27600247 </v>
   <v>      -0.08844198      -0.05899963       0.12764639 </v>
   <v>      -0.10604596       0.09178239      -0.02456028 </v>
   <v>       0.03038680      -0.24444487       0.14469650 </v>
   <v>       0.13213517       0.13480911      -0.00533815 </v>
   <v>       0.08708876      -0.01699453      -0.30955956 </v>
   <v>      -0.20769938      -0.04625737       0.02956184 </v>
   <v>       0.08337401      -0.34900088       0.03252914 </v>
   <v>      -0.12302120      -0.26474716      -0.21955631 </v>
   <v>       0.01920352       0.19130224      -0.10165209 </v>
   <v>       0.32819193      -0.13630242      -0.07579775 </v>
   <v>       0.20497866       0.05686858       0.12256883 </v>
   <v>      -0.18092781       0.04549117      -0.25045496 </v>
   <v>      -0.05520837      -0.15394120       0.24526695 </v>
   <v>       0.08959901      -0.06566878       0.26077869 </v>
   <v>       0.14339555      -0.30251722      -0.30507442 </v>
   <v>      -0.05764231       0.15098381       0.16146376 </v>
   <v>       0.28756976       0.14647158      -0.14177940 </v>
   <v>      -0.17244275      -0.35488136       0.09108877 </v>
   <v>       0.29024228      -0.18689838       0.19125346 </v>
   <v>      -0.23611478      -0.34245278      -0.13376516 </v>
   <v>      -0.01994494       0.00164846      -0.42087405 </v>
   <v>      -0.30888361      -0.14716907       0.08738076 </v>
   <v>      -0.05451698      -0.38014666      -0.30359549 </v>
   <v>       0.12516127      -0.47229158      -0.08377197 </v>
   <v>      -0.32615141       0.03503281      -0.07619056 </v>
   <v>       0.09636810      -0.16113223      -0.45149219 </v>
   <v>      -0.01536754      -0.46660834       0.07906185 </v>
   <v>      -0.15518644      -0.25797887       0.25429532 </v>
   <v>       0.15565857       0.17311420       0.21372346 </v>
   <v>      -0.28196280      -0.20989546      -0.28927600 </v>
   <v>       0.19587133       0.08112413      -0.39760562 </v>
   <v>       0.43247395      -0.02920693      -0.15572877 </v>
   <v>       0.43053517      -0.07141446       0.06038794 </v>
   <v>       0.32194645       0.18295294       0.05513389 </v>
   <v>       0.13314979       0.30288597      -0.14497572 </v>
   <v>       0.19160949      -0.45342343       0.10312434 </v>
   <v>       0.43844718      -0.23289317      -0.05140941 </v>
   <v>      -0.12301240      -0.17375367      -0.45030354 </v>
   <v>      -0.03559008       0.32086508       0.01150396 </v>
   <v>      -0.32087666       0.06878743       0.11163876 </v>
   <v>      -0.37103008      -0.21815224      -0.13903191 </v>
   <v>      -0.09378602       0.28092213      -0.23268859 </v>
   <v>      -0.08126685       0.48340562      -0.15270738 </v>
   <v>       0.04784361       0.23540103      -0.35696943 </v>
   <v>       0.39391311      -0.29120085      -0.24496842 </v>
   <v>      -0.26611001       0.23478225      -0.01259324 </v>
   <v>      -0.13375970      -0.05751171       0.35570032 </v>
   <v>      -0.00768490      -0.22031354       0.38208232 </v>
   <v>      -0.37204269      -0.04513818      -0.28412642 </v>
   <v>       0.17541925       0.33239263       0.06495325 </v>
   <v>      -0.28665279      -0.07526659       0.27808003 </v>
   <v>       0.24487093       0.25429208      -0.30117192 </v>
   <v>       0.37321818       0.05140249       0.23824960 </v>
   <v>       0.36621737      -0.08237807      -0.41069199 </v>
   <v>       0.39329697      -0.35091762       0.13667248 </v>
   <v>       0.21100511      -0.34094721       0.32098501 </v>
   <v>       0.29786454      -0.12540317       0.35587549 </v>
   <v>      -0.24739236      -0.01612224      -0.46159900 </v>
   <v>      -0.14737329       0.19030080      -0.42319227 </v>
   <v>       0.39410469      -0.44544716      -0.06081147 </v>
   <v>       0.18319197       0.43797154      -0.21088653 </v>
   <v>       0.04548070      -0.45655845       0.29811867 </v>
   <v>       0.43661470       0.13258953      -0.28518163 </v>
   <v>      -0.02887393       0.16119164       0.37572514 </v>
   <v>       0.46621016       0.18547916      -0.08035986 </v>
   <v>      -0.10824356       0.06383010       0.46952670 </v>
   <v>       0.09983851      -0.40185544      -0.47517699 </v>
   <v>      -0.48138596       0.03598649       0.06430290 </v>
   <v>       0.16182177       0.01400281       0.42665518 </v>
   <v>      -0.44409408       0.06394957      -0.17340517 </v>
   <v>      -0.34857808       0.21089462      -0.23151584 </v>
   <v>       0.30812547      -0.44691377       0.21526263 </v>
   <v>       0.14247238      -0.25908644       0.43271740 </v>
   <v>      -0.17811318      -0.48480435       0.23223356 </v>
   <v>       0.32732848      -0.30560424      -0.46265599 </v>
   <v>      -0.22783986       0.29963348      -0.30480593 </v>
   <v>      -0.22042733       0.44005378       0.02701323 </v>
   <v>      -0.40596006      -0.38728144       0.03146726 </v>
   <v>       0.31685976       0.35994374      -0.10092991 </v>
   <v>      -0.01528232       0.32519012       0.26946571 </v>
   <v>       0.32701228       0.18813225      -0.42003512 </v>
   <v>       0.09781760       0.44772386      -0.35294064 </v>
   <v>      -0.36756180      -0.12969735      -0.42385646 </v>
   <v>      -0.10077885       0.41211860       0.13414222 </v>
   <v>      -0.02144526      -0.49049571      -0.43983967 </v>
   <v>      -0.34023833      -0.49512406      -0.08517453 </v>
   <v>      -0.23479661       0.29881103       0.20334019 </v>
   <v>      -0.31514749      -0.40926065      -0.35337946 </v>
   <v>       0.29559673       0.46938720      -0.29139507 </v>
   <v>      -0.44810569      -0.28468651       0.12980030 </v>
   <v>       0.42447255       0.29040126       0.02871783 </v>
   <v>      -0.34416233      -0.33796234       0.26489400 </v>
   <v>      -0.21455540      -0.36839321       0.36369129 </v>
   <v>       0.12274576       0.28727974       0.34632459 </v>
   <v>      -0.10084522      -0.38365112       0.45873193 </v>
   <v>      -0.47728700      -0.17573886       0.23619930 </v>
   <v>       0.43686020      -0.03008785       0.34659474 </v>
   <v>      -0.35443407       0.17907905       0.26857330 </v>
   <v>      -0.25680926       0.14445461       0.38011066 </v>
   <v>      -0.13744373       0.43516176      -0.37349085 </v>
   <v>       0.38095590       0.25321816       0.27912124 </v>
   <v>      -0.44810666      -0.25833204      -0.37860380 </v>
   <v>       0.36496873       0.06394473       0.45746240 </v>
   <v>      -0.29396866      -0.23231458       0.44797274 </v>
   <v>      -0.29651451       0.41866626      -0.21116996 </v>
   <v>      -0.37699447       0.13065156      -0.44790975 </v>
   <v>       0.21510220       0.38123490       0.27326638 </v>
   <v>       0.21798188       0.24390316       0.45894592 </v>
   <v>      -0.46970801       0.22414353       0.12950168 </v>
   <v>      -0.46298397      -0.44500557      -0.19702759 </v>
   <v>      -0.43926807       0.07016751       0.31256673 </v>
   <v>       0.27349851       0.49655665      -0.48786665 </v>
   <v>       0.40103628       0.41106684       0.14143238 </v>
   <v>      -0.16350099       0.31099461       0.39359447 </v>
   <v>       0.49579681       0.35064270      -0.21422478 </v>
   <v>      -0.41728078       0.38183782      -0.03061775 </v>
   <v>      -0.31585609       0.32316234      -0.44560653 </v>
   <v>      -0.46012986      -0.08295172       0.46874520 </v>
   <v>      -0.40237073       0.44767751       0.19520461 </v>
   <v>       0.04308176       0.41458755       0.45745452 </v>
   <v>       0.43867171       0.30575204      -0.44735442 </v>
   <v>       0.48528914      -0.29140817       0.42056920 </v>
   <v>       0.43396068      -0.49947522       0.33328551 </v>
   <v>      -0.47961931      -0.47721009      -0.41989401 </v>
   <v>      -0.30739655      -0.49779194       0.42767428 </v>
   <v>      -0.42792800       0.30134007       0.34141072 </v>
   <v>      -0.43212258       0.40268551       0.48882609 </v>
  </varray>
 </structure>
 <varray name="primitive_index" >
  <v type="int" >        1 </v>
  <v type="int" >       75 </v>
  <v type="int" >       85 </v>
  <v type="int" >      116 </v>
  <v type="int" >      123 </v>
  <v type="int" >       90 </v>
  <v type="int" >      127 </v>
  <v type="int" >      133 </v>
  <v type="int" >       82 </v>
  <v type="int" >       70 </v>
  <v type="int" >      107 </v>
  <v type="int" >       97 </v>
  <v type="int" >       43 </v>
  <v type="int" >       47 </v>
  <v type="int" >       54 </v>
  <v type="int" >       29 </v>
  <v type="int" >       49 </v>
  <v type="int" >       30 </v>
  <v type="int" >       34 </v>
  <v type="int" >       17 </v>
  <v type="int" >       39 </v>
  <v type="int" >       93 </v>
  <v type="int" >       10 </v>
  <v type="int" >       18 </v>
  <v type="int" >       19 </v>
  <v type="int" >        7 </v>
  <v type="int" >        5 </v>
  <v type="int" >       61 </v>
  <v type="int" >       56 </v>
  <v type="int" >       65 </v>
  <v type="int" >       67 </v>
  <v type="int" >      109 </v>
  <v type="int" >       81 </v>
  <v type="int" >       60 </v>
  <v type="int" >       73 </v>
  <v type="int" >       66 </v>
  <v type="int" >       78 </v>
  <v type="int" >       76 </v>
  <v type="int" >      110 </v>
  <v type="int" >       87 </v>
  <v type="int" >      131 </v>
  <v type="int" >       95 </v>
  <v type="int" >      112 </v>
  <v type="int" >      119 </v>
  <v type="int" >       79 </v>
  <v type="int" >       11 </v>
  <v type="int" >      106 </v>
  <v type="int" >      129 </v>
  <v type="int" >       25 </v>
  <v type="int" >      115 </v>
  <v type="int" >       14 </v>
  <v type="int" >       20 </v>
  <v type="int" >       24 </v>
  <v type="int" >        6 </v>
  <v type="int" >      135 </v>
  <v type="int" >       77 </v>
  <v type="int" >       64 </v>
  <v type="int" >        2 </v>
  <v type="int" >       21 </v>
  <v type="int" >      104 </v>
  <v type="int" >      108 </v>
  <v type="int" >       16 </v>
  <v type="int" >       96 </v>
  <v type="int" >      122 </v>
  <v type="int" >      125 </v>
  <v type="int" >      100 </v>
  <v type="int" >      128 </v>
  <v type="int" >       26 </v>
  <v type="int" >       35 </v>
  <v type="int" >        4 </v>
  <v type="int" >       83 </v>
  <v type="int" >      114 </v>
  <v type="int" >       91 </v>
  <v type="int" >       40 </v>
  <v type="int" >       86 </v>
  <v type="int" >       36 </v>
  <v type="int" >       27 </v>
  <v type="int" >       31 </v>
  <v type="int" >       94 </v>
  <v type="int" >       46 </v>
  <v type="int" >       33 </v>
  <v type="int" >       88 </v>
  <v type="int" >      113 </v>
  <v type="int" >       44 </v>
  <v type="int" >       89 </v>
  <v type="int" >       74 </v>
  <v type="int" >       92 </v>
  <v type="int" >       98 </v>
  <v type="int" >       32 </v>
  <v type="int" >      103 </v>
  <v type="int" >       28 </v>
  <v type="int" >       38 </v>
  <v type="int" >       50 </v>
  <v type="int" >       41 </v>
  <v type="int" >       84 </v>
  <v type="int" >        8 </v>
  <v type="int" >       62 </v>
  <v type="int" >       42 </v>
  <v type="int" >       51 </v>
  <v type="int" >       80 </v>
  <v type="int" >       48 </v>
  <v type="int" >       45 </v>
  <v type="int" >      130 </v>
  <v type="int" >       58 </v>
  <v type="int" >       53 </v>
  <v type="int" >       52 </v>
  <v type="int" >      118 </v>
  <v type="int" >      132 </v>
  <v type="int" >       22 </v>
  <v type="int" >       99 </v>
  <v type="int" >      121 </v>
  <v type="int" >      134 </v>
  <v type="int" >      105 </v>
  <v type="int" >       12 </v>
  <v type="int" >      111 </v>
  <v type="int" >      126 </v>
  <v type="int" >       71 </v>
  <v type="int" >       69 </v>
  <v type="int" >      102 </v>
  <v type="int" >        3 </v>
  <v type="int" >       57 </v>
  <v type="int" >        9 </v>
  <v type="int" >       15 </v>
  <v type="int" >       68 </v>
  <v type="int" >       63 </v>
  <v type="int" >      101 </v>
  <v type="int" >       23 </v>
  <v type="int" >      124 </v>
  <v type="int" >      120 </v>
  <v type="int" >       13 </v>
  <v type="int" >       55 </v>
  <v type="int" >       59 </v>
  <v type="int" >       72 </v>
  <v type="int" >      117 </v>
  <v type="int" >       37 </v>
 </varray>
 <kpoints>
  <generation param="Gamma">
   <v type="int" name="divisions">       3        3        3 </v>
   <v name="usershift">      0.00000000       0.00000000       0.00000000 </v>
   <v name="genvec1">      0.33333333       0.00000000       0.00000000 </v>
   <v name="genvec2">      0.00000000       0.33333333       0.00000000 </v>
   <v name="genvec3">      0.00000000       0.00000000       0.33333333 </v>
   <v name="shift">      0.00000000       0.00000000       0.00000000 </v>
  </generation>
  <varray name="kpointlist" >
   <v>       0.00000000       0.00000000       0.00000000 </v>
   <v>       0.33333333       0.00000000       0.00000000 </v>
   <v>       0.00000000       0.33333333       0.00000000 </v>
   <v>       0.33333333       0.33333333       0.00000000 </v>
   <v>      -0.33333333       0.33333333       0.00000000 </v>
   <v>       0.00000000       0.00000000       0.33333333 </v>
   <v>       0.33333333       0.00000000       0.33333333 </v>
   <v>      -0.33333333       0.00000000       0.33333333 </v>
   <v>       0.00000000       0.33333333       0.33333333 </v>
   <v>       0.33333333       0.33333333       0.33333333 </v>
   <v>      -0.33333333       0.33333333       0.33333333 </v>
   <v>       0.00000000      -0.33333333       0.33333333 </v>
   <v>       0.33333333      -0.33333333       0.33333333 </v>
   <v>      -0.33333333      -0.33333333       0.33333333 </v>
  </varray>
  <varray name="weights" >
   <v>       0.03703704 </v>
   <v>       0.07407407 </v>
   <v>       0.07407407 </v>
   <v>       0.07407407 </v>
   <v>       0.07407407 </v>
   <v>       0.07407407 </v>
   <v>       0.07407407 </v>
   <v>       0.07407407 </v>
   <v>       0.07407407 </v>
   <v>       0.07407407 </v>
   <v>       0.07407407 </v>
   <v>       0.07407407 </v>
   <v>       0.07407407 </v>
   <v>       0.07407407 </v>
  </varray>
 </kpoints>
 <parameters>
  <separator name="general" >
   <i type="string" name="SYSTEM">unknown system</i>
   <i type="logical" name="LCOMPAT"> F  </i>
  </separator>
  <separator name="electronic" >
   <i type="string" name="PREC">a</i>
   <i name="ENMAX">    600.00000000</i>
   <i name="ENAUG">    605.39200000</i>
   <i name="EDIFF">      0.00000100</i>
   <i type="int" name="IALGO">    38</i>
   <i type="int" name="IWAVPR">    10</i>
   <i type="int" name="NBANDS">   520</i>
   <i name="NELECT">    864.00000000</i>
   <i type="int" name="TURBO">     0</i>
   <i type="int" name="IRESTART">     0</i>
   <i type="int" name="NREBOOT">     0</i>
   <i type="int" name="NMIN">     0</i>
   <i name="EREF">      0.00000000</i>
   <separator name="electronic smearing" >
    <i type="int" name="ISMEAR">     0</i>
    <i name="SIGMA">      0.05000000</i>
    <i name="KSPACING">      0.30000000</i>
    <i type="logical" name="KGAMMA"> T  </i>
   </separator>
   <separator name="electronic projectors" >
    <i type="logical" name="LREAL"> T  </i>
    <v name="ROPT">     -0.00025000     -0.00025000     -0.00025000</v>
    <i type="int" name="LMAXPAW">  -100</i>
    <i type="int" name="LMAXMIX">     2</i>
    <i type="logical" name="NLSPLINE"> F  </i>
   </separator>
   <separator name="electronic startup" >
    <i type="int" name="ISTART">     0</i>
    <i type="int" name="ICHARG">     2</i>
    <i type="int" name="INIWAV">     1</i>
   </separator>
   <separator name="electronic spin" >
    <i type="int" name="ISPIN">     1</i>
    <i type="logical" name="LNONCOLLINEAR"> F  </i>
    <v name="MAGMOM">      1.00000000      1.00000000      1.00000000      1.00000000      1.00000000      1.00000000      1.00000000      1.00000000      1.00000000      1.00000000      1.00000000      1.00000000      1.00000000      1.00000000      1.00000000      1.00000000      1.00000000      1.00000000      1.00000000      1.00000000
      1.00000000      1.00000000      1.00000000      1.00000000      1.00000000      1.00000000      1.00000000      1.00000000      1.00000000      1.00000000      1.00000000      1.00000000      1.00000000      1.00000000      1.00000000      1.00000000      1.00000000      1.00000000      1.00000000      1.00000000
      1.00000000      1.00000000      1.00000000      1.00000000      1.00000000      1.00000000      1.00000000      1.00000000      1.00000000      1.00000000      1.00000000      1.00000000      1.00000000      1.00000000      1.00000000      1.00000000      1.00000000      1.00000000      1.00000000      1.00000000
      1.00000000      1.00000000      1.00000000      1.00000000      1.00000000      1.00000000      1.00000000      1.00000000      1.00000000      1.00000000      1.00000000      1.00000000      1.00000000      1.00000000      1.00000000      1.00000000      1.00000000      1.00000000      1.00000000      1.00000000
      1.00000000      1.00000000      1.00000000      1.00000000      1.00000000      1.00000000      1.00000000      1.00000000      1.00000000      1.00000000      1.00000000      1.00000000      1.00000000      1.00000000      1.00000000      1.00000000      1.00000000      1.00000000      1.00000000      1.00000000
      1.00000000      1.00000000      1.00000000      1.00000000      1.00000000      1.00000000      1.00000000      1.00000000      1.00000000      1.00000000      1.00000000      1.00000000      1.00000000      1.00000000      1.00000000      1.00000000      1.00000000      1.00000000      1.00000000      1.00000000
      1.00000000      1.00000000      1.00000000      1.00000000      1.00000000      1.00000000      1.00000000      1.00000000      1.00000000      1.00000000      1.00000000      1.00000000      1.00000000      1.00000000      1.00000000</v>
    <i name="NUPDOWN">     -1.00000000</i>
    <i type="logical" name="LSORBIT"> F  </i>
    <v name="SAXIS">      0.00000000      0.00000000      1.00000000</v>
    <i type="logical" name="LSPIRAL"> F  </i>
    <v name="QSPIRAL">      0.00000000      0.00000000      0.00000000</v>
    <i type="logical" name="LZEROZ"> F  </i>
   </separator>
   <separator name="electronic exchange-correlation" >
    <i type="logical" name="LASPH"> F  </i>
    <i type="logical" name="LMETAGGA"> F  </i>
   </separator>
   <separator name="electronic convergence" >
    <i type="int" name="NELM">    60</i>
    <i type="int" name="NELMDL">    -5</i>
    <i type="int" name="NELMIN">     2</i>
    <i name="ENINI">    600.00000000</i>
    <separator name="electronic convergence detail" >
     <i type="logical" name="LDIAG"> T  </i>
     <i type="logical" name="LSUBROT"> F  </i>
     <i name="WEIMIN">      0.00000000</i>
     <i name="EBREAK">      0.00000000</i>
     <i name="DEPER">      0.30000000</i>
     <i type="int" name="NRMM">     4</i>
     <i name="TIME">      0.40000000</i>
    </separator>
   </separator>
   <separator name="electronic mixer" >
    <i name="AMIX">      0.40000000</i>
    <i name="BMIX">      1.00000000</i>
    <i name="AMIN">      0.10000000</i>
    <i name="AMIX_MAG">      1.60000000</i>
    <i name="BMIX_MAG">      1.00000000</i>
    <separator name="electronic mixer details" >
     <i type="int" name="IMIX">     4</i>
     <i type="logical" name="MIXFIRST"> F  </i>
     <i type="int" name="MAXMIX">   -45</i>
     <i name="WC">    100.00000000</i>
     <i type="int" name="INIMIX">     1</i>
     <i type="int" name="MIXPRE">     1</i>
     <i type="int" name="MREMOVE">     5</i>
    </separator>
   </separator>
   <separator name="electronic dipolcorrection" >
    <i type="logical" name="LDIPOL"> F  </i>
    <i type="logical" name="LMONO"> F  </i>
    <i type="int" name="IDIPOL">     0</i>
    <i name="EPSILON">      1.00000000</i>
    <v name="DIPOL">   -100.00000000   -100.00000000   -100.00000000</v>
    <i name="EFIELD">      0.00000000</i>
   </separator>
  </separator>
  <separator name="grids" >
   <i type="int" name="NGX">    84</i>
   <i type="int" name="NGY">    84</i>
   <i type="int" name="NGZ">    84</i>
   <i type="int" name="NGXF">   168</i>
   <i type="int" name="NGYF">   168</i>
   <i type="int" name="NGZF">   168</i>
   <i type="logical" name="ADDGRID"> T  </i>
  </separator>
  <separator name="ionic" >
   <i type="int" name="NSW">     1</i>
   <i type="int" name="IBRION">    -1</i>
   <i type="int" name="MDALGO">     0</i>
   <i type="int" name="ISIF">     2</i>
   <i name="PSTRESS">      0.00000000</i>
   <i name="EDIFFG">     -0.01000000</i>
   <i type="int" name="NFREE">     0</i>
   <i name="POTIM">      1.00000000</i>
   <i name="SMASS">     -3.00000000</i>
   <i name="SCALEE">      1.00000000</i>
  </separator>
  <separator name="ionic md" >
   <i name="TEBEG">      0.00010000</i>
   <i name="TEEND">      0.00010000</i>
   <i type="int" name="NBLOCK">     1</i>
   <i type="int" name="KBLOCK">     1</i>
   <i type="int" name="NPACO">   256</i>
   <i name="APACO">     16.00000000</i>
  </separator>
  <separator name="symmetry" >
   <i type="int" name="ISYM">     0</i>
   <i name="SYMPREC">      0.00001000</i>
  </separator>
  <separator name="dos" >
   <i type="int" name="LORBIT">     0</i>
   <v name="RWIGS">     -1.00000000     -1.00000000     -1.00000000</v>
   <i type="int" name="NEDOS">   301</i>
   <i name="EMIN">     10.00000000</i>
   <i name="EMAX">    -10.00000000</i>
   <i name="EFERMI">      0.00000000</i>
  </separator>
  <separator name="writing" >
   <i type="int" name="NWRITE">     2</i>
   <i type="logical" name="LWAVE"> F  </i>
   <i type="logical" name="LDOWNSAMPLE"> F  </i>
   <i type="logical" name="LCHARG"> F  </i>
   <i type="logical" name="LPARD"> F  </i>
   <i type="logical" name="LVTOT"> F  </i>
   <i type="logical" name="LVHAR"> F  </i>
   <i type="logical" name="LELF"> F  </i>
   <i type="logical" name="LOPTICS"> F  </i>
   <v name="STM">      0.00000000      0.00000000      0.00000000      0.00000000      0.00000000      0.00000000      0.00000000</v>
  </separator>
  <separator name="performance" >
   <i type="int" name="NPAR">     4</i>
   <i type="int" name="NSIM">     4</i>
   <i type="int" name="NBLK">    -1</i>
   <i type="logical" name="LPLANE"> T  </i>
   <i type="logical" name="LSCALAPACK"> F  </i>
   <i type="logical" name="LSCAAWARE"> F  </i>
   <i type="logical" name="LSCALU"> F  </i>
   <i type="logical" name="LASYNC"> F  </i>
   <i type="logical" name="LORBITALREAL"> F  </i>
  </separator>
  <separator name="miscellaneous" >
   <i type="int" name="IDIOT">     3</i>
   <i type="int" name="ISPECIAL">     0</i>
   <i type="logical" name="LMUSIC"> F  </i>
   <v name="POMASS">     40.07800000     28.08500000     16.00000000</v>
   <v name="DARWINR">      0.00000000      0.00000000      0.00000000</v>
   <v name="DARWINV">      1.00000000      1.00000000      1.00000000</v>
   <i type="logical" name="LCORR"> T  </i>
  </separator>
  <i type="logical" name="GGA_COMPAT"> T  </i>
  <i type="logical" name="LBERRY"> F  </i>
  <i type="int" name="ICORELEVEL">     0</i>
  <i type="logical" name="LDAU"> F  </i>
  <i type="int" name="I_CONSTRAINED_M">     0</i>
  <separator name="electronic exchange-correlation" >
   <i type="string" name="GGA">--</i>
   <i type="int" name="VOSKOWN">     0</i>
   <i type="logical" name="LHFCALC"> F  </i>
   <i type="string" name="PRECFOCK"></i>
   <i type="logical" name="LSYMGRAD"> F  </i>
   <i type="logical" name="LHFONE"> F  </i>
   <i type="logical" name="LRHFCALC"> F  </i>
   <i type="logical" name="LTHOMAS"> F  </i>
   <i type="logical" name="LMODELHF"> F  </i>
   <i name="ENCUT4O">     -1.00000000</i>
   <i type="int" name="EXXOEP">     0</i>
   <i type="int" name="FOURORBIT">     0</i>
   <i name="AEXX">      0.00000000</i>
   <i name="HFALPHA">      0.00000000</i>
   <i name="MCALPHA">      0.00000000</i>
   <i name="ALDAX">      1.00000000</i>
   <i name="AGGAX">      1.00000000</i>
   <i name="ALDAC">      1.00000000</i>
   <i name="AGGAC">      1.00000000</i>
   <i type="int" name="NKREDX">     1</i>
   <i type="int" name="NKREDY">     1</i>
   <i type="int" name="NKREDZ">     1</i>
   <i type="logical" name="SHIFTRED"> F  </i>
   <i type="logical" name="ODDONLY"> F  </i>
   <i type="logical" name="EVENONLY"> F  </i>
   <i type="int" name="LMAXFOCK">     0</i>
   <i type="int" name="NMAXFOCKAE">     0</i>
   <i type="logical" name="LFOCKAEDFT"> F  </i>
   <i name="HFSCREEN">      0.00000000</i>
   <i name="HFSCREENC">      0.00000000</i>
   <i type="int" name="NBANDSGWLOW">     0</i>
  </separator>
  <separator name="vdW DFT" >
   <i type="logical" name="LUSE_VDW"> F  </i>
   <i name="Zab_VDW">     -0.84910000</i>
   <i name="PARAM1">      0.12340000</i>
   <i name="PARAM2">      1.00000000</i>
   <i name="PARAM3">      0.00000000</i>
  </separator>
  <separator name="model GW" >
   <i type="int" name="MODEL_GW">     0</i>
   <i name="MODEL_EPS0">      4.80423978</i>
   <i name="MODEL_ALPHA">      1.00000000</i>
  </separator>
  <separator name="linear response parameters" >
   <i type="logical" name="LEPSILON"> F  </i>
   <i type="logical" name="LRPA"> F  </i>
   <i type="logical" name="LNABLA"> F  </i>
   <i type="logical" name="LVEL"> F  </i>
   <i type="int" name="KINTER">     0</i>
   <i name="CSHIFT">      0.10000000</i>
   <i name="OMEGAMAX">     -1.00000000</i>
   <i name="DEG_THRESHOLD">      0.00200000</i>
   <i name="RTIME">     -0.10000000</i>
   <i name="WPLASMAI">      0.00000000</i>
   <v name="DFIELD">      0.00000000      0.00000000      0.00000000</v>
   <v name="WPLASMA">      0.00000000      0.00000000      0.00000000      0.00000000      0.00000000      0.00000000      0.00000000      0.00000000      0.00000000</v>
  </separator>
  <separator name="orbital magnetization" >
   <i type="logical" name="NUCIND"> F  </i>
   <v name="MAGPOS">      0.00000000      0.00000000      0.00000000</v>
   <i type="logical" name="LNICSALL"> T  </i>
   <i type="logical" name="ORBITALMAG"> F  </i>
   <i type="logical" name="LMAGBLOCH"> F  </i>
   <i type="logical" name="LCHIMAG"> F  </i>
   <i type="logical" name="LGAUGE"> T  </i>
   <i type="int" name="MAGATOM">     0</i>
   <v name="MAGDIPOL">      0.00000000      0.00000000      0.00000000</v>
   <v name="AVECCONST">      0.00000000      0.00000000      0.00000000</v>
  </separator>
  <separator name="response functions" >
   <i type="logical" name="LADDER"> F  </i>
   <i type="logical" name="LRPAFORCE"> F  </i>
   <i type="logical" name="LFXC"> F  </i>
   <i type="logical" name="LHARTREE"> T  </i>
   <i type="int" name="IBSE">     0</i>
   <v type="int" name="KPOINT">    -1     0     0     0</v>
   <i type="logical" name="LTCTE"> F  </i>
   <i type="logical" name="LTETE"> F  </i>
   <i type="logical" name="LTRIPLET"> F  </i>
   <i type="logical" name="LFXCEPS"> F  </i>
   <i type="logical" name="LFXHEG"> F  </i>
   <i type="int" name="NATURALO">     2</i>
   <i type="logical" name="L2ORDER"> F  </i>
   <i type="logical" name="LMP2LT"> F  </i>
   <i type="logical" name="LUSEW"> F  </i>
   <i name="ENCUTGW">     -2.00000000</i>
   <i name="ENCUTGWSOFT">     -2.00000000</i>
   <i name="ENCUTLF">     -1.00000000</i>
   <i type="int" name="LMAXMP2">    -1</i>
   <i name="SCISSOR">      0.00000000</i>
   <i type="int" name="NOMEGA">     0</i>
   <i type="int" name="NOMEGAR">     0</i>
   <i type="int" name="NBANDSGW">    -1</i>
   <i type="int" name="NBANDSO">    -1</i>
   <i type="int" name="NBANDSV">    -1</i>
   <i type="int" name="NELM">     1</i>
   <i type="int" name="NELMHF">     1</i>
   <i type="int" name="DIM">     3</i>
   <i type="int" name="ANTIRES">     0</i>
   <i name="OMEGAMAX">    -30.00000000</i>
   <i name="OMEGAMIN">    -30.00000000</i>
   <i name="OMEGATL">   -200.00000000</i>
   <i type="int" name="OMEGAGRID">   140</i>
   <i name="CSHIFT">     -0.10000000</i>
   <i type="logical" name="SELFENERGY"> F  </i>
   <i type="logical" name="LSPECTRAL"> F  </i>
   <i type="logical" name="LSPECTRALGW"> F  </i>
   <i type="logical" name="LSINGLES"> F  </i>
   <i type="logical" name="LFERMIGW"> F  </i>
   <i type="logical" name="ODDONLYGW"> F  </i>
   <i type="logical" name="EVENONLYGW"> F  </i>
   <i type="int" name="NKREDLFX">     1</i>
   <i type="int" name="NKREDLFY">     1</i>
   <i type="int" name="NKREDLFZ">     1</i>
   <i type="int" name="MAXMEM">  2800</i>
   <i type="int" name="TELESCOPE">     0</i>
   <i type="int" name="TAUPAR">     1</i>
   <i type="int" name="OMEGAPAR">    -1</i>
   <i name="LAMBDA">      1.00000000</i>
  </separator>
  <separator name="External order field" >
   <i name="OFIELD_KAPPA">      0.00000000</i>
   <v name="OFIELD_K">      0.00000000      0.00000000      0.00000000</v>
   <i name="OFIELD_Q6_NEAR">      0.00000000</i>
   <i name="OFIELD_Q6_FAR">      0.00000000</i>
   <i name="OFIELD_A">      0.00000000</i>
  </separator>
 </parameters>
 <atominfo>
  <atoms>     135 </atoms>
  <types>       3 </types>
  <array name="atoms" >
   <dimension dim="1">ion</dimension>
   <field type="string">element</field>
   <field type="int">atomtype</field>
   <set>
    <rc><c>Ca</c><c>   1</c></rc>
    <rc><c>Ca</c><c>   1</c></rc>
    <rc><c>Ca</c><c>   1</c></rc>
    <rc><c>Ca</c><c>   1</c></rc>
    <rc><c>Ca</c><c>   1</c></rc>
    <rc><c>Ca</c><c>   1</c></rc>
    <rc><c>Ca</c><c>   1</c></rc>
    <rc><c>Ca</c><c>   1</c></rc>
    <rc><c>Ca</c><c>   1</c></rc>
    <rc><c>Ca</c><c>   1</c></rc>
    <rc><c>Ca</c><c>   1</c></rc>
    <rc><c>Ca</c><c>   1</c></rc>
    <rc><c>Ca</c><c>   1</c></rc>
    <rc><c>Ca</c><c>   1</c></rc>
    <rc><c>Ca</c><c>   1</c></rc>
    <rc><c>Ca</c><c>   1</c></rc>
    <rc><c>Ca</c><c>   1</c></rc>
    <rc><c>Ca</c><c>   1</c></rc>
    <rc><c>Ca</c><c>   1</c></rc>
    <rc><c>Ca</c><c>   1</c></rc>
    <rc><c>Ca</c><c>   1</c></rc>
    <rc><c>Ca</c><c>   1</c></rc>
    <rc><c>Ca</c><c>   1</c></rc>
    <rc><c>Ca</c><c>   1</c></rc>
    <rc><c>Ca</c><c>   1</c></rc>
    <rc><c>Ca</c><c>   1</c></rc>
    <rc><c>Ca</c><c>   1</c></rc>
    <rc><c>Si</c><c>   2</c></rc>
    <rc><c>Si</c><c>   2</c></rc>
    <rc><c>Si</c><c>   2</c></rc>
    <rc><c>Si</c><c>   2</c></rc>
    <rc><c>Si</c><c>   2</c></rc>
    <rc><c>Si</c><c>   2</c></rc>
    <rc><c>Si</c><c>   2</c></rc>
    <rc><c>Si</c><c>   2</c></rc>
    <rc><c>Si</c><c>   2</c></rc>
    <rc><c>Si</c><c>   2</c></rc>
    <rc><c>Si</c><c>   2</c></rc>
    <rc><c>Si</c><c>   2</c></rc>
    <rc><c>Si</c><c>   2</c></rc>
    <rc><c>Si</c><c>   2</c></rc>
    <rc><c>Si</c><c>   2</c></rc>
    <rc><c>Si</c><c>   2</c></rc>
    <rc><c>Si</c><c>   2</c></rc>
    <rc><c>Si</c><c>   2</c></rc>
    <rc><c>Si</c><c>   2</c></rc>
    <rc><c>Si</c><c>   2</c></rc>
    <rc><c>Si</c><c>   2</c></rc>
    <rc><c>Si</c><c>   2</c></rc>
    <rc><c>Si</c><c>   2</c></rc>
    <rc><c>Si</c><c>   2</c></rc>
    <rc><c>Si</c><c>   2</c></rc>
    <rc><c>Si</c><c>   2</c></rc>
    <rc><c>Si</c><c>   2</c></rc>
    <rc><c>O </c><c>   3</c></rc>
    <rc><c>O </c><c>   3</c></rc>
    <rc><c>O </c><c>   3</c></rc>
    <rc><c>O </c><c>   3</c></rc>
    <rc><c>O </c><c>   3</c></rc>
    <rc><c>O </c><c>   3</c></rc>
    <rc><c>O </c><c>   3</c></rc>
    <rc><c>O </c><c>   3</c></rc>
    <rc><c>O </c><c>   3</c></rc>
    <rc><c>O </c><c>   3</c></rc>
    <rc><c>O </c><c>   3</c></rc>
    <rc><c>O </c><c>   3</c></rc>
    <rc><c>O </c><c>   3</c></rc>
    <rc><c>O </c><c>   3</c></rc>
    <rc><c>O </c><c>   3</c></rc>
    <rc><c>O </c><c>   3</c></rc>
    <rc><c>O </c><c>   3</c></rc>
    <rc><c>O </c><c>   3</c></rc>
    <rc><c>O </c><c>   3</c></rc>
    <rc><c>O </c><c>   3</c></rc>
    <rc><c>O </c><c>   3</c></rc>
    <rc><c>O </c><c>   3</c></rc>
    <rc><c>O </c><c>   3</c></rc>
    <rc><c>O </c><c>   3</c></rc>
    <rc><c>O </c><c>   3</c></rc>
    <rc><c>O </c><c>   3</c></rc>
    <rc><c>O </c><c>   3</c></rc>
    <rc><c>O </c><c>   3</c></rc>
    <rc><c>O </c><c>   3</c></rc>
    <rc><c>O </c><c>   3</c></rc>
    <rc><c>O </c><c>   3</c></rc>
    <rc><c>O </c><c>   3</c></rc>
    <rc><c>O </c><c>   3</c></rc>
    <rc><c>O </c><c>   3</c></rc>
    <rc><c>O </c><c>   3</c></rc>
    <rc><c>O </c><c>   3</c></rc>
    <rc><c>O </c><c>   3</c></rc>
    <rc><c>O </c><c>   3</c></rc>
    <rc><c>O </c><c>   3</c></rc>
    <rc><c>O </c><c>   3</c></rc>
    <rc><c>O </c><c>   3</c></rc>
    <rc><c>O </c><c>   3</c></rc>
    <rc><c>O </c><c>   3</c></rc>
    <rc><c>O </c><c>   3</c></rc>
    <rc><c>O </c><c>   3</c></rc>
    <rc><c>O </c><c>   3</c></rc>
    <rc><c>O </c><c>   3</c></rc>
    <rc><c>O </c><c>   3</c></rc>
    <rc><c>O </c><c>   3</c></rc>
    <rc><c>O </c><c>   3</c></rc>
    <rc><c>O </c><c>   3</c></rc>
    <rc><c>O </c><c>   3</c></rc>
    <rc><c>O </c><c>   3</c></rc>
    <rc><c>O </c><c>   3</c></rc>
    <rc><c>O </c><c>   3</c></rc>
    <rc><c>O </c><c>   3</c></rc>
    <rc><c>O </c><c>   3</c></rc>
    <rc><c>O </c><c>   3</c></rc>
    <rc><c>O </c><c>   3</c></rc>
    <rc><c>O </c><c>   3</c></rc>
    <rc><c>O </c><c>   3</c></rc>
    <rc><c>O </c><c>   3</c></rc>
    <rc><c>O </c><c>   3</c></rc>
    <rc><c>O </c><c>   3</c></rc>
    <rc><c>O </c><c>   3</c></rc>
    <rc><c>O </c><c>   3</c></rc>
    <rc><c>O </c><c>   3</c></rc>
    <rc><c>O </c><c>   3</c></rc>
    <rc><c>O </c><c>   3</c></rc>
    <rc><c>O </c><c>   3</c></rc>
    <rc><c>O </c><c>   3</c></rc>
    <rc><c>O </c><c>   3</c></rc>
    <rc><c>O </c><c>   3</c></rc>
    <rc><c>O </c><c>   3</c></rc>
    <rc><c>O </c><c>   3</c></rc>
    <rc><c>O </c><c>   3</c></rc>
    <rc><c>O </c><c>   3</c></rc>
    <rc><c>O </c><c>   3</c></rc>
    <rc><c>O </c><c>   3</c></rc>
    <rc><c>O </c><c>   3</c></rc>
    <rc><c>O </c><c>   3</c></rc>
   </set>
  </array>
  <array name="atomtypes" >
   <dimension dim="1">type</dimension>
   <field type="int">atomspertype</field>
   <field type="string">element</field>
   <field>mass</field>
   <field>valence</field>
   <field type="string">pseudopotential</field>
   <set>
    <rc><c>  27</c><c>Ca</c><c>     40.07800000</c><c>     10.00000000</c><c>  PAW_PBE Ca_sv 06Sep2000               </c></rc>
    <rc><c>  27</c><c>Si</c><c>     28.08500000</c><c>      4.00000000</c><c>  PAW_PBE Si 05Jan2001                  </c></rc>
    <rc><c>  81</c><c>O </c><c>     16.00000000</c><c>      6.00000000</c><c>  PAW_PBE O 08Apr2002                   </c></rc>
   </set>
  </array>
 </atominfo>
 <structure name="initialpos" >
  <crystal>
   <varray name="basis" >
    <v>      10.26287559       0.00000000       0.00000000 </v>
    <v>       0.00000000      10.26287559       0.00000000 </v>
    <v>       0.00000000       0.00000000      10.26287559 </v>
   </varray>
   <i name="volume">   1080.95394992 </i>
   <varray name="rec_basis" >
    <v>       0.09743858       0.00000000       0.00000000 </v>
    <v>       0.00000000       0.09743858       0.00000000 </v>
    <v>       0.00000000       0.00000000       0.09743858 </v>
   </varray>
  </crystal>
  <varray name="positions" >
   <v>       0.03729653       0.90198272       0.93655832 </v>
   <v>       0.17541925       0.33239263       0.06495325 </v>
   <v>       0.27349851       0.49655665       0.51213335 </v>
   <v>       0.04548070       0.54344155       0.29811867 </v>
   <v>       0.29024228       0.81310162       0.19125346 </v>
   <v>       0.73388999       0.23478225       0.98740676 </v>
   <v>       0.82755725       0.64511864       0.09108877 </v>
   <v>       0.68485251       0.59073935       0.64662054 </v>
   <v>       0.83649901       0.31099461       0.39359447 </v>
   <v>       0.14339555       0.69748278       0.69492558 </v>
   <v>       0.87698760       0.82624633       0.54969646 </v>
   <v>       0.62300553       0.13065156       0.55209025 </v>
   <v>       0.48528914       0.70859183       0.42056920 </v>
   <v>       0.91873315       0.48340562       0.84729262 </v>
   <v>       0.49579681       0.35064270       0.78577522 </v>
   <v>       0.36621737       0.91762193       0.58930801 </v>
   <v>       0.81907219       0.04549117       0.74954504 </v>
   <v>       0.94235769       0.15098381       0.16146376 </v>
   <v>       0.28756976       0.14647158       0.85822060 </v>
   <v>       0.04784361       0.23540103       0.64303057 </v>
   <v>       0.71334721       0.92473341       0.27808003 </v>
   <v>       0.38095590       0.25321816       0.27912124 </v>
   <v>       0.59762927       0.44767751       0.19520461 </v>
   <v>       0.39391311       0.70879915       0.75503158 </v>
   <v>       0.62896992       0.78184776       0.86096809 </v>
   <v>       0.39410469       0.55455284       0.93918853 </v>
   <v>       0.16182177       0.01400281       0.42665518 </v>
   <v>       0.63243820       0.87030265       0.57614354 </v>
   <v>       0.87697880       0.73525284       0.78044369 </v>
   <v>       0.32819193       0.86369758       0.92420225 </v>
   <v>       0.55590592       0.06394957       0.82659483 </v>
   <v>       0.32701228       0.18813225       0.57996488 </v>
   <v>       0.14247238       0.74091356       0.43271740 </v>
   <v>       0.20497866       0.05686858       0.12256883 </v>
   <v>       0.18319197       0.43797154       0.78911347 </v>
   <v>       0.51861404       0.03598649       0.06430290 </v>
   <v>       0.56787742       0.40268551       0.48882609 </v>
   <v>       0.89922115       0.41211860       0.13414222 </v>
   <v>       0.94479163       0.84605880       0.24526695 </v>
   <v>       0.89175644       0.06383010       0.46952670 </v>
   <v>       0.65976167       0.50487594       0.91482547 </v>
   <v>       0.55189431       0.71531349       0.12980030 </v>
   <v>       0.08708876       0.98300547       0.69044044 </v>
   <v>       0.77216014       0.29963348       0.69519407 </v>
   <v>       0.12274576       0.28727974       0.34632459 </v>
   <v>       0.30812547       0.55308623       0.21526263 </v>
   <v>       0.79230062       0.95374263       0.02956184 </v>
   <v>       0.78544460       0.63160679       0.36369129 </v>
   <v>       0.01920352       0.19130224       0.89834791 </v>
   <v>       0.97855474       0.50950429       0.56016033 </v>
   <v>       0.42447255       0.29040126       0.02871783 </v>
   <v>       0.64556593       0.17907905       0.26857330 </v>
   <v>       0.43686020       0.96991215       0.34659474 </v>
   <v>       0.08337401       0.65099912       0.03252914 </v>
   <v>       0.43396068       0.50052478       0.33328551 </v>
   <v>       0.98005506       0.00164846       0.57912595 </v>
   <v>       0.40103628       0.41106684       0.14143238 </v>
   <v>       0.52271300       0.82426114       0.23619930 </v>
   <v>       0.52038069       0.52278991       0.58010599 </v>
   <v>       0.09636810       0.83886777       0.54850781 </v>
   <v>       0.76388522       0.65754722       0.86623484 </v>
   <v>       0.29559673       0.46938720       0.70860493 </v>
   <v>       0.68414391       0.32316234       0.55439347 </v>
   <v>       0.62795731       0.95486182       0.71587358 </v>
   <v>       0.69111639       0.85283093       0.08738076 </v>
   <v>       0.84481356       0.74202113       0.25429532 </v>
   <v>       0.94548302       0.61985334       0.69640451 </v>
   <v>       0.58271922       0.38183782       0.96938225 </v>
   <v>       0.53701603       0.55499443       0.80297241 </v>
   <v>       0.89395404       0.09178239       0.97543972 </v>
   <v>       0.53029199       0.22414353       0.12950168 </v>
   <v>       0.69260345       0.50220806       0.42767428 </v>
   <v>       0.98463246       0.53339166       0.07906185 </v>
   <v>       0.59403994       0.61271856       0.03146726 </v>
   <v>       0.17995876       0.91012077       0.06078332 </v>
   <v>       0.71803720       0.79010454       0.71072400 </v>
   <v>       0.99231510       0.77968646       0.38208232 </v>
   <v>       0.15565857       0.17311420       0.21372346 </v>
   <v>       0.43844718       0.76710683       0.94859059 </v>
   <v>       0.65583767       0.66203766       0.26489400 </v>
   <v>       0.67384859       0.03503281       0.92380944 </v>
   <v>       0.91155802       0.94100037       0.12764639 </v>
   <v>       0.43661470       0.13258953       0.71481837 </v>
   <v>       0.76520339       0.29881103       0.20334019 </v>
   <v>       0.02270254       0.05343205       0.81124232 </v>
   <v>       0.09983851       0.59814456       0.52482301 </v>
   <v>       0.43247395       0.97079307       0.84427123 </v>
   <v>       0.82188682       0.51519565       0.23223356 </v>
   <v>       0.77957267       0.44005378       0.02701323 </v>
   <v>       0.19978932       0.91792390       0.80728577 </v>
   <v>       0.46621016       0.18547916       0.91964014 </v>
   <v>       0.31685976       0.35994374       0.89907009 </v>
   <v>       0.08959901       0.93433122       0.26077869 </v>
   <v>       0.65142192       0.21089462       0.76848416 </v>
   <v>       0.32194645       0.18295294       0.05513389 </v>
   <v>       0.39329697       0.64908238       0.13667248 </v>
   <v>       0.13213517       0.13480911       0.99466185 </v>
   <v>       0.98471768       0.32519012       0.26946571 </v>
   <v>       0.55189334       0.74166796       0.62139620 </v>
   <v>       0.75260764       0.98387776       0.53840100 </v>
   <v>       0.53987014       0.91704828       0.46874520 </v>
   <v>       0.56073193       0.07016751       0.31256673 </v>
   <v>       0.09781760       0.44772386       0.64705936 </v>
   <v>       0.24487093       0.25429208       0.69882808 </v>
   <v>       0.70348549       0.41866626       0.78883004 </v>
   <v>       0.96440992       0.32086508       0.01150396 </v>
   <v>       0.03038680       0.75555513       0.14469650 </v>
   <v>       0.37321818       0.05140249       0.23824960 </v>
   <v>       0.12516127       0.52770842       0.91622803 </v>
   <v>       0.19587133       0.08112413       0.60239438 </v>
   <v>       0.21510220       0.38123490       0.27326638 </v>
   <v>       0.13314979       0.30288597       0.85502428 </v>
   <v>       0.32732848       0.69439576       0.53734401 </v>
   <v>       0.97112607       0.16119164       0.37572514 </v>
   <v>       0.90621398       0.28092213       0.76731141 </v>
   <v>       0.96538645       0.71748964       0.92726363 </v>
   <v>       0.57207200       0.30134007       0.34141072 </v>
   <v>       0.74319074       0.14445461       0.38011066 </v>
   <v>       0.19160949       0.54657657       0.10312434 </v>
   <v>       0.43867171       0.30575204       0.55264558 </v>
   <v>       0.36496873       0.06394473       0.45746240 </v>
   <v>       0.21100511       0.65905279       0.32098501 </v>
   <v>       0.83211958       0.88515796       0.91055974 </v>
   <v>       0.04308176       0.41458755       0.45745452 </v>
   <v>       0.29786454       0.87459683       0.35587549 </v>
   <v>       0.21798188       0.24390316       0.45894592 </v>
   <v>       0.20121395       0.74503713       0.94239048 </v>
   <v>       0.85262671       0.19030080       0.57680773 </v>
   <v>       0.67912334       0.06878743       0.11163876 </v>
   <v>       0.89915478       0.61634888       0.45873193 </v>
   <v>       0.43053517       0.92858554       0.06038794 </v>
   <v>       0.86255627       0.43516176       0.62650915 </v>
   <v>       0.96715521       0.84426354       0.72399753 </v>
   <v>       0.70603134       0.76768542       0.44797274 </v>
   <v>       0.86624030       0.94248829       0.35570032 </v>
  </varray>
  <varray name="velocities" >
   <v>       0.00000000       0.00000000       0.00000000 </v>
   <v>       0.00000000       0.00000000       0.00000000 </v>
   <v>       0.00000000       0.00000000       0.00000000 </v>
   <v>       0.00000000       0.00000000       0.00000000 </v>
   <v>       0.00000000       0.00000000       0.00000000 </v>
   <v>       0.00000000       0.00000000       0.00000000 </v>
   <v>       0.00000000       0.00000000       0.00000000 </v>
   <v>       0.00000000       0.00000000       0.00000000 </v>
   <v>       0.00000000       0.00000000       0.00000000 </v>
   <v>       0.00000000       0.00000000       0.00000000 </v>
   <v>       0.00000000       0.00000000       0.00000000 </v>
   <v>       0.00000000       0.00000000       0.00000000 </v>
   <v>       0.00000000       0.00000000       0.00000000 </v>
   <v>       0.00000000       0.00000000       0.00000000 </v>
   <v>       0.00000000       0.00000000       0.00000000 </v>
   <v>       0.00000000       0.00000000       0.00000000 </v>
   <v>       0.00000000       0.00000000       0.00000000 </v>
   <v>       0.00000000       0.00000000       0.00000000 </v>
   <v>       0.00000000       0.00000000       0.00000000 </v>
   <v>       0.00000000       0.00000000       0.00000000 </v>
   <v>       0.00000000       0.00000000       0.00000000 </v>
   <v>       0.00000000       0.00000000       0.00000000 </v>
   <v>       0.00000000       0.00000000       0.00000000 </v>
   <v>       0.00000000       0.00000000       0.00000000 </v>
   <v>       0.00000000       0.00000000       0.00000000 </v>
   <v>       0.00000000       0.00000000       0.00000000 </v>
   <v>       0.00000000       0.00000000       0.00000000 </v>
   <v>       0.00000000       0.00000000       0.00000000 </v>
   <v>       0.00000000       0.00000000       0.00000000 </v>
   <v>       0.00000000       0.00000000       0.00000000 </v>
   <v>       0.00000000       0.00000000       0.00000000 </v>
   <v>       0.00000000       0.00000000       0.00000000 </v>
   <v>       0.00000000       0.00000000       0.00000000 </v>
   <v>       0.00000000       0.00000000       0.00000000 </v>
   <v>       0.00000000       0.00000000       0.00000000 </v>
   <v>       0.00000000       0.00000000       0.00000000 </v>
   <v>       0.00000000       0.00000000       0.00000000 </v>
   <v>       0.00000000       0.00000000       0.00000000 </v>
   <v>       0.00000000       0.00000000       0.00000000 </v>
   <v>       0.00000000       0.00000000       0.00000000 </v>
   <v>       0.00000000       0.00000000       0.00000000 </v>
   <v>       0.00000000       0.00000000       0.00000000 </v>
   <v>       0.00000000       0.00000000       0.00000000 </v>
   <v>       0.00000000       0.00000000       0.00000000 </v>
   <v>       0.00000000       0.00000000       0.00000000 </v>
   <v>       0.00000000       0.00000000       0.00000000 </v>
   <v>       0.00000000       0.00000000       0.00000000 </v>
   <v>       0.00000000       0.00000000       0.00000000 </v>
   <v>       0.00000000       0.00000000       0.00000000 </v>
   <v>       0.00000000       0.00000000       0.00000000 </v>
   <v>       0.00000000       0.00000000       0.00000000 </v>
   <v>       0.00000000       0.00000000       0.00000000 </v>
   <v>       0.00000000       0.00000000       0.00000000 </v>
   <v>       0.00000000       0.00000000       0.00000000 </v>
   <v>       0.00000000       0.00000000       0.00000000 </v>
   <v>       0.00000000       0.00000000       0.00000000 </v>
   <v>       0.00000000       0.00000000       0.00000000 </v>
   <v>       0.00000000       0.00000000       0.00000000 </v>
   <v>       0.00000000       0.00000000       0.00000000 </v>
   <v>       0.00000000       0.00000000       0.00000000 </v>
   <v>       0.00000000       0.00000000       0.00000000 </v>
   <v>       0.00000000       0.00000000       0.00000000 </v>
   <v>       0.00000000       0.00000000       0.00000000 </v>
   <v>       0.00000000       0.00000000       0.00000000 </v>
   <v>       0.00000000       0.00000000       0.00000000 </v>
   <v>       0.00000000       0.00000000       0.00000000 </v>
   <v>       0.00000000       0.00000000       0.00000000 </v>
   <v>       0.00000000       0.00000000       0.00000000 </v>
   <v>       0.00000000       0.00000000       0.00000000 </v>
   <v>       0.00000000       0.00000000       0.00000000 </v>
   <v>       0.00000000       0.00000000       0.00000000 </v>
   <v>       0.00000000       0.00000000       0.00000000 </v>
   <v>       0.00000000       0.00000000       0.00000000 </v>
   <v>       0.00000000       0.00000000       0.00000000 </v>
   <v>       0.00000000       0.00000000       0.00000000 </v>
   <v>       0.00000000       0.00000000       0.00000000 </v>
   <v>       0.00000000       0.00000000       0.00000000 </v>
   <v>       0.00000000       0.00000000       0.00000000 </v>
   <v>       0.00000000       0.00000000       0.00000000 </v>
   <v>       0.00000000       0.00000000       0.00000000 </v>
   <v>       0.00000000       0.00000000       0.00000000 </v>
   <v>       0.00000000       0.00000000       0.00000000 </v>
   <v>       0.00000000       0.00000000       0.00000000 </v>
   <v>       0.00000000       0.00000000       0.00000000 </v>
   <v>       0.00000000       0.00000000       0.00000000 </v>
   <v>       0.00000000       0.00000000       0.00000000 </v>
   <v>       0.00000000       0.00000000       0.00000000 </v>
   <v>       0.00000000       0.00000000       0.00000000 </v>
   <v>       0.00000000       0.00000000       0.00000000 </v>
   <v>       0.00000000       0.00000000       0.00000000 </v>
   <v>       0.00000000       0.00000000       0.00000000 </v>
   <v>       0.00000000       0.00000000       0.00000000 </v>
   <v>       0.00000000       0.00000000       0.00000000 </v>
   <v>       0.00000000       0.00000000       0.00000000 </v>
   <v>       0.00000000       0.00000000       0.00000000 </v>
   <v>       0.00000000       0.00000000       0.00000000 </v>
   <v>       0.00000000       0.00000000       0.00000000 </v>
   <v>       0.00000000       0.00000000       0.00000000 </v>
   <v>       0.00000000       0.00000000       0.00000000 </v>
   <v>       0.00000000       0.00000000       0.00000000 </v>
   <v>       0.00000000       0.00000000       0.00000000 </v>
   <v>       0.00000000       0.00000000       0.00000000 </v>
   <v>       0.00000000       0.00000000       0.00000000 </v>
   <v>       0.00000000       0.00000000       0.00000000 </v>
   <v>       0.00000000       0.00000000       0.00000000 </v>
   <v>       0.00000000       0.00000000       0.00000000 </v>
   <v>       0.00000000       0.00000000       0.00000000 </v>
   <v>       0.00000000       0.00000000       0.00000000 </v>
   <v>       0.00000000       0.00000000       0.00000000 </v>
   <v>       0.00000000       0.00000000       0.00000000 </v>
   <v>       0.00000000       0.00000000       0.00000000 </v>
   <v>       0.00000000       0.00000000       0.00000000 </v>
   <v>       0.00000000       0.00000000       0.00000000 </v>
   <v>       0.00000000       0.00000000       0.00000000 </v>
   <v>       0.00000000       0.00000000       0.00000000 </v>
   <v>       0.00000000       0.00000000       0.00000000 </v>
   <v>       0.00000000       0.00000000       0.00000000 </v>
   <v>       0.00000000       0.00000000       0.00000000 </v>
   <v>       0.00000000       0.00000000       0.00000000 </v>
   <v>       0.00000000       0.00000000       0.00000000 </v>
   <v>       0.00000000       0.00000000       0.00000000 </v>
   <v>       0.00000000       0.00000000       0.00000000 </v>
   <v>       0.00000000       0.00000000       0.00000000 </v>
   <v>       0.00000000       0.00000000       0.00000000 </v>
   <v>       0.00000000       0.00000000       0.00000000 </v>
   <v>       0.00000000       0.00000000       0.00000000 </v>
   <v>       0.00000000       0.00000000       0.00000000 </v>
   <v>       0.00000000       0.00000000       0.00000000 </v>
   <v>       0.00000000       0.00000000       0.00000000 </v>
   <v>       0.00000000       0.00000000       0.00000000 </v>
   <v>       0.00000000       0.00000000       0.00000000 </v>
   <v>       0.00000000       0.00000000       0.00000000 </v>
   <v>       0.00000000       0.00000000       0.00000000 </v>
   <v>       0.00000000       0.00000000       0.00000000 </v>
   <v>       0.00000000       0.00000000       0.00000000 </v>
  </varray>
 </structure>
 <calculation>
  <scstep>
   <time name="dav">   42.68   42.68</time>
   <time name="total">   43.09   43.10</time>
   <energy>
    <i name="alphaZ">   4420.68831078 </i>
    <i name="ewald"> -58151.15860734 </i>
    <i name="hartreedc"> -11379.18679847 </i>
    <i name="XCdc">   3304.07899048 </i>
    <i name="pawpsdc">  50594.51003143 </i>
    <i name="pawaedc"> -49994.65612350 </i>
    <i name="eentropy">     -0.02913738 </i>
    <i name="bandstr">   6854.43807729 </i>
    <i name="atom">  64968.54023382 </i>
    <i name="e_fr_energy">  10617.22497711 </i>
    <i name="e_wo_entrp">  10617.25411449 </i>
    <i name="e_0_energy">  10617.23954580 </i>
   </energy>
  </scstep>
  <scstep>
   <time name="dav">   46.47   46.48</time>
   <time name="total">   46.47   46.49</time>
   <energy>
    <i name="e_fr_energy">    264.81155854 </i>
    <i name="e_wo_entrp">    264.81155854 </i>
    <i name="e_0_energy">    264.81155854 </i>
   </energy>
  </scstep>
  <scstep>
   <time name="dav">   47.46   47.49</time>
   <time name="total">   47.46   47.49</time>
   <energy>
    <i name="e_fr_energy">   -909.70846901 </i>
    <i name="e_wo_entrp">   -909.70846901 </i>
    <i name="e_0_energy">   -909.70846901 </i>
   </energy>
  </scstep>
  <scstep>
   <time name="dav">   57.14   57.16</time>
   <time name="total">   57.15   57.16</time>
   <energy>
    <i name="e_fr_energy">   -973.66717977 </i>
    <i name="e_wo_entrp">   -973.66717977 </i>
    <i name="e_0_energy">   -973.66717977 </i>
   </energy>
  </scstep>
  <scstep>
   <time name="dav">   61.61   61.62</time>
   <time name="total">   62.78   62.80</time>
   <energy>
    <i name="e_fr_energy">   -977.85782263 </i>
    <i name="e_wo_entrp">   -977.85782263 </i>
    <i name="e_0_energy">   -977.85782263 </i>
   </energy>
  </scstep>
  <scstep>
   <time name="dav">   50.98   50.98</time>
   <time name="total">   52.57   52.59</time>
   <energy>
    <i name="e_fr_energy">   -843.73362183 </i>
    <i name="e_wo_entrp">   -843.73362183 </i>
    <i name="e_0_energy">   -843.73362183 </i>
   </energy>
  </scstep>
  <scstep>
   <time name="dav">   51.10   51.10</time>
   <time name="total">   52.69   52.71</time>
   <energy>
    <i name="e_fr_energy">   -845.24238344 </i>
    <i name="e_wo_entrp">   -845.24238344 </i>
    <i name="e_0_energy">   -845.24238344 </i>
   </energy>
  </scstep>
  <scstep>
   <time name="dav">   52.48   52.48</time>
   <time name="total">   54.11   54.12</time>
   <energy>
    <i name="e_fr_energy">   -844.69280168 </i>
    <i name="e_wo_entrp">   -844.69280168 </i>
    <i name="e_0_energy">   -844.69280168 </i>
   </energy>
  </scstep>
  <scstep>
   <time name="dav">   48.35   48.35</time>
   <time name="total">   49.92   49.93</time>
   <energy>
    <i name="e_fr_energy">   -844.53105052 </i>
    <i name="e_wo_entrp">   -844.53105052 </i>
    <i name="e_0_energy">   -844.53105052 </i>
   </energy>
  </scstep>
  <scstep>
   <time name="dav">   58.14   58.14</time>
   <time name="total">   59.75   59.77</time>
   <energy>
    <i name="e_fr_energy">   -844.58234214 </i>
    <i name="e_wo_entrp">   -844.58234214 </i>
    <i name="e_0_energy">   -844.58234214 </i>
   </energy>
  </scstep>
  <scstep>
   <time name="dav">   50.06   50.06</time>
   <time name="total">   51.63   51.64</time>
   <energy>
    <i name="e_fr_energy">   -844.58492780 </i>
    <i name="e_wo_entrp">   -844.58492780 </i>
    <i name="e_0_energy">   -844.58492780 </i>
   </energy>
  </scstep>
  <scstep>
   <time name="dav">   50.66   50.66</time>
   <time name="total">   52.28   52.31</time>
   <energy>
    <i name="e_fr_energy">   -844.58462895 </i>
    <i name="e_wo_entrp">   -844.58462895 </i>
    <i name="e_0_energy">   -844.58462895 </i>
   </energy>
  </scstep>
  <scstep>
   <time name="dav">   55.11   55.11</time>
   <time name="total">   56.65   56.67</time>
   <energy>
    <i name="e_fr_energy">   -844.58510378 </i>
    <i name="e_wo_entrp">   -844.58510378 </i>
    <i name="e_0_energy">   -844.58510378 </i>
   </energy>
  </scstep>
  <scstep>
   <time name="dav">   58.15   58.15</time>
   <time name="total">   59.70   59.72</time>
   <energy>
    <i name="e_fr_energy">   -844.58516677 </i>
    <i name="e_wo_entrp">   -844.58516677 </i>
    <i name="e_0_energy">   -844.58516677 </i>
   </energy>
  </scstep>
  <scstep>
   <time name="dav">   48.66   48.66</time>
   <time name="total">   50.24   50.25</time>
   <energy>
    <i name="e_fr_energy">   -844.58515594 </i>
    <i name="e_wo_entrp">   -844.58515594 </i>
    <i name="e_0_energy">   -844.58515594 </i>
   </energy>
  </scstep>
  <scstep>
   <time name="dav">   58.46   58.47</time>
   <time name="total">   60.08   60.10</time>
   <energy>
    <i name="e_fr_energy">   -844.58515896 </i>
    <i name="e_wo_entrp">   -844.58515896 </i>
    <i name="e_0_energy">   -844.58515896 </i>
   </energy>
  </scstep>
  <scstep>
   <time name="dav">   48.28   48.28</time>
   <time name="total">   49.90   49.91</time>
   <energy>
    <i name="e_fr_energy">   -844.58515817 </i>
    <i name="e_wo_entrp">   -844.58515817 </i>
    <i name="e_0_energy">   -844.58515817 </i>
   </energy>
  </scstep>
  <scstep>
   <time name="dav">   33.03   33.03</time>
   <time name="total">   33.44   33.45</time>
   <energy>
    <i name="alphaZ">   4420.68831078 </i>
    <i name="ewald"> -58151.15860734 </i>
    <i name="hartreedc"> -12628.29800029 </i>
    <i name="XCdc">   3396.10948166 </i>
    <i name="pawpsdc"> 109890.91763366 </i>
    <i name="pawaedc">-109534.71486357 </i>
    <i name="eentropy">     -0.00000000 </i>
    <i name="bandstr">  -3206.66934626 </i>
    <i name="atom">  64968.54023382 </i>
    <i name="e_fr_energy">   -844.58515753 </i>
    <i name="e_wo_entrp">   -844.58515753 </i>
    <i name="e_0_energy">   -844.58515753 </i>
   </energy>
  </scstep>
  <structure>
   <crystal>
    <varray name="basis" >
     <v>      10.26287559       0.00000000       0.00000000 </v>
     <v>       0.00000000      10.26287559       0.00000000 </v>
     <v>       0.00000000       0.00000000      10.26287559 </v>
    </varray>
    <i name="volume">   1080.95394992 </i>
    <varray name="rec_basis" >
     <v>       0.09743858       0.00000000       0.00000000 </v>
     <v>       0.00000000       0.09743858       0.00000000 </v>
     <v>       0.00000000       0.00000000       0.09743858 </v>
    </varray>
   </crystal>
   <varray name="positions" >
    <v>       0.03729653       0.90198272       0.93655832 </v>
    <v>       0.17541925       0.33239263       0.06495325 </v>
    <v>       0.27349851       0.49655665       0.51213335 </v>
    <v>       0.04548070       0.54344155       0.29811867 </v>
    <v>       0.29024228       0.81310162       0.19125346 </v>
    <v>       0.73388999       0.23478225       0.98740676 </v>
    <v>       0.82755725       0.64511864       0.09108877 </v>
    <v>       0.68485251       0.59073935       0.64662054 </v>
    <v>       0.83649901       0.31099461       0.39359447 </v>
    <v>       0.14339555       0.69748278       0.69492558 </v>
    <v>       0.87698760       0.82624633       0.54969646 </v>
    <v>       0.62300553       0.13065156       0.55209025 </v>
    <v>       0.48528914       0.70859183       0.42056920 </v>
    <v>       0.91873315       0.48340562       0.84729262 </v>
    <v>       0.49579681       0.35064270       0.78577522 </v>
    <v>       0.36621737       0.91762193       0.58930801 </v>
    <v>       0.81907219       0.04549117       0.74954504 </v>
    <v>       0.94235769       0.15098381       0.16146376 </v>
    <v>       0.28756976       0.14647158       0.85822060 </v>
    <v>       0.04784361       0.23540103       0.64303057 </v>
    <v>       0.71334721       0.92473341       0.27808003 </v>
    <v>       0.38095590       0.25321816       0.27912124 </v>
    <v>       0.59762927       0.44767751       0.19520461 </v>
    <v>       0.39391311       0.70879915       0.75503158 </v>
    <v>       0.62896992       0.78184776       0.86096809 </v>
    <v>       0.39410469       0.55455284       0.93918853 </v>
    <v>       0.16182177       0.01400281       0.42665518 </v>
    <v>       0.63243820       0.87030265       0.57614354 </v>
    <v>       0.87697880       0.73525284       0.78044369 </v>
    <v>       0.32819193       0.86369758       0.92420225 </v>
    <v>       0.55590592       0.06394957       0.82659483 </v>
    <v>       0.32701228       0.18813225       0.57996488 </v>
    <v>       0.14247238       0.74091356       0.43271740 </v>
    <v>       0.20497866       0.05686858       0.12256883 </v>
    <v>       0.18319197       0.43797154       0.78911347 </v>
    <v>       0.51861404       0.03598649       0.06430290 </v>
    <v>       0.56787742       0.40268551       0.48882609 </v>
    <v>       0.89922115       0.41211860       0.13414222 </v>
    <v>       0.94479163       0.84605880       0.24526695 </v>
    <v>       0.89175644       0.06383010       0.46952670 </v>
    <v>       0.65976167       0.50487594       0.91482547 </v>
    <v>       0.55189431       0.71531349       0.12980030 </v>
    <v>       0.08708876       0.98300547       0.69044044 </v>
    <v>       0.77216014       0.29963348       0.69519407 </v>
    <v>       0.12274576       0.28727974       0.34632459 </v>
    <v>       0.30812547       0.55308623       0.21526263 </v>
    <v>       0.79230062       0.95374263       0.02956184 </v>
    <v>       0.78544460       0.63160679       0.36369129 </v>
    <v>       0.01920352       0.19130224       0.89834791 </v>
    <v>       0.97855474       0.50950429       0.56016033 </v>
    <v>       0.42447255       0.29040126       0.02871783 </v>
    <v>       0.64556593       0.17907905       0.26857330 </v>
    <v>       0.43686020       0.96991215       0.34659474 </v>
    <v>       0.08337401       0.65099912       0.03252914 </v>
    <v>       0.43396068       0.50052478       0.33328551 </v>
    <v>       0.98005506       0.00164846       0.57912595 </v>
    <v>       0.40103628       0.41106684       0.14143238 </v>
    <v>       0.52271300       0.82426114       0.23619930 </v>
    <v>       0.52038069       0.52278991       0.58010599 </v>
    <v>       0.09636810       0.83886777       0.54850781 </v>
    <v>       0.76388522       0.65754722       0.86623484 </v>
    <v>       0.29559673       0.46938720       0.70860493 </v>
    <v>       0.68414391       0.32316234       0.55439347 </v>
    <v>       0.62795731       0.95486182       0.71587358 </v>
    <v>       0.69111639       0.85283093       0.08738076 </v>
    <v>       0.84481356       0.74202113       0.25429532 </v>
    <v>       0.94548302       0.61985334       0.69640451 </v>
    <v>       0.58271922       0.38183782       0.96938225 </v>
    <v>       0.53701603       0.55499443       0.80297241 </v>
    <v>       0.89395404       0.09178239       0.97543972 </v>
    <v>       0.53029199       0.22414353       0.12950168 </v>
    <v>       0.69260345       0.50220806       0.42767428 </v>
    <v>       0.98463246       0.53339166       0.07906185 </v>
    <v>       0.59403994       0.61271856       0.03146726 </v>
    <v>       0.17995876       0.91012077       0.06078332 </v>
    <v>       0.71803720       0.79010454       0.71072400 </v>
    <v>       0.99231510       0.77968646       0.38208232 </v>
    <v>       0.15565857       0.17311420       0.21372346 </v>
    <v>       0.43844718       0.76710683       0.94859059 </v>
    <v>       0.65583767       0.66203766       0.26489400 </v>
    <v>       0.67384859       0.03503281       0.92380944 </v>
    <v>       0.91155802       0.94100037       0.12764639 </v>
    <v>       0.43661470       0.13258953       0.71481837 </v>
    <v>       0.76520339       0.29881103       0.20334019 </v>
    <v>       0.02270254       0.05343205       0.81124232 </v>
    <v>       0.09983851       0.59814456       0.52482301 </v>
    <v>       0.43247395       0.97079307       0.84427123 </v>
    <v>       0.82188682       0.51519565       0.23223356 </v>
    <v>       0.77957267       0.44005378       0.02701323 </v>
    <v>       0.19978932       0.91792390       0.80728577 </v>
    <v>       0.46621016       0.18547916       0.91964014 </v>
    <v>       0.31685976       0.35994374       0.89907009 </v>
    <v>       0.08959901       0.93433122       0.26077869 </v>
    <v>       0.65142192       0.21089462       0.76848416 </v>
    <v>       0.32194645       0.18295294       0.05513389 </v>
    <v>       0.39329697       0.64908238       0.13667248 </v>
    <v>       0.13213517       0.13480911       0.99466185 </v>
    <v>       0.98471768       0.32519012       0.26946571 </v>
    <v>       0.55189334       0.74166796       0.62139620 </v>
    <v>       0.75260764       0.98387776       0.53840100 </v>
    <v>       0.53987014       0.91704828       0.46874520 </v>
    <v>       0.56073193       0.07016751       0.31256673 </v>
    <v>       0.09781760       0.44772386       0.64705936 </v>
    <v>       0.24487093       0.25429208       0.69882808 </v>
    <v>       0.70348549       0.41866626       0.78883004 </v>
    <v>       0.96440992       0.32086508       0.01150396 </v>
    <v>       0.03038680       0.75555513       0.14469650 </v>
    <v>       0.37321818       0.05140249       0.23824960 </v>
    <v>       0.12516127       0.52770842       0.91622803 </v>
    <v>       0.19587133       0.08112413       0.60239438 </v>
    <v>       0.21510220       0.38123490       0.27326638 </v>
    <v>       0.13314979       0.30288597       0.85502428 </v>
    <v>       0.32732848       0.69439576       0.53734401 </v>
    <v>       0.97112607       0.16119164       0.37572514 </v>
    <v>       0.90621398       0.28092213       0.76731141 </v>
    <v>       0.96538645       0.71748964       0.92726363 </v>
    <v>       0.57207200       0.30134007       0.34141072 </v>
    <v>       0.74319074       0.14445461       0.38011066 </v>
    <v>       0.19160949       0.54657657       0.10312434 </v>
    <v>       0.43867171       0.30575204       0.55264558 </v>
    <v>       0.36496873       0.06394473       0.45746240 </v>
    <v>       0.21100511       0.65905279       0.32098501 </v>
    <v>       0.83211958       0.88515796       0.91055974 </v>
    <v>       0.04308176       0.41458755       0.45745452 </v>
    <v>       0.29786454       0.87459683       0.35587549 </v>
    <v>       0.21798188       0.24390316       0.45894592 </v>
    <v>       0.20121395       0.74503713       0.94239048 </v>
    <v>       0.85262671       0.19030080       0.57680773 </v>
    <v>       0.67912334       0.06878743       0.11163876 </v>
    <v>       0.89915478       0.61634888       0.45873193 </v>
    <v>       0.43053517       0.92858554       0.06038794 </v>
    <v>       0.86255627       0.43516176       0.62650915 </v>
    <v>       0.96715521       0.84426354       0.72399753 </v>
    <v>       0.70603134       0.76768542       0.44797274 </v>
    <v>       0.86624030       0.94248829       0.35570032 </v>
   </varray>
  </structure>
  <varray name="forces" >
   <v>      -1.87155943      -0.89449963       1.79717186 </v>
   <v>      -1.02712803       3.07856400       0.30095471 </v>
   <v>       2.74161267      -2.96548466      -1.62883157 </v>
   <v>      -1.71753198       0.90986608      -0.99832874 </v>
   <v>      -1.62825115      -1.13107417      -4.25544063 </v>
   <v>      -0.37873126       1.42163913      -0.64928475 </v>
   <v>      -3.89404821       5.10632718      -4.42500335 </v>
   <v>       2.92130235      -1.39954340      -1.39116217 </v>
   <v>      -1.31698866       6.43790813       4.29300481 </v>
   <v>      -0.12708426      -0.31210804       2.46572709 </v>
   <v>       1.31582542      -4.12865809      -3.40462075 </v>
   <v>      -4.08094870       1.10189985      -0.37787600 </v>
   <v>       2.05854407      -3.66867016      -1.35248140 </v>
   <v>       0.88924706      -1.15527482       1.08064941 </v>
   <v>      -2.28565669      -0.19486729      -6.35533398 </v>
   <v>      -1.24988535      -1.46449375       3.17768450 </v>
   <v>      -0.25453853      -1.55974711       0.45282185 </v>
   <v>       0.65691587      -1.47404952       2.60327125 </v>
   <v>      -2.58951528      -2.22761564      -3.03454619 </v>
   <v>       2.38078486       2.11699832      -3.88587583 </v>
   <v>      -7.50359226      -2.26672306      -0.18745462 </v>
   <v>      -1.01160164       0.02844005       3.29995843 </v>
   <v>       2.24432627       1.76572066       1.10392815 </v>
   <v>       1.32637486      -3.41425656      -5.73570242 </v>
   <v>      -5.37846496       4.01050216       5.84613689 </v>
   <v>      -3.24591896      -1.03502158       3.42560596 </v>
   <v>      -1.99118198       0.98980698      -4.45293706 </v>
   <v>       5.90213561      -4.24537819       2.11037783 </v>
   <v>      -1.99090466       0.61288614       5.06878370 </v>
   <v>      -5.72033303       4.92494741       2.86103825 </v>
   <v>      -1.20988243       3.48066906      -6.90377321 </v>
   <v>       1.19457622       1.78032174       0.88114050 </v>
   <v>      -0.63825081      -0.10253667       2.58299893 </v>
   <v>       0.94536841       0.25274004       1.76736630 </v>
   <v>      -4.41045940      -3.01816549       3.25624372 </v>
   <v>       6.40706436       9.98966257       2.66831749 </v>
   <v>      -1.69693114       2.19631347      -2.08078023 </v>
   <v>      -1.79794893      -2.18215492       1.14353554 </v>
   <v>      10.04027697       3.88388974       2.91305717 </v>
   <v>      -5.96884032       1.33108395      -2.98590858 </v>
   <v>       0.81580083       2.76757405      -0.21012782 </v>
   <v>       1.57406311       2.68803183       5.66945598 </v>
   <v>       4.10898639      -4.79676260      -2.14876372 </v>
   <v>      -1.56765613       4.01128333      -5.02236159 </v>
   <v>      -4.83861840      -1.32265068       1.34579900 </v>
   <v>       0.65519897      -6.60927962       4.21774580 </v>
   <v>      -2.50895565       4.35099439       1.26867687 </v>
   <v>      -7.35165878      -0.34401499      -2.78298661 </v>
   <v>      -3.29477779       2.67323037       2.21605769 </v>
   <v>      -2.57948160       1.75844943       1.56798796 </v>
   <v>       2.45875469       5.77567752      -0.99296490 </v>
   <v>       2.69130467       6.31322736      -4.62329410 </v>
   <v>       2.02028050      -1.48633969       1.15220292 </v>
   <v>       1.35667172       0.39112246      -2.95720628 </v>
   <v>      -2.87783725       2.13809826       0.73902219 </v>
   <v>       0.07623919       3.65509395      -0.15087180 </v>
   <v>      -2.03396784      -0.16349353      -4.18920454 </v>
   <v>      -4.24202367       4.06176647       2.68545884 </v>
   <v>      -3.22469048      -2.15657853      -1.74574970 </v>
   <v>       5.79438528       1.28335069       2.64485417 </v>
   <v>       1.13121596      -7.81667826       1.86242241 </v>
   <v>       9.14979524       6.80001615      -1.02464500 </v>
   <v>      -0.75785077      -0.90014674       2.76820136 </v>
   <v>      -4.93001272       5.82132961       1.00640676 </v>
   <v>      -3.40752284      -4.93057420      -1.38714556 </v>
   <v>      -5.59336321      -2.95815044       1.00221227 </v>
   <v>      -0.67586243       2.04778259      -0.38002027 </v>
   <v>      -5.03547483      -1.26723704       2.72526878 </v>
   <v>       1.09254228       2.78426327       2.21919514 </v>
   <v>      -0.96813276       2.38834127      -1.90541203 </v>
   <v>       2.33408353      -3.11377426       1.04445318 </v>
   <v>       0.08396753       0.36887193      -0.75155680 </v>
   <v>       0.37774690      -1.93315658       0.90843399 </v>
   <v>       2.38914391      -3.02470488      -3.15741478 </v>
   <v>       5.90958658       5.37284442       0.01786058 </v>
   <v>      12.68488250      -1.91351125      -6.61425473 </v>
   <v>       6.80771555      -2.25945163       0.34928305 </v>
   <v>      -0.74238003       0.77765668       3.42142366 </v>
   <v>       2.41360539      -5.40108600      -1.22286806 </v>
   <v>      -4.79572403      -2.03692730      -4.54439765 </v>
   <v>      -3.30723635      -0.81917993      -1.72626576 </v>
   <v>      -1.89272112       1.65577975      -0.73009675 </v>
   <v>       1.02603750      -0.67006565      -5.27595759 </v>
   <v>      -0.59089726      -3.08990647      -2.73826426 </v>
   <v>       0.46394477       4.84198058      -3.25208602 </v>
   <v>       3.97606291       8.75850212      -4.12251032 </v>
   <v>      -3.39864427      -4.78846309       0.55941251 </v>
   <v>       1.88847652      -2.01751049       4.29446183 </v>
   <v>      -1.57493200       2.64440079      -3.38963160 </v>
   <v>       3.03159305      -0.06226956      -3.32240996 </v>
   <v>       7.49627505      -4.13252236      -0.98950364 </v>
   <v>       4.44004747       0.89383543       4.40109819 </v>
   <v>       1.10647030       2.38643610      -1.31338892 </v>
   <v>       2.41925388      -3.44113623      -0.35661908 </v>
   <v>      -3.16275940      -3.64984229       5.20745898 </v>
   <v>       3.98824699       1.93890191      -0.80284014 </v>
   <v>      -3.15598157      -2.84826295       1.18688962 </v>
   <v>       1.12537362       4.85136449      -7.68318042 </v>
   <v>      -6.05727211       2.27741441       0.86441648 </v>
   <v>       0.61335436      -0.66488764       1.37039134 </v>
   <v>      -4.25624357       2.07081292      -2.67218997 </v>
   <v>      -4.03934357      -4.79552204       1.72197308 </v>
   <v>      -0.35667998      -2.72503896       7.76461585 </v>
   <v>       1.84623840       1.80232485      -2.60946160 </v>
   <v>       3.11599451       0.14882865      -0.73930499 </v>
   <v>      -0.15146244      -2.97171220       0.21643656 </v>
   <v>       3.44987769      -4.17192080      -2.72366092 </v>
   <v>      -5.59606375       0.59442029      -7.24432337 </v>
   <v>       0.65839953      -0.88318264      -6.16978992 </v>
   <v>      -1.31797569      -5.18491178       5.35338058 </v>
   <v>       1.54565997       5.41477010      -0.66738066 </v>
   <v>      -7.09417728      -2.84029131       0.64564099 </v>
   <v>      -4.17833129       2.74921741       2.57860562 </v>
   <v>       4.78219293      -2.65331012       2.41196189 </v>
   <v>       1.30588524      -3.16031945       8.01020342 </v>
   <v>       1.43198056      -3.87749758      -0.81350478 </v>
   <v>      -0.14342384       1.22196516       2.82550320 </v>
   <v>       2.59705786      -3.18529551       0.15189843 </v>
   <v>       3.13506987       1.53996392       3.92700486 </v>
   <v>       0.24610713      -0.57344235      -1.92370019 </v>
   <v>       1.38929705       3.84858492       2.37908297 </v>
   <v>       3.17476861      -2.19951337      -2.68352757 </v>
   <v>       0.70544509      -3.79227273      -7.79259249 </v>
   <v>      -0.01238018      -6.48977040      -4.60149354 </v>
   <v>       2.67244377       0.21344434       8.16777968 </v>
   <v>       0.70540140      -0.31781985       0.20105731 </v>
   <v>       2.60280549      -2.25954358      -1.27691572 </v>
   <v>      -0.84014882      -1.17550309       1.18520094 </v>
   <v>       1.01123327       1.11415513       5.62202471 </v>
   <v>       0.26560373      -3.32690086       2.94080098 </v>
   <v>      -5.66165086      -3.09009795      -0.27333153 </v>
   <v>      -2.56350976      -2.08712892      -0.28674085 </v>
   <v>       3.43077777       3.31879801       2.18388760 </v>
   <v>       0.12625600      -0.70377329       1.73421134 </v>
   <v>       7.04004641       3.98856237       4.25966409 </v>
  </varray>
  <varray name="stress" >
   <v>     767.89512527      12.74584729      11.80792483 </v>
   <v>      12.74584735     777.37802578      -6.32116983 </v>
   <v>      11.80792476      -6.32116982     791.84381707 </v>
  </varray>
  <energy>
   <i name="e_fr_energy">   -844.58515753 </i>
   <i name="e_wo_entrp">   -844.58515753 </i>
   <i name="e_0_energy">     -0.00000000 </i>
  </energy>
  <time name="totalsc">  988.24  988.53</time>
  <eigenvalues>
   <array>
    <dimension dim="1">band</dimension>
    <dimension dim="2">kpoint</dimension>
    <dimension dim="3">spin</dimension>
    <field>eigene</field>
    <field>occ</field>
    <set>
     <set comment="spin 1">
      <set comment="kpoint 1">
       <r>  -31.7200    1.0000 </r>
       <r>  -31.2504    1.0000 </r>
       <r>  -30.7095    1.0000 </r>
       <r>  -30.5770    1.0000 </r>
       <r>  -30.4178    1.0000 </r>
       <r>  -30.3378    1.0000 </r>
       <r>  -30.0746    1.0000 </r>
       <r>  -30.0453    1.0000 </r>
       <r>  -29.9363    1.0000 </r>
       <r>  -29.8432    1.0000 </r>
       <r>  -29.6726    1.0000 </r>
       <r>  -29.6127    1.0000 </r>
       <r>  -29.5507    1.0000 </r>
       <r>  -29.4273    1.0000 </r>
       <r>  -29.2472    1.0000 </r>
       <r>  -29.2066    1.0000 </r>
       <r>  -29.1642    1.0000 </r>
       <r>  -29.1336    1.0000 </r>
       <r>  -28.9530    1.0000 </r>
       <r>  -28.9021    1.0000 </r>
       <r>  -28.8418    1.0000 </r>
       <r>  -28.8405    1.0000 </r>
       <r>  -28.7547    1.0000 </r>
       <r>  -28.7462    1.0000 </r>
       <r>  -28.7065    1.0000 </r>
       <r>  -28.4009    1.0000 </r>
       <r>  -28.3957    1.0000 </r>
[...]
       <r>    11.1268     9.5571   867.6897 </r>
       <r>    11.3036     1.7555   868.0000 </r>
       <r>    11.4804     0.0000   868.0000 </r>
       <r>    11.6572     0.0000   868.0000 </r>
       <r>    11.8340     0.0006   868.0001 </r>
       <r>    12.0107     9.7541   869.7245 </r>
       <r>    12.1875    13.1916   872.0566 </r>
       <r>    12.3643    11.5192   874.0931 </r>
       <r>    12.5411    10.7644   875.9961 </r>
       <r>    12.7179     2.6005   876.4558 </r>
       <r>    12.8947    21.4572   880.2492 </r>
       <r>    13.0715    20.5717   883.8860 </r>
       <r>    13.2483    13.4615   886.2658 </r>
       <r>    13.4250    14.3207   888.7975 </r>
       <r>    13.6018    26.7041   893.5185 </r>
       <r>    13.7786    22.2061   897.4443 </r>
       <r>    13.9554    34.2412   903.4977 </r>
       <r>    14.1322    37.1496   910.0652 </r>
       <r>    14.3090    38.6037   916.8899 </r>
       <r>    14.4858    43.0616   924.5026 </r>
       <r>    14.6626    48.1228   933.0101 </r>
       <r>    14.8393    52.6420   942.3166 </r>
       <r>    15.0161    49.8518   951.1297 </r>
       <r>    15.1929    56.9232   961.1930 </r>
       <r>    15.3697    52.6612   970.5029 </r>
       <r>    15.5465    58.1541   980.7838 </r>
       <r>    15.7233    62.8160   991.8889 </r>
       <r>    15.9001    68.0236  1003.9146 </r>
       <r>    16.0769    66.2254  1015.6224 </r>
       <r>    16.2536    64.0628  1026.9479 </r>
       <r>    16.4304    58.0056  1037.2026 </r>
       <r>    16.6072    15.8224  1039.9998 </r>
       <r>    16.7840     0.0013  1040.0000 </r>
       <r>    16.9608     0.0000  1040.0000 </r>
       <r>    17.1376     0.0000  1040.0000 </r>
       <r>    17.3144     0.0000  1040.0000 </r>
       <r>    17.4912     0.0000  1040.0000 </r>
       <r>    17.6679     0.0000  1040.0000 </r>
       <r>    17.8447     0.0000  1040.0000 </r>
       <r>    18.0215     0.0000  1040.0000 </r>
       <r>    18.1983     0.0000  1040.0000 </r>
       <r>    18.3751     0.0000  1040.0000 </r>
       <r>    18.5519     0.0000  1040.0000 </r>
       <r>    18.7287     0.0000  1040.0000 </r>
       <r>    18.9055     0.0000  1040.0000 </r>
      </set>
     </set>
    </array>
   </total>
  </dos>
 </calculation>
 <structure name="finalpos" >
  <crystal>
   <varray name="basis" >
    <v>      10.26287559       0.00000000       0.00000000 </v>
    <v>       0.00000000      10.26287559       0.00000000 </v>
    <v>       0.00000000       0.00000000      10.26287559 </v>
   </varray>
   <i name="volume">   1080.95394992 </i>
   <varray name="rec_basis" >
    <v>       0.09743858       0.00000000       0.00000000 </v>
    <v>       0.00000000       0.09743858       0.00000000 </v>
    <v>       0.00000000       0.00000000       0.09743858 </v>
   </varray>
  </crystal>
  <varray name="positions" >
   <v>       0.03729653       0.90198272       0.93655832 </v>
   <v>       0.17541925       0.33239263       0.06495325 </v>
   <v>       0.27349851       0.49655665       0.51213335 </v>
   <v>       0.04548070       0.54344155       0.29811867 </v>
   <v>       0.29024228       0.81310162       0.19125346 </v>
   <v>       0.73388999       0.23478225       0.98740676 </v>
   <v>       0.82755725       0.64511864       0.09108877 </v>
   <v>       0.68485251       0.59073935       0.64662054 </v>
   <v>       0.83649901       0.31099461       0.39359447 </v>
   <v>       0.14339555       0.69748278       0.69492558 </v>
   <v>       0.87698760       0.82624633       0.54969646 </v>
   <v>       0.62300553       0.13065156       0.55209025 </v>
   <v>       0.48528914       0.70859183       0.42056920 </v>
   <v>       0.91873315       0.48340562       0.84729262 </v>
   <v>       0.49579681       0.35064270       0.78577522 </v>
   <v>       0.36621737       0.91762193       0.58930801 </v>
   <v>       0.81907219       0.04549117       0.74954504 </v>
   <v>       0.94235769       0.15098381       0.16146376 </v>
   <v>       0.28756976       0.14647158       0.85822060 </v>
   <v>       0.04784361       0.23540103       0.64303057 </v>
   <v>       0.71334721       0.92473341       0.27808003 </v>
   <v>       0.38095590       0.25321816       0.27912124 </v>
   <v>       0.59762927       0.44767751       0.19520461 </v>
   <v>       0.39391311       0.70879915       0.75503158 </v>
   <v>       0.62896992       0.78184776       0.86096809 </v>
   <v>       0.39410469       0.55455284       0.93918853 </v>
   <v>       0.16182177       0.01400281       0.42665518 </v>
   <v>       0.63243820       0.87030265       0.57614354 </v>
   <v>       0.87697880       0.73525284       0.78044369 </v>
   <v>       0.32819193       0.86369758       0.92420225 </v>
   <v>       0.55590592       0.06394957       0.82659483 </v>
   <v>       0.32701228       0.18813225       0.57996488 </v>
   <v>       0.14247238       0.74091356       0.43271740 </v>
   <v>       0.20497866       0.05686858       0.12256883 </v>
   <v>       0.18319197       0.43797154       0.78911347 </v>
   <v>       0.51861404       0.03598649       0.06430290 </v>
   <v>       0.56787742       0.40268551       0.48882609 </v>
   <v>       0.89922115       0.41211860       0.13414222 </v>
   <v>       0.94479163       0.84605880       0.24526695 </v>
   <v>       0.89175644       0.06383010       0.46952670 </v>
   <v>       0.65976167       0.50487594       0.91482547 </v>
   <v>       0.55189431       0.71531349       0.12980030 </v>
   <v>       0.08708876       0.98300547       0.69044044 </v>
   <v>       0.77216014       0.29963348       0.69519407 </v>
   <v>       0.12274576       0.28727974       0.34632459 </v>
   <v>       0.30812547       0.55308623       0.21526263 </v>
   <v>       0.79230062       0.95374263       0.02956184 </v>
   <v>       0.78544460       0.63160679       0.36369129 </v>
   <v>       0.01920352       0.19130224       0.89834791 </v>
   <v>       0.97855474       0.50950429       0.56016033 </v>
   <v>       0.42447255       0.29040126       0.02871783 </v>
   <v>       0.64556593       0.17907905       0.26857330 </v>
   <v>       0.43686020       0.96991215       0.34659474 </v>
   <v>       0.08337401       0.65099912       0.03252914 </v>
   <v>       0.43396068       0.50052478       0.33328551 </v>
   <v>       0.98005506       0.00164846       0.57912595 </v>
   <v>       0.40103628       0.41106684       0.14143238 </v>
   <v>       0.52271300       0.82426114       0.23619930 </v>
   <v>       0.52038069       0.52278991       0.58010599 </v>
   <v>       0.09636810       0.83886777       0.54850781 </v>
   <v>       0.76388522       0.65754722       0.86623484 </v>
   <v>       0.29559673       0.46938720       0.70860493 </v>
   <v>       0.68414391       0.32316234       0.55439347 </v>
   <v>       0.62795731       0.95486182       0.71587358 </v>
   <v>       0.69111639       0.85283093       0.08738076 </v>
   <v>       0.84481356       0.74202113       0.25429532 </v>
   <v>       0.94548302       0.61985334       0.69640451 </v>
   <v>       0.58271922       0.38183782       0.96938225 </v>
   <v>       0.53701603       0.55499443       0.80297241 </v>
   <v>       0.89395404       0.09178239       0.97543972 </v>
   <v>       0.53029199       0.22414353       0.12950168 </v>
   <v>       0.69260345       0.50220806       0.42767428 </v>
   <v>       0.98463246       0.53339166       0.07906185 </v>
   <v>       0.59403994       0.61271856       0.03146726 </v>
   <v>       0.17995876       0.91012077       0.06078332 </v>
   <v>       0.71803720       0.79010454       0.71072400 </v>
   <v>       0.99231510       0.77968646       0.38208232 </v>
   <v>       0.15565857       0.17311420       0.21372346 </v>
   <v>       0.43844718       0.76710683       0.94859059 </v>
   <v>       0.65583767       0.66203766       0.26489400 </v>
   <v>       0.67384859       0.03503281       0.92380944 </v>
   <v>       0.91155802       0.94100037       0.12764639 </v>
   <v>       0.43661470       0.13258953       0.71481837 </v>
   <v>       0.76520339       0.29881103       0.20334019 </v>
   <v>       0.02270254       0.05343205       0.81124232 </v>
   <v>       0.09983851       0.59814456       0.52482301 </v>
   <v>       0.43247395       0.97079307       0.84427123 </v>
   <v>       0.82188682       0.51519565       0.23223356 </v>
   <v>       0.77957267       0.44005378       0.02701323 </v>
   <v>       0.19978932       0.91792390       0.80728577 </v>
   <v>       0.46621016       0.18547916       0.91964014 </v>
   <v>       0.31685976       0.35994374       0.89907009 </v>
   <v>       0.08959901       0.93433122       0.26077869 </v>
   <v>       0.65142192       0.21089462       0.76848416 </v>
   <v>       0.32194645       0.18295294       0.05513389 </v>
   <v>       0.39329697       0.64908238       0.13667248 </v>
   <v>       0.13213517       0.13480911       0.99466185 </v>
   <v>       0.98471768       0.32519012       0.26946571 </v>
   <v>       0.55189334       0.74166796       0.62139620 </v>
   <v>       0.75260764       0.98387776       0.53840100 </v>
   <v>       0.53987014       0.91704828       0.46874520 </v>
   <v>       0.56073193       0.07016751       0.31256673 </v>
   <v>       0.09781760       0.44772386       0.64705936 </v>
   <v>       0.24487093       0.25429208       0.69882808 </v>
   <v>       0.70348549       0.41866626       0.78883004 </v>
   <v>       0.96440992       0.32086508       0.01150396 </v>
   <v>       0.03038680       0.75555513       0.14469650 </v>
   <v>       0.37321818       0.05140249       0.23824960 </v>
   <v>       0.12516127       0.52770842       0.91622803 </v>
   <v>       0.19587133       0.08112413       0.60239438 </v>
   <v>       0.21510220       0.38123490       0.27326638 </v>
   <v>       0.13314979       0.30288597       0.85502428 </v>
   <v>       0.32732848       0.69439576       0.53734401 </v>
   <v>       0.97112607       0.16119164       0.37572514 </v>
   <v>       0.90621398       0.28092213       0.76731141 </v>
   <v>       0.96538645       0.71748964       0.92726363 </v>
   <v>       0.57207200       0.30134007       0.34141072 </v>
   <v>       0.74319074       0.14445461       0.38011066 </v>
   <v>       0.19160949       0.54657657       0.10312434 </v>
   <v>       0.43867171       0.30575204       0.55264558 </v>
   <v>       0.36496873       0.06394473       0.45746240 </v>
   <v>       0.21100511       0.65905279       0.32098501 </v>
   <v>       0.83211958       0.88515796       0.91055974 </v>
   <v>       0.04308176       0.41458755       0.45745452 </v>
   <v>       0.29786454       0.87459683       0.35587549 </v>
   <v>       0.21798188       0.24390316       0.45894592 </v>
   <v>       0.20121395       0.74503713       0.94239048 </v>
   <v>       0.85262671       0.19030080       0.57680773 </v>
   <v>       0.67912334       0.06878743       0.11163876 </v>
   <v>       0.89915478       0.61634888       0.45873193 </v>
   <v>       0.43053517       0.92858554       0.06038794 </v>
   <v>       0.86255627       0.43516176       0.62650915 </v>
   <v>       0.96715521       0.84426354       0.72399753 </v>
   <v>       0.70603134       0.76768542       0.44797274 </v>
   <v>       0.86624030       0.94248829       0.35570032 </v>
  </varray>
  <varray name="velocities" >
   <v>       0.00000000       0.00000000       0.00000000 </v>
   <v>       0.00000000       0.00000000       0.00000000 </v>
   <v>       0.00000000       0.00000000       0.00000000 </v>
   <v>       0.00000000       0.00000000       0.00000000 </v>
   <v>       0.00000000       0.00000000       0.00000000 </v>
   <v>       0.00000000       0.00000000       0.00000000 </v>
   <v>       0.00000000       0.00000000       0.00000000 </v>
   <v>       0.00000000       0.00000000       0.00000000 </v>
   <v>       0.00000000       0.00000000       0.00000000 </v>
   <v>       0.00000000       0.00000000       0.00000000 </v>
   <v>       0.00000000       0.00000000       0.00000000 </v>
   <v>       0.00000000       0.00000000       0.00000000 </v>
   <v>       0.00000000       0.00000000       0.00000000 </v>
   <v>       0.00000000       0.00000000       0.00000000 </v>
   <v>       0.00000000       0.00000000       0.00000000 </v>
   <v>       0.00000000       0.00000000       0.00000000 </v>
   <v>       0.00000000       0.00000000       0.00000000 </v>
   <v>       0.00000000       0.00000000       0.00000000 </v>
   <v>       0.00000000       0.00000000       0.00000000 </v>
   <v>       0.00000000       0.00000000       0.00000000 </v>
   <v>       0.00000000       0.00000000       0.00000000 </v>
   <v>       0.00000000       0.00000000       0.00000000 </v>
   <v>       0.00000000       0.00000000       0.00000000 </v>
   <v>       0.00000000       0.00000000       0.00000000 </v>
   <v>       0.00000000       0.00000000       0.00000000 </v>
   <v>       0.00000000       0.00000000       0.00000000 </v>
   <v>       0.00000000       0.00000000       0.00000000 </v>
   <v>       0.00000000       0.00000000       0.00000000 </v>
   <v>       0.00000000       0.00000000       0.00000000 </v>
   <v>       0.00000000       0.00000000       0.00000000 </v>
   <v>       0.00000000       0.00000000       0.00000000 </v>
   <v>       0.00000000       0.00000000       0.00000000 </v>
   <v>       0.00000000       0.00000000       0.00000000 </v>
   <v>       0.00000000       0.00000000       0.00000000 </v>
   <v>       0.00000000       0.00000000       0.00000000 </v>
   <v>       0.00000000       0.00000000       0.00000000 </v>
   <v>       0.00000000       0.00000000       0.00000000 </v>
   <v>       0.00000000       0.00000000       0.00000000 </v>
   <v>       0.00000000       0.00000000       0.00000000 </v>
   <v>       0.00000000       0.00000000       0.00000000 </v>
   <v>       0.00000000       0.00000000       0.00000000 </v>
   <v>       0.00000000       0.00000000       0.00000000 </v>
   <v>       0.00000000       0.00000000       0.00000000 </v>
   <v>       0.00000000       0.00000000       0.00000000 </v>
   <v>       0.00000000       0.00000000       0.00000000 </v>
   <v>       0.00000000       0.00000000       0.00000000 </v>
   <v>       0.00000000       0.00000000       0.00000000 </v>
   <v>       0.00000000       0.00000000       0.00000000 </v>
   <v>       0.00000000       0.00000000       0.00000000 </v>
   <v>       0.00000000       0.00000000       0.00000000 </v>
   <v>       0.00000000       0.00000000       0.00000000 </v>
   <v>       0.00000000       0.00000000       0.00000000 </v>
   <v>       0.00000000       0.00000000       0.00000000 </v>
   <v>       0.00000000       0.00000000       0.00000000 </v>
   <v>       0.00000000       0.00000000       0.00000000 </v>
   <v>       0.00000000       0.00000000       0.00000000 </v>
   <v>       0.00000000       0.00000000       0.00000000 </v>
   <v>       0.00000000       0.00000000       0.00000000 </v>
   <v>       0.00000000       0.00000000       0.00000000 </v>
   <v>       0.00000000       0.00000000       0.00000000 </v>
   <v>       0.00000000       0.00000000       0.00000000 </v>
   <v>       0.00000000       0.00000000       0.00000000 </v>
   <v>       0.00000000       0.00000000       0.00000000 </v>
   <v>       0.00000000       0.00000000       0.00000000 </v>
   <v>       0.00000000       0.00000000       0.00000000 </v>
   <v>       0.00000000       0.00000000       0.00000000 </v>
   <v>       0.00000000       0.00000000       0.00000000 </v>
   <v>       0.00000000       0.00000000       0.00000000 </v>
   <v>       0.00000000       0.00000000       0.00000000 </v>
   <v>       0.00000000       0.00000000       0.00000000 </v>
   <v>       0.00000000       0.00000000       0.00000000 </v>
   <v>       0.00000000       0.00000000       0.00000000 </v>
   <v>       0.00000000       0.00000000       0.00000000 </v>
   <v>       0.00000000       0.00000000       0.00000000 </v>
   <v>       0.00000000       0.00000000       0.00000000 </v>
   <v>       0.00000000       0.00000000       0.00000000 </v>
   <v>       0.00000000       0.00000000       0.00000000 </v>
   <v>       0.00000000       0.00000000       0.00000000 </v>
   <v>       0.00000000       0.00000000       0.00000000 </v>
   <v>       0.00000000       0.00000000       0.00000000 </v>
   <v>       0.00000000       0.00000000       0.00000000 </v>
   <v>       0.00000000       0.00000000       0.00000000 </v>
   <v>       0.00000000       0.00000000       0.00000000 </v>
   <v>       0.00000000       0.00000000       0.00000000 </v>
   <v>       0.00000000       0.00000000       0.00000000 </v>
   <v>       0.00000000       0.00000000       0.00000000 </v>
   <v>       0.00000000       0.00000000       0.00000000 </v>
   <v>       0.00000000       0.00000000       0.00000000 </v>
   <v>       0.00000000       0.00000000       0.00000000 </v>
   <v>       0.00000000       0.00000000       0.00000000 </v>
   <v>       0.00000000       0.00000000       0.00000000 </v>
   <v>       0.00000000       0.00000000       0.00000000 </v>
   <v>       0.00000000       0.00000000       0.00000000 </v>
   <v>       0.00000000       0.00000000       0.00000000 </v>
   <v>       0.00000000       0.00000000       0.00000000 </v>
   <v>       0.00000000       0.00000000       0.00000000 </v>
   <v>       0.00000000       0.00000000       0.00000000 </v>
   <v>       0.00000000       0.00000000       0.00000000 </v>
   <v>       0.00000000       0.00000000       0.00000000 </v>
   <v>       0.00000000       0.00000000       0.00000000 </v>
   <v>       0.00000000       0.00000000       0.00000000 </v>
   <v>       0.00000000       0.00000000       0.00000000 </v>
   <v>       0.00000000       0.00000000       0.00000000 </v>
   <v>       0.00000000       0.00000000       0.00000000 </v>
   <v>       0.00000000       0.00000000       0.00000000 </v>
   <v>       0.00000000       0.00000000       0.00000000 </v>
   <v>       0.00000000       0.00000000       0.00000000 </v>
   <v>       0.00000000       0.00000000       0.00000000 </v>
   <v>       0.00000000       0.00000000       0.00000000 </v>
   <v>       0.00000000       0.00000000       0.00000000 </v>
   <v>       0.00000000       0.00000000       0.00000000 </v>
   <v>       0.00000000       0.00000000       0.00000000 </v>
   <v>       0.00000000       0.00000000       0.00000000 </v>
   <v>       0.00000000       0.00000000       0.00000000 </v>
   <v>       0.00000000       0.00000000       0.00000000 </v>
   <v>       0.00000000       0.00000000       0.00000000 </v>
   <v>       0.00000000       0.00000000       0.00000000 </v>
   <v>       0.00000000       0.00000000       0.00000000 </v>
   <v>       0.00000000       0.00000000       0.00000000 </v>
   <v>       0.00000000       0.00000000       0.00000000 </v>
   <v>       0.00000000       0.00000000       0.00000000 </v>
   <v>       0.00000000       0.00000000       0.00000000 </v>
   <v>       0.00000000       0.00000000       0.00000000 </v>
   <v>       0.00000000       0.00000000       0.00000000 </v>
   <v>       0.00000000       0.00000000       0.00000000 </v>
   <v>       0.00000000       0.00000000       0.00000000 </v>
   <v>       0.00000000       0.00000000       0.00000000 </v>
   <v>       0.00000000       0.00000000       0.00000000 </v>
   <v>       0.00000000       0.00000000       0.00000000 </v>
   <v>       0.00000000       0.00000000       0.00000000 </v>
   <v>       0.00000000       0.00000000       0.00000000 </v>
   <v>       0.00000000       0.00000000       0.00000000 </v>
   <v>       0.00000000       0.00000000       0.00000000 </v>
   <v>       0.00000000       0.00000000       0.00000000 </v>
   <v>       0.00000000       0.00000000       0.00000000 </v>
  </varray>
 </structure>
</modeling>
