<?xml version="1.0" encoding="ISO-8859-1"?>
<modeling>
 <generator>
  <i name="program" type="string">vasp </i>
  <i name="version" type="string">5.4.4.18Apr17-6-g9f103f2a35  </i>
  <i name="subversion" type="string">(build Oct 31 2019 15:01:46) complex            parallel </i>
  <i name="platform" type="string">LinuxIFC </i>
  <i name="date" type="string">2024 04 20 </i>
  <i name="time" type="string">05:30:53 </i>
 </generator>
 <incar>
  <i type="int" name="ISTART">     0</i>
  <i type="string" name="PREC">anormal</i>
  <i type="logical" name="ADDGRID"> T  </i>
  <i type="int" name="IBRION">    -1</i>
  <i name="EDIFF">      0.00000100</i>
  <i name="EDIFFG">     -0.01000000</i>
  <i type="int" name="NSW">     1</i>
  <i type="int" name="ISIF">     2</i>
  <i type="int" name="ISYM">     2</i>
  <i name="ENCUT">    600.00000000</i>
  <i name="POTIM">      1.00000000</i>
  <i type="string" name="LREAL"> Auto.</i>
  <i type="int" name="ISMEAR">     0</i>
  <i name="SIGMA">      0.05000000</i>
  <i name="KSPACING">      0.25000000</i>
  <i type="logical" name="LWAVE"> F  </i>
  <i type="logical" name="LCHARG"> F  </i>
  <i type="logical" name="LSCALAPACK"> F  </i>
  <v type="int" name="KPOINT_BSE">    -1     0     0     0</v>
 </incar>
 <structure name="primitive_cell" >
  <crystal>
   <varray name="basis" >
    <v>      13.12862340       0.00000000       0.00000000 </v>
    <v>      -6.56431170      11.36972138       0.00000000 </v>
    <v>       0.00000000       0.00000000      26.82809424 </v>
   </varray>
   <i name="volume">   4004.59716953 </i>
   <varray name="rec_basis" >
    <v>       0.07616945       0.04397645       0.00000000 </v>
    <v>       0.00000000       0.08795290       0.00000000 </v>
    <v>       0.00000000       0.00000000       0.03727436 </v>
   </varray>
  </crystal>
  <varray name="positions" >
   <v>       0.08211675       0.17110987       0.45545485 </v>
   <v>       0.17028959       0.10364190       0.40983628 </v>
   <v>       0.15753167       0.32877599       0.40899762 </v>
   <v>      -0.00083605       0.25704587       0.49562066 </v>
   <v>       0.00865894       0.00626652       0.49934942 </v>
   <v>      -0.08427907       0.07398735       0.40244921 </v>
   <v>       0.26318851       0.25752602      -0.49734582 </v>
   <v>      -0.07988605       0.08681949      -0.45217951 </v>
   <v>      -0.16617110       0.15237688       0.44768662 </v>
   <v>       0.17469894       0.33531548      -0.44935979 </v>
   <v>       0.07756983       0.41039922       0.44734460 </v>
   <v>      -0.15961406      -0.08529385       0.45816596 </v>
   <v>       0.18254297       0.08382782      -0.45165688 </v>
   <v>       0.33481302       0.17310254       0.45220334 </v>
   <v>       0.08601897      -0.08293416       0.44806332 </v>
   <v>       0.34559426       0.42235247       0.45619655 </v>
   <v>       0.07806421       0.15044108      -0.41032194 </v>
   <v>      -0.10133848       0.30479309       0.40524422 </v>
   <v>      -0.07903713      -0.16619260       0.41701183 </v>
   <v>      -0.25182049      -0.00398766      -0.49668346 </v>
   <v>       0.25481607      -0.49008296       0.49960896 </v>
   <v>       0.25920520       0.00551360      -0.49925590 </v>
   <v>       0.42664466       0.32999935       0.40992408 </v>
   <v>      -0.08144050       0.33146600      -0.45776576 </v>
   <v>      -0.08936728      -0.16420497      -0.45268079 </v>
   <v>       0.41868602       0.34694240      -0.44745374 </v>
   <v>       0.07864773       0.41350229      -0.41428364 </v>
   <v>      -0.15553034       0.17170574      -0.41013372 </v>
   <v>       0.31145452       0.41178707      -0.40799000 </v>
   <v>       0.06929444      -0.09774938      -0.41839584 </v>
   <v>      -0.16279203      -0.07014098      -0.40768875 </v>
   <v>       0.39909333      -0.42264005       0.41152071 </v>
   <v>      -0.31781852      -0.16989858       0.41482742 </v>
   <v>      -0.33047321       0.07282790       0.41030142 </v>
   <v>       0.35872785       0.17080357      -0.41340001 </v>
   <v>      -0.25060515       0.24267230      -0.49620819 </v>
   <v>      -0.00895679       0.49511787       0.49550737 </v>
   <v>      -0.24535478      -0.24498632      -0.49923400 </v>
   <v>      -0.00363888      -0.24726633       0.49744179 </v>
   <v>       0.49981256      -0.49950662      -0.49756233 </v>
   <v>       0.49547323       0.24714828      -0.49525579 </v>
   <v>       0.16031263      -0.41755214       0.40115213 </v>
   <v>       0.14270313      -0.18158629       0.40154456 </v>
   <v>       0.42453788       0.08473596       0.40527760 </v>
   <v>       0.31896308      -0.34417163       0.44882131 </v>
   <v>       0.16308528      -0.41402528      -0.45603171 </v>
   <v>      -0.16810396       0.40778437       0.45518727 </v>
   <v>       0.15695305      -0.17262156      -0.46035738 </v>
   <v>      -0.41271008      -0.09058160       0.45313491 </v>
   <v>       0.41707419       0.08196605      -0.45232001 </v>
   <v>      -0.33656410      -0.16688293      -0.44901817 </v>
   <v>       0.41196247      -0.39937868      -0.45304152 </v>
   <v>      -0.33976464       0.08151124      -0.44830492 </v>
   <v>      -0.41688459       0.41858705       0.45856180 </v>
   <v>       0.34082347      -0.07958291       0.45287514 </v>
   <v>      -0.16751416      -0.33901958       0.45149782 </v>
   <v>       0.07914729      -0.33612737       0.44938174 </v>
   <v>      -0.41157503       0.17502213       0.45241540 </v>
   <v>      -0.41562564      -0.32656688       0.45692941 </v>
   <v>      -0.14528142       0.42087422      -0.40622248 </v>
   <v>       0.31363508      -0.33994832      -0.40829650 </v>
   <v>      -0.42521391       0.42211131      -0.40499388 </v>
   <v>      -0.16932974      -0.33430089      -0.40640802 </v>
   <v>      -0.34568775       0.32218447       0.41125056 </v>
   <v>      -0.34477216      -0.41511118       0.40730189 </v>
   <v>       0.24999538      -0.24672886       0.49677435 </v>
   <v>      -0.49809525      -0.24745098       0.49850929 </v>
   <v>       0.34214373      -0.08073305      -0.40583712 </v>
   <v>       0.49797892      -0.00479787      -0.49850562 </v>
   <v>      -0.43814020      -0.08895185      -0.40793806 </v>
   <v>      -0.10757560      -0.41781170       0.39866773 </v>
   <v>      -0.32141432      -0.40983677      -0.45259574 </v>
   <v>      -0.07717655      -0.40869371      -0.45151733 </v>
   <v>      -0.33941564       0.32913622      -0.44999846 </v>
   <v>       0.44081182      -0.17062961       0.41170427 </v>
   <v>       0.08927708      -0.32745763      -0.41234241 </v>
   <v>      -0.40975695       0.16981262      -0.40457211 </v>
   <v>      -0.41542864      -0.33135670      -0.40894823 </v>
   <v>      -0.25137816       0.49181815      -0.49642298 </v>
   <v>       0.41753064      -0.15884628      -0.45255834 </v>
  </varray>
 </structure>
 <varray name="primitive_index" >
  <v type="int" >        1 </v>
  <v type="int" >       49 </v>
  <v type="int" >       50 </v>
  <v type="int" >       66 </v>
  <v type="int" >       65 </v>
  <v type="int" >       61 </v>
  <v type="int" >       70 </v>
  <v type="int" >       29 </v>
  <v type="int" >       13 </v>
  <v type="int" >       18 </v>
  <v type="int" >        2 </v>
  <v type="int" >       16 </v>
  <v type="int" >       17 </v>
  <v type="int" >        5 </v>
  <v type="int" >        4 </v>
  <v type="int" >        6 </v>
  <v type="int" >       33 </v>
  <v type="int" >       62 </v>
  <v type="int" >       64 </v>
  <v type="int" >       77 </v>
  <v type="int" >       71 </v>
  <v type="int" >       69 </v>
  <v type="int" >       54 </v>
  <v type="int" >       30 </v>
  <v type="int" >       32 </v>
  <v type="int" >       22 </v>
  <v type="int" >       34 </v>
  <v type="int" >       45 </v>
  <v type="int" >       38 </v>
  <v type="int" >       36 </v>
  <v type="int" >       48 </v>
  <v type="int" >       55 </v>
  <v type="int" >       60 </v>
  <v type="int" >       57 </v>
  <v type="int" >       37 </v>
  <v type="int" >       78 </v>
  <v type="int" >       67 </v>
  <v type="int" >       80 </v>
  <v type="int" >       68 </v>
  <v type="int" >       75 </v>
  <v type="int" >       74 </v>
  <v type="int" >       51 </v>
  <v type="int" >       52 </v>
  <v type="int" >       53 </v>
  <v type="int" >        7 </v>
  <v type="int" >       19 </v>
  <v type="int" >       14 </v>
  <v type="int" >       20 </v>
  <v type="int" >       12 </v>
  <v type="int" >       21 </v>
  <v type="int" >       28 </v>
  <v type="int" >       23 </v>
  <v type="int" >       25 </v>
  <v type="int" >       10 </v>
  <v type="int" >        8 </v>
  <v type="int" >       15 </v>
  <v type="int" >        3 </v>
  <v type="int" >        9 </v>
  <v type="int" >       11 </v>
  <v type="int" >       46 </v>
  <v type="int" >       39 </v>
  <v type="int" >       42 </v>
  <v type="int" >       47 </v>
  <v type="int" >       58 </v>
  <v type="int" >       59 </v>
  <v type="int" >       72 </v>
  <v type="int" >       76 </v>
  <v type="int" >       40 </v>
  <v type="int" >       73 </v>
  <v type="int" >       44 </v>
  <v type="int" >       63 </v>
  <v type="int" >       27 </v>
  <v type="int" >       31 </v>
  <v type="int" >       26 </v>
  <v type="int" >       56 </v>
  <v type="int" >       35 </v>
  <v type="int" >       41 </v>
  <v type="int" >       43 </v>
  <v type="int" >       79 </v>
  <v type="int" >       24 </v>
 </varray>
 <kpoints>
  <generation param="Gamma">
   <v type="int" name="divisions">       3        3        1 </v>
   <v name="usershift">      0.00000000       0.00000000       0.00000000 </v>
   <v name="genvec1">      0.33333333       0.00000000       0.00000000 </v>
   <v name="genvec2">      0.00000000       0.33333333       0.00000000 </v>
   <v name="genvec3">      0.00000000       0.00000000       1.00000000 </v>
   <v name="shift">      0.00000000       0.00000000       0.00000000 </v>
  </generation>
  <varray name="kpointlist" >
   <v>       0.00000000       0.00000000       0.00000000 </v>
   <v>       0.33333333      -0.00000000       0.00000000 </v>
   <v>       0.00000000       0.33333333       0.00000000 </v>
   <v>       0.33333333       0.33333333       0.00000000 </v>
   <v>      -0.33333333       0.33333333       0.00000000 </v>
  </varray>
  <varray name="weights" >
   <v>       0.11111111 </v>
   <v>       0.22222222 </v>
   <v>       0.22222222 </v>
   <v>       0.22222222 </v>
   <v>       0.22222222 </v>
  </varray>
 </kpoints>
 <parameters>
  <separator name="general" >
   <i type="string" name="SYSTEM">unknown system</i>
   <i type="logical" name="LCOMPAT"> F  </i>
  </separator>
  <separator name="electronic" >
   <i type="string" name="PREC">anorma</i>
   <i name="ENMAX">    600.00000000</i>
   <i name="ENAUG">    644.87300000</i>
   <i name="EDIFF">      0.00000100</i>
   <i type="int" name="IALGO">    38</i>
   <i type="int" name="IWAVPR">    10</i>
   <i type="int" name="NBANDS">   384</i>
   <i name="NELECT">    640.00000000</i>
   <i type="int" name="TURBO">     0</i>
   <i type="int" name="IRESTART">     0</i>
   <i type="int" name="NREBOOT">     0</i>
   <i type="int" name="NMIN">     0</i>
   <i name="EREF">      0.00000000</i>
   <separator name="electronic smearing" >
    <i type="int" name="ISMEAR">     0</i>
    <i name="SIGMA">      0.05000000</i>
    <i name="KSPACING">      0.25000000</i>
    <i type="logical" name="KGAMMA"> T  </i>
   </separator>
   <separator name="electronic projectors" >
    <i type="logical" name="LREAL"> T  </i>
    <v name="ROPT">     -0.00025000     -0.00025000     -0.00025000</v>
    <i type="int" name="LMAXPAW">  -100</i>
    <i type="int" name="LMAXMIX">     2</i>
    <i type="logical" name="NLSPLINE"> F  </i>
   </separator>
   <separator name="electronic startup" >
    <i type="int" name="ISTART">     0</i>
    <i type="int" name="ICHARG">     2</i>
    <i type="int" name="INIWAV">     1</i>
   </separator>
   <separator name="electronic spin" >
    <i type="int" name="ISPIN">     1</i>
    <i type="logical" name="LNONCOLLINEAR"> F  </i>
    <v name="MAGMOM">      1.00000000      1.00000000      1.00000000      1.00000000      1.00000000      1.00000000      1.00000000      1.00000000      1.00000000      1.00000000      1.00000000      1.00000000      1.00000000      1.00000000      1.00000000      1.00000000      1.00000000      1.00000000      1.00000000      1.00000000
      1.00000000      1.00000000      1.00000000      1.00000000      1.00000000      1.00000000      1.00000000      1.00000000      1.00000000      1.00000000      1.00000000      1.00000000      1.00000000      1.00000000      1.00000000      1.00000000      1.00000000      1.00000000      1.00000000      1.00000000
      1.00000000      1.00000000      1.00000000      1.00000000      1.00000000      1.00000000      1.00000000      1.00000000      1.00000000      1.00000000      1.00000000      1.00000000      1.00000000      1.00000000      1.00000000      1.00000000      1.00000000      1.00000000      1.00000000      1.00000000
      1.00000000      1.00000000      1.00000000      1.00000000      1.00000000      1.00000000      1.00000000      1.00000000      1.00000000      1.00000000      1.00000000      1.00000000      1.00000000      1.00000000      1.00000000      1.00000000      1.00000000      1.00000000      1.00000000      1.00000000
</v>
    <i name="NUPDOWN">     -1.00000000</i>
    <i type="logical" name="LSORBIT"> F  </i>
    <v name="SAXIS">      0.00000000      0.00000000      1.00000000</v>
    <i type="logical" name="LSPIRAL"> F  </i>
    <v name="QSPIRAL">      0.00000000      0.00000000      0.00000000</v>
    <i type="logical" name="LZEROZ"> F  </i>
   </separator>
   <separator name="electronic exchange-correlation" >
    <i type="logical" name="LASPH"> F  </i>
    <i type="logical" name="LMETAGGA"> F  </i>
   </separator>
   <separator name="electronic convergence" >
    <i type="int" name="NELM">    60</i>
    <i type="int" name="NELMDL">    -5</i>
    <i type="int" name="NELMIN">     2</i>
    <i name="ENINI">    600.00000000</i>
    <separator name="electronic convergence detail" >
     <i type="logical" name="LDIAG"> T  </i>
     <i type="logical" name="LSUBROT"> F  </i>
     <i name="WEIMIN">      0.00000000</i>
     <i name="EBREAK">      0.00000000</i>
     <i name="DEPER">      0.30000000</i>
     <i type="int" name="NRMM">     4</i>
     <i name="TIME">      0.40000000</i>
    </separator>
   </separator>
   <separator name="electronic mixer" >
    <i name="AMIX">      0.40000000</i>
    <i name="BMIX">      1.00000000</i>
    <i name="AMIN">      0.10000000</i>
    <i name="AMIX_MAG">      1.60000000</i>
    <i name="BMIX_MAG">      1.00000000</i>
    <separator name="electronic mixer details" >
     <i type="int" name="IMIX">     4</i>
     <i type="logical" name="MIXFIRST"> F  </i>
     <i type="int" name="MAXMIX">   -45</i>
     <i name="WC">    100.00000000</i>
     <i type="int" name="INIMIX">     1</i>
     <i type="int" name="MIXPRE">     1</i>
     <i type="int" name="MREMOVE">     5</i>
    </separator>
   </separator>
   <separator name="electronic dipolcorrection" >
    <i type="logical" name="LDIPOL"> F  </i>
    <i type="logical" name="LMONO"> F  </i>
    <i type="int" name="IDIPOL">     0</i>
    <i name="EPSILON">      1.00000000</i>
    <v name="DIPOL">   -100.00000000   -100.00000000   -100.00000000</v>
    <i name="EFIELD">      0.00000000</i>
   </separator>
  </separator>
  <separator name="grids" >
   <i type="int" name="NGX">   108</i>
   <i type="int" name="NGY">   108</i>
   <i type="int" name="NGZ">   216</i>
   <i type="int" name="NGXF">   216</i>
   <i type="int" name="NGYF">   216</i>
   <i type="int" name="NGZF">   432</i>
   <i type="logical" name="ADDGRID"> T  </i>
  </separator>
  <separator name="ionic" >
   <i type="int" name="NSW">     1</i>
   <i type="int" name="IBRION">    -1</i>
   <i type="int" name="MDALGO">     0</i>
   <i type="int" name="ISIF">     2</i>
   <i name="PSTRESS">      0.00000000</i>
   <i name="EDIFFG">     -0.01000000</i>
   <i type="int" name="NFREE">     0</i>
   <i name="POTIM">      1.00000000</i>
   <i name="SMASS">     -3.00000000</i>
   <i name="SCALEE">      1.00000000</i>
  </separator>
  <separator name="ionic md" >
   <i name="TEBEG">      0.00010000</i>
   <i name="TEEND">      0.00010000</i>
   <i type="int" name="NBLOCK">     1</i>
   <i type="int" name="KBLOCK">     1</i>
   <i type="int" name="NPACO">   256</i>
   <i name="APACO">     16.00000000</i>
  </separator>
  <separator name="symmetry" >
   <i type="int" name="ISYM">     2</i>
   <i name="SYMPREC">      0.00001000</i>
  </separator>
  <separator name="dos" >
   <i type="int" name="LORBIT">     0</i>
   <v name="RWIGS">     -1.00000000     -1.00000000     -1.00000000</v>
   <i type="int" name="NEDOS">   301</i>
   <i name="EMIN">     10.00000000</i>
   <i name="EMAX">    -10.00000000</i>
   <i name="EFERMI">      0.00000000</i>
  </separator>
  <separator name="writing" >
   <i type="int" name="NWRITE">     2</i>
   <i type="logical" name="LWAVE"> F  </i>
   <i type="logical" name="LDOWNSAMPLE"> F  </i>
   <i type="logical" name="LCHARG"> F  </i>
   <i type="logical" name="LPARD"> F  </i>
   <i type="logical" name="LVTOT"> F  </i>
   <i type="logical" name="LVHAR"> F  </i>
   <i type="logical" name="LELF"> F  </i>
   <i type="logical" name="LOPTICS"> F  </i>
   <v name="STM">      0.00000000      0.00000000      0.00000000      0.00000000      0.00000000      0.00000000      0.00000000</v>
  </separator>
  <separator name="performance" >
   <i type="int" name="NPAR">     4</i>
   <i type="int" name="NSIM">     4</i>
   <i type="int" name="NBLK">    -1</i>
   <i type="logical" name="LPLANE"> T  </i>
   <i type="logical" name="LSCALAPACK"> F  </i>
   <i type="logical" name="LSCAAWARE"> F  </i>
   <i type="logical" name="LSCALU"> F  </i>
   <i type="logical" name="LASYNC"> F  </i>
   <i type="logical" name="LORBITALREAL"> F  </i>
  </separator>
  <separator name="miscellaneous" >
   <i type="int" name="IDIOT">     3</i>
   <i type="int" name="ISPECIAL">     0</i>
   <i type="logical" name="LMUSIC"> F  </i>
   <v name="POMASS">     44.95600000     18.99800000     12.01100000</v>
   <v name="DARWINR">      0.00000000      0.00000000      0.00000000</v>
   <v name="DARWINV">      1.00000000      1.00000000      1.00000000</v>
   <i type="logical" name="LCORR"> T  </i>
  </separator>
  <i type="logical" name="GGA_COMPAT"> T  </i>
  <i type="logical" name="LBERRY"> F  </i>
  <i type="int" name="ICORELEVEL">     0</i>
  <i type="logical" name="LDAU"> F  </i>
  <i type="int" name="I_CONSTRAINED_M">     0</i>
  <separator name="electronic exchange-correlation" >
   <i type="string" name="GGA">--</i>
   <i type="int" name="VOSKOWN">     0</i>
   <i type="logical" name="LHFCALC"> F  </i>
   <i type="string" name="PRECFOCK"></i>
   <i type="logical" name="LSYMGRAD"> F  </i>
   <i type="logical" name="LHFONE"> F  </i>
   <i type="logical" name="LRHFCALC"> F  </i>
   <i type="logical" name="LTHOMAS"> F  </i>
   <i type="logical" name="LMODELHF"> F  </i>
   <i name="ENCUT4O">     -1.00000000</i>
   <i type="int" name="EXXOEP">     0</i>
   <i type="int" name="FOURORBIT">     0</i>
   <i name="AEXX">      0.00000000</i>
   <i name="HFALPHA">      0.00000000</i>
   <i name="MCALPHA">      0.00000000</i>
   <i name="ALDAX">      1.00000000</i>
   <i name="AGGAX">      1.00000000</i>
   <i name="ALDAC">      1.00000000</i>
   <i name="AGGAC">      1.00000000</i>
   <i type="int" name="NKREDX">     1</i>
   <i type="int" name="NKREDY">     1</i>
   <i type="int" name="NKREDZ">     1</i>
   <i type="logical" name="SHIFTRED"> F  </i>
   <i type="logical" name="ODDONLY"> F  </i>
   <i type="logical" name="EVENONLY"> F  </i>
   <i type="int" name="LMAXFOCK">     0</i>
   <i type="int" name="NMAXFOCKAE">     0</i>
   <i type="logical" name="LFOCKAEDFT"> F  </i>
   <i name="HFSCREEN">      0.00000000</i>
   <i name="HFSCREENC">      0.00000000</i>
   <i type="int" name="NBANDSGWLOW">     0</i>
  </separator>
  <separator name="vdW DFT" >
   <i type="logical" name="LUSE_VDW"> F  </i>
   <i name="Zab_VDW">     -0.84910000</i>
   <i name="PARAM1">      0.12340000</i>
   <i name="PARAM2">      1.00000000</i>
   <i name="PARAM3">      0.00000000</i>
  </separator>
  <separator name="model GW" >
   <i type="int" name="MODEL_GW">     0</i>
   <i name="MODEL_EPS0">     30.03447877</i>
   <i name="MODEL_ALPHA">      1.00000000</i>
  </separator>
  <separator name="linear response parameters" >
   <i type="logical" name="LEPSILON"> F  </i>
   <i type="logical" name="LRPA"> F  </i>
   <i type="logical" name="LNABLA"> F  </i>
   <i type="logical" name="LVEL"> F  </i>
   <i type="int" name="KINTER">     0</i>
   <i name="CSHIFT">      0.10000000</i>
   <i name="OMEGAMAX">     -1.00000000</i>
   <i name="DEG_THRESHOLD">      0.00200000</i>
   <i name="RTIME">     -0.10000000</i>
   <i name="WPLASMAI">      0.00000000</i>
   <v name="DFIELD">      0.00000000      0.00000000      0.00000000</v>
   <v name="WPLASMA">      0.00000000      0.00000000      0.00000000      0.00000000      0.00000000      0.00000000      0.00000000      0.00000000      0.00000000</v>
  </separator>
  <separator name="orbital magnetization" >
   <i type="logical" name="NUCIND"> F  </i>
   <v name="MAGPOS">      0.00000000      0.00000000      0.00000000</v>
   <i type="logical" name="LNICSALL"> T  </i>
   <i type="logical" name="ORBITALMAG"> F  </i>
   <i type="logical" name="LMAGBLOCH"> F  </i>
   <i type="logical" name="LCHIMAG"> F  </i>
   <i type="logical" name="LGAUGE"> T  </i>
   <i type="int" name="MAGATOM">     0</i>
   <v name="MAGDIPOL">      0.00000000      0.00000000      0.00000000</v>
   <v name="AVECCONST">      0.00000000      0.00000000      0.00000000</v>
  </separator>
  <separator name="response functions" >
   <i type="logical" name="LADDER"> F  </i>
   <i type="logical" name="LRPAFORCE"> F  </i>
   <i type="logical" name="LFXC"> F  </i>
   <i type="logical" name="LHARTREE"> T  </i>
   <i type="int" name="IBSE">     0</i>
   <v type="int" name="KPOINT">    -1     0     0     0</v>
   <i type="logical" name="LTCTE"> F  </i>
   <i type="logical" name="LTETE"> F  </i>
   <i type="logical" name="LTRIPLET"> F  </i>
   <i type="logical" name="LFXCEPS"> F  </i>
   <i type="logical" name="LFXHEG"> F  </i>
   <i type="int" name="NATURALO">     2</i>
   <i type="logical" name="L2ORDER"> F  </i>
   <i type="logical" name="LMP2LT"> F  </i>
   <i type="logical" name="LUSEW"> F  </i>
   <i name="ENCUTGW">     -2.00000000</i>
   <i name="ENCUTGWSOFT">     -2.00000000</i>
   <i name="ENCUTLF">     -1.00000000</i>
   <i type="int" name="LMAXMP2">    -1</i>
   <i name="SCISSOR">      0.00000000</i>
   <i type="int" name="NOMEGA">     0</i>
   <i type="int" name="NOMEGAR">     0</i>
   <i type="int" name="NBANDSGW">    -1</i>
   <i type="int" name="NBANDSO">    -1</i>
   <i type="int" name="NBANDSV">    -1</i>
   <i type="int" name="NELM">     1</i>
   <i type="int" name="NELMHF">     1</i>
   <i type="int" name="DIM">     3</i>
   <i type="int" name="ANTIRES">     0</i>
   <i name="OMEGAMAX">    -30.00000000</i>
   <i name="OMEGAMIN">    -30.00000000</i>
   <i name="OMEGATL">   -200.00000000</i>
   <i type="int" name="OMEGAGRID">   140</i>
   <i name="CSHIFT">     -0.10000000</i>
   <i type="logical" name="SELFENERGY"> F  </i>
   <i type="logical" name="LSPECTRAL"> F  </i>
   <i type="logical" name="LSPECTRALGW"> F  </i>
   <i type="logical" name="LSINGLES"> F  </i>
   <i type="logical" name="LFERMIGW"> F  </i>
   <i type="logical" name="ODDONLYGW"> F  </i>
   <i type="logical" name="EVENONLYGW"> F  </i>
   <i type="int" name="NKREDLFX">     1</i>
   <i type="int" name="NKREDLFY">     1</i>
   <i type="int" name="NKREDLFZ">     1</i>
   <i type="int" name="MAXMEM">  2800</i>
   <i type="int" name="TELESCOPE">     0</i>
   <i type="int" name="TAUPAR">     1</i>
   <i type="int" name="OMEGAPAR">    -1</i>
   <i name="LAMBDA">      1.00000000</i>
  </separator>
  <separator name="External order field" >
   <i name="OFIELD_KAPPA">      0.00000000</i>
   <v name="OFIELD_K">      0.00000000      0.00000000      0.00000000</v>
   <i name="OFIELD_Q6_NEAR">      0.00000000</i>
   <i name="OFIELD_Q6_FAR">      0.00000000</i>
   <i name="OFIELD_A">      0.00000000</i>
  </separator>
 </parameters>
 <atominfo>
  <atoms>      80 </atoms>
  <types>       3 </types>
  <array name="atoms" >
   <dimension dim="1">ion</dimension>
   <field type="string">element</field>
   <field type="int">atomtype</field>
   <set>
    <rc><c>Sc</c><c>   1</c></rc>
    <rc><c>Sc</c><c>   1</c></rc>
    <rc><c>Sc</c><c>   1</c></rc>
    <rc><c>Sc</c><c>   1</c></rc>
    <rc><c>Sc</c><c>   1</c></rc>
    <rc><c>Sc</c><c>   1</c></rc>
    <rc><c>Sc</c><c>   1</c></rc>
    <rc><c>Sc</c><c>   1</c></rc>
    <rc><c>Sc</c><c>   1</c></rc>
    <rc><c>Sc</c><c>   1</c></rc>
    <rc><c>Sc</c><c>   1</c></rc>
    <rc><c>Sc</c><c>   1</c></rc>
    <rc><c>Sc</c><c>   1</c></rc>
    <rc><c>Sc</c><c>   1</c></rc>
    <rc><c>Sc</c><c>   1</c></rc>
    <rc><c>Sc</c><c>   1</c></rc>
    <rc><c>Sc</c><c>   1</c></rc>
    <rc><c>Sc</c><c>   1</c></rc>
    <rc><c>Sc</c><c>   1</c></rc>
    <rc><c>Sc</c><c>   1</c></rc>
    <rc><c>Sc</c><c>   1</c></rc>
    <rc><c>Sc</c><c>   1</c></rc>
    <rc><c>Sc</c><c>   1</c></rc>
    <rc><c>Sc</c><c>   1</c></rc>
    <rc><c>Sc</c><c>   1</c></rc>
    <rc><c>Sc</c><c>   1</c></rc>
    <rc><c>Sc</c><c>   1</c></rc>
    <rc><c>Sc</c><c>   1</c></rc>
    <rc><c>Sc</c><c>   1</c></rc>
    <rc><c>Sc</c><c>   1</c></rc>
    <rc><c>Sc</c><c>   1</c></rc>
    <rc><c>Sc</c><c>   1</c></rc>
    <rc><c>F </c><c>   2</c></rc>
    <rc><c>F </c><c>   2</c></rc>
    <rc><c>F </c><c>   2</c></rc>
    <rc><c>F </c><c>   2</c></rc>
    <rc><c>F </c><c>   2</c></rc>
    <rc><c>F </c><c>   2</c></rc>
    <rc><c>F </c><c>   2</c></rc>
    <rc><c>F </c><c>   2</c></rc>
    <rc><c>F </c><c>   2</c></rc>
    <rc><c>F </c><c>   2</c></rc>
    <rc><c>F </c><c>   2</c></rc>
    <rc><c>F </c><c>   2</c></rc>
    <rc><c>F </c><c>   2</c></rc>
    <rc><c>F </c><c>   2</c></rc>
    <rc><c>F </c><c>   2</c></rc>
    <rc><c>F </c><c>   2</c></rc>
    <rc><c>F </c><c>   2</c></rc>
    <rc><c>F </c><c>   2</c></rc>
    <rc><c>F </c><c>   2</c></rc>
    <rc><c>F </c><c>   2</c></rc>
    <rc><c>F </c><c>   2</c></rc>
    <rc><c>F </c><c>   2</c></rc>
    <rc><c>F </c><c>   2</c></rc>
    <rc><c>F </c><c>   2</c></rc>
    <rc><c>F </c><c>   2</c></rc>
    <rc><c>F </c><c>   2</c></rc>
    <rc><c>F </c><c>   2</c></rc>
    <rc><c>F </c><c>   2</c></rc>
    <rc><c>F </c><c>   2</c></rc>
    <rc><c>F </c><c>   2</c></rc>
    <rc><c>F </c><c>   2</c></rc>
    <rc><c>F </c><c>   2</c></rc>
    <rc><c>C </c><c>   3</c></rc>
    <rc><c>C </c><c>   3</c></rc>
    <rc><c>C </c><c>   3</c></rc>
    <rc><c>C </c><c>   3</c></rc>
    <rc><c>C </c><c>   3</c></rc>
    <rc><c>C </c><c>   3</c></rc>
    <rc><c>C </c><c>   3</c></rc>
    <rc><c>C </c><c>   3</c></rc>
    <rc><c>C </c><c>   3</c></rc>
    <rc><c>C </c><c>   3</c></rc>
    <rc><c>C </c><c>   3</c></rc>
    <rc><c>C </c><c>   3</c></rc>
    <rc><c>C </c><c>   3</c></rc>
    <rc><c>C </c><c>   3</c></rc>
    <rc><c>C </c><c>   3</c></rc>
    <rc><c>C </c><c>   3</c></rc>
   </set>
  </array>
  <array name="atomtypes" >
   <dimension dim="1">type</dimension>
   <field type="int">atomspertype</field>
   <field type="string">element</field>
   <field>mass</field>
   <field>valence</field>
   <field type="string">pseudopotential</field>
   <set>
    <rc><c>  32</c><c>Sc</c><c>     44.95600000</c><c>     11.00000000</c><c>  PAW_PBE Sc_sv 07Sep2000               </c></rc>
    <rc><c>  32</c><c>F </c><c>     18.99800000</c><c>      7.00000000</c><c>  PAW_PBE F 08Apr2002                   </c></rc>
    <rc><c>  16</c><c>C </c><c>     12.01100000</c><c>      4.00000000</c><c>  PAW_PBE C 08Apr2002                   </c></rc>
   </set>
  </array>
 </atominfo>
 <structure name="initialpos" >
  <crystal>
   <varray name="basis" >
    <v>      13.12862340       0.00000000       0.00000000 </v>
    <v>      -6.56431170      11.36972138       0.00000000 </v>
    <v>       0.00000000       0.00000000      26.82809424 </v>
   </varray>
   <i name="volume">   4004.59716953 </i>
   <varray name="rec_basis" >
    <v>       0.07616945       0.04397645       0.00000000 </v>
    <v>       0.00000000       0.08795290       0.00000000 </v>
    <v>       0.00000000       0.00000000       0.03727436 </v>
   </varray>
  </crystal>
  <varray name="positions" >
   <v>       0.08211675       0.17110987       0.45545485 </v>
   <v>       0.07756983       0.41039922       0.44734460 </v>
   <v>       0.07914729       0.66387263       0.44938174 </v>
   <v>       0.08601897       0.91706584       0.44806332 </v>
   <v>       0.33481302       0.17310254       0.45220334 </v>
   <v>       0.34559426       0.42235247       0.45619655 </v>
   <v>       0.31896308       0.65582837       0.44882131 </v>
   <v>       0.34082347       0.92041709       0.45287514 </v>
   <v>       0.58842497       0.17502213       0.45241540 </v>
   <v>       0.58311541       0.41858705       0.45856180 </v>
   <v>       0.58437436       0.67343312       0.45692941 </v>
   <v>       0.58728992       0.90941840       0.45313491 </v>
   <v>       0.83382890       0.15237688       0.44768662 </v>
   <v>       0.83189604       0.40778437       0.45518727 </v>
   <v>       0.83248584       0.66098042       0.45149782 </v>
   <v>       0.84038594       0.91470615       0.45816596 </v>
   <v>       0.18254297       0.08382782       0.54834312 </v>
   <v>       0.17469894       0.33531548       0.55064021 </v>
   <v>       0.16308528       0.58597472       0.54396829 </v>
   <v>       0.15695305       0.82737844       0.53964262 </v>
   <v>       0.41707419       0.08196605       0.54767999 </v>
   <v>       0.41868602       0.34694240       0.55254626 </v>
   <v>       0.41196247       0.60062132       0.54695848 </v>
   <v>       0.41753064       0.84115372       0.54744166 </v>
   <v>       0.66023536       0.08151124       0.55169508 </v>
   <v>       0.66058436       0.32913622       0.55000154 </v>
   <v>       0.67858568       0.59016323       0.54740426 </v>
   <v>       0.66343590       0.83311707       0.55098183 </v>
   <v>       0.92011395       0.08681949       0.54782049 </v>
   <v>       0.91855950       0.33146600       0.54223424 </v>
   <v>       0.92282345       0.59130629       0.54848267 </v>
   <v>       0.91063272       0.83579503       0.54731921 </v>
   <v>       0.07806421       0.15044108       0.58967806 </v>
   <v>       0.07864773       0.41350229       0.58571636 </v>
   <v>       0.08927708       0.67254237       0.58765759 </v>
   <v>       0.06929444       0.90225062       0.58160416 </v>
   <v>       0.35872785       0.17080357       0.58659999 </v>
   <v>       0.31145452       0.41178707       0.59201000 </v>
   <v>       0.31363508       0.66005168       0.59170350 </v>
   <v>       0.34214373       0.91926695       0.59416288 </v>
   <v>       0.59024305       0.16981262       0.59542789 </v>
   <v>       0.57478609       0.42211131       0.59500612 </v>
   <v>       0.58457136       0.66864330       0.59105177 </v>
   <v>       0.56185980       0.91104815       0.59206194 </v>
   <v>       0.84446966       0.17170574       0.58986628 </v>
   <v>       0.85471858       0.42087422       0.59377752 </v>
   <v>       0.83067026       0.66569911       0.59359198 </v>
   <v>       0.83720797       0.92985902       0.59231125 </v>
   <v>       0.17028959       0.10364190       0.40983628 </v>
   <v>       0.15753167       0.32877599       0.40899762 </v>
   <v>       0.16031263       0.58244786       0.40115213 </v>
   <v>       0.14270313       0.81841371       0.40154456 </v>
   <v>       0.42453788       0.08473596       0.40527760 </v>
   <v>       0.42664466       0.32999935       0.40992408 </v>
   <v>       0.39909333       0.57735995       0.41152071 </v>
   <v>       0.44081182       0.82937039       0.41170427 </v>
   <v>       0.66952679       0.07282790       0.41030142 </v>
   <v>       0.65431225       0.32218447       0.41125056 </v>
   <v>       0.65522784       0.58488882       0.40730189 </v>
   <v>       0.68218148       0.83010142       0.41482742 </v>
   <v>       0.91572093       0.07398735       0.40244921 </v>
   <v>       0.89866152       0.30479309       0.40524422 </v>
   <v>       0.89242440       0.58218830       0.39866773 </v>
   <v>       0.92096287       0.83380740       0.41701183 </v>
   <v>       0.00865894       0.00626652       0.49934942 </v>
   <v>       0.99916395       0.25704587       0.49562066 </v>
   <v>       0.99104321       0.49511787       0.49550737 </v>
   <v>       0.99636112       0.75273367       0.49744179 </v>
   <v>       0.25920520       0.00551360       0.50074410 </v>
   <v>       0.26318851       0.25752602       0.50265418 </v>
   <v>       0.25481607       0.50991704       0.49960896 </v>
   <v>       0.24999538       0.75327114       0.49677435 </v>
   <v>       0.49797892       0.99520213       0.50149438 </v>
   <v>       0.49547323       0.24714828       0.50474421 </v>
   <v>       0.49981256       0.50049338       0.50243767 </v>
   <v>       0.50190475       0.75254902       0.49850929 </v>
   <v>       0.74817951       0.99601234       0.50331654 </v>
   <v>       0.74939485       0.24267230       0.50379181 </v>
   <v>       0.74862184       0.49181815       0.50357702 </v>
   <v>       0.75464522       0.75501368       0.50076600 </v>
  </varray>
  <varray name="velocities" >
   <v>       0.00000000       0.00000000       0.00000000 </v>
   <v>       0.00000000       0.00000000       0.00000000 </v>
   <v>       0.00000000       0.00000000       0.00000000 </v>
   <v>       0.00000000       0.00000000       0.00000000 </v>
   <v>       0.00000000       0.00000000       0.00000000 </v>
   <v>       0.00000000       0.00000000       0.00000000 </v>
   <v>       0.00000000       0.00000000       0.00000000 </v>
   <v>       0.00000000       0.00000000       0.00000000 </v>
   <v>       0.00000000       0.00000000       0.00000000 </v>
   <v>       0.00000000       0.00000000       0.00000000 </v>
   <v>       0.00000000       0.00000000       0.00000000 </v>
   <v>       0.00000000       0.00000000       0.00000000 </v>
   <v>       0.00000000       0.00000000       0.00000000 </v>
   <v>       0.00000000       0.00000000       0.00000000 </v>
   <v>       0.00000000       0.00000000       0.00000000 </v>
   <v>       0.00000000       0.00000000       0.00000000 </v>
   <v>       0.00000000       0.00000000       0.00000000 </v>
   <v>       0.00000000       0.00000000       0.00000000 </v>
   <v>       0.00000000       0.00000000       0.00000000 </v>
   <v>       0.00000000       0.00000000       0.00000000 </v>
   <v>       0.00000000       0.00000000       0.00000000 </v>
   <v>       0.00000000       0.00000000       0.00000000 </v>
   <v>       0.00000000       0.00000000       0.00000000 </v>
   <v>       0.00000000       0.00000000       0.00000000 </v>
   <v>       0.00000000       0.00000000       0.00000000 </v>
   <v>       0.00000000       0.00000000       0.00000000 </v>
   <v>       0.00000000       0.00000000       0.00000000 </v>
   <v>       0.00000000       0.00000000       0.00000000 </v>
   <v>       0.00000000       0.00000000       0.00000000 </v>
   <v>       0.00000000       0.00000000       0.00000000 </v>
   <v>       0.00000000       0.00000000       0.00000000 </v>
   <v>       0.00000000       0.00000000       0.00000000 </v>
   <v>       0.00000000       0.00000000       0.00000000 </v>
   <v>       0.00000000       0.00000000       0.00000000 </v>
   <v>       0.00000000       0.00000000       0.00000000 </v>
   <v>       0.00000000       0.00000000       0.00000000 </v>
   <v>       0.00000000       0.00000000       0.00000000 </v>
   <v>       0.00000000       0.00000000       0.00000000 </v>
   <v>       0.00000000       0.00000000       0.00000000 </v>
   <v>       0.00000000       0.00000000       0.00000000 </v>
   <v>       0.00000000       0.00000000       0.00000000 </v>
   <v>       0.00000000       0.00000000       0.00000000 </v>
   <v>       0.00000000       0.00000000       0.00000000 </v>
   <v>       0.00000000       0.00000000       0.00000000 </v>
   <v>       0.00000000       0.00000000       0.00000000 </v>
   <v>       0.00000000       0.00000000       0.00000000 </v>
   <v>       0.00000000       0.00000000       0.00000000 </v>
   <v>       0.00000000       0.00000000       0.00000000 </v>
   <v>       0.00000000       0.00000000       0.00000000 </v>
   <v>       0.00000000       0.00000000       0.00000000 </v>
   <v>       0.00000000       0.00000000       0.00000000 </v>
   <v>       0.00000000       0.00000000       0.00000000 </v>
   <v>       0.00000000       0.00000000       0.00000000 </v>
   <v>       0.00000000       0.00000000       0.00000000 </v>
   <v>       0.00000000       0.00000000       0.00000000 </v>
   <v>       0.00000000       0.00000000       0.00000000 </v>
   <v>       0.00000000       0.00000000       0.00000000 </v>
   <v>       0.00000000       0.00000000       0.00000000 </v>
   <v>       0.00000000       0.00000000       0.00000000 </v>
   <v>       0.00000000       0.00000000       0.00000000 </v>
   <v>       0.00000000       0.00000000       0.00000000 </v>
   <v>       0.00000000       0.00000000       0.00000000 </v>
   <v>       0.00000000       0.00000000       0.00000000 </v>
   <v>       0.00000000       0.00000000       0.00000000 </v>
   <v>       0.00000000       0.00000000       0.00000000 </v>
   <v>       0.00000000       0.00000000       0.00000000 </v>
   <v>       0.00000000       0.00000000       0.00000000 </v>
   <v>       0.00000000       0.00000000       0.00000000 </v>
   <v>       0.00000000       0.00000000       0.00000000 </v>
   <v>       0.00000000       0.00000000       0.00000000 </v>
   <v>       0.00000000       0.00000000       0.00000000 </v>
   <v>       0.00000000       0.00000000       0.00000000 </v>
   <v>       0.00000000       0.00000000       0.00000000 </v>
   <v>       0.00000000       0.00000000       0.00000000 </v>
   <v>       0.00000000       0.00000000       0.00000000 </v>
   <v>       0.00000000       0.00000000       0.00000000 </v>
   <v>       0.00000000       0.00000000       0.00000000 </v>
   <v>       0.00000000       0.00000000       0.00000000 </v>
   <v>       0.00000000       0.00000000       0.00000000 </v>
   <v>       0.00000000       0.00000000       0.00000000 </v>
  </varray>
 </structure>
 <calculation>
  <scstep>
   <time name="dav">   45.96   45.97</time>
   <time name="total">   46.83   46.85</time>
   <energy>
    <i name="alphaZ">    871.83850952 </i>
    <i name="ewald"> 285858.18194852 </i>
    <i name="hartreedc">-340213.40454704 </i>
    <i name="XCdc">   3042.87453212 </i>
    <i name="pawpsdc">  50525.51240023 </i>
    <i name="pawaedc"> -50422.77561733 </i>
    <i name="eentropy">     -0.07244499 </i>
    <i name="bandstr">   -189.77559382 </i>
    <i name="atom">  64207.43592568 </i>
    <i name="e_fr_energy">  13679.81511290 </i>
    <i name="e_wo_entrp">  13679.88755789 </i>
    <i name="e_0_energy">  13679.85133539 </i>
   </energy>
  </scstep>
  <scstep>
   <time name="dav">   49.41   49.43</time>
   <time name="total">   49.41   49.43</time>
   <energy>
    <i name="e_fr_energy">   2491.94822865 </i>
    <i name="e_wo_entrp">   2491.99587507 </i>
    <i name="e_0_energy">   2491.97205186 </i>
   </energy>
  </scstep>
  <scstep>
   <time name="dav">   67.20   67.20</time>
   <time name="total">   67.20   67.20</time>
   <energy>
    <i name="e_fr_energy">   -378.58071274 </i>
    <i name="e_wo_entrp">   -378.58071274 </i>
    <i name="e_0_energy">   -378.58071274 </i>
   </energy>
  </scstep>
  <scstep>
   <time name="dav">   61.20   61.21</time>
   <time name="total">   61.20   61.21</time>
   <energy>
    <i name="e_fr_energy">   -737.82718122 </i>
    <i name="e_wo_entrp">   -737.82718122 </i>
    <i name="e_0_energy">   -737.82718122 </i>
   </energy>
  </scstep>
  <scstep>
   <time name="dav">   61.18   61.19</time>
   <time name="total">   64.78   64.79</time>
   <energy>
    <i name="e_fr_energy">   -752.32917653 </i>
    <i name="e_wo_entrp">   -752.32917653 </i>
    <i name="e_0_energy">   -752.32917653 </i>
   </energy>
  </scstep>
  <scstep>
   <time name="dav">   58.23   58.23</time>
   <time name="total">   62.65   62.67</time>
   <energy>
    <i name="e_fr_energy">   -596.76064900 </i>
    <i name="e_wo_entrp">   -596.76064900 </i>
    <i name="e_0_energy">   -596.76064900 </i>
   </energy>
  </scstep>
  <scstep>
   <time name="dav">   59.94   59.94</time>
   <time name="total">   64.29   64.30</time>
   <energy>
    <i name="e_fr_energy">   -596.83213730 </i>
    <i name="e_wo_entrp">   -596.83213730 </i>
    <i name="e_0_energy">   -596.83213730 </i>
   </energy>
  </scstep>
  <scstep>
   <time name="dav">   56.86   56.86</time>
   <time name="total">   61.22   61.23</time>
   <energy>
    <i name="e_fr_energy">   -595.35443337 </i>
    <i name="e_wo_entrp">   -595.35443337 </i>
    <i name="e_0_energy">   -595.35443337 </i>
   </energy>
  </scstep>
  <scstep>
   <time name="dav">   56.59   56.59</time>
   <time name="total">   60.99   61.01</time>
   <energy>
    <i name="e_fr_energy">   -594.84783167 </i>
    <i name="e_wo_entrp">   -594.84783167 </i>
    <i name="e_0_energy">   -594.84783167 </i>
   </energy>
  </scstep>
  <scstep>
   <time name="dav">   60.31   60.31</time>
   <time name="total">   64.62   64.63</time>
   <energy>
    <i name="e_fr_energy">   -594.81214093 </i>
    <i name="e_wo_entrp">   -594.81214093 </i>
    <i name="e_0_energy">   -594.81214093 </i>
   </energy>
  </scstep>
  <scstep>
   <time name="dav">   56.77   56.77</time>
   <time name="total">   61.16   61.17</time>
   <energy>
    <i name="e_fr_energy">   -594.70098328 </i>
    <i name="e_wo_entrp">   -594.70098328 </i>
    <i name="e_0_energy">   -594.70098328 </i>
   </energy>
  </scstep>
  <scstep>
   <time name="dav">   60.26   60.26</time>
   <time name="total">   64.61   64.63</time>
   <energy>
    <i name="e_fr_energy">   -594.67290988 </i>
    <i name="e_wo_entrp">   -594.67290988 </i>
    <i name="e_0_energy">   -594.67290988 </i>
   </energy>
  </scstep>
  <scstep>
   <time name="dav">   59.22   59.22</time>
   <time name="total">   63.68   63.70</time>
   <energy>
    <i name="e_fr_energy">   -594.66585026 </i>
    <i name="e_wo_entrp">   -594.66585026 </i>
    <i name="e_0_energy">   -594.66585026 </i>
   </energy>
  </scstep>
  <scstep>
   <time name="dav">   56.60   56.61</time>
   <time name="total">   60.96   60.98</time>
   <energy>
    <i name="e_fr_energy">   -594.66290711 </i>
    <i name="e_wo_entrp">   -594.66290711 </i>
    <i name="e_0_energy">   -594.66290711 </i>
   </energy>
  </scstep>
  <scstep>
   <time name="dav">   58.34   58.34</time>
   <time name="total">   62.82   62.83</time>
   <energy>
    <i name="e_fr_energy">   -594.66836086 </i>
    <i name="e_wo_entrp">   -594.66836086 </i>
    <i name="e_0_energy">   -594.66836086 </i>
   </energy>
  </scstep>
  <scstep>
   <time name="dav">   58.54   58.54</time>
   <time name="total">   62.90   62.91</time>
   <energy>
    <i name="e_fr_energy">   -594.67177417 </i>
    <i name="e_wo_entrp">   -594.67177417 </i>
    <i name="e_0_energy">   -594.67177417 </i>
   </energy>
  </scstep>
  <scstep>
   <time name="dav">   59.89   59.89</time>
   <time name="total">   64.24   64.26</time>
   <energy>
    <i name="e_fr_energy">   -594.67739987 </i>
    <i name="e_wo_entrp">   -594.67739987 </i>
    <i name="e_0_energy">   -594.67739987 </i>
   </energy>
  </scstep>
  <scstep>
   <time name="dav">   54.82   54.83</time>
   <time name="total">   59.19   59.20</time>
   <energy>
    <i name="e_fr_energy">   -594.68006991 </i>
    <i name="e_wo_entrp">   -594.68006991 </i>
    <i name="e_0_energy">   -594.68006991 </i>
   </energy>
  </scstep>
  <scstep>
   <time name="dav">   57.42   57.42</time>
   <time name="total">   61.86   61.87</time>
   <energy>
    <i name="e_fr_energy">   -594.68177626 </i>
    <i name="e_wo_entrp">   -594.68177626 </i>
    <i name="e_0_energy">   -594.68177626 </i>
   </energy>
  </scstep>
  <scstep>
   <time name="dav">   53.57   53.58</time>
   <time name="total">   57.95   57.97</time>
   <energy>
    <i name="e_fr_energy">   -594.68454026 </i>
    <i name="e_wo_entrp">   -594.68454026 </i>
    <i name="e_0_energy">   -594.68454026 </i>
   </energy>
  </scstep>
  <scstep>
   <time name="dav">   44.62   44.62</time>
   <time name="total">   48.94   48.94</time>
   <energy>
    <i name="e_fr_energy">   -594.68681662 </i>
    <i name="e_wo_entrp">   -594.68681662 </i>
    <i name="e_0_energy">   -594.68681662 </i>
   </energy>
  </scstep>
  <scstep>
   <time name="dav">   51.11   51.12</time>
   <time name="total">   55.49   55.50</time>
   <energy>
    <i name="e_fr_energy">   -594.68784441 </i>
    <i name="e_wo_entrp">   -594.68784441 </i>
    <i name="e_0_energy">   -594.68784441 </i>
   </energy>
  </scstep>
  <scstep>
   <time name="dav">   50.92   50.92</time>
   <time name="total">   55.29   55.30</time>
   <energy>
    <i name="e_fr_energy">   -594.68821649 </i>
    <i name="e_wo_entrp">   -594.68821649 </i>
    <i name="e_0_energy">   -594.68821649 </i>
   </energy>
  </scstep>
  <scstep>
   <time name="dav">   46.68   46.68</time>
   <time name="total">   51.05   51.06</time>
   <energy>
    <i name="e_fr_energy">   -594.68856698 </i>
    <i name="e_wo_entrp">   -594.68856698 </i>
    <i name="e_0_energy">   -594.68856698 </i>
   </energy>
  </scstep>
  <scstep>
   <time name="dav">   44.31   44.31</time>
   <time name="total">   48.65   48.65</time>
   <energy>
    <i name="e_fr_energy">   -594.68872923 </i>
    <i name="e_wo_entrp">   -594.68872923 </i>
    <i name="e_0_energy">   -594.68872923 </i>
   </energy>
  </scstep>
  <scstep>
   <time name="dav">   34.88   34.88</time>
   <time name="total">   39.24   39.25</time>
   <energy>
    <i name="e_fr_energy">   -594.68879427 </i>
    <i name="e_wo_entrp">   -594.68879427 </i>
    <i name="e_0_energy">   -594.68879427 </i>
   </energy>
  </scstep>
  <scstep>
   <time name="dav">   32.70   32.70</time>
   <time name="total">   37.04   37.04</time>
   <energy>
    <i name="e_fr_energy">   -594.68881912 </i>
    <i name="e_wo_entrp">   -594.68881912 </i>
    <i name="e_0_energy">   -594.68881912 </i>
   </energy>
  </scstep>
  <scstep>
   <time name="dav">   33.95   33.96</time>
   <time name="total">   38.39   38.41</time>
   <energy>
    <i name="e_fr_energy">   -594.68884017 </i>
    <i name="e_wo_entrp">   -594.68884017 </i>
    <i name="e_0_energy">   -594.68884017 </i>
   </energy>
  </scstep>
  <scstep>
   <time name="dav">   32.73   32.74</time>
   <time name="total">   37.06   37.08</time>
   <energy>
    <i name="e_fr_energy">   -594.68884983 </i>
    <i name="e_wo_entrp">   -594.68884983 </i>
    <i name="e_0_energy">   -594.68884983 </i>
   </energy>
  </scstep>
  <scstep>
   <time name="dav">   31.94   31.94</time>
   <time name="total">   36.31   36.32</time>
   <energy>
    <i name="e_fr_energy">   -594.68885265 </i>
    <i name="e_wo_entrp">   -594.68885265 </i>
    <i name="e_0_energy">   -594.68885265 </i>
   </energy>
  </scstep>
  <scstep>
   <time name="dav">   31.72   31.72</time>
   <time name="total">   32.50   32.50</time>
   <energy>
    <i name="alphaZ">    871.83850952 </i>
    <i name="ewald"> 285858.18194852 </i>
    <i name="hartreedc">-341373.91294387 </i>
    <i name="XCdc">   3054.09224801 </i>
    <i name="pawpsdc">  66419.04767588 </i>
    <i name="pawaedc"> -66412.45285901 </i>
    <i name="eentropy">     -0.00000000 </i>
    <i name="bandstr"> -13218.91935810 </i>
    <i name="atom">  64207.43592568 </i>
    <i name="e_fr_energy">   -594.68885337 </i>
    <i name="e_wo_entrp">   -594.68885337 </i>
    <i name="e_0_energy">   -594.68885337 </i>
   </energy>
  </scstep>
  <structure>
   <crystal>
    <varray name="basis" >
     <v>      13.12862340       0.00000000       0.00000000 </v>
     <v>      -6.56431170      11.36972138       0.00000000 </v>
     <v>       0.00000000       0.00000000      26.82809424 </v>
    </varray>
    <i name="volume">   4004.59716953 </i>
    <varray name="rec_basis" >
     <v>       0.07616945       0.04397645       0.00000000 </v>
     <v>       0.00000000       0.08795290       0.00000000 </v>
     <v>       0.00000000       0.00000000       0.03727436 </v>
    </varray>
   </crystal>
   <varray name="positions" >
    <v>       0.08211675       0.17110987       0.45545485 </v>
    <v>       0.07756983       0.41039922       0.44734460 </v>
    <v>       0.07914729       0.66387263       0.44938174 </v>
    <v>       0.08601897       0.91706584       0.44806332 </v>
    <v>       0.33481302       0.17310254       0.45220334 </v>
    <v>       0.34559426       0.42235247       0.45619655 </v>
    <v>       0.31896308       0.65582837       0.44882131 </v>
    <v>       0.34082347       0.92041709       0.45287514 </v>
    <v>       0.58842497       0.17502213       0.45241540 </v>
    <v>       0.58311541       0.41858705       0.45856180 </v>
    <v>       0.58437436       0.67343312       0.45692941 </v>
    <v>       0.58728992       0.90941840       0.45313491 </v>
    <v>       0.83382890       0.15237688       0.44768662 </v>
    <v>       0.83189604       0.40778437       0.45518727 </v>
    <v>       0.83248584       0.66098042       0.45149782 </v>
    <v>       0.84038594       0.91470615       0.45816596 </v>
    <v>       0.18254297       0.08382782       0.54834312 </v>
    <v>       0.17469894       0.33531548       0.55064021 </v>
    <v>       0.16308528       0.58597472       0.54396829 </v>
    <v>       0.15695305       0.82737844       0.53964262 </v>
    <v>       0.41707419       0.08196605       0.54767999 </v>
    <v>       0.41868602       0.34694240       0.55254626 </v>
    <v>       0.41196247       0.60062132       0.54695848 </v>
    <v>       0.41753064       0.84115372       0.54744166 </v>
    <v>       0.66023536       0.08151124       0.55169508 </v>
    <v>       0.66058436       0.32913622       0.55000154 </v>
    <v>       0.67858568       0.59016323       0.54740426 </v>
    <v>       0.66343590       0.83311707       0.55098183 </v>
    <v>       0.92011395       0.08681949       0.54782049 </v>
    <v>       0.91855950       0.33146600       0.54223424 </v>
    <v>       0.92282345       0.59130629       0.54848267 </v>
    <v>       0.91063272       0.83579503       0.54731921 </v>
    <v>       0.07806421       0.15044108       0.58967806 </v>
    <v>       0.07864773       0.41350229       0.58571636 </v>
    <v>       0.08927708       0.67254237       0.58765759 </v>
    <v>       0.06929444       0.90225062       0.58160416 </v>
    <v>       0.35872785       0.17080357       0.58659999 </v>
    <v>       0.31145452       0.41178707       0.59201000 </v>
    <v>       0.31363508       0.66005168       0.59170350 </v>
    <v>       0.34214373       0.91926695       0.59416288 </v>
    <v>       0.59024305       0.16981262       0.59542789 </v>
    <v>       0.57478609       0.42211131       0.59500612 </v>
    <v>       0.58457136       0.66864330       0.59105177 </v>
    <v>       0.56185980       0.91104815       0.59206194 </v>
    <v>       0.84446966       0.17170574       0.58986628 </v>
    <v>       0.85471858       0.42087422       0.59377752 </v>
    <v>       0.83067026       0.66569911       0.59359198 </v>
    <v>       0.83720797       0.92985902       0.59231125 </v>
    <v>       0.17028959       0.10364190       0.40983628 </v>
    <v>       0.15753167       0.32877599       0.40899762 </v>
    <v>       0.16031263       0.58244786       0.40115213 </v>
    <v>       0.14270313       0.81841371       0.40154456 </v>
    <v>       0.42453788       0.08473596       0.40527760 </v>
    <v>       0.42664466       0.32999935       0.40992408 </v>
    <v>       0.39909333       0.57735995       0.41152071 </v>
    <v>       0.44081182       0.82937039       0.41170427 </v>
    <v>       0.66952679       0.07282790       0.41030142 </v>
    <v>       0.65431225       0.32218447       0.41125056 </v>
    <v>       0.65522784       0.58488882       0.40730189 </v>
    <v>       0.68218148       0.83010142       0.41482742 </v>
    <v>       0.91572093       0.07398735       0.40244921 </v>
    <v>       0.89866152       0.30479309       0.40524422 </v>
    <v>       0.89242440       0.58218830       0.39866773 </v>
    <v>       0.92096287       0.83380740       0.41701183 </v>
    <v>       0.00865894       0.00626652       0.49934942 </v>
    <v>       0.99916395       0.25704587       0.49562066 </v>
    <v>       0.99104321       0.49511787       0.49550737 </v>
    <v>       0.99636112       0.75273367       0.49744179 </v>
    <v>       0.25920520       0.00551360       0.50074410 </v>
    <v>       0.26318851       0.25752602       0.50265418 </v>
    <v>       0.25481607       0.50991704       0.49960896 </v>
    <v>       0.24999538       0.75327114       0.49677435 </v>
    <v>       0.49797892       0.99520213       0.50149438 </v>
    <v>       0.49547323       0.24714828       0.50474421 </v>
    <v>       0.49981256       0.50049338       0.50243767 </v>
    <v>       0.50190475       0.75254902       0.49850929 </v>
    <v>       0.74817951       0.99601234       0.50331654 </v>
    <v>       0.74939485       0.24267230       0.50379181 </v>
    <v>       0.74862184       0.49181815       0.50357702 </v>
    <v>       0.75464522       0.75501368       0.50076600 </v>
   </varray>
  </structure>
  <varray name="forces" >
   <v>       0.94114981      -0.11931720      -0.75672278 </v>
   <v>       0.18168289      -0.02668789       0.21198913 </v>
   <v>      -0.18854388       0.12289313      -0.67697919 </v>
   <v>      -0.22379548       0.67803509       0.58731829 </v>
   <v>       0.65285561      -0.07437664       0.23064900 </v>
   <v>      -1.05830205      -0.20419107      -0.56203329 </v>
   <v>       0.60378263       1.17586790       0.10345944 </v>
   <v>       0.31914468       0.31331807      -0.48948896 </v>
   <v>      -0.12024603      -1.53068857       0.78894150 </v>
   <v>       0.04585165      -0.31751880      -0.94222845 </v>
   <v>       0.72792492      -0.94163436      -1.07661937 </v>
   <v>       0.05775153       1.24808336       0.36407276 </v>
   <v>      -0.62372404       0.21156319       0.84056149 </v>
   <v>      -1.05259333      -0.13924859      -0.94094683 </v>
   <v>      -0.46546000       0.03679659      -0.41730370 </v>
   <v>      -0.70427690       0.81692476      -1.13941482 </v>
   <v>      -1.50050483      -0.05269269      -0.44637434 </v>
   <v>      -1.94425667      -0.54667108      -1.75575921 </v>
   <v>       0.38865546      -0.54429950       0.10681779 </v>
   <v>       0.85423539       0.90775624       1.20500112 </v>
   <v>       1.08130156      -0.37436831      -0.20390333 </v>
   <v>       0.88991030      -0.68341633      -0.44017939 </v>
   <v>       0.77538898      -0.95892976       0.28100587 </v>
   <v>      -0.89546372      -0.66739021      -0.20842304 </v>
   <v>       0.97475894       0.39492424      -0.84929287 </v>
   <v>       0.63753839       0.06118255       0.46447043 </v>
   <v>      -1.12711063      -0.72468088       0.67384843 </v>
   <v>       0.11986425       0.58295065      -0.37614728 </v>
   <v>      -0.39089092      -0.17011955      -0.11219263 </v>
   <v>      -0.48317512      -0.08277394       1.63583705 </v>
   <v>      -0.31800309      -1.57161216      -0.19764984 </v>
   <v>       0.65977522       0.21178136       0.04937007 </v>
   <v>       0.32620590       0.79292961       0.15991926 </v>
   <v>       0.28761813       0.26409379       0.10285099 </v>
   <v>      -0.26286046      -0.02576791      -0.05694379 </v>
   <v>       0.93070805       0.80891055       1.22407322 </v>
   <v>      -1.82156875       0.20921759       1.55640283 </v>
   <v>       1.57289702       0.90899292       1.15432425 </v>
   <v>       0.48678737       0.32014321      -0.32374804 </v>
   <v>      -0.28789673      -0.07164983      -0.53578395 </v>
   <v>      -0.16793050      -0.15278071      -0.29096266 </v>
   <v>       0.56613833       0.14207045      -0.19227637 </v>
   <v>      -0.14718204       0.00446176      -0.05913004 </v>
   <v>       1.14157003       0.20219649       0.43415684 </v>
   <v>      -0.15428723      -0.11839081      -0.05621089 </v>
   <v>      -0.46316228       0.28813968      -0.62761158 </v>
   <v>       0.28975871       0.24011015      -0.41127850 </v>
   <v>       0.14307136      -0.61144469      -0.06949370 </v>
   <v>       0.51201942      -0.61396055       0.07099874 </v>
   <v>       0.35095394       0.19850491       0.08004073 </v>
   <v>       0.04134947      -0.00127675       0.84466068 </v>
   <v>       0.24138833       0.39481230       0.62821073 </v>
   <v>      -0.16699282      -0.13388990       0.81536053 </v>
   <v>      -0.40856210       0.37062113       0.36060474 </v>
   <v>       0.89214512      -0.03072705      -0.42988670 </v>
   <v>      -1.43732029      -0.30566492      -0.81936812 </v>
   <v>      -0.32075580       0.21888172      -0.00161946 </v>
   <v>       0.24341526       0.81592611      -0.11326812 </v>
   <v>       0.34682124      -0.09406031       0.98282467 </v>
   <v>      -0.63379993       0.10415433      -0.47213009 </v>
   <v>      -0.11651605       0.17701264       1.21596308 </v>
   <v>      -0.04840060       1.05215796       0.18051988 </v>
   <v>       0.46304292      -0.10715204       1.32851612 </v>
   <v>      -0.36358042      -0.24985304      -1.13855572 </v>
   <v>      -0.13046882      -0.31850199       0.27131629 </v>
   <v>       0.93745125      -0.96233432       0.31679479 </v>
   <v>       0.71507037       1.12078382      -0.03134712 </v>
   <v>       0.52353062      -0.88966664      -0.11681721 </v>
   <v>      -0.58814916      -0.82802139      -1.03529998 </v>
   <v>      -1.16837081      -0.35969518       0.17747784 </v>
   <v>      -0.40074738      -1.07602515      -0.00237122 </v>
   <v>      -0.63022076      -0.66843824      -0.54360719 </v>
   <v>       0.06673812       0.42358774      -0.47652283 </v>
   <v>       0.93724070       0.92663165      -1.11221363 </v>
   <v>       0.06469395       0.68752747       0.17618145 </v>
   <v>      -0.14736069      -0.47137054       1.47810018 </v>
   <v>       0.43373167       0.13820511      -0.05934039 </v>
   <v>      -1.03825619       0.25889336      -1.10092107 </v>
   <v>      -0.15200231       1.14806275      -0.33804233 </v>
   <v>      -0.27318067      -1.15781681       0.90376980 </v>
  </varray>
  <varray name="stress" >
   <v>       4.96518461       1.40994288       2.81176643 </v>
   <v>       1.40994291       2.90148984      -1.60712632 </v>
   <v>       2.81176647      -1.60712629      -2.07402432 </v>
  </varray>
  <energy>
   <i name="e_fr_energy">   -594.68885337 </i>
   <i name="e_wo_entrp">   -594.68885337 </i>
   <i name="e_0_energy">     -0.00000000 </i>
  </energy>
  <time name="totalsc"> 1767.16 1767.55</time>
  <eigenvalues>
   <array>
    <dimension dim="1">band</dimension>
    <dimension dim="2">kpoint</dimension>
    <dimension dim="3">spin</dimension>
    <field>eigene</field>
    <field>occ</field>
    <set>
     <set comment="spin 1">
      <set comment="kpoint 1">
       <r>  -51.9914    1.0000 </r>
       <r>  -51.9895    1.0000 </r>
       <r>  -51.9112    1.0000 </r>
       <r>  -51.8204    1.0000 </r>
       <r>  -51.7929    1.0000 </r>
       <r>  -51.7734    1.0000 </r>
       <r>  -51.7572    1.0000 </r>
       <r>  -51.7406    1.0000 </r>
       <r>  -51.7317    1.0000 </r>
       <r>  -51.6770    1.0000 </r>
       <r>  -51.6313    1.0000 </r>
       <r>  -51.6257    1.0000 </r>
       <r>  -51.6067    1.0000 </r>
       <r>  -51.5895    1.0000 </r>
       <r>  -51.5864    1.0000 </r>
       <r>  -51.5855    1.0000 </r>
       <r>  -51.5685    1.0000 </r>
       <r>  -51.5419    1.0000 </r>
       <r>  -51.5392    1.0000 </r>
       <r>  -51.5261    1.0000 </r>
       <r>  -51.5077    1.0000 </r>
       <r>  -51.4311    1.0000 </r>
       <r>  -51.4061    1.0000 </r>
       <r>  -51.3983    1.0000 </r>
       <r>  -51.3786    1.0000 </r>
       <r>  -51.3640    1.0000 </r>
       <r>  -51.3499    1.0000 </r>
       <r>  -51.3326    1.0000 </r>
       <r>  -51.3159    1.0000 </r>
       <r>  -51.1708    1.0000 </r>
       <r>  -51.1212    1.0000 </r>
       <r>  -50.9763    1.0000 </r>
       <r>  -31.2258    1.0000 </r>
       <r>  -30.9976    1.0000 </r>
       <r>  -30.8521    1.0000 </r>
       <r>  -30.7993    1.0000 </r>
       <r>  -30.7826    1.0000 </r>
       <r>  -30.7469    1.0000 </r>
       <r>  -30.7351    1.0000 </r>
       <r>  -30.7133    1.0000 </r>
       <r>  -30.7033    1.0000 </r>
       <r>  -30.6932    1.0000 </r>
       <r>  -30.6880    1.0000 </r>
       <r>  -30.6818    1.0000 </r>
       <r>  -30.6587    1.0000 </r>
       <r>  -30.6536    1.0000 </r>
       <r>  -30.6409    1.0000 </r>
       <r>  -30.6273    1.0000 </r>
       <r>  -30.6170    1.0000 </r>
       <r>  -30.6054    1.0000 </r>
       <r>  -30.5778    1.0000 </r>
       <r>  -30.5759    1.0000 </r>
       <r>  -30.5594    1.0000 </r>
       <r>  -30.5444    1.0000 </r>
       <r>  -30.5371    1.0000 </r>
       <r>  -30.5299    1.0000 </r>
       <r>  -30.5108    1.0000 </r>
       <r>  -30.4965    1.0000 </r>
       <r>  -30.4925    1.0000 </r>
       <r>  -30.4777    1.0000 </r>
       <r>  -30.4727    1.0000 </r>
       <r>  -30.4573    1.0000 </r>
       <r>  -30.4511    1.0000 </r>
       <r>  -30.4442    1.0000 </r>
       <r>  -30.4388    1.0000 </r>
       <r>  -30.4349    1.0000 </r>
       <r>  -30.4235    1.0000 </r>
       <r>  -30.4171    1.0000 </r>
       <r>  -30.4120    1.0000 </r>
       <r>  -30.4016    1.0000 </r>
       <r>  -30.3953    1.0000 </r>
       <r>  -30.3898    1.0000 </r>
       <r>  -30.3829    1.0000 </r>
       <r>  -30.3655    1.0000 </r>
       <r>  -30.3500    1.0000 </r>
       <r>  -30.3449    1.0000 </r>
       <r>  -30.3348    1.0000 </r>
       <r>  -30.3253    1.0000 </r>
       <r>  -30.3061    1.0000 </r>
       <r>  -30.3031    1.0000 </r>
       <r>  -30.3015    1.0000 </r>
       <r>  -30.2905    1.0000 </r>
       <r>  -30.2826    1.0000 </r>
       <r>  -30.2693    1.0000 </r>
       <r>  -30.2654    1.0000 </r>
       <r>  -30.2489    1.0000 </r>
       <r>  -30.2416    1.0000 </r>
       <r>  -30.2330    1.0000 </r>
       <r>  -30.2240    1.0000 </r>
       <r>  -30.2120    1.0000 </r>
       <r>  -30.1986    1.0000 </r>
       <r>  -30.1926    1.0000 </r>
       <r>  -30.1838    1.0000 </r>
       <r>  -30.1728    1.0000 </r>
       <r>  -30.1668    1.0000 </r>
       <r>  -30.1622    1.0000 </r>
       <r>  -30.1391    1.0000 </r>
       <r>  -30.1361    1.0000 </r>
       <r>  -30.1290    1.0000 </r>
       <r>  -30.1107    1.0000 </r>
       <r>  -30.1067    1.0000 </r>
       <r>  -30.0942    1.0000 </r>
       <r>  -30.0925    1.0000 </r>
       <r>  -30.0904    1.0000 </r>
       <r>  -30.0734    1.0000 </r>
       <r>  -30.0632    1.0000 </r>
       <r>  -30.0601    1.0000 </r>
       <r>  -30.0533    1.0000 </r>
       <r>  -30.0505    1.0000 </r>
       <r>  -30.0391    1.0000 </r>
       <r>  -30.0326    1.0000 </r>
       <r>  -30.0318    1.0000 </r>
       <r>  -30.0192    1.0000 </r>
       <r>  -30.0130    1.0000 </r>
       <r>  -30.0076    1.0000 </r>
       <r>  -30.0009    1.0000 </r>
       <r>  -29.9860    1.0000 </r>
       <r>  -29.9685    1.0000 </r>
       <r>  -29.9613    1.0000 </r>
       <r>  -29.9269    1.0000 </r>
       <r>  -29.8915    1.0000 </r>
       <r>  -29.8583    1.0000 </r>
       <r>  -29.8423    1.0000 </r>
       <r>  -29.8219    1.0000 </r>
       <r>  -29.7922    1.0000 </r>
       <r>  -29.7475    1.0000 </r>
       <r>  -29.7127    1.0000 </r>
       <r>  -29.6811    1.0000 </r>
       <r>  -27.0844    1.0000 </r>
       <r>  -27.0548    1.0000 </r>
       <r>  -27.0421    1.0000 </r>
       <r>  -27.0048    1.0000 </r>
       <r>  -26.9050    1.0000 </r>
       <r>  -26.9013    1.0000 </r>
       <r>  -26.8962    1.0000 </r>
       <r>  -26.7530    1.0000 </r>
       <r>  -26.7238    1.0000 </r>
       <r>  -26.7108    1.0000 </r>
       <r>  -26.6971    1.0000 </r>
       <r>  -26.6837    1.0000 </r>
       <r>  -26.6564    1.0000 </r>
       <r>  -26.6265    1.0000 </r>
       <r>  -26.6222    1.0000 </r>
       <r>  -26.6045    1.0000 </r>
       <r>  -26.5982    1.0000 </r>
       <r>  -26.5727    1.0000 </r>
       <r>  -26.5665    1.0000 </r>
       <r>  -26.5565    1.0000 </r>
       <r>  -26.5085    1.0000 </r>
       <r>  -26.4908    1.0000 </r>
       <r>  -26.4588    1.0000 </r>
       <r>  -26.4097    1.0000 </r>
       <r>  -26.3909    1.0000 </r>
       <r>  -26.3729    1.0000 </r>
       <r>  -26.2597    1.0000 </r>
       <r>  -26.1441    1.0000 </r>
       <r>  -26.0704    1.0000 </r>
       <r>  -26.0126    1.0000 </r>
       <r>  -25.9082    1.0000 </r>
       <r>  -25.7752    1.0000 </r>
       <r>  -12.1820    1.0000 </r>
       <r>  -11.8048    1.0000 </r>
       <r>  -11.7713    1.0000 </r>
       <r>  -11.7507    1.0000 </r>
       <r>  -11.7288    1.0000 </r>
       <r>  -11.6556    1.0000 </r>
       <r>  -11.6282    1.0000 </r>
       <r>  -11.2502    1.0000 </r>
       <r>  -11.1877    1.0000 </r>
       <r>  -11.1774    1.0000 </r>
       <r>  -11.1575    1.0000 </r>
       <r>  -11.1244    1.0000 </r>
       <r>  -11.0839    1.0000 </r>
       <r>  -11.0168    1.0000 </r>
       <r>  -10.9993    1.0000 </r>
       <r>  -10.9380    1.0000 </r>
       <r>   -9.5111    1.0000 </r>
       <r>   -9.5025    1.0000 </r>
       <r>   -9.4756    1.0000 </r>
       <r>   -9.4288    1.0000 </r>
       <r>   -9.3924    1.0000 </r>
       <r>   -9.3233    1.0000 </r>
       <r>   -9.2973    1.0000 </r>
       <r>   -9.2785    1.0000 </r>
       <r>   -9.2352    1.0000 </r>
       <r>   -9.1950    1.0000 </r>
       <r>   -9.1614    1.0000 </r>
       <r>   -9.1507    1.0000 </r>
       <r>   -9.1267    1.0000 </r>
       <r>   -9.0854    1.0000 </r>
       <r>   -9.0734    1.0000 </r>
       <r>   -9.0545    1.0000 </r>
       <r>   -9.0330    1.0000 </r>
       <r>   -8.9963    1.0000 </r>
       <r>   -8.9749    1.0000 </r>
       <r>   -8.9500    1.0000 </r>
       <r>   -8.9327    1.0000 </r>
       <r>   -8.9097    1.0000 </r>
       <r>   -8.9025    1.0000 </r>
       <r>   -8.8811    1.0000 </r>
       <r>   -8.8636    1.0000 </r>
       <r>   -8.8420    1.0000 </r>
       <r>   -8.8414    1.0000 </r>
       <r>   -8.8245    1.0000 </r>
       <r>   -8.8057    1.0000 </r>
       <r>   -8.7756    1.0000 </r>
       <r>   -8.7647    1.0000 </r>
       <r>   -8.7426    1.0000 </r>
       <r>   -8.7312    1.0000 </r>
       <r>   -8.7179    1.0000 </r>
       <r>   -8.7099    1.0000 </r>
       <r>   -8.6899    1.0000 </r>
       <r>   -8.6806    1.0000 </r>
       <r>   -8.6647    1.0000 </r>
       <r>   -8.6538    1.0000 </r>
       <r>   -8.6503    1.0000 </r>
       <r>   -8.6284    1.0000 </r>
       <r>   -8.5966    1.0000 </r>
       <r>   -8.5940    1.0000 </r>
       <r>   -8.5896    1.0000 </r>
       <r>   -8.5755    1.0000 </r>
       <r>   -8.5571    1.0000 </r>
       <r>   -8.5462    1.0000 </r>
       <r>   -8.5334    1.0000 </r>
       <r>   -8.5278    1.0000 </r>
       <r>   -8.5173    1.0000 </r>
       <r>   -8.4960    1.0000 </r>
       <r>   -8.4738    1.0000 </r>
       <r>   -8.4486    1.0000 </r>
       <r>   -8.4448    1.0000 </r>
       <r>   -8.4344    1.0000 </r>
       <r>   -8.4241    1.0000 </r>
       <r>   -8.4057    1.0000 </r>
       <r>   -8.3995    1.0000 </r>
       <r>   -8.3844    1.0000 </r>
       <r>   -8.3775    1.0000 </r>
       <r>   -8.3610    1.0000 </r>
       <r>   -8.3297    1.0000 </r>
       <r>   -8.3211    1.0000 </r>
       <r>   -8.3182    1.0000 </r>
       <r>   -8.2997    1.0000 </r>
       <r>   -8.2897    1.0000 </r>
       <r>   -8.2717    1.0000 </r>
       <r>   -8.2617    1.0000 </r>
       <r>   -8.2440    1.0000 </r>
       <r>   -8.2208    1.0000 </r>
       <r>   -8.2117    1.0000 </r>
       <r>   -8.2084    1.0000 </r>
       <r>   -8.1903    1.0000 </r>
       <r>   -8.1796    1.0000 </r>
       <r>   -8.1611    1.0000 </r>
       <r>   -8.1309    1.0000 </r>
       <r>   -8.1142    1.0000 </r>
       <r>   -8.1018    1.0000 </r>
       <r>   -8.0559    1.0000 </r>
       <r>   -8.0388    1.0000 </r>
       <r>   -8.0177    1.0000 </r>
       <r>   -7.9792    1.0000 </r>
       <r>   -7.9688    1.0000 </r>
       <r>   -7.9603    1.0000 </r>
       <r>   -7.8934    1.0000 </r>
       <r>   -7.8755    1.0000 </r>
       <r>   -7.8490    1.0000 </r>
       <r>   -7.8071    1.0000 </r>
       <r>   -7.7892    1.0000 </r>
       <r>   -7.7792    1.0000 </r>
       <r>   -7.7535    1.0000 </r>
       <r>   -7.6679    1.0000 </r>
       <r>   -7.6590    1.0000 </r>
       <r>   -7.5556    1.0000 </r>
       <r>   -7.5145    1.0000 </r>
       <r>   -7.4816    1.0000 </r>
       <r>   -5.3045    1.0000 </r>
       <r>   -5.2728    1.0000 </r>
       <r>   -5.1988    1.0000 </r>
       <r>   -5.0366    1.0000 </r>
       <r>   -4.9977    1.0000 </r>
       <r>   -4.9555    1.0000 </r>
       <r>   -4.9209    1.0000 </r>
       <r>   -4.8787    1.0000 </r>
       <r>   -4.8683    1.0000 </r>
       <r>   -4.6368    1.0000 </r>
       <r>   -4.5191    1.0000 </r>
       <r>   -4.4650    1.0000 </r>
       <r>   -4.4518    1.0000 </r>
       <r>   -4.4259    1.0000 </r>
       <r>   -4.4053    1.0000 </r>
       <r>   -4.3628    1.0000 </r>
       <r>   -4.3449    1.0000 </r>
       <r>   -4.3318    1.0000 </r>
       <r>   -4.3096    1.0000 </r>
       <r>   -4.3002    1.0000 </r>
       <r>   -4.2708    1.0000 </r>
       <r>   -4.2522    1.0000 </r>
       <r>   -4.2309    1.0000 </r>
       <r>   -4.2179    1.0000 </r>
       <r>   -4.1667    1.0000 </r>
       <r>   -4.1633    1.0000 </r>
       <r>   -4.1212    1.0000 </r>
       <r>   -4.1076    1.0000 </r>
       <r>   -4.0665    1.0000 </r>
       <r>   -4.0338    1.0000 </r>
       <r>   -4.0105    1.0000 </r>
       <r>   -3.9731    1.0000 </r>
       <r>   -3.9255    1.0000 </r>
       <r>   -3.9024    1.0000 </r>
       <r>   -3.8691    1.0000 </r>
       <r>   -3.8179    1.0000 </r>
       <r>   -3.7467    1.0000 </r>
       <r>   -3.4612    1.0000 </r>
       <r>   -3.4174    1.0000 </r>
       <r>   -3.3966    1.0000 </r>
       <r>   -3.3228    1.0000 </r>
       <r>   -3.2879    1.0000 </r>
       <r>   -3.2713    1.0000 </r>
       <r>   -3.2354    1.0000 </r>
       <r>   -3.1895    1.0000 </r>
       <r>   -3.1281    1.0000 </r>
       <r>   -2.9963    1.0000 </r>
       <r>   -2.9057    1.0000 </r>
       <r>   -1.9833    0.0000 </r>
       <r>   -1.9671    0.0000 </r>
       <r>   -1.9506    0.0000 </r>
       <r>   -1.4088    0.0000 </r>
       <r>   -1.3391    0.0000 </r>
       <r>   -1.3138    0.0000 </r>
       <r>   -1.2782    0.0000 </r>
       <r>   -1.2441    0.0000 </r>
       <r>   -1.2435    0.0000 </r>
       <r>   -0.6637    0.0000 </r>
       <r>   -0.6138    0.0000 </r>
       <r>   -0.5562    0.0000 </r>
       <r>   -0.5376    0.0000 </r>
       <r>   -0.5247    0.0000 </r>
       <r>   -0.4508    0.0000 </r>
       <r>   -0.4111    0.0000 </r>
       <r>   -0.3754    0.0000 </r>
       <r>   -0.3568    0.0000 </r>
       <r>   -0.3308    0.0000 </r>
       <r>   -0.2921    0.0000 </r>
       <r>   -0.2498    0.0000 </r>
       <r>   -0.1920    0.0000 </r>
       <r>   -0.1779    0.0000 </r>
       <r>   -0.0945    0.0000 </r>
       <r>    0.1168    0.0000 </r>
       <r>    0.1393    0.0000 </r>
       <r>    0.1911    0.0000 </r>
       <r>    0.2212    0.0000 </r>
       <r>    0.2734    0.0000 </r>
       <r>    0.3136    0.0000 </r>
       <r>    0.3221    0.0000 </r>
       <r>    0.3412    0.0000 </r>
       <r>    0.3563    0.0000 </r>
       <r>    0.3992    0.0000 </r>
       <r>    0.4323    0.0000 </r>
       <r>    0.4471    0.0000 </r>
       <r>    0.4784    0.0000 </r>
       <r>    0.5148    0.0000 </r>
       <r>    0.5631    0.0000 </r>
       <r>    0.5963    0.0000 </r>
       <r>    0.6098    0.0000 </r>
       <r>    0.6254    0.0000 </r>
       <r>    0.6423    0.0000 </r>
       <r>    0.6540    0.0000 </r>
       <r>    0.6846    0.0000 </r>
       <r>    0.7135    0.0000 </r>
       <r>    0.7284    0.0000 </r>
       <r>    0.7729    0.0000 </r>
       <r>    0.7885    0.0000 </r>
       <r>    0.8231    0.0000 </r>
       <r>    0.8506    0.0000 </r>
       <r>    0.8729    0.0000 </r>
       <r>    0.8908    0.0000 </r>
       <r>    0.9136    0.0000 </r>
       <r>    0.9316    0.0000 </r>
       <r>    0.9464    0.0000 </r>
       <r>    0.9640    0.0000 </r>
       <r>    0.9765    0.0000 </r>
       <r>    0.9974    0.0000 </r>
       <r>    1.0171    0.0000 </r>
       <r>    1.0448    0.0000 </r>
       <r>    1.0744    0.0000 </r>
       <r>    1.0865    0.0000 </r>
       <r>    1.1295    0.0000 </r>
      </set>
      <set comment="kpoint 2">
       <r>  -51.9914    1.0000 </r>
       <r>  -51.9895    1.0000 </r>
       <r>  -51.9112    1.0000 </r>
       <r>  -51.8204    1.0000 </r>
       <r>  -51.7929    1.0000 </r>
       <r>  -51.7734    1.0000 </r>
       <r>  -51.7572    1.0000 </r>
       <r>  -51.7406    1.0000 </r>
       <r>  -51.7317    1.0000 </r>
       <r>  -51.6770    1.0000 </r>
       <r>  -51.6314    1.0000 </r>
       <r>  -51.6258    1.0000 </r>
       <r>  -51.6067    1.0000 </r>
       <r>  -51.5895    1.0000 </r>
       <r>  -51.5864    1.0000 </r>
       <r>  -51.5855    1.0000 </r>
       <r>  -51.5685    1.0000 </r>
       <r>  -51.5419    1.0000 </r>
       <r>  -51.5392    1.0000 </r>
       <r>  -51.5261    1.0000 </r>
       <r>  -51.5077    1.0000 </r>
       <r>  -51.4311    1.0000 </r>
       <r>  -51.4061    1.0000 </r>
       <r>  -51.3983    1.0000 </r>
       <r>  -51.3786    1.0000 </r>
       <r>  -51.3640    1.0000 </r>
       <r>  -51.3499    1.0000 </r>
       <r>  -51.3326    1.0000 </r>
       <r>  -51.3159    1.0000 </r>
       <r>  -51.1708    1.0000 </r>
       <r>  -51.1212    1.0000 </r>
       <r>  -50.9763    1.0000 </r>
       <r>  -31.2256    1.0000 </r>
       <r>  -30.9966    1.0000 </r>
       <r>  -30.8498    1.0000 </r>
       <r>  -30.7918    1.0000 </r>
       <r>  -30.7799    1.0000 </r>
       <r>  -30.7478    1.0000 </r>
       <r>  -30.7328    1.0000 </r>
       <r>  -30.7139    1.0000 </r>
       <r>  -30.7043    1.0000 </r>
       <r>  -30.6946    1.0000 </r>
       <r>  -30.6864    1.0000 </r>
       <r>  -30.6777    1.0000 </r>
       <r>  -30.6622    1.0000 </r>
       <r>  -30.6548    1.0000 </r>
       <r>  -30.6407    1.0000 </r>
       <r>  -30.6264    1.0000 </r>
       <r>  -30.6182    1.0000 </r>
       <r>  -30.6129    1.0000 </r>
       <r>  -30.5979    1.0000 </r>
       <r>  -30.5713    1.0000 </r>
       <r>  -30.5641    1.0000 </r>
       <r>  -30.5599    1.0000 </r>
       <r>  -30.5465    1.0000 </r>
       <r>  -30.5176    1.0000 </r>
       <r>  -30.5061    1.0000 </r>
       <r>  -30.4976    1.0000 </r>
       <r>  -30.4894    1.0000 </r>
       <r>  -30.4806    1.0000 </r>
       <r>  -30.4699    1.0000 </r>
       <r>  -30.4607    1.0000 </r>
       <r>  -30.4558    1.0000 </r>
       <r>  -30.4496    1.0000 </r>
       <r>  -30.4439    1.0000 </r>
       <r>  -30.4330    1.0000 </r>
       <r>  -30.4241    1.0000 </r>
       <r>  -30.4189    1.0000 </r>
       <r>  -30.4171    1.0000 </r>
       <r>  -30.4047    1.0000 </r>
       <r>  -30.3937    1.0000 </r>
       <r>  -30.3743    1.0000 </r>
       <r>  -30.3728    1.0000 </r>
       <r>  -30.3601    1.0000 </r>
       <r>  -30.3511    1.0000 </r>
       <r>  -30.3436    1.0000 </r>
       <r>  -30.3283    1.0000 </r>
       <r>  -30.3199    1.0000 </r>
       <r>  -30.3098    1.0000 </r>
       <r>  -30.3024    1.0000 </r>
       <r>  -30.2942    1.0000 </r>
       <r>  -30.2857    1.0000 </r>
       <r>  -30.2781    1.0000 </r>
       <r>  -30.2673    1.0000 </r>
       <r>  -30.2544    1.0000 </r>
       <r>  -30.2457    1.0000 </r>
       <r>  -30.2438    1.0000 </r>
       <r>  -30.2327    1.0000 </r>
       <r>  -30.2242    1.0000 </r>
       <r>  -30.2146    1.0000 </r>
       <r>  -30.2039    1.0000 </r>
       <r>  -30.1941    1.0000 </r>
       <r>  -30.1845    1.0000 </r>
       <r>  -30.1789    1.0000 </r>
       <r>  -30.1674    1.0000 </r>
       <r>  -30.1617    1.0000 </r>
       <r>  -30.1416    1.0000 </r>
       <r>  -30.1349    1.0000 </r>
       <r>  -30.1276    1.0000 </r>
       <r>  -30.1121    1.0000 </r>
       <r>  -30.1065    1.0000 </r>
       <r>  -30.0965    1.0000 </r>
       <r>  -30.0922    1.0000 </r>
       <r>  -30.0866    1.0000 </r>
       <r>  -30.0750    1.0000 </r>
       <r>  -30.0629    1.0000 </r>
       <r>  -30.0577    1.0000 </r>
       <r>  -30.0546    1.0000 </r>
       <r>  -30.0524    1.0000 </r>
       <r>  -30.0428    1.0000 </r>
       <r>  -30.0356    1.0000 </r>
       <r>  -30.0280    1.0000 </r>
       <r>  -30.0195    1.0000 </r>
       <r>  -30.0111    1.0000 </r>
       <r>  -30.0056    1.0000 </r>
       <r>  -29.9989    1.0000 </r>
       <r>  -29.9875    1.0000 </r>
       <r>  -29.9684    1.0000 </r>
       <r>  -29.9610    1.0000 </r>
       <r>  -29.9272    1.0000 </r>
       <r>  -29.8921    1.0000 </r>
       <r>  -29.8595    1.0000 </r>
       <r>  -29.8437    1.0000 </r>
       <r>  -29.8225    1.0000 </r>
       <r>  -29.7947    1.0000 </r>
       <r>  -29.7489    1.0000 </r>
       <r>  -29.7129    1.0000 </r>
       <r>  -29.6814    1.0000 </r>
       <r>  -27.0838    1.0000 </r>
       <r>  -27.0545    1.0000 </r>
       <r>  -27.0421    1.0000 </r>
       <r>  -27.0045    1.0000 </r>
       <r>  -26.9085    1.0000 </r>
       <r>  -26.8995    1.0000 </r>
       <r>  -26.8951    1.0000 </r>
       <r>  -26.7530    1.0000 </r>
       <r>  -26.7232    1.0000 </r>
       <r>  -26.7113    1.0000 </r>
       <r>  -26.6969    1.0000 </r>
       <r>  -26.6837    1.0000 </r>
       <r>  -26.6569    1.0000 </r>
       <r>  -26.6264    1.0000 </r>
       <r>  -26.6221    1.0000 </r>
       <r>  -26.6042    1.0000 </r>
       <r>  -26.5990    1.0000 </r>
       <r>  -26.5730    1.0000 </r>
       <r>  -26.5643    1.0000 </r>
       <r>  -26.5587    1.0000 </r>
       <r>  -26.5078    1.0000 </r>
       <r>  -26.4910    1.0000 </r>
       <r>  -26.4589    1.0000 </r>
       <r>  -26.4097    1.0000 </r>
       <r>  -26.3909    1.0000 </r>
       <r>  -26.3729    1.0000 </r>
       <r>  -26.2597    1.0000 </r>
       <r>  -26.1441    1.0000 </r>
       <r>  -26.0704    1.0000 </r>
       <r>  -26.0126    1.0000 </r>
       <r>  -25.9082    1.0000 </r>
       <r>  -25.7752    1.0000 </r>
       <r>  -12.1308    1.0000 </r>
       <r>  -11.9776    1.0000 </r>
       <r>  -11.8149    1.0000 </r>
       <r>  -11.7948    1.0000 </r>
       <r>  -11.5883    1.0000 </r>
       <r>  -11.5590    1.0000 </r>
       <r>  -11.4306    1.0000 </r>
       <r>  -11.3714    1.0000 </r>
       <r>  -11.3412    1.0000 </r>
       <r>  -11.1920    1.0000 </r>
       <r>  -11.1622    1.0000 </r>
       <r>  -11.1396    1.0000 </r>
       <r>  -11.0864    1.0000 </r>
[...]
       <r>   -32.4429     0.0000    64.0000 </r>
       <r>   -32.2481     0.0000    64.0000 </r>
       <r>   -32.0533     0.0000    64.0000 </r>
       <r>   -31.8585     0.0000    64.0000 </r>
       <r>   -31.6638     0.0000    64.0000 </r>
       <r>   -31.4690     0.0000    64.0000 </r>
       <r>   -31.2742     0.8705    64.1696 </r>
       <r>   -31.0794     9.4971    66.0194 </r>
       <r>   -30.8847    11.9022    68.3376 </r>
       <r>   -30.6899    82.6287    84.4318 </r>
       <r>   -30.4951   166.4437   116.8511 </r>
       <r>   -30.3003   220.8341   159.8645 </r>
       <r>   -30.1055   216.1647   201.9683 </r>
       <r>   -29.9108   194.9115   239.9325 </r>
       <r>   -29.7160    66.4264   252.8708 </r>
       <r>   -29.5212    16.0655   256.0000 </r>
       <r>   -29.3264     0.0000   256.0000 </r>
       <r>   -29.1317     0.0000   256.0000 </r>
       <r>   -28.9369     0.0000   256.0000 </r>
       <r>   -28.7421     0.0000   256.0000 </r>
       <r>   -28.5473     0.0000   256.0000 </r>
       <r>   -28.3526     0.0000   256.0000 </r>
       <r>   -28.1578     0.0000   256.0000 </r>
       <r>   -27.9630     0.0000   256.0000 </r>
       <r>   -27.7682     0.0000   256.0000 </r>
       <r>   -27.5734     0.0000   256.0000 </r>
       <r>   -27.3787     0.0000   256.0000 </r>
       <r>   -27.1839     0.0251   256.0049 </r>
       <r>   -26.9891    36.8097   263.1746 </r>
       <r>   -26.7943    36.6049   270.3043 </r>
       <r>   -26.5996    90.9346   288.0163 </r>
       <r>   -26.4048    82.2119   304.0292 </r>
       <r>   -26.2100    30.1554   309.9028 </r>
       <r>   -26.0152    25.2633   314.8235 </r>
       <r>   -25.8205    17.2701   318.1873 </r>
       <r>   -25.6257     9.3064   320.0000 </r>
       <r>   -25.4309     0.0001   320.0000 </r>
       <r>   -25.2361     0.0000   320.0000 </r>
       <r>   -25.0414     0.0000   320.0000 </r>
       <r>   -24.8466     0.0000   320.0000 </r>
       <r>   -24.6518     0.0000   320.0000 </r>
       <r>   -24.4570     0.0000   320.0000 </r>
       <r>   -24.2622     0.0000   320.0000 </r>
       <r>   -24.0675     0.0000   320.0000 </r>
       <r>   -23.8727     0.0000   320.0000 </r>
       <r>   -23.6779     0.0000   320.0000 </r>
       <r>   -23.4831     0.0000   320.0000 </r>
       <r>   -23.2884     0.0000   320.0000 </r>
       <r>   -23.0936     0.0000   320.0000 </r>
       <r>   -22.8988     0.0000   320.0000 </r>
       <r>   -22.7040     0.0000   320.0000 </r>
       <r>   -22.5093     0.0000   320.0000 </r>
       <r>   -22.3145     0.0000   320.0000 </r>
       <r>   -22.1197     0.0000   320.0000 </r>
       <r>   -21.9249     0.0000   320.0000 </r>
       <r>   -21.7301     0.0000   320.0000 </r>
       <r>   -21.5354     0.0000   320.0000 </r>
       <r>   -21.3406     0.0000   320.0000 </r>
       <r>   -21.1458     0.0000   320.0000 </r>
       <r>   -20.9510     0.0000   320.0000 </r>
       <r>   -20.7563     0.0000   320.0000 </r>
       <r>   -20.5615     0.0000   320.0000 </r>
       <r>   -20.3667     0.0000   320.0000 </r>
       <r>   -20.1719     0.0000   320.0000 </r>
       <r>   -19.9772     0.0000   320.0000 </r>
       <r>   -19.7824     0.0000   320.0000 </r>
       <r>   -19.5876     0.0000   320.0000 </r>
       <r>   -19.3928     0.0000   320.0000 </r>
       <r>   -19.1981     0.0000   320.0000 </r>
       <r>   -19.0033     0.0000   320.0000 </r>
       <r>   -18.8085     0.0000   320.0000 </r>
       <r>   -18.6137     0.0000   320.0000 </r>
       <r>   -18.4189     0.0000   320.0000 </r>
       <r>   -18.2242     0.0000   320.0000 </r>
       <r>   -18.0294     0.0000   320.0000 </r>
       <r>   -17.8346     0.0000   320.0000 </r>
       <r>   -17.6398     0.0000   320.0000 </r>
       <r>   -17.4451     0.0000   320.0000 </r>
       <r>   -17.2503     0.0000   320.0000 </r>
       <r>   -17.0555     0.0000   320.0000 </r>
       <r>   -16.8607     0.0000   320.0000 </r>
       <r>   -16.6660     0.0000   320.0000 </r>
       <r>   -16.4712     0.0000   320.0000 </r>
       <r>   -16.2764     0.0000   320.0000 </r>
       <r>   -16.0816     0.0000   320.0000 </r>
       <r>   -15.8869     0.0000   320.0000 </r>
       <r>   -15.6921     0.0000   320.0000 </r>
       <r>   -15.4973     0.0000   320.0000 </r>
       <r>   -15.3025     0.0000   320.0000 </r>
       <r>   -15.1077     0.0000   320.0000 </r>
       <r>   -14.9130     0.0000   320.0000 </r>
       <r>   -14.7182     0.0000   320.0000 </r>
       <r>   -14.5234     0.0000   320.0000 </r>
       <r>   -14.3286     0.0000   320.0000 </r>
       <r>   -14.1339     0.0000   320.0000 </r>
       <r>   -13.9391     0.0000   320.0000 </r>
       <r>   -13.7443     0.0000   320.0000 </r>
       <r>   -13.5495     0.0000   320.0000 </r>
       <r>   -13.3548     0.0000   320.0000 </r>
       <r>   -13.1600     0.0000   320.0000 </r>
       <r>   -12.9652     0.0000   320.0000 </r>
       <r>   -12.7704     0.0000   320.0000 </r>
       <r>   -12.5756     0.0000   320.0000 </r>
       <r>   -12.3809     0.0000   320.0000 </r>
       <r>   -12.1861     0.9618   320.1873 </r>
       <r>   -11.9913    13.1520   322.7490 </r>
       <r>   -11.7965    17.4463   326.1472 </r>
       <r>   -11.6018    16.3512   329.3320 </r>
       <r>   -11.4070    22.3449   333.6843 </r>
       <r>   -11.2122    29.9654   339.5208 </r>
       <r>   -11.0174    39.2609   347.1679 </r>
       <r>   -10.8227    24.5111   351.9421 </r>
       <r>   -10.6279     0.2972   352.0000 </r>
       <r>   -10.4331     0.0000   352.0000 </r>
       <r>   -10.2383     0.0000   352.0000 </r>
       <r>   -10.0436     0.0000   352.0000 </r>
       <r>    -9.8488     0.0000   352.0000 </r>
       <r>    -9.6540     0.0001   352.0000 </r>
       <r>    -9.4592    24.6245   356.7963 </r>
       <r>    -9.2644    54.4790   367.4075 </r>
       <r>    -9.0697    70.5582   381.1506 </r>
       <r>    -8.8749    97.5658   400.1542 </r>
       <r>    -8.6801   128.8315   425.2475 </r>
       <r>    -8.4853   147.7744   454.0305 </r>
       <r>    -8.2906   148.2915   482.9142 </r>
       <r>    -8.0958   120.2163   506.3296 </r>
       <r>    -7.9010    77.3328   521.3922 </r>
       <r>    -7.7062    65.2502   534.1014 </r>
       <r>    -7.5115    36.5464   541.2198 </r>
       <r>    -7.3167    14.2738   544.0000 </r>
       <r>    -7.1219     0.0000   544.0000 </r>
       <r>    -6.9271     0.0000   544.0000 </r>
       <r>    -6.7324     0.0000   544.0000 </r>
       <r>    -6.5376     0.0000   544.0000 </r>
       <r>    -6.3428     0.0000   544.0000 </r>
       <r>    -6.1480     0.0000   544.0000 </r>
       <r>    -5.9532     0.0000   544.0000 </r>
       <r>    -5.7585     0.0000   544.0000 </r>
       <r>    -5.5637     0.0000   544.0000 </r>
       <r>    -5.3689     0.0461   544.0090 </r>
       <r>    -5.1741    20.8121   548.0627 </r>
       <r>    -4.9794    40.1502   555.8830 </r>
       <r>    -4.7846    34.8500   562.6710 </r>
       <r>    -4.5898    23.9493   567.3358 </r>
       <r>    -4.3950    40.7891   575.2805 </r>
       <r>    -4.2003    47.4724   584.5270 </r>
       <r>    -4.0055    77.2026   599.5643 </r>
       <r>    -3.8107    63.9451   612.0193 </r>
       <r>    -3.6159    39.7638   619.7644 </r>
       <r>    -3.4211    35.5174   626.6823 </r>
       <r>    -3.2264    35.6907   633.6340 </r>
       <r>    -3.0316    23.9804   638.3048 </r>
       <r>    -2.8368     8.6653   639.9926 </r>
       <r>    -2.6420     0.0378   640.0000 </r>
       <r>    -2.4473     0.0000   640.0000 </r>
       <r>    -2.2525     0.0000   640.0000 </r>
       <r>    -2.0577     0.0276   640.0054 </r>
       <r>    -1.8629     9.0569   641.7694 </r>
       <r>    -1.6682    14.6526   644.6234 </r>
       <r>    -1.4734    17.5615   648.0440 </r>
       <r>    -1.2786    15.6690   651.0959 </r>
       <r>    -1.0838    23.4527   655.6640 </r>
       <r>    -0.8891    23.8390   660.3073 </r>
       <r>    -0.6943    22.4553   664.6810 </r>
       <r>    -0.4995    33.5241   671.2107 </r>
       <r>    -0.3047    33.1185   677.6614 </r>
       <r>    -0.1099    33.0369   684.0963 </r>
       <r>     0.0848    28.6257   689.6719 </r>
       <r>     0.2796    33.0836   696.1158 </r>
       <r>     0.4744    54.1593   706.6647 </r>
       <r>     0.6692    87.1796   723.6453 </r>
       <r>     0.8639    98.8879   742.9064 </r>
       <r>     1.0587   102.5917   762.8888 </r>
       <r>     1.2535    26.2405   767.9998 </r>
       <r>     1.4483     0.0008   768.0000 </r>
       <r>     1.6430     0.0000   768.0000 </r>
       <r>     1.8378     0.0000   768.0000 </r>
       <r>     2.0326     0.0000   768.0000 </r>
       <r>     2.2274     0.0000   768.0000 </r>
       <r>     2.4222     0.0000   768.0000 </r>
       <r>     2.6169     0.0000   768.0000 </r>
       <r>     2.8117     0.0000   768.0000 </r>
       <r>     3.0065     0.0000   768.0000 </r>
       <r>     3.2013     0.0000   768.0000 </r>
       <r>     3.3960     0.0000   768.0000 </r>
       <r>     3.5908     0.0000   768.0000 </r>
       <r>     3.7856     0.0000   768.0000 </r>
      </set>
     </set>
    </array>
   </total>
  </dos>
 </calculation>
 <structure name="finalpos" >
  <crystal>
   <varray name="basis" >
    <v>      13.12862340       0.00000000       0.00000000 </v>
    <v>      -6.56431170      11.36972138       0.00000000 </v>
    <v>       0.00000000       0.00000000      26.82809424 </v>
   </varray>
   <i name="volume">   4004.59716953 </i>
   <varray name="rec_basis" >
    <v>       0.07616945       0.04397645       0.00000000 </v>
    <v>       0.00000000       0.08795290       0.00000000 </v>
    <v>       0.00000000       0.00000000       0.03727436 </v>
   </varray>
  </crystal>
  <varray name="positions" >
   <v>       0.08211675       0.17110987       0.45545485 </v>
   <v>       0.07756983       0.41039922       0.44734460 </v>
   <v>       0.07914729       0.66387263       0.44938174 </v>
   <v>       0.08601897       0.91706584       0.44806332 </v>
   <v>       0.33481302       0.17310254       0.45220334 </v>
   <v>       0.34559426       0.42235247       0.45619655 </v>
   <v>       0.31896308       0.65582837       0.44882131 </v>
   <v>       0.34082347       0.92041709       0.45287514 </v>
   <v>       0.58842497       0.17502213       0.45241540 </v>
   <v>       0.58311541       0.41858705       0.45856180 </v>
   <v>       0.58437436       0.67343312       0.45692941 </v>
   <v>       0.58728992       0.90941840       0.45313491 </v>
   <v>       0.83382890       0.15237688       0.44768662 </v>
   <v>       0.83189604       0.40778437       0.45518727 </v>
   <v>       0.83248584       0.66098042       0.45149782 </v>
   <v>       0.84038594       0.91470615       0.45816596 </v>
   <v>       0.18254297       0.08382782       0.54834312 </v>
   <v>       0.17469894       0.33531548       0.55064021 </v>
   <v>       0.16308528       0.58597472       0.54396829 </v>
   <v>       0.15695305       0.82737844       0.53964262 </v>
   <v>       0.41707419       0.08196605       0.54767999 </v>
   <v>       0.41868602       0.34694240       0.55254626 </v>
   <v>       0.41196247       0.60062132       0.54695848 </v>
   <v>       0.41753064       0.84115372       0.54744166 </v>
   <v>       0.66023536       0.08151124       0.55169508 </v>
   <v>       0.66058436       0.32913622       0.55000154 </v>
   <v>       0.67858568       0.59016323       0.54740426 </v>
   <v>       0.66343590       0.83311707       0.55098183 </v>
   <v>       0.92011395       0.08681949       0.54782049 </v>
   <v>       0.91855950       0.33146600       0.54223424 </v>
   <v>       0.92282345       0.59130629       0.54848267 </v>
   <v>       0.91063272       0.83579503       0.54731921 </v>
   <v>       0.07806421       0.15044108       0.58967806 </v>
   <v>       0.07864773       0.41350229       0.58571636 </v>
   <v>       0.08927708       0.67254237       0.58765759 </v>
   <v>       0.06929444       0.90225062       0.58160416 </v>
   <v>       0.35872785       0.17080357       0.58659999 </v>
   <v>       0.31145452       0.41178707       0.59201000 </v>
   <v>       0.31363508       0.66005168       0.59170350 </v>
   <v>       0.34214373       0.91926695       0.59416288 </v>
   <v>       0.59024305       0.16981262       0.59542789 </v>
   <v>       0.57478609       0.42211131       0.59500612 </v>
   <v>       0.58457136       0.66864330       0.59105177 </v>
   <v>       0.56185980       0.91104815       0.59206194 </v>
   <v>       0.84446966       0.17170574       0.58986628 </v>
   <v>       0.85471858       0.42087422       0.59377752 </v>
   <v>       0.83067026       0.66569911       0.59359198 </v>
   <v>       0.83720797       0.92985902       0.59231125 </v>
   <v>       0.17028959       0.10364190       0.40983628 </v>
   <v>       0.15753167       0.32877599       0.40899762 </v>
   <v>       0.16031263       0.58244786       0.40115213 </v>
   <v>       0.14270313       0.81841371       0.40154456 </v>
   <v>       0.42453788       0.08473596       0.40527760 </v>
   <v>       0.42664466       0.32999935       0.40992408 </v>
   <v>       0.39909333       0.57735995       0.41152071 </v>
   <v>       0.44081182       0.82937039       0.41170427 </v>
   <v>       0.66952679       0.07282790       0.41030142 </v>
   <v>       0.65431225       0.32218447       0.41125056 </v>
   <v>       0.65522784       0.58488882       0.40730189 </v>
   <v>       0.68218148       0.83010142       0.41482742 </v>
   <v>       0.91572093       0.07398735       0.40244921 </v>
   <v>       0.89866152       0.30479309       0.40524422 </v>
   <v>       0.89242440       0.58218830       0.39866773 </v>
   <v>       0.92096287       0.83380740       0.41701183 </v>
   <v>       0.00865894       0.00626652       0.49934942 </v>
   <v>       0.99916395       0.25704587       0.49562066 </v>
   <v>       0.99104321       0.49511787       0.49550737 </v>
   <v>       0.99636112       0.75273367       0.49744179 </v>
   <v>       0.25920520       0.00551360       0.50074410 </v>
   <v>       0.26318851       0.25752602       0.50265418 </v>
   <v>       0.25481607       0.50991704       0.49960896 </v>
   <v>       0.24999538       0.75327114       0.49677435 </v>
   <v>       0.49797892       0.99520213       0.50149438 </v>
   <v>       0.49547323       0.24714828       0.50474421 </v>
   <v>       0.49981256       0.50049338       0.50243767 </v>
   <v>       0.50190475       0.75254902       0.49850929 </v>
   <v>       0.74817951       0.99601234       0.50331654 </v>
   <v>       0.74939485       0.24267230       0.50379181 </v>
   <v>       0.74862184       0.49181815       0.50357702 </v>
   <v>       0.75464522       0.75501368       0.50076600 </v>
  </varray>
  <varray name="velocities" >
   <v>       0.00000000       0.00000000       0.00000000 </v>
   <v>       0.00000000       0.00000000       0.00000000 </v>
   <v>       0.00000000       0.00000000       0.00000000 </v>
   <v>       0.00000000       0.00000000       0.00000000 </v>
   <v>       0.00000000       0.00000000       0.00000000 </v>
   <v>       0.00000000       0.00000000       0.00000000 </v>
   <v>       0.00000000       0.00000000       0.00000000 </v>
   <v>       0.00000000       0.00000000       0.00000000 </v>
   <v>       0.00000000       0.00000000       0.00000000 </v>
   <v>       0.00000000       0.00000000       0.00000000 </v>
   <v>       0.00000000       0.00000000       0.00000000 </v>
   <v>       0.00000000       0.00000000       0.00000000 </v>
   <v>       0.00000000       0.00000000       0.00000000 </v>
   <v>       0.00000000       0.00000000       0.00000000 </v>
   <v>       0.00000000       0.00000000       0.00000000 </v>
   <v>       0.00000000       0.00000000       0.00000000 </v>
   <v>       0.00000000       0.00000000       0.00000000 </v>
   <v>       0.00000000       0.00000000       0.00000000 </v>
   <v>       0.00000000       0.00000000       0.00000000 </v>
   <v>       0.00000000       0.00000000       0.00000000 </v>
   <v>       0.00000000       0.00000000       0.00000000 </v>
   <v>       0.00000000       0.00000000       0.00000000 </v>
   <v>       0.00000000       0.00000000       0.00000000 </v>
   <v>       0.00000000       0.00000000       0.00000000 </v>
   <v>       0.00000000       0.00000000       0.00000000 </v>
   <v>       0.00000000       0.00000000       0.00000000 </v>
   <v>       0.00000000       0.00000000       0.00000000 </v>
   <v>       0.00000000       0.00000000       0.00000000 </v>
   <v>       0.00000000       0.00000000       0.00000000 </v>
   <v>       0.00000000       0.00000000       0.00000000 </v>
   <v>       0.00000000       0.00000000       0.00000000 </v>
   <v>       0.00000000       0.00000000       0.00000000 </v>
   <v>       0.00000000       0.00000000       0.00000000 </v>
   <v>       0.00000000       0.00000000       0.00000000 </v>
   <v>       0.00000000       0.00000000       0.00000000 </v>
   <v>       0.00000000       0.00000000       0.00000000 </v>
   <v>       0.00000000       0.00000000       0.00000000 </v>
   <v>       0.00000000       0.00000000       0.00000000 </v>
   <v>       0.00000000       0.00000000       0.00000000 </v>
   <v>       0.00000000       0.00000000       0.00000000 </v>
   <v>       0.00000000       0.00000000       0.00000000 </v>
   <v>       0.00000000       0.00000000       0.00000000 </v>
   <v>       0.00000000       0.00000000       0.00000000 </v>
   <v>       0.00000000       0.00000000       0.00000000 </v>
   <v>       0.00000000       0.00000000       0.00000000 </v>
   <v>       0.00000000       0.00000000       0.00000000 </v>
   <v>       0.00000000       0.00000000       0.00000000 </v>
   <v>       0.00000000       0.00000000       0.00000000 </v>
   <v>       0.00000000       0.00000000       0.00000000 </v>
   <v>       0.00000000       0.00000000       0.00000000 </v>
   <v>       0.00000000       0.00000000       0.00000000 </v>
   <v>       0.00000000       0.00000000       0.00000000 </v>
   <v>       0.00000000       0.00000000       0.00000000 </v>
   <v>       0.00000000       0.00000000       0.00000000 </v>
   <v>       0.00000000       0.00000000       0.00000000 </v>
   <v>       0.00000000       0.00000000       0.00000000 </v>
   <v>       0.00000000       0.00000000       0.00000000 </v>
   <v>       0.00000000       0.00000000       0.00000000 </v>
   <v>       0.00000000       0.00000000       0.00000000 </v>
   <v>       0.00000000       0.00000000       0.00000000 </v>
   <v>       0.00000000       0.00000000       0.00000000 </v>
   <v>       0.00000000       0.00000000       0.00000000 </v>
   <v>       0.00000000       0.00000000       0.00000000 </v>
   <v>       0.00000000       0.00000000       0.00000000 </v>
   <v>       0.00000000       0.00000000       0.00000000 </v>
   <v>       0.00000000       0.00000000       0.00000000 </v>
   <v>       0.00000000       0.00000000       0.00000000 </v>
   <v>       0.00000000       0.00000000       0.00000000 </v>
   <v>       0.00000000       0.00000000       0.00000000 </v>
   <v>       0.00000000       0.00000000       0.00000000 </v>
   <v>       0.00000000       0.00000000       0.00000000 </v>
   <v>       0.00000000       0.00000000       0.00000000 </v>
   <v>       0.00000000       0.00000000       0.00000000 </v>
   <v>       0.00000000       0.00000000       0.00000000 </v>
   <v>       0.00000000       0.00000000       0.00000000 </v>
   <v>       0.00000000       0.00000000       0.00000000 </v>
   <v>       0.00000000       0.00000000       0.00000000 </v>
   <v>       0.00000000       0.00000000       0.00000000 </v>
   <v>       0.00000000       0.00000000       0.00000000 </v>
   <v>       0.00000000       0.00000000       0.00000000 </v>
  </varray>
 </structure>
</modeling>
