 running on   52 total cores
 distrk:  each k-point on   52 cores,    1 groups
 distr:  one band on   13 cores,    4 groups
 using from now: INCAR     
 vasp.5.4.4.18Apr17-6-g9f103f2a35 (build Oct 31 2019 15:01:46) complex          
  
 POSCAR found type information on POSCAR  Ca Si O 
 POSCAR found :  3 types and     135 ions
 scaLAPACK is switched off
 LDA part: xc-table for Pade appr. of Perdew
 generate k-points for:    3    3    3
 POSCAR, INCAR and KPOINTS ok, starting setup
 FFT: planning ...
 WAVECAR not read
 entering main loop
       N       E                     dE             d eps       ncg     rms          rms(c)
DAV:   1     0.109598860945E+05    0.10960E+05   -0.50017E+05 14560   0.197E+03
DAV:   2     0.358355450524E+03   -0.10602E+05   -0.10169E+05 16240   0.562E+02
DAV:   3    -0.854341398561E+03   -0.12127E+04   -0.12020E+04 16384   0.193E+02
DAV:   4    -0.924026042480E+03   -0.69685E+02   -0.69494E+02 22160   0.368E+01
DAV:   5    -0.928020549576E+03   -0.39945E+01   -0.39925E+01 22656   0.835E+00    0.978E+01
DAV:   6    -0.794005425053E+03    0.13402E+03   -0.48628E+02 17408   0.377E+01    0.425E+01
DAV:   7    -0.794785931306E+03   -0.78051E+00   -0.72935E+01 17544   0.139E+01    0.172E+01
DAV:   8    -0.794424281901E+03    0.36165E+00   -0.11834E+01 19584   0.656E+00    0.731E+00
DAV:   9    -0.794332837466E+03    0.91444E-01   -0.25418E+00 17256   0.304E+00    0.211E+00
DAV:  10    -0.794383566993E+03   -0.50730E-01   -0.67877E-01 21800   0.139E+00    0.139E+00
DAV:  11    -0.794387043157E+03   -0.34762E-02   -0.95618E-02 17736   0.573E-01    0.743E-01
DAV:  12    -0.794386310933E+03    0.73222E-03   -0.35494E-02 18440   0.372E-01    0.153E-01
DAV:  13    -0.794386377593E+03   -0.66660E-04   -0.47195E-03 17512   0.130E-01    0.888E-02
DAV:  14    -0.794386423494E+03   -0.45901E-04   -0.87784E-04 21720   0.448E-02    0.507E-02
DAV:  15    -0.794386423445E+03    0.48880E-07   -0.10367E-04 18296   0.192E-02    0.241E-02
DAV:  16    -0.794386423937E+03   -0.49139E-06   -0.24313E-05 17592   0.104E-02    0.565E-03
DAV:  17    -0.794386423513E+03    0.42369E-06   -0.82913E-06 16048   0.527E-03
   1 F= -.79438642E+03 E0= -.79438642E+03  d E =-.338641E-18
