 running on   48 total cores
 distrk:  each k-point on   48 cores,    1 groups
 distr:  one band on   12 cores,    4 groups
 using from now: INCAR     
 vasp.5.4.4.18Apr17-6-g9f103f2a35 (build Mar 16 2023 09:39:13) complex          
  
 POSCAR found type information on POSCAR  Ca Si O 
 POSCAR found :  3 types and     135 ions
 scaLAPACK is switched off
 LDA part: xc-table for Pade appr. of Perdew
 generate k-points for:    2    2    2
 POSCAR, INCAR and KPOINTS ok, starting setup
 FFT: planning ...
 WAVECAR not read
 entering main loop
       N       E                     dE             d eps       ncg     rms          rms(c)
DAV:   1     0.102645821746E+05    0.10265E+05   -0.49420E+05  8320   0.192E+03
DAV:   2     0.163630573907E+03   -0.10101E+05   -0.97093E+04  9424   0.535E+02
DAV:   3    -0.964063412104E+03   -0.11277E+04   -0.11191E+04  9544   0.180E+02
DAV:   4    -0.102297760236E+04   -0.58914E+02   -0.58692E+02 12056   0.348E+01
DAV:   5    -0.102696606647E+04   -0.39885E+01   -0.39861E+01 13512   0.786E+00    0.854E+01
DAV:   6    -0.900395755316E+03    0.12657E+03   -0.51297E+02 10176   0.368E+01    0.354E+01
DAV:   7    -0.902391504171E+03   -0.19957E+01   -0.65232E+01 10768   0.129E+01    0.160E+01
DAV:   8    -0.901762876985E+03    0.62863E+00   -0.95763E+00 10912   0.579E+00    0.686E+00
DAV:   9    -0.901572441818E+03    0.19044E+00   -0.21046E+00 10104   0.304E+00    0.181E+00
DAV:  10    -0.901626993913E+03   -0.54552E-01   -0.81153E-01 11656   0.161E+00    0.146E+00
DAV:  11    -0.901628225710E+03   -0.12318E-02   -0.12081E-01 10920   0.640E-01    0.755E-01
DAV:  12    -0.901627556855E+03    0.66886E-03   -0.31880E-02 11032   0.336E-01    0.182E-01
DAV:  13    -0.901628097135E+03   -0.54028E-03   -0.51993E-03 11856   0.158E-01    0.102E-01
DAV:  14    -0.901628188049E+03   -0.90914E-04   -0.15059E-03 10992   0.640E-02    0.832E-02
DAV:  15    -0.901628169675E+03    0.18374E-04   -0.20877E-04 10960   0.232E-02    0.514E-02
DAV:  16    -0.901628154105E+03    0.15570E-04   -0.72316E-05  9904   0.201E-02    0.836E-03
DAV:  17    -0.901628154259E+03   -0.15365E-06   -0.30463E-05 12264   0.991E-03    0.694E-03
DAV:  18    -0.901628153827E+03    0.43135E-06   -0.60939E-06  8816   0.394E-03
   1 F= -.90162815E+03 E0= -.90162815E+03  d E =-.258260E-21
