 running on   52 total cores
 distrk:  each k-point on   52 cores,    1 groups
 distr:  one band on   13 cores,    4 groups
 using from now: INCAR     
 vasp.5.4.4.18Apr17-6-g9f103f2a35 (build Oct 31 2019 15:01:46) complex          
  
 POSCAR found type information on POSCAR  Ca Si O 
 POSCAR found :  3 types and     135 ions
 scaLAPACK is switched off
 LDA part: xc-table for Pade appr. of Perdew
 generate k-points for:    2    2    2
 POSCAR, INCAR and KPOINTS ok, starting setup
 FFT: planning ...
 WAVECAR not read
 entering main loop
       N       E                     dE             d eps       ncg     rms          rms(c)
DAV:   1     0.979059234188E+04    0.97906E+04   -0.48375E+05  8320   0.184E+03
DAV:   2     0.144181288512E+03   -0.96464E+04   -0.93160E+04  9728   0.500E+02
DAV:   3    -0.951946792072E+03   -0.10961E+04   -0.10847E+04 10360   0.169E+02
DAV:   4    -0.100606810948E+04   -0.54121E+02   -0.53872E+02 11584   0.337E+01
DAV:   5    -0.101132600707E+04   -0.52579E+01   -0.52544E+01 14248   0.793E+00    0.870E+01
DAV:   6    -0.862905799496E+03    0.14842E+03   -0.69232E+02  9912   0.423E+01    0.392E+01
DAV:   7    -0.860996891027E+03    0.19089E+01   -0.86468E+01 10624   0.169E+01    0.194E+01
DAV:   8    -0.859552799231E+03    0.14441E+01   -0.14212E+01 11016   0.738E+00    0.101E+01
DAV:   9    -0.859158887631E+03    0.39391E+00   -0.33488E+00 10048   0.383E+00    0.339E+00
DAV:  10    -0.859209537301E+03   -0.50650E-01   -0.12671E+00 10840   0.208E+00    0.169E+00
DAV:  11    -0.859224872145E+03   -0.15335E-01   -0.24789E-01 10208   0.890E-01    0.101E+00
DAV:  12    -0.859237186173E+03   -0.12314E-01   -0.68103E-02 10816   0.469E-01    0.552E-01
DAV:  13    -0.859244020948E+03   -0.68348E-02   -0.19702E-02 10312   0.286E-01    0.201E-01
DAV:  14    -0.859245429426E+03   -0.14085E-02   -0.56960E-03 12256   0.135E-01    0.104E-01
DAV:  15    -0.859245880474E+03   -0.45105E-03   -0.13395E-03 10504   0.625E-02    0.661E-02
DAV:  16    -0.859246062001E+03   -0.18153E-03   -0.30794E-04  9984   0.347E-02    0.337E-02
DAV:  17    -0.859246112794E+03   -0.50793E-04   -0.13817E-04 11104   0.216E-02    0.178E-02
DAV:  18    -0.859246124678E+03   -0.11884E-04   -0.35114E-05 10320   0.103E-02    0.988E-03
DAV:  19    -0.859246127870E+03   -0.31923E-05   -0.86133E-06  8984   0.543E-03    0.514E-03
DAV:  20    -0.859246128620E+03   -0.74964E-06   -0.42120E-06  7688   0.407E-03
   1 F= -.85924613E+03 E0= -.85924106E+03  d E =-.101330E-01
