<?xml version="1.0" encoding="ISO-8859-1"?>
<modeling>
 <generator>
  <i name="program" type="string">vasp </i>
  <i name="version" type="string">5.4.4.18Apr17-6-g9f103f2a35  </i>
  <i name="subversion" type="string">(build Mar 16 2023 09:39:13) complex            parallel </i>
  <i name="platform" type="string">LinuxIFC </i>
  <i name="date" type="string">2024 04 30 </i>
  <i name="time" type="string">19:21:59 </i>
 </generator>
 <incar>
  <i type="int" name="ISTART">     0</i>
  <i type="string" name="PREC">a</i>
  <i type="logical" name="ADDGRID"> T  </i>
  <i type="int" name="IBRION">    -1</i>
  <i name="EDIFF">      0.00000100</i>
  <i name="EDIFFG">     -0.01000000</i>
  <i type="int" name="NSW">     1</i>
  <i type="int" name="ISIF">     2</i>
  <i type="int" name="ISYM">     0</i>
  <i name="ENCUT">    600.00000000</i>
  <i name="POTIM">      1.00000000</i>
  <i type="string" name="LREAL">  A</i>
  <i type="int" name="ISMEAR">     0</i>
  <i name="SIGMA">      0.05000000</i>
  <i name="KSPACING">      0.30000000</i>
  <i type="logical" name="KGAMMA"> T  </i>
  <i type="logical" name="LWAVE"> F  </i>
  <i type="logical" name="LCHARG"> F  </i>
  <i type="logical" name="LSCALAPACK"> F  </i>
  <v type="int" name="KPOINT_BSE">    -1     0     0     0</v>
 </incar>
 <structure name="primitive_cell" >
  <crystal>
   <varray name="basis" >
    <v>      12.09378762       0.00000000       0.00000000 </v>
    <v>       0.00000000      12.09378762       0.00000000 </v>
    <v>       0.00000000       0.00000000      12.09378762 </v>
   </varray>
   <i name="volume">   1768.83373704 </i>
   <varray name="rec_basis" >
    <v>       0.08268708       0.00000000       0.00000000 </v>
    <v>       0.00000000       0.08268708       0.00000000 </v>
    <v>       0.00000000       0.00000000       0.08268708 </v>
   </varray>
  </crystal>
  <varray name="positions" >
   <v>      -0.45852381       0.43554260       0.23931782 </v>
   <v>      -0.35246997       0.45660753       0.09888631 </v>
   <v>       0.45076646       0.48390016       0.39092022 </v>
   <v>       0.42728682       0.27533336       0.23193641 </v>
   <v>      -0.25828562       0.43135840       0.26541810 </v>
   <v>       0.38791661      -0.41879963       0.22577022 </v>
   <v>      -0.24038943      -0.48416177       0.16902336 </v>
   <v>      -0.41788589       0.25871174       0.40862114 </v>
   <v>      -0.34249244       0.22463395       0.14656863 </v>
   <v>       0.33279095      -0.45707995       0.35413301 </v>
   <v>       0.44361707      -0.47712868       0.01153520 </v>
   <v>       0.46087110       0.22532041       0.37514973 </v>
   <v>       0.34248054      -0.45117982       0.09835287 </v>
   <v>      -0.42603394       0.40004334      -0.49533527 </v>
   <v>      -0.39436098      -0.41440696       0.01372620 </v>
   <v>       0.28815726       0.43578773       0.10952564 </v>
   <v>      -0.43720502      -0.30586922       0.07856938 </v>
   <v>      -0.23276772       0.23415044       0.29039458 </v>
   <v>      -0.34570558       0.27417892       0.00338303 </v>
   <v>      -0.22190547      -0.36078596       0.22693732 </v>
   <v>       0.41227410       0.28171582       0.49850437 </v>
   <v>      -0.15221137       0.48701665       0.34957607 </v>
   <v>      -0.43519380       0.32152160      -0.07033364 </v>
   <v>      -0.22383859       0.46602624       0.47107083 </v>
   <v>      -0.40861395      -0.38026185      -0.48764888 </v>
   <v>       0.26431509       0.25443149       0.19305559 </v>
   <v>      -0.25240344      -0.39028973       0.03897616 </v>
   <v>      -0.38664408      -0.25504806       0.36979334 </v>
   <v>       0.21255003       0.46839493       0.33283280 </v>
   <v>      -0.37397229       0.09355173       0.15700997 </v>
   <v>       0.31333195      -0.32998745       0.39677979 </v>
   <v>      -0.21141445       0.31231782      -0.00550706 </v>
   <v>       0.45728028       0.10010887       0.38746020 </v>
   <v>      -0.36027589       0.06981469       0.28601266 </v>
   <v>      -0.10230720       0.49280988       0.11407112 </v>
   <v>      -0.37870883      -0.42968061      -0.11096335 </v>
   <v>      -0.48138564       0.08993468       0.07108692 </v>
   <v>      -0.27618974      -0.39945481      -0.45936022 </v>
   <v>       0.37194501      -0.22394693       0.13759799 </v>
   <v>       0.25587366      -0.35350301       0.06421307 </v>
   <v>       0.36048645       0.29928848      -0.08937551 </v>
   <v>      -0.07192365       0.35509525       0.33776458 </v>
   <v>       0.31554102       0.46719552      -0.41087022 </v>
   <v>       0.33096673       0.32744874      -0.41491040 </v>
   <v>       0.22230063       0.18403488       0.36078868 </v>
   <v>      -0.26650934      -0.21990997       0.08232942 </v>
   <v>       0.43530552      -0.31606435      -0.43147034 </v>
   <v>      -0.30249551       0.16090656      -0.05275726 </v>
   <v>      -0.18993753       0.18966197       0.46883653 </v>
   <v>       0.29415127       0.14243921       0.03166835 </v>
   <v>      -0.05321694      -0.43066512       0.35645922 </v>
   <v>      -0.35568626      -0.13255936       0.24441567 </v>
   <v>       0.10378614      -0.49133215       0.17889692 </v>
   <v>       0.41546211       0.07100918       0.00423632 </v>
   <v>      -0.38850154       0.05588582       0.48265269 </v>
   <v>       0.17059446       0.28990313      -0.01068250 </v>
   <v>      -0.34893953       0.45631553      -0.30053729 </v>
   <v>      -0.07705891       0.15263232       0.23735947 </v>
   <v>       0.30815882       0.02262444       0.30358167 </v>
   <v>      -0.26235410       0.00593750       0.13723043 </v>
   <v>      -0.16606080      -0.30365495      -0.47527801 </v>
   <v>       0.19959136       0.31108470      -0.43978422 </v>
   <v>       0.28981768      -0.14970704       0.26838480 </v>
   <v>      -0.29359310       0.22468566      -0.35399766 </v>
   <v>      -0.46038086      -0.14628852       0.49327573 </v>
   <v>       0.30441732      -0.35624361      -0.13462634 </v>
   <v>       0.37830036      -0.20386782      -0.05087605 </v>
   <v>       0.06611826       0.31741297       0.20572126 </v>
   <v>       0.19816453      -0.23484605       0.36636463 </v>
   <v>       0.00010821       0.25431235       0.29506247 </v>
   <v>      -0.16548886       0.17107119      -0.06709996 </v>
   <v>      -0.07829207      -0.24895823       0.31412687 </v>
   <v>       0.10591701       0.47847185      -0.00988477 </v>
   <v>      -0.37659951      -0.41992997      -0.24683739 </v>
   <v>      -0.01357463       0.32048913       0.00711388 </v>
   <v>       0.34277685      -0.01822287       0.07658997 </v>
   <v>       0.14955701       0.17937671       0.46892136 </v>
   <v>      -0.26727858      -0.36938368      -0.31458505 </v>
   <v>      -0.43509928       0.17126892      -0.21339646 </v>
   <v>      -0.48923057      -0.35646449      -0.27981490 </v>
   <v>      -0.16254340       0.19674684      -0.39844609 </v>
   <v>      -0.07860822      -0.32778268      -0.03728065 </v>
   <v>       0.36312084       0.29169887      -0.28690088 </v>
   <v>      -0.23204053       0.36668997      -0.23409365 </v>
   <v>      -0.26353482      -0.05541019       0.29467989 </v>
   <v>       0.06666019       0.40869783       0.48303562 </v>
   <v>       0.16439740       0.05180036       0.18968097 </v>
   <v>       0.47057116       0.02247577      -0.10385493 </v>
   <v>      -0.06700206       0.13845401       0.00876924 </v>
   <v>       0.21403831      -0.44717280      -0.33954717 </v>
   <v>       0.12096052      -0.27151302       0.04292362 </v>
   <v>       0.17312654       0.14944256      -0.05026644 </v>
   <v>      -0.25962740      -0.20924947      -0.13214160 </v>
   <v>       0.01971297      -0.30407231       0.13365406 </v>
   <v>      -0.45807669      -0.15918347      -0.15122115 </v>
   <v>      -0.25111887      -0.05788986       0.42266161 </v>
   <v>       0.05057112       0.23336631       0.45015327 </v>
   <v>       0.19134332      -0.49022124      -0.20739723 </v>
   <v>       0.22664441      -0.13648393       0.45249219 </v>
   <v>       0.16879480      -0.15201099       0.07737485 </v>
   <v>       0.07240236      -0.27368036       0.41679724 </v>
   <v>       0.25686823      -0.30784690      -0.32407777 </v>
   <v>       0.21462000      -0.02356576       0.08627877 </v>
   <v>       0.39056344       0.01816148      -0.37712266 </v>
   <v>      -0.13773458       0.20081196      -0.19432357 </v>
   <v>      -0.10673482      -0.15563435      -0.00630862 </v>
   <v>      -0.07925747       0.02796797       0.44360943 </v>
   <v>       0.08865827      -0.48126408      -0.38559713 </v>
   <v>       0.13135001      -0.27984120      -0.08354098 </v>
   <v>      -0.05548452       0.26508693      -0.34907888 </v>
   <v>       0.07532537      -0.49231230      -0.13427289 </v>
   <v>      -0.11504324      -0.06435642       0.28967567 </v>
   <v>       0.20202093       0.15808951      -0.18397377 </v>
   <v>      -0.15465602       0.07302918      -0.36944671 </v>
   <v>      -0.00002444       0.39897373      -0.16816282 </v>
   <v>      -0.21635854      -0.18059610      -0.34384556 </v>
   <v>      -0.38177388      -0.00681592      -0.32989430 </v>
   <v>       0.48889914      -0.06805373      -0.38661192 </v>
   <v>       0.45492862      -0.15753038      -0.29544638 </v>
   <v>      -0.02803580       0.00047043       0.10626409 </v>
   <v>       0.00169436      -0.31945265      -0.40130194 </v>
   <v>       0.13724209       0.02099399      -0.02109619 </v>
   <v>       0.12059988       0.05610115      -0.46471369 </v>
   <v>      -0.16188108      -0.12408995      -0.12729990 </v>
   <v>      -0.16054302       0.00284172      -0.15236830 </v>
   <v>       0.00468279      -0.39371946      -0.19708876 </v>
   <v>       0.12471955       0.28837729      -0.25306780 </v>
   <v>       0.31609786      -0.05289227      -0.19623093 </v>
   <v>       0.14458882      -0.09025483      -0.43696598 </v>
   <v>      -0.08955535       0.07606938      -0.24898270 </v>
   <v>      -0.07375526      -0.18109234      -0.22335543 </v>
   <v>       0.00300240      -0.11638388      -0.44430562 </v>
   <v>       0.20605808      -0.08642645      -0.31633812 </v>
   <v>       0.06726531      -0.11548323      -0.14719823 </v>
   <v>       0.04160419       0.06500358      -0.21396570 </v>
  </varray>
 </structure>
 <varray name="primitive_index" >
  <v type="int" >        1 </v>
  <v type="int" >      122 </v>
  <v type="int" >      105 </v>
  <v type="int" >       69 </v>
  <v type="int" >       58 </v>
  <v type="int" >       75 </v>
  <v type="int" >       31 </v>
  <v type="int" >      133 </v>
  <v type="int" >      113 </v>
  <v type="int" >       38 </v>
  <v type="int" >      116 </v>
  <v type="int" >       37 </v>
  <v type="int" >       44 </v>
  <v type="int" >       16 </v>
  <v type="int" >       33 </v>
  <v type="int" >       88 </v>
  <v type="int" >      134 </v>
  <v type="int" >       25 </v>
  <v type="int" >       29 </v>
  <v type="int" >       74 </v>
  <v type="int" >      110 </v>
  <v type="int" >       36 </v>
  <v type="int" >       89 </v>
  <v type="int" >       90 </v>
  <v type="int" >      100 </v>
  <v type="int" >       24 </v>
  <v type="int" >      104 </v>
  <v type="int" >       11 </v>
  <v type="int" >       79 </v>
  <v type="int" >       43 </v>
  <v type="int" >      126 </v>
  <v type="int" >       93 </v>
  <v type="int" >       66 </v>
  <v type="int" >       98 </v>
  <v type="int" >      120 </v>
  <v type="int" >       83 </v>
  <v type="int" >       78 </v>
  <v type="int" >       53 </v>
  <v type="int" >        4 </v>
  <v type="int" >       80 </v>
  <v type="int" >       14 </v>
  <v type="int" >       59 </v>
  <v type="int" >      101 </v>
  <v type="int" >       47 </v>
  <v type="int" >       94 </v>
  <v type="int" >       20 </v>
  <v type="int" >        5 </v>
  <v type="int" >      103 </v>
  <v type="int" >      135 </v>
  <v type="int" >      117 </v>
  <v type="int" >       85 </v>
  <v type="int" >      111 </v>
  <v type="int" >        2 </v>
  <v type="int" >       41 </v>
  <v type="int" >       18 </v>
  <v type="int" >      102 </v>
  <v type="int" >      125 </v>
  <v type="int" >      128 </v>
  <v type="int" >       13 </v>
  <v type="int" >       64 </v>
  <v type="int" >       87 </v>
  <v type="int" >      130 </v>
  <v type="int" >       60 </v>
  <v type="int" >       92 </v>
  <v type="int" >      124 </v>
  <v type="int" >       26 </v>
  <v type="int" >       97 </v>
  <v type="int" >       61 </v>
  <v type="int" >       46 </v>
  <v type="int" >       48 </v>
  <v type="int" >       49 </v>
  <v type="int" >       10 </v>
  <v type="int" >       99 </v>
  <v type="int" >       51 </v>
  <v type="int" >       22 </v>
  <v type="int" >      131 </v>
  <v type="int" >       40 </v>
  <v type="int" >      119 </v>
  <v type="int" >       17 </v>
  <v type="int" >      121 </v>
  <v type="int" >       45 </v>
  <v type="int" >       19 </v>
  <v type="int" >       81 </v>
  <v type="int" >       21 </v>
  <v type="int" >       42 </v>
  <v type="int" >        3 </v>
  <v type="int" >      127 </v>
  <v type="int" >       76 </v>
  <v type="int" >       71 </v>
  <v type="int" >       50 </v>
  <v type="int" >       52 </v>
  <v type="int" >       39 </v>
  <v type="int" >      114 </v>
  <v type="int" >      109 </v>
  <v type="int" >        8 </v>
  <v type="int" >       65 </v>
  <v type="int" >      115 </v>
  <v type="int" >       56 </v>
  <v type="int" >      108 </v>
  <v type="int" >       72 </v>
  <v type="int" >      132 </v>
  <v type="int" >       96 </v>
  <v type="int" >       35 </v>
  <v type="int" >       82 </v>
  <v type="int" >       62 </v>
  <v type="int" >       68 </v>
  <v type="int" >       15 </v>
  <v type="int" >       91 </v>
  <v type="int" >       63 </v>
  <v type="int" >      106 </v>
  <v type="int" >       30 </v>
  <v type="int" >      112 </v>
  <v type="int" >      129 </v>
  <v type="int" >      118 </v>
  <v type="int" >       86 </v>
  <v type="int" >       23 </v>
  <v type="int" >      123 </v>
  <v type="int" >       54 </v>
  <v type="int" >      107 </v>
  <v type="int" >       12 </v>
  <v type="int" >       27 </v>
  <v type="int" >       84 </v>
  <v type="int" >       57 </v>
  <v type="int" >       34 </v>
  <v type="int" >       70 </v>
  <v type="int" >       73 </v>
  <v type="int" >        6 </v>
  <v type="int" >        7 </v>
  <v type="int" >       32 </v>
  <v type="int" >       28 </v>
  <v type="int" >       55 </v>
  <v type="int" >       67 </v>
  <v type="int" >       77 </v>
  <v type="int" >        9 </v>
  <v type="int" >       95 </v>
 </varray>
 <kpoints>
  <generation param="Gamma">
   <v type="int" name="divisions">       2        2        2 </v>
   <v name="usershift">      0.00000000       0.00000000       0.00000000 </v>
   <v name="genvec1">      0.50000000       0.00000000       0.00000000 </v>
   <v name="genvec2">      0.00000000       0.50000000       0.00000000 </v>
   <v name="genvec3">      0.00000000       0.00000000       0.50000000 </v>
   <v name="shift">      0.00000000       0.00000000       0.00000000 </v>
  </generation>
  <varray name="kpointlist" >
   <v>       0.00000000       0.00000000       0.00000000 </v>
   <v>       0.50000000       0.00000000       0.00000000 </v>
   <v>       0.00000000       0.50000000       0.00000000 </v>
   <v>       0.50000000       0.50000000       0.00000000 </v>
   <v>       0.00000000       0.00000000       0.50000000 </v>
   <v>       0.50000000       0.00000000       0.50000000 </v>
   <v>       0.00000000       0.50000000       0.50000000 </v>
   <v>       0.50000000       0.50000000       0.50000000 </v>
  </varray>
  <varray name="weights" >
   <v>       0.12500000 </v>
   <v>       0.12500000 </v>
   <v>       0.12500000 </v>
   <v>       0.12500000 </v>
   <v>       0.12500000 </v>
   <v>       0.12500000 </v>
   <v>       0.12500000 </v>
   <v>       0.12500000 </v>
  </varray>
 </kpoints>
 <parameters>
  <separator name="general" >
   <i type="string" name="SYSTEM">unknown system</i>
   <i type="logical" name="LCOMPAT"> F  </i>
  </separator>
  <separator name="electronic" >
   <i type="string" name="PREC">a</i>
   <i name="ENMAX">    600.00000000</i>
   <i name="ENAUG">    605.39200000</i>
   <i name="EDIFF">      0.00000100</i>
   <i type="int" name="IALGO">    38</i>
   <i type="int" name="IWAVPR">    10</i>
   <i type="int" name="NBANDS">   520</i>
   <i name="NELECT">    864.00000000</i>
   <i type="int" name="TURBO">     0</i>
   <i type="int" name="IRESTART">     0</i>
   <i type="int" name="NREBOOT">     0</i>
   <i type="int" name="NMIN">     0</i>
   <i name="EREF">      0.00000000</i>
   <separator name="electronic smearing" >
    <i type="int" name="ISMEAR">     0</i>
    <i name="SIGMA">      0.05000000</i>
    <i name="KSPACING">      0.30000000</i>
    <i type="logical" name="KGAMMA"> T  </i>
   </separator>
   <separator name="electronic projectors" >
    <i type="logical" name="LREAL"> T  </i>
    <v name="ROPT">     -0.00025000     -0.00025000     -0.00025000</v>
    <i type="int" name="LMAXPAW">  -100</i>
    <i type="int" name="LMAXMIX">     2</i>
    <i type="logical" name="NLSPLINE"> F  </i>
   </separator>
   <separator name="electronic startup" >
    <i type="int" name="ISTART">     0</i>
    <i type="int" name="ICHARG">     2</i>
    <i type="int" name="INIWAV">     1</i>
   </separator>
   <separator name="electronic spin" >
    <i type="int" name="ISPIN">     1</i>
    <i type="logical" name="LNONCOLLINEAR"> F  </i>
    <v name="MAGMOM">      1.00000000      1.00000000      1.00000000      1.00000000      1.00000000      1.00000000      1.00000000      1.00000000      1.00000000      1.00000000      1.00000000      1.00000000      1.00000000      1.00000000      1.00000000      1.00000000      1.00000000      1.00000000      1.00000000      1.00000000
      1.00000000      1.00000000      1.00000000      1.00000000      1.00000000      1.00000000      1.00000000      1.00000000      1.00000000      1.00000000      1.00000000      1.00000000      1.00000000      1.00000000      1.00000000      1.00000000      1.00000000      1.00000000      1.00000000      1.00000000
      1.00000000      1.00000000      1.00000000      1.00000000      1.00000000      1.00000000      1.00000000      1.00000000      1.00000000      1.00000000      1.00000000      1.00000000      1.00000000      1.00000000      1.00000000      1.00000000      1.00000000      1.00000000      1.00000000      1.00000000
      1.00000000      1.00000000      1.00000000      1.00000000      1.00000000      1.00000000      1.00000000      1.00000000      1.00000000      1.00000000      1.00000000      1.00000000      1.00000000      1.00000000      1.00000000      1.00000000      1.00000000      1.00000000      1.00000000      1.00000000
      1.00000000      1.00000000      1.00000000      1.00000000      1.00000000      1.00000000      1.00000000      1.00000000      1.00000000      1.00000000      1.00000000      1.00000000      1.00000000      1.00000000      1.00000000      1.00000000      1.00000000      1.00000000      1.00000000      1.00000000
      1.00000000      1.00000000      1.00000000      1.00000000      1.00000000      1.00000000      1.00000000      1.00000000      1.00000000      1.00000000      1.00000000      1.00000000      1.00000000      1.00000000      1.00000000      1.00000000      1.00000000      1.00000000      1.00000000      1.00000000
      1.00000000      1.00000000      1.00000000      1.00000000      1.00000000      1.00000000      1.00000000      1.00000000      1.00000000      1.00000000      1.00000000      1.00000000      1.00000000      1.00000000      1.00000000</v>
    <i name="NUPDOWN">     -1.00000000</i>
    <i type="logical" name="LSORBIT"> F  </i>
    <v name="SAXIS">      0.00000000      0.00000000      1.00000000</v>
    <i type="logical" name="LSPIRAL"> F  </i>
    <v name="QSPIRAL">      0.00000000      0.00000000      0.00000000</v>
    <i type="logical" name="LZEROZ"> F  </i>
   </separator>
   <separator name="electronic exchange-correlation" >
    <i type="logical" name="LASPH"> F  </i>
    <i type="logical" name="LMETAGGA"> F  </i>
   </separator>
   <separator name="electronic convergence" >
    <i type="int" name="NELM">    60</i>
    <i type="int" name="NELMDL">    -5</i>
    <i type="int" name="NELMIN">     2</i>
    <i name="ENINI">    600.00000000</i>
    <separator name="electronic convergence detail" >
     <i type="logical" name="LDIAG"> T  </i>
     <i type="logical" name="LSUBROT"> F  </i>
     <i name="WEIMIN">      0.00000000</i>
     <i name="EBREAK">      0.00000000</i>
     <i name="DEPER">      0.30000000</i>
     <i type="int" name="NRMM">     4</i>
     <i name="TIME">      0.40000000</i>
    </separator>
   </separator>
   <separator name="electronic mixer" >
    <i name="AMIX">      0.40000000</i>
    <i name="BMIX">      1.00000000</i>
    <i name="AMIN">      0.10000000</i>
    <i name="AMIX_MAG">      1.60000000</i>
    <i name="BMIX_MAG">      1.00000000</i>
    <separator name="electronic mixer details" >
     <i type="int" name="IMIX">     4</i>
     <i type="logical" name="MIXFIRST"> F  </i>
     <i type="int" name="MAXMIX">   -45</i>
     <i name="WC">    100.00000000</i>
     <i type="int" name="INIMIX">     1</i>
     <i type="int" name="MIXPRE">     1</i>
     <i type="int" name="MREMOVE">     5</i>
    </separator>
   </separator>
   <separator name="electronic dipolcorrection" >
    <i type="logical" name="LDIPOL"> F  </i>
    <i type="logical" name="LMONO"> F  </i>
    <i type="int" name="IDIPOL">     0</i>
    <i name="EPSILON">      1.00000000</i>
    <v name="DIPOL">   -100.00000000   -100.00000000   -100.00000000</v>
    <i name="EFIELD">      0.00000000</i>
   </separator>
  </separator>
  <separator name="grids" >
   <i type="int" name="NGX">    98</i>
   <i type="int" name="NGY">    98</i>
   <i type="int" name="NGZ">    98</i>
   <i type="int" name="NGXF">   196</i>
   <i type="int" name="NGYF">   196</i>
   <i type="int" name="NGZF">   196</i>
   <i type="logical" name="ADDGRID"> T  </i>
  </separator>
  <separator name="ionic" >
   <i type="int" name="NSW">     1</i>
   <i type="int" name="IBRION">    -1</i>
   <i type="int" name="MDALGO">     0</i>
   <i type="int" name="ISIF">     2</i>
   <i name="PSTRESS">      0.00000000</i>
   <i name="EDIFFG">     -0.01000000</i>
   <i type="int" name="NFREE">     0</i>
   <i name="POTIM">      1.00000000</i>
   <i name="SMASS">     -3.00000000</i>
   <i name="SCALEE">      1.00000000</i>
  </separator>
  <separator name="ionic md" >
   <i name="TEBEG">      0.00010000</i>
   <i name="TEEND">      0.00010000</i>
   <i type="int" name="NBLOCK">     1</i>
   <i type="int" name="KBLOCK">     1</i>
   <i type="int" name="NPACO">   256</i>
   <i name="APACO">     16.00000000</i>
  </separator>
  <separator name="symmetry" >
   <i type="int" name="ISYM">     0</i>
   <i name="SYMPREC">      0.00001000</i>
  </separator>
  <separator name="dos" >
   <i type="int" name="LORBIT">     0</i>
   <v name="RWIGS">     -1.00000000     -1.00000000     -1.00000000</v>
   <i type="int" name="NEDOS">   301</i>
   <i name="EMIN">     10.00000000</i>
   <i name="EMAX">    -10.00000000</i>
   <i name="EFERMI">      0.00000000</i>
  </separator>
  <separator name="writing" >
   <i type="int" name="NWRITE">     2</i>
   <i type="logical" name="LWAVE"> F  </i>
   <i type="logical" name="LDOWNSAMPLE"> F  </i>
   <i type="logical" name="LCHARG"> F  </i>
   <i type="logical" name="LPARD"> F  </i>
   <i type="logical" name="LVTOT"> F  </i>
   <i type="logical" name="LVHAR"> F  </i>
   <i type="logical" name="LELF"> F  </i>
   <i type="logical" name="LOPTICS"> F  </i>
   <v name="STM">      0.00000000      0.00000000      0.00000000      0.00000000      0.00000000      0.00000000      0.00000000</v>
  </separator>
  <separator name="performance" >
   <i type="int" name="NPAR">     4</i>
   <i type="int" name="NSIM">     4</i>
   <i type="int" name="NBLK">    -1</i>
   <i type="logical" name="LPLANE"> T  </i>
   <i type="logical" name="LSCALAPACK"> F  </i>
   <i type="logical" name="LSCAAWARE"> F  </i>
   <i type="logical" name="LSCALU"> F  </i>
   <i type="logical" name="LASYNC"> F  </i>
   <i type="logical" name="LORBITALREAL"> F  </i>
  </separator>
  <separator name="miscellaneous" >
   <i type="int" name="IDIOT">     3</i>
   <i type="int" name="ISPECIAL">     0</i>
   <i type="logical" name="LMUSIC"> F  </i>
   <v name="POMASS">     40.07800000     28.08500000     16.00000000</v>
   <v name="DARWINR">      0.00000000      0.00000000      0.00000000</v>
   <v name="DARWINV">      1.00000000      1.00000000      1.00000000</v>
   <i type="logical" name="LCORR"> T  </i>
  </separator>
  <i type="logical" name="GGA_COMPAT"> T  </i>
  <i type="logical" name="LBERRY"> F  </i>
  <i type="int" name="ICORELEVEL">     0</i>
  <i type="logical" name="LDAU"> F  </i>
  <i type="int" name="I_CONSTRAINED_M">     0</i>
  <separator name="electronic exchange-correlation" >
   <i type="string" name="GGA">--</i>
   <i type="int" name="VOSKOWN">     0</i>
   <i type="logical" name="LHFCALC"> F  </i>
   <i type="string" name="PRECFOCK"></i>
   <i type="logical" name="LSYMGRAD"> F  </i>
   <i type="logical" name="LHFONE"> F  </i>
   <i type="logical" name="LRHFCALC"> F  </i>
   <i type="logical" name="LTHOMAS"> F  </i>
   <i type="logical" name="LMODELHF"> F  </i>
   <i name="ENCUT4O">     -1.00000000</i>
   <i type="int" name="EXXOEP">     0</i>
   <i type="int" name="FOURORBIT">     0</i>
   <i name="AEXX">      0.00000000</i>
   <i name="HFALPHA">      0.00000000</i>
   <i name="MCALPHA">      0.00000000</i>
   <i name="ALDAX">      1.00000000</i>
   <i name="AGGAX">      1.00000000</i>
   <i name="ALDAC">      1.00000000</i>
   <i name="AGGAC">      1.00000000</i>
   <i type="int" name="NKREDX">     1</i>
   <i type="int" name="NKREDY">     1</i>
   <i type="int" name="NKREDZ">     1</i>
   <i type="logical" name="SHIFTRED"> F  </i>
   <i type="logical" name="ODDONLY"> F  </i>
   <i type="logical" name="EVENONLY"> F  </i>
   <i type="int" name="LMAXFOCK">     0</i>
   <i type="int" name="NMAXFOCKAE">     0</i>
   <i type="logical" name="LFOCKAEDFT"> F  </i>
   <i name="HFSCREEN">      0.00000000</i>
   <i name="HFSCREENC">      0.00000000</i>
   <i type="int" name="NBANDSGWLOW">     0</i>
  </separator>
  <separator name="vdW DFT" >
   <i type="logical" name="LUSE_VDW"> F  </i>
   <i name="Zab_VDW">     -0.84910000</i>
   <i name="PARAM1">      0.12340000</i>
   <i name="PARAM2">      1.00000000</i>
   <i name="PARAM3">      0.00000000</i>
  </separator>
  <separator name="model GW" >
   <i type="int" name="MODEL_GW">     0</i>
   <i name="MODEL_EPS0">      7.86148328</i>
   <i name="MODEL_ALPHA">      1.00000000</i>
  </separator>
  <separator name="linear response parameters" >
   <i type="logical" name="LEPSILON"> F  </i>
   <i type="logical" name="LRPA"> F  </i>
   <i type="logical" name="LNABLA"> F  </i>
   <i type="logical" name="LVEL"> F  </i>
   <i type="int" name="KINTER">     0</i>
   <i name="CSHIFT">      0.10000000</i>
   <i name="OMEGAMAX">     -1.00000000</i>
   <i name="DEG_THRESHOLD">      0.00200000</i>
   <i name="RTIME">     -0.10000000</i>
   <i name="WPLASMAI">      0.00000000</i>
   <v name="DFIELD">      0.00000000      0.00000000      0.00000000</v>
   <v name="WPLASMA">      0.00000000      0.00000000      0.00000000      0.00000000      0.00000000      0.00000000      0.00000000      0.00000000      0.00000000</v>
  </separator>
  <separator name="orbital magnetization" >
   <i type="logical" name="NUCIND"> F  </i>
   <v name="MAGPOS">      0.00000000      0.00000000      0.00000000</v>
   <i type="logical" name="LNICSALL"> T  </i>
   <i type="logical" name="ORBITALMAG"> F  </i>
   <i type="logical" name="LMAGBLOCH"> F  </i>
   <i type="logical" name="LCHIMAG"> F  </i>
   <i type="logical" name="LGAUGE"> T  </i>
   <i type="int" name="MAGATOM">     0</i>
   <v name="MAGDIPOL">      0.00000000      0.00000000      0.00000000</v>
   <v name="AVECCONST">      0.00000000      0.00000000      0.00000000</v>
  </separator>
  <separator name="response functions" >
   <i type="logical" name="LADDER"> F  </i>
   <i type="logical" name="LRPAFORCE"> F  </i>
   <i type="logical" name="LFXC"> F  </i>
   <i type="logical" name="LHARTREE"> T  </i>
   <i type="int" name="IBSE">     0</i>
   <v type="int" name="KPOINT">    -1     0     0     0</v>
   <i type="logical" name="LTCTE"> F  </i>
   <i type="logical" name="LTETE"> F  </i>
   <i type="logical" name="LTRIPLET"> F  </i>
   <i type="logical" name="LFXCEPS"> F  </i>
   <i type="logical" name="LFXHEG"> F  </i>
   <i type="int" name="NATURALO">     2</i>
   <i type="logical" name="L2ORDER"> F  </i>
   <i type="logical" name="LMP2LT"> F  </i>
   <i type="logical" name="LUSEW"> F  </i>
   <i name="ENCUTGW">     -2.00000000</i>
   <i name="ENCUTGWSOFT">     -2.00000000</i>
   <i name="ENCUTLF">     -1.00000000</i>
   <i type="int" name="LMAXMP2">    -1</i>
   <i name="SCISSOR">      0.00000000</i>
   <i type="int" name="NOMEGA">     0</i>
   <i type="int" name="NOMEGAR">     0</i>
   <i type="int" name="NBANDSGW">    -1</i>
   <i type="int" name="NBANDSO">    -1</i>
   <i type="int" name="NBANDSV">    -1</i>
   <i type="int" name="NELM">     1</i>
   <i type="int" name="NELMHF">     1</i>
   <i type="int" name="DIM">     3</i>
   <i type="int" name="ANTIRES">     0</i>
   <i name="OMEGAMAX">    -30.00000000</i>
   <i name="OMEGAMIN">    -30.00000000</i>
   <i name="OMEGATL">   -200.00000000</i>
   <i type="int" name="OMEGAGRID">   140</i>
   <i name="CSHIFT">     -0.10000000</i>
   <i type="logical" name="SELFENERGY"> F  </i>
   <i type="logical" name="LSPECTRAL"> F  </i>
   <i type="logical" name="LSPECTRALGW"> F  </i>
   <i type="logical" name="LSINGLES"> F  </i>
   <i type="logical" name="LFERMIGW"> F  </i>
   <i type="logical" name="ODDONLYGW"> F  </i>
   <i type="logical" name="EVENONLYGW"> F  </i>
   <i type="int" name="NKREDLFX">     1</i>
   <i type="int" name="NKREDLFY">     1</i>
   <i type="int" name="NKREDLFZ">     1</i>
   <i type="int" name="MAXMEM">  2800</i>
   <i type="int" name="TELESCOPE">     0</i>
   <i type="int" name="TAUPAR">     1</i>
   <i type="int" name="OMEGAPAR">    -1</i>
   <i name="LAMBDA">      1.00000000</i>
  </separator>
  <separator name="External order field" >
   <i name="OFIELD_KAPPA">      0.00000000</i>
   <v name="OFIELD_K">      0.00000000      0.00000000      0.00000000</v>
   <i name="OFIELD_Q6_NEAR">      0.00000000</i>
   <i name="OFIELD_Q6_FAR">      0.00000000</i>
   <i name="OFIELD_A">      0.00000000</i>
  </separator>
 </parameters>
 <atominfo>
  <atoms>     135 </atoms>
  <types>       3 </types>
  <array name="atoms" >
   <dimension dim="1">ion</dimension>
   <field type="string">element</field>
   <field type="int">atomtype</field>
   <set>
    <rc><c>Ca</c><c>   1</c></rc>
    <rc><c>Ca</c><c>   1</c></rc>
    <rc><c>Ca</c><c>   1</c></rc>
    <rc><c>Ca</c><c>   1</c></rc>
    <rc><c>Ca</c><c>   1</c></rc>
    <rc><c>Ca</c><c>   1</c></rc>
    <rc><c>Ca</c><c>   1</c></rc>
    <rc><c>Ca</c><c>   1</c></rc>
    <rc><c>Ca</c><c>   1</c></rc>
    <rc><c>Ca</c><c>   1</c></rc>
    <rc><c>Ca</c><c>   1</c></rc>
    <rc><c>Ca</c><c>   1</c></rc>
    <rc><c>Ca</c><c>   1</c></rc>
    <rc><c>Ca</c><c>   1</c></rc>
    <rc><c>Ca</c><c>   1</c></rc>
    <rc><c>Ca</c><c>   1</c></rc>
    <rc><c>Ca</c><c>   1</c></rc>
    <rc><c>Ca</c><c>   1</c></rc>
    <rc><c>Ca</c><c>   1</c></rc>
    <rc><c>Ca</c><c>   1</c></rc>
    <rc><c>Ca</c><c>   1</c></rc>
    <rc><c>Ca</c><c>   1</c></rc>
    <rc><c>Ca</c><c>   1</c></rc>
    <rc><c>Ca</c><c>   1</c></rc>
    <rc><c>Ca</c><c>   1</c></rc>
    <rc><c>Ca</c><c>   1</c></rc>
    <rc><c>Ca</c><c>   1</c></rc>
    <rc><c>Si</c><c>   2</c></rc>
    <rc><c>Si</c><c>   2</c></rc>
    <rc><c>Si</c><c>   2</c></rc>
    <rc><c>Si</c><c>   2</c></rc>
    <rc><c>Si</c><c>   2</c></rc>
    <rc><c>Si</c><c>   2</c></rc>
    <rc><c>Si</c><c>   2</c></rc>
    <rc><c>Si</c><c>   2</c></rc>
    <rc><c>Si</c><c>   2</c></rc>
    <rc><c>Si</c><c>   2</c></rc>
    <rc><c>Si</c><c>   2</c></rc>
    <rc><c>Si</c><c>   2</c></rc>
    <rc><c>Si</c><c>   2</c></rc>
    <rc><c>Si</c><c>   2</c></rc>
    <rc><c>Si</c><c>   2</c></rc>
    <rc><c>Si</c><c>   2</c></rc>
    <rc><c>Si</c><c>   2</c></rc>
    <rc><c>Si</c><c>   2</c></rc>
    <rc><c>Si</c><c>   2</c></rc>
    <rc><c>Si</c><c>   2</c></rc>
    <rc><c>Si</c><c>   2</c></rc>
    <rc><c>Si</c><c>   2</c></rc>
    <rc><c>Si</c><c>   2</c></rc>
    <rc><c>Si</c><c>   2</c></rc>
    <rc><c>Si</c><c>   2</c></rc>
    <rc><c>Si</c><c>   2</c></rc>
    <rc><c>Si</c><c>   2</c></rc>
    <rc><c>O </c><c>   3</c></rc>
    <rc><c>O </c><c>   3</c></rc>
    <rc><c>O </c><c>   3</c></rc>
    <rc><c>O </c><c>   3</c></rc>
    <rc><c>O </c><c>   3</c></rc>
    <rc><c>O </c><c>   3</c></rc>
    <rc><c>O </c><c>   3</c></rc>
    <rc><c>O </c><c>   3</c></rc>
    <rc><c>O </c><c>   3</c></rc>
    <rc><c>O </c><c>   3</c></rc>
    <rc><c>O </c><c>   3</c></rc>
    <rc><c>O </c><c>   3</c></rc>
    <rc><c>O </c><c>   3</c></rc>
    <rc><c>O </c><c>   3</c></rc>
    <rc><c>O </c><c>   3</c></rc>
    <rc><c>O </c><c>   3</c></rc>
    <rc><c>O </c><c>   3</c></rc>
    <rc><c>O </c><c>   3</c></rc>
    <rc><c>O </c><c>   3</c></rc>
    <rc><c>O </c><c>   3</c></rc>
    <rc><c>O </c><c>   3</c></rc>
    <rc><c>O </c><c>   3</c></rc>
    <rc><c>O </c><c>   3</c></rc>
    <rc><c>O </c><c>   3</c></rc>
    <rc><c>O </c><c>   3</c></rc>
    <rc><c>O </c><c>   3</c></rc>
    <rc><c>O </c><c>   3</c></rc>
    <rc><c>O </c><c>   3</c></rc>
    <rc><c>O </c><c>   3</c></rc>
    <rc><c>O </c><c>   3</c></rc>
    <rc><c>O </c><c>   3</c></rc>
    <rc><c>O </c><c>   3</c></rc>
    <rc><c>O </c><c>   3</c></rc>
    <rc><c>O </c><c>   3</c></rc>
    <rc><c>O </c><c>   3</c></rc>
    <rc><c>O </c><c>   3</c></rc>
    <rc><c>O </c><c>   3</c></rc>
    <rc><c>O </c><c>   3</c></rc>
    <rc><c>O </c><c>   3</c></rc>
    <rc><c>O </c><c>   3</c></rc>
    <rc><c>O </c><c>   3</c></rc>
    <rc><c>O </c><c>   3</c></rc>
    <rc><c>O </c><c>   3</c></rc>
    <rc><c>O </c><c>   3</c></rc>
    <rc><c>O </c><c>   3</c></rc>
    <rc><c>O </c><c>   3</c></rc>
    <rc><c>O </c><c>   3</c></rc>
    <rc><c>O </c><c>   3</c></rc>
    <rc><c>O </c><c>   3</c></rc>
    <rc><c>O </c><c>   3</c></rc>
    <rc><c>O </c><c>   3</c></rc>
    <rc><c>O </c><c>   3</c></rc>
    <rc><c>O </c><c>   3</c></rc>
    <rc><c>O </c><c>   3</c></rc>
    <rc><c>O </c><c>   3</c></rc>
    <rc><c>O </c><c>   3</c></rc>
    <rc><c>O </c><c>   3</c></rc>
    <rc><c>O </c><c>   3</c></rc>
    <rc><c>O </c><c>   3</c></rc>
    <rc><c>O </c><c>   3</c></rc>
    <rc><c>O </c><c>   3</c></rc>
    <rc><c>O </c><c>   3</c></rc>
    <rc><c>O </c><c>   3</c></rc>
    <rc><c>O </c><c>   3</c></rc>
    <rc><c>O </c><c>   3</c></rc>
    <rc><c>O </c><c>   3</c></rc>
    <rc><c>O </c><c>   3</c></rc>
    <rc><c>O </c><c>   3</c></rc>
    <rc><c>O </c><c>   3</c></rc>
    <rc><c>O </c><c>   3</c></rc>
    <rc><c>O </c><c>   3</c></rc>
    <rc><c>O </c><c>   3</c></rc>
    <rc><c>O </c><c>   3</c></rc>
    <rc><c>O </c><c>   3</c></rc>
    <rc><c>O </c><c>   3</c></rc>
    <rc><c>O </c><c>   3</c></rc>
    <rc><c>O </c><c>   3</c></rc>
    <rc><c>O </c><c>   3</c></rc>
    <rc><c>O </c><c>   3</c></rc>
    <rc><c>O </c><c>   3</c></rc>
    <rc><c>O </c><c>   3</c></rc>
   </set>
  </array>
  <array name="atomtypes" >
   <dimension dim="1">type</dimension>
   <field type="int">atomspertype</field>
   <field type="string">element</field>
   <field>mass</field>
   <field>valence</field>
   <field type="string">pseudopotential</field>
   <set>
    <rc><c>  27</c><c>Ca</c><c>     40.07800000</c><c>     10.00000000</c><c>  PAW_PBE Ca_sv 06Sep2000               </c></rc>
    <rc><c>  27</c><c>Si</c><c>     28.08500000</c><c>      4.00000000</c><c>  PAW_PBE Si 05Jan2001                  </c></rc>
    <rc><c>  81</c><c>O </c><c>     16.00000000</c><c>      6.00000000</c><c>  PAW_PBE O 08Apr2002                   </c></rc>
   </set>
  </array>
 </atominfo>
 <structure name="initialpos" >
  <crystal>
   <varray name="basis" >
    <v>      12.09378762       0.00000000       0.00000000 </v>
    <v>       0.00000000      12.09378762       0.00000000 </v>
    <v>       0.00000000       0.00000000      12.09378762 </v>
   </varray>
   <i name="volume">   1768.83373704 </i>
   <varray name="rec_basis" >
    <v>       0.08268708       0.00000000       0.00000000 </v>
    <v>       0.00000000       0.08268708       0.00000000 </v>
    <v>       0.00000000       0.00000000       0.08268708 </v>
   </varray>
  </crystal>
  <varray name="positions" >
   <v>       0.54147619       0.43554260       0.23931782 </v>
   <v>       0.10378614       0.50866785       0.17889692 </v>
   <v>       0.06666019       0.40869783       0.48303562 </v>
   <v>       0.37194501       0.77605307       0.13759799 </v>
   <v>       0.43530552       0.68393565       0.56852966 </v>
   <v>       0.12471955       0.28837729       0.74693220 </v>
   <v>       0.31609786       0.94710773       0.80376907 </v>
   <v>       0.54192331       0.84081653       0.84877885 </v>
   <v>       0.06726531       0.88451677       0.85280177 </v>
   <v>       0.92170793       0.75104177       0.31412687 </v>
   <v>       0.61335592       0.74495194       0.36979334 </v>
   <v>       0.97196420       0.00047043       0.10626409 </v>
   <v>       0.30815882       0.02262444       0.30358167 </v>
   <v>       0.36048645       0.29928848       0.91062449 </v>
   <v>       0.92074253       0.02796797       0.44360943 </v>
   <v>       0.57396606       0.40004334       0.50466473 </v>
   <v>       0.56490072       0.17126892       0.78660354 </v>
   <v>       0.61149846       0.05588582       0.48265269 </v>
   <v>       0.92139178       0.67221732       0.96271935 </v>
   <v>       0.73349066       0.78009003       0.08232942 </v>
   <v>       0.76795947       0.36668997       0.76590635 </v>
   <v>       0.98642537       0.32048913       0.00711388 </v>
   <v>       0.78364146       0.81940390       0.65615444 </v>
   <v>       0.26431509       0.25443149       0.19305559 </v>
   <v>       0.76723228       0.23415044       0.29039458 </v>
   <v>       0.30441732       0.64375639       0.86537366 </v>
   <v>       0.00169436       0.68054735       0.59869806 </v>
   <v>       0.91044465       0.07606938       0.75101730 </v>
   <v>       0.65429442       0.27417892       0.00338303 </v>
   <v>       0.07532537       0.50768770       0.86572711 </v>
   <v>       0.75961057       0.51583823       0.16902336 </v>
   <v>       0.14458882       0.90974517       0.56303402 </v>
   <v>       0.60563902       0.58559304       0.01372620 </v>
   <v>       0.83811892       0.87591005       0.87270010 </v>
   <v>       0.21462000       0.97643424       0.08627877 </v>
   <v>       0.84778863       0.48701665       0.34957607 </v>
   <v>       0.46087110       0.22532041       0.37514973 </v>
   <v>       0.33279095       0.54292005       0.35413301 </v>
   <v>       0.17312654       0.14944256       0.94973356 </v>
   <v>       0.14955701       0.17937671       0.46892136 </v>
   <v>       0.41546211       0.07100918       0.00423632 </v>
   <v>       0.73646518       0.94458981       0.29467989 </v>
   <v>       0.62602771       0.09355173       0.15700997 </v>
   <v>       0.34248054       0.54882018       0.09835287 </v>
   <v>       0.83745660       0.19674684       0.60155391 </v>
   <v>       0.19816453       0.76515395       0.36636463 </v>
   <v>       0.33096673       0.32744874       0.58508960 </v>
   <v>       0.00010821       0.25431235       0.29506247 </v>
   <v>       0.83451114       0.17107119       0.93290004 </v>
   <v>       0.21403831       0.55282720       0.66045283 </v>
   <v>       0.62340049       0.58007003       0.75316261 </v>
   <v>       0.12096052       0.72848698       0.04292362 </v>
   <v>       0.72381026       0.60054519       0.54063978 </v>
   <v>       0.48889914       0.93194627       0.61338808 </v>
   <v>       0.92624474       0.81890766       0.77664457 </v>
   <v>       0.19134332       0.50977876       0.79260277 </v>
   <v>       0.12059988       0.05610115       0.53528631 </v>
   <v>       0.74171438       0.43135840       0.26541810 </v>
   <v>       0.92807635       0.35509525       0.33776458 </v>
   <v>       0.28981768       0.85029296       0.26838480 </v>
   <v>       0.06611826       0.31741297       0.20572126 </v>
   <v>       0.86226542       0.20081196       0.80567643 </v>
   <v>       0.13135001       0.72015880       0.91645902 </v>
   <v>       0.73764590       0.00593750       0.13723043 </v>
   <v>       0.74888113       0.94211014       0.42266161 </v>
   <v>       0.45728028       0.10010887       0.38746020 </v>
   <v>       0.00300240       0.88361612       0.55569438 </v>
   <v>       0.89326518       0.84436565       0.99369138 </v>
   <v>       0.42728682       0.27533336       0.23193641 </v>
   <v>       0.83945698       0.00284172       0.84763170 </v>
   <v>       0.93299794       0.13845401       0.00876924 </v>
   <v>       0.16879480       0.84798901       0.07737485 </v>
   <v>       0.00468279       0.60628054       0.80291124 </v>
   <v>       0.77809453       0.63921404       0.22693732 </v>
   <v>       0.38791661       0.58120037       0.22577022 </v>
   <v>       0.47057116       0.02247577       0.89614507 </v>
   <v>       0.20605808       0.91357355       0.68366188 </v>
   <v>       0.51861436       0.08993468       0.07108692 </v>
   <v>       0.21255003       0.46839493       0.33283280 </v>
   <v>       0.25587366       0.64649699       0.06421307 </v>
   <v>       0.36312084       0.29169887       0.71309912 </v>
   <v>       0.39056344       0.01816148       0.62287734 </v>
   <v>       0.62129117       0.57031939       0.88903665 </v>
   <v>       0.13724209       0.02099399       0.97890381 </v>
   <v>       0.94678306       0.56933488       0.35645922 </v>
   <v>       0.99997556       0.39897373       0.83183718 </v>
   <v>       0.83393920       0.69634505       0.52472199 </v>
   <v>       0.28815726       0.43578773       0.10952564 </v>
   <v>       0.56480620       0.32152160       0.92966636 </v>
   <v>       0.77616141       0.46602624       0.47107083 </v>
   <v>       0.08865827       0.51873592       0.61440287 </v>
   <v>       0.70640690       0.22468566       0.64600234 </v>
   <v>       0.78858555       0.31231782       0.99449294 </v>
   <v>       0.22230063       0.18403488       0.36078868 </v>
   <v>       0.04160419       0.06500358       0.78603430 </v>
   <v>       0.25686823       0.69215310       0.67592223 </v>
   <v>       0.37830036       0.79613218       0.94912395 </v>
   <v>       0.63972411       0.06981469       0.28601266 </v>
   <v>       0.10591701       0.47847185       0.99011523 </v>
   <v>       0.59138605       0.61973815       0.51235112 </v>
   <v>       0.31554102       0.46719552       0.58912978 </v>
   <v>       0.17059446       0.28990313       0.98931750 </v>
   <v>       0.69750449       0.16090656       0.94724274 </v>
   <v>       0.74759656       0.60971027       0.03897616 </v>
   <v>       0.45076646       0.48390016       0.39092022 </v>
   <v>       0.94451548       0.26508693       0.65092112 </v>
   <v>       0.45492862       0.84246962       0.70455362 </v>
   <v>       0.22664441       0.86351607       0.45249219 </v>
   <v>       0.01971297       0.69592769       0.13365406 </v>
   <v>       0.41227410       0.28171582       0.49850437 </v>
   <v>       0.64431374       0.86744064       0.24441567 </v>
   <v>       0.88495676       0.93564358       0.28967567 </v>
   <v>       0.65750756       0.22463395       0.14656863 </v>
   <v>       0.74037260       0.79075053       0.86785840 </v>
   <v>       0.05057112       0.23336631       0.45015327 </v>
   <v>       0.44361707       0.52287132       0.01153520 </v>
   <v>       0.29415127       0.14243921       0.03166835 </v>
   <v>       0.84534398       0.07302918       0.63055329 </v>
   <v>       0.73272142       0.63061632       0.68541495 </v>
   <v>       0.89769280       0.49280988       0.11407112 </v>
   <v>       0.51076943       0.64353551       0.72018510 </v>
   <v>       0.64753003       0.45660753       0.09888631 </v>
   <v>       0.61822612       0.99318408       0.67010570 </v>
   <v>       0.53961914       0.85371148       0.49327573 </v>
   <v>       0.65106047       0.45631553       0.69946271 </v>
   <v>       0.31333195       0.67001255       0.39677979 </v>
   <v>       0.16439740       0.05180036       0.18968097 </v>
   <v>       0.92294109       0.15263232       0.23735947 </v>
   <v>       0.20202093       0.15808951       0.81602623 </v>
   <v>       0.19959136       0.31108470       0.56021578 </v>
   <v>       0.34277685       0.98177713       0.07658997 </v>
   <v>       0.07240236       0.72631964       0.41679724 </v>
   <v>       0.58211411       0.25871174       0.40862114 </v>
   <v>       0.56279498       0.69413078       0.07856938 </v>
   <v>       0.81006247       0.18966197       0.46883653 </v>
  </varray>
  <varray name="velocities" >
   <v>       0.00000000       0.00000000       0.00000000 </v>
   <v>       0.00000000       0.00000000       0.00000000 </v>
   <v>       0.00000000       0.00000000       0.00000000 </v>
   <v>       0.00000000       0.00000000       0.00000000 </v>
   <v>       0.00000000       0.00000000       0.00000000 </v>
   <v>       0.00000000       0.00000000       0.00000000 </v>
   <v>       0.00000000       0.00000000       0.00000000 </v>
   <v>       0.00000000       0.00000000       0.00000000 </v>
   <v>       0.00000000       0.00000000       0.00000000 </v>
   <v>       0.00000000       0.00000000       0.00000000 </v>
   <v>       0.00000000       0.00000000       0.00000000 </v>
   <v>       0.00000000       0.00000000       0.00000000 </v>
   <v>       0.00000000       0.00000000       0.00000000 </v>
   <v>       0.00000000       0.00000000       0.00000000 </v>
   <v>       0.00000000       0.00000000       0.00000000 </v>
   <v>       0.00000000       0.00000000       0.00000000 </v>
   <v>       0.00000000       0.00000000       0.00000000 </v>
   <v>       0.00000000       0.00000000       0.00000000 </v>
   <v>       0.00000000       0.00000000       0.00000000 </v>
   <v>       0.00000000       0.00000000       0.00000000 </v>
   <v>       0.00000000       0.00000000       0.00000000 </v>
   <v>       0.00000000       0.00000000       0.00000000 </v>
   <v>       0.00000000       0.00000000       0.00000000 </v>
   <v>       0.00000000       0.00000000       0.00000000 </v>
   <v>       0.00000000       0.00000000       0.00000000 </v>
   <v>       0.00000000       0.00000000       0.00000000 </v>
   <v>       0.00000000       0.00000000       0.00000000 </v>
   <v>       0.00000000       0.00000000       0.00000000 </v>
   <v>       0.00000000       0.00000000       0.00000000 </v>
   <v>       0.00000000       0.00000000       0.00000000 </v>
   <v>       0.00000000       0.00000000       0.00000000 </v>
   <v>       0.00000000       0.00000000       0.00000000 </v>
   <v>       0.00000000       0.00000000       0.00000000 </v>
   <v>       0.00000000       0.00000000       0.00000000 </v>
   <v>       0.00000000       0.00000000       0.00000000 </v>
   <v>       0.00000000       0.00000000       0.00000000 </v>
   <v>       0.00000000       0.00000000       0.00000000 </v>
   <v>       0.00000000       0.00000000       0.00000000 </v>
   <v>       0.00000000       0.00000000       0.00000000 </v>
   <v>       0.00000000       0.00000000       0.00000000 </v>
   <v>       0.00000000       0.00000000       0.00000000 </v>
   <v>       0.00000000       0.00000000       0.00000000 </v>
   <v>       0.00000000       0.00000000       0.00000000 </v>
   <v>       0.00000000       0.00000000       0.00000000 </v>
   <v>       0.00000000       0.00000000       0.00000000 </v>
   <v>       0.00000000       0.00000000       0.00000000 </v>
   <v>       0.00000000       0.00000000       0.00000000 </v>
   <v>       0.00000000       0.00000000       0.00000000 </v>
   <v>       0.00000000       0.00000000       0.00000000 </v>
   <v>       0.00000000       0.00000000       0.00000000 </v>
   <v>       0.00000000       0.00000000       0.00000000 </v>
   <v>       0.00000000       0.00000000       0.00000000 </v>
   <v>       0.00000000       0.00000000       0.00000000 </v>
   <v>       0.00000000       0.00000000       0.00000000 </v>
   <v>       0.00000000       0.00000000       0.00000000 </v>
   <v>       0.00000000       0.00000000       0.00000000 </v>
   <v>       0.00000000       0.00000000       0.00000000 </v>
   <v>       0.00000000       0.00000000       0.00000000 </v>
   <v>       0.00000000       0.00000000       0.00000000 </v>
   <v>       0.00000000       0.00000000       0.00000000 </v>
   <v>       0.00000000       0.00000000       0.00000000 </v>
   <v>       0.00000000       0.00000000       0.00000000 </v>
   <v>       0.00000000       0.00000000       0.00000000 </v>
   <v>       0.00000000       0.00000000       0.00000000 </v>
   <v>       0.00000000       0.00000000       0.00000000 </v>
   <v>       0.00000000       0.00000000       0.00000000 </v>
   <v>       0.00000000       0.00000000       0.00000000 </v>
   <v>       0.00000000       0.00000000       0.00000000 </v>
   <v>       0.00000000       0.00000000       0.00000000 </v>
   <v>       0.00000000       0.00000000       0.00000000 </v>
   <v>       0.00000000       0.00000000       0.00000000 </v>
   <v>       0.00000000       0.00000000       0.00000000 </v>
   <v>       0.00000000       0.00000000       0.00000000 </v>
   <v>       0.00000000       0.00000000       0.00000000 </v>
   <v>       0.00000000       0.00000000       0.00000000 </v>
   <v>       0.00000000       0.00000000       0.00000000 </v>
   <v>       0.00000000       0.00000000       0.00000000 </v>
   <v>       0.00000000       0.00000000       0.00000000 </v>
   <v>       0.00000000       0.00000000       0.00000000 </v>
   <v>       0.00000000       0.00000000       0.00000000 </v>
   <v>       0.00000000       0.00000000       0.00000000 </v>
   <v>       0.00000000       0.00000000       0.00000000 </v>
   <v>       0.00000000       0.00000000       0.00000000 </v>
   <v>       0.00000000       0.00000000       0.00000000 </v>
   <v>       0.00000000       0.00000000       0.00000000 </v>
   <v>       0.00000000       0.00000000       0.00000000 </v>
   <v>       0.00000000       0.00000000       0.00000000 </v>
   <v>       0.00000000       0.00000000       0.00000000 </v>
   <v>       0.00000000       0.00000000       0.00000000 </v>
   <v>       0.00000000       0.00000000       0.00000000 </v>
   <v>       0.00000000       0.00000000       0.00000000 </v>
   <v>       0.00000000       0.00000000       0.00000000 </v>
   <v>       0.00000000       0.00000000       0.00000000 </v>
   <v>       0.00000000       0.00000000       0.00000000 </v>
   <v>       0.00000000       0.00000000       0.00000000 </v>
   <v>       0.00000000       0.00000000       0.00000000 </v>
   <v>       0.00000000       0.00000000       0.00000000 </v>
   <v>       0.00000000       0.00000000       0.00000000 </v>
   <v>       0.00000000       0.00000000       0.00000000 </v>
   <v>       0.00000000       0.00000000       0.00000000 </v>
   <v>       0.00000000       0.00000000       0.00000000 </v>
   <v>       0.00000000       0.00000000       0.00000000 </v>
   <v>       0.00000000       0.00000000       0.00000000 </v>
   <v>       0.00000000       0.00000000       0.00000000 </v>
   <v>       0.00000000       0.00000000       0.00000000 </v>
   <v>       0.00000000       0.00000000       0.00000000 </v>
   <v>       0.00000000       0.00000000       0.00000000 </v>
   <v>       0.00000000       0.00000000       0.00000000 </v>
   <v>       0.00000000       0.00000000       0.00000000 </v>
   <v>       0.00000000       0.00000000       0.00000000 </v>
   <v>       0.00000000       0.00000000       0.00000000 </v>
   <v>       0.00000000       0.00000000       0.00000000 </v>
   <v>       0.00000000       0.00000000       0.00000000 </v>
   <v>       0.00000000       0.00000000       0.00000000 </v>
   <v>       0.00000000       0.00000000       0.00000000 </v>
   <v>       0.00000000       0.00000000       0.00000000 </v>
   <v>       0.00000000       0.00000000       0.00000000 </v>
   <v>       0.00000000       0.00000000       0.00000000 </v>
   <v>       0.00000000       0.00000000       0.00000000 </v>
   <v>       0.00000000       0.00000000       0.00000000 </v>
   <v>       0.00000000       0.00000000       0.00000000 </v>
   <v>       0.00000000       0.00000000       0.00000000 </v>
   <v>       0.00000000       0.00000000       0.00000000 </v>
   <v>       0.00000000       0.00000000       0.00000000 </v>
   <v>       0.00000000       0.00000000       0.00000000 </v>
   <v>       0.00000000       0.00000000       0.00000000 </v>
   <v>       0.00000000       0.00000000       0.00000000 </v>
   <v>       0.00000000       0.00000000       0.00000000 </v>
   <v>       0.00000000       0.00000000       0.00000000 </v>
   <v>       0.00000000       0.00000000       0.00000000 </v>
   <v>       0.00000000       0.00000000       0.00000000 </v>
   <v>       0.00000000       0.00000000       0.00000000 </v>
   <v>       0.00000000       0.00000000       0.00000000 </v>
   <v>       0.00000000       0.00000000       0.00000000 </v>
   <v>       0.00000000       0.00000000       0.00000000 </v>
  </varray>
 </structure>
 <calculation>
  <scstep>
   <time name="dav">   41.95   42.01</time>
   <time name="total">   42.40   42.46</time>
   <energy>
    <i name="alphaZ">   2701.53174423 </i>
    <i name="ewald"> -45546.41732546 </i>
    <i name="hartreedc"> -17862.60401102 </i>
    <i name="XCdc">   3170.29932424 </i>
    <i name="pawpsdc">  50594.51003143 </i>
    <i name="pawaedc"> -49994.65612350 </i>
    <i name="eentropy">     -0.04190295 </i>
    <i name="bandstr">   1514.48685233 </i>
    <i name="atom">  64968.54023382 </i>
    <i name="e_fr_energy">   9545.64882312 </i>
    <i name="e_wo_entrp">   9545.69072607 </i>
    <i name="e_0_energy">   9545.66977460 </i>
   </energy>
  </scstep>
  <scstep>
   <time name="dav">   47.53   47.67</time>
   <time name="total">   47.53   47.67</time>
   <energy>
    <i name="e_fr_energy">     -1.41581821 </i>
    <i name="e_wo_entrp">     -1.41581821 </i>
    <i name="e_0_energy">     -1.41581821 </i>
   </energy>
  </scstep>
  <scstep>
   <time name="dav">   49.96   50.10</time>
   <time name="total">   49.96   50.10</time>
   <energy>
    <i name="e_fr_energy">  -1025.69384388 </i>
    <i name="e_wo_entrp">  -1025.69384388 </i>
    <i name="e_0_energy">  -1025.69384388 </i>
   </energy>
  </scstep>
  <scstep>
   <time name="dav">   52.12   52.24</time>
   <time name="total">   52.12   52.24</time>
   <energy>
    <i name="e_fr_energy">  -1075.04644116 </i>
    <i name="e_wo_entrp">  -1075.04644116 </i>
    <i name="e_0_energy">  -1075.04644116 </i>
   </energy>
  </scstep>
  <scstep>
   <time name="dav">   67.48   67.71</time>
   <time name="total">   69.20   69.42</time>
   <energy>
    <i name="e_fr_energy">  -1080.55481035 </i>
    <i name="e_wo_entrp">  -1080.55481035 </i>
    <i name="e_0_energy">  -1080.55481035 </i>
   </energy>
  </scstep>
  <scstep>
   <time name="dav">   48.68   48.78</time>
   <time name="total">   50.83   50.94</time>
   <energy>
    <i name="e_fr_energy">   -935.13275896 </i>
    <i name="e_wo_entrp">   -935.13275896 </i>
    <i name="e_0_energy">   -935.13275896 </i>
   </energy>
  </scstep>
  <scstep>
   <time name="dav">   52.61   52.79</time>
   <time name="total">   54.75   54.96</time>
   <energy>
    <i name="e_fr_energy">   -936.74608089 </i>
    <i name="e_wo_entrp">   -936.74608089 </i>
    <i name="e_0_energy">   -936.74608089 </i>
   </energy>
  </scstep>
  <scstep>
   <time name="dav">   49.22   49.37</time>
   <time name="total">   51.38   51.54</time>
   <energy>
    <i name="e_fr_energy">   -935.50637429 </i>
    <i name="e_wo_entrp">   -935.50637429 </i>
    <i name="e_0_energy">   -935.50637429 </i>
   </energy>
  </scstep>
  <scstep>
   <time name="dav">   60.78   61.77</time>
   <time name="total">   62.94   63.93</time>
   <energy>
    <i name="e_fr_energy">   -935.15177504 </i>
    <i name="e_wo_entrp">   -935.15177504 </i>
    <i name="e_0_energy">   -935.15177504 </i>
   </energy>
  </scstep>
  <scstep>
   <time name="dav">   53.15   53.37</time>
   <time name="total">   55.32   55.57</time>
   <energy>
    <i name="e_fr_energy">   -935.24375363 </i>
    <i name="e_wo_entrp">   -935.24375363 </i>
    <i name="e_0_energy">   -935.24375363 </i>
   </energy>
  </scstep>
  <scstep>
   <time name="dav">   53.11   53.40</time>
   <time name="total">   55.27   55.57</time>
   <energy>
    <i name="e_fr_energy">   -935.25653385 </i>
    <i name="e_wo_entrp">   -935.25653385 </i>
    <i name="e_0_energy">   -935.25653385 </i>
   </energy>
  </scstep>
  <scstep>
   <time name="dav">   48.80   48.96</time>
   <time name="total">   50.95   51.13</time>
   <energy>
    <i name="e_fr_energy">   -935.26759489 </i>
    <i name="e_wo_entrp">   -935.26759489 </i>
    <i name="e_0_energy">   -935.26759489 </i>
   </energy>
  </scstep>
  <scstep>
   <time name="dav">   54.70   54.80</time>
   <time name="total">   56.86   56.98</time>
   <energy>
    <i name="e_fr_energy">   -935.27120545 </i>
    <i name="e_wo_entrp">   -935.27120545 </i>
    <i name="e_0_energy">   -935.27120545 </i>
   </energy>
  </scstep>
  <scstep>
   <time name="dav">   54.46   54.61</time>
   <time name="total">   56.61   56.78</time>
   <energy>
    <i name="e_fr_energy">   -935.27175883 </i>
    <i name="e_wo_entrp">   -935.27175883 </i>
    <i name="e_0_energy">   -935.27175883 </i>
   </energy>
  </scstep>
  <scstep>
   <time name="dav">   48.34   48.49</time>
   <time name="total">   50.51   50.68</time>
   <energy>
    <i name="e_fr_energy">   -935.27199728 </i>
    <i name="e_wo_entrp">   -935.27199728 </i>
    <i name="e_0_energy">   -935.27199728 </i>
   </energy>
  </scstep>
  <scstep>
   <time name="dav">   48.51   48.70</time>
   <time name="total">   50.66   50.86</time>
   <energy>
    <i name="e_fr_energy">   -935.27208340 </i>
    <i name="e_wo_entrp">   -935.27208340 </i>
    <i name="e_0_energy">   -935.27208340 </i>
   </energy>
  </scstep>
  <scstep>
   <time name="dav">   56.23   56.39</time>
   <time name="total">   58.39   58.56</time>
   <energy>
    <i name="e_fr_energy">   -935.27210128 </i>
    <i name="e_wo_entrp">   -935.27210128 </i>
    <i name="e_0_energy">   -935.27210128 </i>
   </energy>
  </scstep>
  <scstep>
   <time name="dav">   50.96   51.08</time>
   <time name="total">   53.19   53.32</time>
   <energy>
    <i name="e_fr_energy">   -935.27210271 </i>
    <i name="e_wo_entrp">   -935.27210271 </i>
    <i name="e_0_energy">   -935.27210271 </i>
   </energy>
  </scstep>
  <scstep>
   <time name="dav">   41.80   41.91</time>
   <time name="total">   42.24   42.37</time>
   <energy>
    <i name="alphaZ">   2701.53174423 </i>
    <i name="ewald"> -45546.41732546 </i>
    <i name="hartreedc"> -19415.99787268 </i>
    <i name="XCdc">   3270.58076294 </i>
    <i name="pawpsdc">  94188.15926218 </i>
    <i name="pawaedc"> -93854.12554622 </i>
    <i name="eentropy">     -0.00000000 </i>
    <i name="bandstr">  -7247.54336180 </i>
    <i name="atom">  64968.54023382 </i>
    <i name="e_fr_energy">   -935.27210298 </i>
    <i name="e_wo_entrp">   -935.27210298 </i>
    <i name="e_0_energy">   -935.27210298 </i>
   </energy>
  </scstep>
  <structure>
   <crystal>
    <varray name="basis" >
     <v>      12.09378762       0.00000000       0.00000000 </v>
     <v>       0.00000000      12.09378762       0.00000000 </v>
     <v>       0.00000000       0.00000000      12.09378762 </v>
    </varray>
    <i name="volume">   1768.83373704 </i>
    <varray name="rec_basis" >
     <v>       0.08268708       0.00000000       0.00000000 </v>
     <v>       0.00000000       0.08268708       0.00000000 </v>
     <v>       0.00000000       0.00000000       0.08268708 </v>
    </varray>
   </crystal>
   <varray name="positions" >
    <v>       0.54147619       0.43554260       0.23931782 </v>
    <v>       0.10378614       0.50866785       0.17889692 </v>
    <v>       0.06666019       0.40869783       0.48303562 </v>
    <v>       0.37194501       0.77605307       0.13759799 </v>
    <v>       0.43530552       0.68393565       0.56852966 </v>
    <v>       0.12471955       0.28837729       0.74693220 </v>
    <v>       0.31609786       0.94710773       0.80376907 </v>
    <v>       0.54192331       0.84081653       0.84877885 </v>
    <v>       0.06726531       0.88451677       0.85280177 </v>
    <v>       0.92170793       0.75104177       0.31412687 </v>
    <v>       0.61335592       0.74495194       0.36979334 </v>
    <v>       0.97196420       0.00047043       0.10626409 </v>
    <v>       0.30815882       0.02262444       0.30358167 </v>
    <v>       0.36048645       0.29928848       0.91062449 </v>
    <v>       0.92074253       0.02796797       0.44360943 </v>
    <v>       0.57396606       0.40004334       0.50466473 </v>
    <v>       0.56490072       0.17126892       0.78660354 </v>
    <v>       0.61149846       0.05588582       0.48265269 </v>
    <v>       0.92139178       0.67221732       0.96271935 </v>
    <v>       0.73349066       0.78009003       0.08232942 </v>
    <v>       0.76795947       0.36668997       0.76590635 </v>
    <v>       0.98642537       0.32048913       0.00711388 </v>
    <v>       0.78364146       0.81940390       0.65615444 </v>
    <v>       0.26431509       0.25443149       0.19305559 </v>
    <v>       0.76723228       0.23415044       0.29039458 </v>
    <v>       0.30441732       0.64375639       0.86537366 </v>
    <v>       0.00169436       0.68054735       0.59869806 </v>
    <v>       0.91044465       0.07606938       0.75101730 </v>
    <v>       0.65429442       0.27417892       0.00338303 </v>
    <v>       0.07532537       0.50768770       0.86572711 </v>
    <v>       0.75961057       0.51583823       0.16902336 </v>
    <v>       0.14458882       0.90974517       0.56303402 </v>
    <v>       0.60563902       0.58559304       0.01372620 </v>
    <v>       0.83811892       0.87591005       0.87270010 </v>
    <v>       0.21462000       0.97643424       0.08627877 </v>
    <v>       0.84778863       0.48701665       0.34957607 </v>
    <v>       0.46087110       0.22532041       0.37514973 </v>
    <v>       0.33279095       0.54292005       0.35413301 </v>
    <v>       0.17312654       0.14944256       0.94973356 </v>
    <v>       0.14955701       0.17937671       0.46892136 </v>
    <v>       0.41546211       0.07100918       0.00423632 </v>
    <v>       0.73646518       0.94458981       0.29467989 </v>
    <v>       0.62602771       0.09355173       0.15700997 </v>
    <v>       0.34248054       0.54882018       0.09835287 </v>
    <v>       0.83745660       0.19674684       0.60155391 </v>
    <v>       0.19816453       0.76515395       0.36636463 </v>
    <v>       0.33096673       0.32744874       0.58508960 </v>
    <v>       0.00010821       0.25431235       0.29506247 </v>
    <v>       0.83451114       0.17107119       0.93290004 </v>
    <v>       0.21403831       0.55282720       0.66045283 </v>
    <v>       0.62340049       0.58007003       0.75316261 </v>
    <v>       0.12096052       0.72848698       0.04292362 </v>
    <v>       0.72381026       0.60054519       0.54063978 </v>
    <v>       0.48889914       0.93194627       0.61338808 </v>
    <v>       0.92624474       0.81890766       0.77664457 </v>
    <v>       0.19134332       0.50977876       0.79260277 </v>
    <v>       0.12059988       0.05610115       0.53528631 </v>
    <v>       0.74171438       0.43135840       0.26541810 </v>
    <v>       0.92807635       0.35509525       0.33776458 </v>
    <v>       0.28981768       0.85029296       0.26838480 </v>
    <v>       0.06611826       0.31741297       0.20572126 </v>
    <v>       0.86226542       0.20081196       0.80567643 </v>
    <v>       0.13135001       0.72015880       0.91645902 </v>
    <v>       0.73764590       0.00593750       0.13723043 </v>
    <v>       0.74888113       0.94211014       0.42266161 </v>
    <v>       0.45728028       0.10010887       0.38746020 </v>
    <v>       0.00300240       0.88361612       0.55569438 </v>
    <v>       0.89326518       0.84436565       0.99369138 </v>
    <v>       0.42728682       0.27533336       0.23193641 </v>
    <v>       0.83945698       0.00284172       0.84763170 </v>
    <v>       0.93299794       0.13845401       0.00876924 </v>
    <v>       0.16879480       0.84798901       0.07737485 </v>
    <v>       0.00468279       0.60628054       0.80291124 </v>
    <v>       0.77809453       0.63921404       0.22693732 </v>
    <v>       0.38791661       0.58120037       0.22577022 </v>
    <v>       0.47057116       0.02247577       0.89614507 </v>
    <v>       0.20605808       0.91357355       0.68366188 </v>
    <v>       0.51861436       0.08993468       0.07108692 </v>
    <v>       0.21255003       0.46839493       0.33283280 </v>
    <v>       0.25587366       0.64649699       0.06421307 </v>
    <v>       0.36312084       0.29169887       0.71309912 </v>
    <v>       0.39056344       0.01816148       0.62287734 </v>
    <v>       0.62129117       0.57031939       0.88903665 </v>
    <v>       0.13724209       0.02099399       0.97890381 </v>
    <v>       0.94678306       0.56933488       0.35645922 </v>
    <v>       0.99997556       0.39897373       0.83183718 </v>
    <v>       0.83393920       0.69634505       0.52472199 </v>
    <v>       0.28815726       0.43578773       0.10952564 </v>
    <v>       0.56480620       0.32152160       0.92966636 </v>
    <v>       0.77616141       0.46602624       0.47107083 </v>
    <v>       0.08865827       0.51873592       0.61440287 </v>
    <v>       0.70640690       0.22468566       0.64600234 </v>
    <v>       0.78858555       0.31231782       0.99449294 </v>
    <v>       0.22230063       0.18403488       0.36078868 </v>
    <v>       0.04160419       0.06500358       0.78603430 </v>
    <v>       0.25686823       0.69215310       0.67592223 </v>
    <v>       0.37830036       0.79613218       0.94912395 </v>
    <v>       0.63972411       0.06981469       0.28601266 </v>
    <v>       0.10591701       0.47847185       0.99011523 </v>
    <v>       0.59138605       0.61973815       0.51235112 </v>
    <v>       0.31554102       0.46719552       0.58912978 </v>
    <v>       0.17059446       0.28990313       0.98931750 </v>
    <v>       0.69750449       0.16090656       0.94724274 </v>
    <v>       0.74759656       0.60971027       0.03897616 </v>
    <v>       0.45076646       0.48390016       0.39092022 </v>
    <v>       0.94451548       0.26508693       0.65092112 </v>
    <v>       0.45492862       0.84246962       0.70455362 </v>
    <v>       0.22664441       0.86351607       0.45249219 </v>
    <v>       0.01971297       0.69592769       0.13365406 </v>
    <v>       0.41227410       0.28171582       0.49850437 </v>
    <v>       0.64431374       0.86744064       0.24441567 </v>
    <v>       0.88495676       0.93564358       0.28967567 </v>
    <v>       0.65750756       0.22463395       0.14656863 </v>
    <v>       0.74037260       0.79075053       0.86785840 </v>
    <v>       0.05057112       0.23336631       0.45015327 </v>
    <v>       0.44361707       0.52287132       0.01153520 </v>
    <v>       0.29415127       0.14243921       0.03166835 </v>
    <v>       0.84534398       0.07302918       0.63055329 </v>
    <v>       0.73272142       0.63061632       0.68541495 </v>
    <v>       0.89769280       0.49280988       0.11407112 </v>
    <v>       0.51076943       0.64353551       0.72018510 </v>
    <v>       0.64753003       0.45660753       0.09888631 </v>
    <v>       0.61822612       0.99318408       0.67010570 </v>
    <v>       0.53961914       0.85371148       0.49327573 </v>
    <v>       0.65106047       0.45631553       0.69946271 </v>
    <v>       0.31333195       0.67001255       0.39677979 </v>
    <v>       0.16439740       0.05180036       0.18968097 </v>
    <v>       0.92294109       0.15263232       0.23735947 </v>
    <v>       0.20202093       0.15808951       0.81602623 </v>
    <v>       0.19959136       0.31108470       0.56021578 </v>
    <v>       0.34277685       0.98177713       0.07658997 </v>
    <v>       0.07240236       0.72631964       0.41679724 </v>
    <v>       0.58211411       0.25871174       0.40862114 </v>
    <v>       0.56279498       0.69413078       0.07856938 </v>
    <v>       0.81006247       0.18966197       0.46883653 </v>
   </varray>
  </structure>
  <varray name="forces" >
   <v>      -1.83310280      -1.24495431      -0.21899282 </v>
   <v>      -1.23078376      -0.92290454      -0.26790289 </v>
   <v>      -0.69263533       1.52426524      -1.42161265 </v>
   <v>       2.33135559      -0.09825593      -2.33137009 </v>
   <v>      -1.82914613       1.38206329       0.76690893 </v>
   <v>      -2.09364877       1.33822911      -1.56478606 </v>
   <v>       1.30204335       0.03616020      -1.02847193 </v>
   <v>       0.25245730      -1.02017727       1.48686047 </v>
   <v>       1.60331670       0.65089731      -1.71579866 </v>
   <v>      -0.01355583      -1.00702412      -0.04570449 </v>
   <v>      -0.22716372       0.57720327      -0.41523442 </v>
   <v>      -1.30233396      -0.19629742       2.54733991 </v>
   <v>       0.52779729      -0.21562061       2.08469678 </v>
   <v>      -0.83608403       2.28481253      -0.29488727 </v>
   <v>       0.28339177      -0.12889034       0.34517790 </v>
   <v>       0.59995834       0.68802645       2.15916606 </v>
   <v>       0.75021598      -1.27572475      -2.15128359 </v>
   <v>       1.13964647       1.21231770      -0.15652710 </v>
   <v>      -1.06494341      -3.90754172      -0.91650523 </v>
   <v>      -1.56027524       0.91572133       1.60295025 </v>
   <v>       3.35325725      -1.16688991       1.02823212 </v>
   <v>       0.21544796       3.10160082       1.48334840 </v>
   <v>      -0.83444469       0.81004024      -0.83718036 </v>
   <v>      -2.94305216       2.05837007      -0.94317088 </v>
   <v>      -0.26279230       0.28201515       1.85468448 </v>
   <v>       1.49051068       1.58476156       0.42763958 </v>
   <v>       0.49779210       0.29589228       0.84799239 </v>
   <v>       3.17394276       1.24484118       1.17958800 </v>
   <v>       5.07243484       0.80955600       5.20653396 </v>
   <v>      -3.28388269      -0.42152656      -1.97268409 </v>
   <v>       5.26539492       3.68097855      -9.97701535 </v>
   <v>      -1.28803567       2.44644545       0.29053798 </v>
   <v>       0.37997388      -1.15818706       4.31417371 </v>
   <v>       2.04488948      -3.83153287       0.24871402 </v>
   <v>      -3.72697608      -0.42924145       2.42604101 </v>
   <v>       0.72666544      -3.52406446       0.41634953 </v>
   <v>      -1.24876066       2.68776253      -2.31943397 </v>
   <v>      -1.25059479      -2.53451330      -2.25841868 </v>
   <v>       1.57139014       4.52662052      -2.37635536 </v>
   <v>      12.89269101      -7.78263547       4.82561493 </v>
   <v>      -3.35762834      -2.47821362       0.16687897 </v>
   <v>       1.73996547       3.21610862      -4.04161676 </v>
   <v>       2.59169201      -2.09218190      -1.15734137 </v>
   <v>       1.81233138      -1.24513413      -0.00909734 </v>
   <v>      -2.93753292       6.73075326      -3.22087568 </v>
   <v>       2.36042716       0.24514143       1.46608474 </v>
   <v>      -1.56098150       1.83007983       4.39718478 </v>
   <v>      -1.40587828      -1.99553910      -0.46216848 </v>
   <v>      -3.52421032       1.86049935       1.11074251 </v>
   <v>       0.05667187       0.72850637      -0.34970353 </v>
   <v>      -1.75486129      -1.27749673      -0.17786433 </v>
   <v>       2.44943214      -1.85545687       4.52651161 </v>
   <v>       2.82092558       0.24330503       1.79697218 </v>
   <v>       2.13694898      -0.62409498       0.77010403 </v>
   <v>      -1.76068395       1.12607954       0.44343868 </v>
   <v>       2.96111769      -1.11209932      -0.79858989 </v>
   <v>       1.20658401       1.20033560      -1.73557695 </v>
   <v>       0.21937135      -1.49953619       4.55740402 </v>
   <v>      -3.46437853       3.03367664       2.16928407 </v>
   <v>      -3.01107660      -2.33554642       1.20883759 </v>
   <v>       3.06762599      -0.03224790      -1.70925856 </v>
   <v>      -0.09674746      -1.72226789       1.48523674 </v>
   <v>      -1.01218432       0.57308766      -1.54135932 </v>
   <v>      -0.43420984       0.91441343      -1.63399222 </v>
   <v>      -0.88036308      -0.31734433       3.91395123 </v>
   <v>      -2.10526753      -3.56992883      -0.40125747 </v>
   <v>       2.45263304      -0.50081232       0.23053884 </v>
   <v>       1.15032550       2.61321049       0.32706617 </v>
   <v>       2.30391275      -0.80158621       4.27171300 </v>
   <v>      -1.14560343       2.41963181      -0.32197938 </v>
   <v>       0.70994481       0.02804553      -0.24385985 </v>
   <v>       0.05954758       1.80394662       0.80091551 </v>
   <v>      -0.69194836       0.10950199       1.04580332 </v>
   <v>      -1.41066074       0.37609741       3.29421956 </v>
   <v>       0.23488479       0.76438039      -0.61577875 </v>
   <v>      -1.05352580       1.32687872      -2.04887603 </v>
   <v>      -2.93813508      -1.41082474      -1.66906541 </v>
   <v>       3.92869950       1.21970355       4.49123347 </v>
   <v>       2.43120191       1.82971802       1.36229919 </v>
   <v>      -1.95061750       1.04444069       0.74940688 </v>
   <v>       0.44479484       0.19912499       0.07379806 </v>
   <v>       0.56850949       1.33998653      -0.90218084 </v>
   <v>       0.37657262      -0.58687821      -5.09698631 </v>
   <v>      -0.03155151      -0.32228121       0.04613510 </v>
   <v>       0.70281866      -0.31563375       0.56778907 </v>
   <v>      -0.05232124      -1.17216023       0.10830246 </v>
   <v>      -3.12071904      -1.52318031      -1.34702328 </v>
   <v>      -1.94458990      -3.55130634       0.63145469 </v>
   <v>      -3.78610483       0.06082355      -2.23765943 </v>
   <v>      -1.14295024       3.25244071       1.12077233 </v>
   <v>       2.00101255       1.33060817      -0.36563129 </v>
   <v>       0.08540164       1.23493221       1.32001649 </v>
   <v>       1.05968924      -0.04276978      -1.44915770 </v>
   <v>       1.35436238      -0.76006837       0.06947040 </v>
   <v>      -3.83576781      -0.88310916      -1.23999946 </v>
   <v>      -0.85830345      -4.69318999      -0.96139767 </v>
   <v>       0.19562639       0.65830156      -1.55546531 </v>
   <v>       0.27532426       0.19261936       2.35736225 </v>
   <v>      -0.36233602       2.45264839       0.89908585 </v>
   <v>       3.72232507      -1.22899136      -1.21519107 </v>
   <v>      -0.49747256       2.45709511       1.14732322 </v>
   <v>      -1.02776058      -4.26987452      -1.08943195 </v>
   <v>      -0.90654199      -4.68294331      -2.23343735 </v>
   <v>      -0.52332871      -0.18486757      -1.10969825 </v>
   <v>      -1.01439271       0.71660123       0.84687301 </v>
   <v>      -0.75093916      -0.05765477      -2.09172371 </v>
   <v>      -0.88885089      -1.11342609      -0.22681328 </v>
   <v>      -1.18987134       2.25198810       3.40276148 </v>
   <v>       2.52901182       0.68279736      -1.96663148 </v>
   <v>       0.69138855      -0.48847271      -2.22498007 </v>
   <v>      -0.73492404      -3.24093663      -0.28855926 </v>
   <v>      -0.76361026      -1.18218110      -2.50942927 </v>
   <v>      -1.17490265       1.75447671      -2.83845299 </v>
   <v>      -3.02816348       0.50949363      -0.34738294 </v>
   <v>     -14.34247674       5.53986929      -5.47435848 </v>
   <v>       1.13177950       1.34946349      -0.51922337 </v>
   <v>       2.71437997       2.56772904      -2.78260569 </v>
   <v>       2.03342231      -6.37324764       2.54340129 </v>
   <v>       0.38914435       0.98864316      -1.12934312 </v>
   <v>      -1.78136315      -0.88339392       1.82584105 </v>
   <v>       0.96239665      -1.09523613       1.57083547 </v>
   <v>      -1.09033480       1.51933516      -1.21548600 </v>
   <v>      -1.94913246      -1.23246310      -0.86583501 </v>
   <v>      -1.65779997       1.55674262       2.22197592 </v>
   <v>      -3.17907615       1.06832734      -1.13425968 </v>
   <v>      -1.83325169       0.99723389       0.70499113 </v>
   <v>       0.24973673      -1.44209296      -1.79021390 </v>
   <v>       1.94043309       1.20004901       2.22834341 </v>
   <v>       2.89618759      -1.75970944       3.70793306 </v>
   <v>      -0.84623761      -4.12094019      -0.74543346 </v>
   <v>       3.00626547      -4.03844201       1.36008846 </v>
   <v>       3.40967702       0.39466126      -2.61790830 </v>
   <v>       3.14227818       1.19232379      -1.60813208 </v>
   <v>      -0.60161265       0.72076093       0.26201915 </v>
   <v>       0.88403941      -0.58345503      -0.61332168 </v>
  </varray>
  <varray name="stress" >
   <v>      35.44814355       4.14982448      19.73745010 </v>
   <v>       4.14982447      73.94076915      -6.24275632 </v>
   <v>      19.73745007      -6.24275632      46.95726071 </v>
  </varray>
  <energy>
   <i name="e_fr_energy">   -935.27210298 </i>
   <i name="e_wo_entrp">   -935.27210298 </i>
   <i name="e_0_energy">     -0.00000000 </i>
  </energy>
  <time name="totalsc"> 1059.95 1064.22</time>
  <eigenvalues>
   <array>
    <dimension dim="1">band</dimension>
    <dimension dim="2">kpoint</dimension>
    <dimension dim="3">spin</dimension>
    <field>eigene</field>
    <field>occ</field>
    <set>
     <set comment="spin 1">
      <set comment="kpoint 1">
       <r>  -37.4625    1.0000 </r>
       <r>  -37.1784    1.0000 </r>
       <r>  -36.6275    1.0000 </r>
       <r>  -36.3240    1.0000 </r>
       <r>  -36.3027    1.0000 </r>
       <r>  -36.0341    1.0000 </r>
       <r>  -36.0330    1.0000 </r>
       <r>  -35.9563    1.0000 </r>
       <r>  -35.7970    1.0000 </r>
       <r>  -35.6899    1.0000 </r>
       <r>  -35.6456    1.0000 </r>
       <r>  -35.5925    1.0000 </r>
       <r>  -35.4664    1.0000 </r>
       <r>  -35.3826    1.0000 </r>
       <r>  -35.3760    1.0000 </r>
       <r>  -35.3714    1.0000 </r>
       <r>  -35.3666    1.0000 </r>
       <r>  -35.3313    1.0000 </r>
       <r>  -35.2844    1.0000 </r>
       <r>  -35.2828    1.0000 </r>
       <r>  -35.2592    1.0000 </r>
       <r>  -35.2185    1.0000 </r>
       <r>  -35.1229    1.0000 </r>
       <r>  -35.0434    1.0000 </r>
       <r>  -35.0006    1.0000 </r>
       <r>  -34.9702    1.0000 </r>
       <r>  -34.6781    1.0000 </r>
       <r>  -19.5514    1.0000 </r>
       <r>  -18.7897    1.0000 </r>
       <r>  -18.7213    1.0000 </r>
       <r>  -18.5992    1.0000 </r>
       <r>  -18.5664    1.0000 </r>
       <r>  -18.4389    1.0000 </r>
       <r>  -18.3901    1.0000 </r>
       <r>  -18.3686    1.0000 </r>
[...]
       <r>     4.4629     0.0000   864.0000 </r>
       <r>     4.6359     0.0000   864.0000 </r>
       <r>     4.8088     3.4632   864.5991 </r>
       <r>     4.9818     8.1720   866.0127 </r>
       <r>     5.1548    11.3610   867.9780 </r>
       <r>     5.3278     0.1271   868.0000 </r>
       <r>     5.5008     0.0000   868.0000 </r>
       <r>     5.6738     0.0000   868.0000 </r>
       <r>     5.8468     0.1536   868.0266 </r>
       <r>     6.0197     7.9870   869.4082 </r>
       <r>     6.1927     3.4566   870.0061 </r>
       <r>     6.3657    10.9401   871.8986 </r>
       <r>     6.5387     0.5916   872.0010 </r>
       <r>     6.7117     9.2722   873.6049 </r>
       <r>     6.8847    15.9894   876.3709 </r>
       <r>     7.0577    24.2669   880.5687 </r>
       <r>     7.2306    27.7491   885.3689 </r>
       <r>     7.4036    29.6894   890.5047 </r>
       <r>     7.5766    36.0969   896.7489 </r>
       <r>     7.7496    41.7607   903.9729 </r>
       <r>     7.9226    61.2562   914.5694 </r>
       <r>     8.0956    46.9855   922.6972 </r>
       <r>     8.2686    55.8356   932.3559 </r>
       <r>     8.4415    57.3183   942.2711 </r>
       <r>     8.6145    67.8472   954.0077 </r>
       <r>     8.7875    74.8895   966.9625 </r>
       <r>     8.9605    68.4609   978.8053 </r>
       <r>     9.1335    76.6257   992.0604 </r>
       <r>     9.3065    85.8647  1006.9138 </r>
       <r>     9.4795    90.3862  1022.5493 </r>
       <r>     9.6524    79.0012  1036.2153 </r>
       <r>     9.8254    21.8744  1039.9993 </r>
       <r>     9.9984     0.0042  1040.0000 </r>
       <r>    10.1714     0.0000  1040.0000 </r>
       <r>    10.3444     0.0000  1040.0000 </r>
       <r>    10.5174     0.0000  1040.0000 </r>
       <r>    10.6904     0.0000  1040.0000 </r>
       <r>    10.8633     0.0000  1040.0000 </r>
       <r>    11.0363     0.0000  1040.0000 </r>
       <r>    11.2093     0.0000  1040.0000 </r>
       <r>    11.3823     0.0000  1040.0000 </r>
       <r>    11.5553     0.0000  1040.0000 </r>
       <r>    11.7283     0.0000  1040.0000 </r>
       <r>    11.9013     0.0000  1040.0000 </r>
       <r>    12.0742     0.0000  1040.0000 </r>
      </set>
     </set>
    </array>
   </total>
  </dos>
 </calculation>
 <structure name="finalpos" >
  <crystal>
   <varray name="basis" >
    <v>      12.09378762       0.00000000       0.00000000 </v>
    <v>       0.00000000      12.09378762       0.00000000 </v>
    <v>       0.00000000       0.00000000      12.09378762 </v>
   </varray>
   <i name="volume">   1768.83373704 </i>
   <varray name="rec_basis" >
    <v>       0.08268708       0.00000000       0.00000000 </v>
    <v>       0.00000000       0.08268708       0.00000000 </v>
    <v>       0.00000000       0.00000000       0.08268708 </v>
   </varray>
  </crystal>
  <varray name="positions" >
   <v>       0.54147619       0.43554260       0.23931782 </v>
   <v>       0.10378614       0.50866785       0.17889692 </v>
   <v>       0.06666019       0.40869783       0.48303562 </v>
   <v>       0.37194501       0.77605307       0.13759799 </v>
   <v>       0.43530552       0.68393565       0.56852966 </v>
   <v>       0.12471955       0.28837729       0.74693220 </v>
   <v>       0.31609786       0.94710773       0.80376907 </v>
   <v>       0.54192331       0.84081653       0.84877885 </v>
   <v>       0.06726531       0.88451677       0.85280177 </v>
   <v>       0.92170793       0.75104177       0.31412687 </v>
   <v>       0.61335592       0.74495194       0.36979334 </v>
   <v>       0.97196420       0.00047043       0.10626409 </v>
   <v>       0.30815882       0.02262444       0.30358167 </v>
   <v>       0.36048645       0.29928848       0.91062449 </v>
   <v>       0.92074253       0.02796797       0.44360943 </v>
   <v>       0.57396606       0.40004334       0.50466473 </v>
   <v>       0.56490072       0.17126892       0.78660354 </v>
   <v>       0.61149846       0.05588582       0.48265269 </v>
   <v>       0.92139178       0.67221732       0.96271935 </v>
   <v>       0.73349066       0.78009003       0.08232942 </v>
   <v>       0.76795947       0.36668997       0.76590635 </v>
   <v>       0.98642537       0.32048913       0.00711388 </v>
   <v>       0.78364146       0.81940390       0.65615444 </v>
   <v>       0.26431509       0.25443149       0.19305559 </v>
   <v>       0.76723228       0.23415044       0.29039458 </v>
   <v>       0.30441732       0.64375639       0.86537366 </v>
   <v>       0.00169436       0.68054735       0.59869806 </v>
   <v>       0.91044465       0.07606938       0.75101730 </v>
   <v>       0.65429442       0.27417892       0.00338303 </v>
   <v>       0.07532537       0.50768770       0.86572711 </v>
   <v>       0.75961057       0.51583823       0.16902336 </v>
   <v>       0.14458882       0.90974517       0.56303402 </v>
   <v>       0.60563902       0.58559304       0.01372620 </v>
   <v>       0.83811892       0.87591005       0.87270010 </v>
   <v>       0.21462000       0.97643424       0.08627877 </v>
   <v>       0.84778863       0.48701665       0.34957607 </v>
   <v>       0.46087110       0.22532041       0.37514973 </v>
   <v>       0.33279095       0.54292005       0.35413301 </v>
   <v>       0.17312654       0.14944256       0.94973356 </v>
   <v>       0.14955701       0.17937671       0.46892136 </v>
   <v>       0.41546211       0.07100918       0.00423632 </v>
   <v>       0.73646518       0.94458981       0.29467989 </v>
   <v>       0.62602771       0.09355173       0.15700997 </v>
   <v>       0.34248054       0.54882018       0.09835287 </v>
   <v>       0.83745660       0.19674684       0.60155391 </v>
   <v>       0.19816453       0.76515395       0.36636463 </v>
   <v>       0.33096673       0.32744874       0.58508960 </v>
   <v>       0.00010821       0.25431235       0.29506247 </v>
   <v>       0.83451114       0.17107119       0.93290004 </v>
   <v>       0.21403831       0.55282720       0.66045283 </v>
   <v>       0.62340049       0.58007003       0.75316261 </v>
   <v>       0.12096052       0.72848698       0.04292362 </v>
   <v>       0.72381026       0.60054519       0.54063978 </v>
   <v>       0.48889914       0.93194627       0.61338808 </v>
   <v>       0.92624474       0.81890766       0.77664457 </v>
   <v>       0.19134332       0.50977876       0.79260277 </v>
   <v>       0.12059988       0.05610115       0.53528631 </v>
   <v>       0.74171438       0.43135840       0.26541810 </v>
   <v>       0.92807635       0.35509525       0.33776458 </v>
   <v>       0.28981768       0.85029296       0.26838480 </v>
   <v>       0.06611826       0.31741297       0.20572126 </v>
   <v>       0.86226542       0.20081196       0.80567643 </v>
   <v>       0.13135001       0.72015880       0.91645902 </v>
   <v>       0.73764590       0.00593750       0.13723043 </v>
   <v>       0.74888113       0.94211014       0.42266161 </v>
   <v>       0.45728028       0.10010887       0.38746020 </v>
   <v>       0.00300240       0.88361612       0.55569438 </v>
   <v>       0.89326518       0.84436565       0.99369138 </v>
   <v>       0.42728682       0.27533336       0.23193641 </v>
   <v>       0.83945698       0.00284172       0.84763170 </v>
   <v>       0.93299794       0.13845401       0.00876924 </v>
   <v>       0.16879480       0.84798901       0.07737485 </v>
   <v>       0.00468279       0.60628054       0.80291124 </v>
   <v>       0.77809453       0.63921404       0.22693732 </v>
   <v>       0.38791661       0.58120037       0.22577022 </v>
   <v>       0.47057116       0.02247577       0.89614507 </v>
   <v>       0.20605808       0.91357355       0.68366188 </v>
   <v>       0.51861436       0.08993468       0.07108692 </v>
   <v>       0.21255003       0.46839493       0.33283280 </v>
   <v>       0.25587366       0.64649699       0.06421307 </v>
   <v>       0.36312084       0.29169887       0.71309912 </v>
   <v>       0.39056344       0.01816148       0.62287734 </v>
   <v>       0.62129117       0.57031939       0.88903665 </v>
   <v>       0.13724209       0.02099399       0.97890381 </v>
   <v>       0.94678306       0.56933488       0.35645922 </v>
   <v>       0.99997556       0.39897373       0.83183718 </v>
   <v>       0.83393920       0.69634505       0.52472199 </v>
   <v>       0.28815726       0.43578773       0.10952564 </v>
   <v>       0.56480620       0.32152160       0.92966636 </v>
   <v>       0.77616141       0.46602624       0.47107083 </v>
   <v>       0.08865827       0.51873592       0.61440287 </v>
   <v>       0.70640690       0.22468566       0.64600234 </v>
   <v>       0.78858555       0.31231782       0.99449294 </v>
   <v>       0.22230063       0.18403488       0.36078868 </v>
   <v>       0.04160419       0.06500358       0.78603430 </v>
   <v>       0.25686823       0.69215310       0.67592223 </v>
   <v>       0.37830036       0.79613218       0.94912395 </v>
   <v>       0.63972411       0.06981469       0.28601266 </v>
   <v>       0.10591701       0.47847185       0.99011523 </v>
   <v>       0.59138605       0.61973815       0.51235112 </v>
   <v>       0.31554102       0.46719552       0.58912978 </v>
   <v>       0.17059446       0.28990313       0.98931750 </v>
   <v>       0.69750449       0.16090656       0.94724274 </v>
   <v>       0.74759656       0.60971027       0.03897616 </v>
   <v>       0.45076646       0.48390016       0.39092022 </v>
   <v>       0.94451548       0.26508693       0.65092112 </v>
   <v>       0.45492862       0.84246962       0.70455362 </v>
   <v>       0.22664441       0.86351607       0.45249219 </v>
   <v>       0.01971297       0.69592769       0.13365406 </v>
   <v>       0.41227410       0.28171582       0.49850437 </v>
   <v>       0.64431374       0.86744064       0.24441567 </v>
   <v>       0.88495676       0.93564358       0.28967567 </v>
   <v>       0.65750756       0.22463395       0.14656863 </v>
   <v>       0.74037260       0.79075053       0.86785840 </v>
   <v>       0.05057112       0.23336631       0.45015327 </v>
   <v>       0.44361707       0.52287132       0.01153520 </v>
   <v>       0.29415127       0.14243921       0.03166835 </v>
   <v>       0.84534398       0.07302918       0.63055329 </v>
   <v>       0.73272142       0.63061632       0.68541495 </v>
   <v>       0.89769280       0.49280988       0.11407112 </v>
   <v>       0.51076943       0.64353551       0.72018510 </v>
   <v>       0.64753003       0.45660753       0.09888631 </v>
   <v>       0.61822612       0.99318408       0.67010570 </v>
   <v>       0.53961914       0.85371148       0.49327573 </v>
   <v>       0.65106047       0.45631553       0.69946271 </v>
   <v>       0.31333195       0.67001255       0.39677979 </v>
   <v>       0.16439740       0.05180036       0.18968097 </v>
   <v>       0.92294109       0.15263232       0.23735947 </v>
   <v>       0.20202093       0.15808951       0.81602623 </v>
   <v>       0.19959136       0.31108470       0.56021578 </v>
   <v>       0.34277685       0.98177713       0.07658997 </v>
   <v>       0.07240236       0.72631964       0.41679724 </v>
   <v>       0.58211411       0.25871174       0.40862114 </v>
   <v>       0.56279498       0.69413078       0.07856938 </v>
   <v>       0.81006247       0.18966197       0.46883653 </v>
  </varray>
  <varray name="velocities" >
   <v>       0.00000000       0.00000000       0.00000000 </v>
   <v>       0.00000000       0.00000000       0.00000000 </v>
   <v>       0.00000000       0.00000000       0.00000000 </v>
   <v>       0.00000000       0.00000000       0.00000000 </v>
   <v>       0.00000000       0.00000000       0.00000000 </v>
   <v>       0.00000000       0.00000000       0.00000000 </v>
   <v>       0.00000000       0.00000000       0.00000000 </v>
   <v>       0.00000000       0.00000000       0.00000000 </v>
   <v>       0.00000000       0.00000000       0.00000000 </v>
   <v>       0.00000000       0.00000000       0.00000000 </v>
   <v>       0.00000000       0.00000000       0.00000000 </v>
   <v>       0.00000000       0.00000000       0.00000000 </v>
   <v>       0.00000000       0.00000000       0.00000000 </v>
   <v>       0.00000000       0.00000000       0.00000000 </v>
   <v>       0.00000000       0.00000000       0.00000000 </v>
   <v>       0.00000000       0.00000000       0.00000000 </v>
   <v>       0.00000000       0.00000000       0.00000000 </v>
   <v>       0.00000000       0.00000000       0.00000000 </v>
   <v>       0.00000000       0.00000000       0.00000000 </v>
   <v>       0.00000000       0.00000000       0.00000000 </v>
   <v>       0.00000000       0.00000000       0.00000000 </v>
   <v>       0.00000000       0.00000000       0.00000000 </v>
   <v>       0.00000000       0.00000000       0.00000000 </v>
   <v>       0.00000000       0.00000000       0.00000000 </v>
   <v>       0.00000000       0.00000000       0.00000000 </v>
   <v>       0.00000000       0.00000000       0.00000000 </v>
   <v>       0.00000000       0.00000000       0.00000000 </v>
   <v>       0.00000000       0.00000000       0.00000000 </v>
   <v>       0.00000000       0.00000000       0.00000000 </v>
   <v>       0.00000000       0.00000000       0.00000000 </v>
   <v>       0.00000000       0.00000000       0.00000000 </v>
   <v>       0.00000000       0.00000000       0.00000000 </v>
   <v>       0.00000000       0.00000000       0.00000000 </v>
   <v>       0.00000000       0.00000000       0.00000000 </v>
   <v>       0.00000000       0.00000000       0.00000000 </v>
   <v>       0.00000000       0.00000000       0.00000000 </v>
   <v>       0.00000000       0.00000000       0.00000000 </v>
   <v>       0.00000000       0.00000000       0.00000000 </v>
   <v>       0.00000000       0.00000000       0.00000000 </v>
   <v>       0.00000000       0.00000000       0.00000000 </v>
   <v>       0.00000000       0.00000000       0.00000000 </v>
   <v>       0.00000000       0.00000000       0.00000000 </v>
   <v>       0.00000000       0.00000000       0.00000000 </v>
   <v>       0.00000000       0.00000000       0.00000000 </v>
   <v>       0.00000000       0.00000000       0.00000000 </v>
   <v>       0.00000000       0.00000000       0.00000000 </v>
   <v>       0.00000000       0.00000000       0.00000000 </v>
   <v>       0.00000000       0.00000000       0.00000000 </v>
   <v>       0.00000000       0.00000000       0.00000000 </v>
   <v>       0.00000000       0.00000000       0.00000000 </v>
   <v>       0.00000000       0.00000000       0.00000000 </v>
   <v>       0.00000000       0.00000000       0.00000000 </v>
   <v>       0.00000000       0.00000000       0.00000000 </v>
   <v>       0.00000000       0.00000000       0.00000000 </v>
   <v>       0.00000000       0.00000000       0.00000000 </v>
   <v>       0.00000000       0.00000000       0.00000000 </v>
   <v>       0.00000000       0.00000000       0.00000000 </v>
   <v>       0.00000000       0.00000000       0.00000000 </v>
   <v>       0.00000000       0.00000000       0.00000000 </v>
   <v>       0.00000000       0.00000000       0.00000000 </v>
   <v>       0.00000000       0.00000000       0.00000000 </v>
   <v>       0.00000000       0.00000000       0.00000000 </v>
   <v>       0.00000000       0.00000000       0.00000000 </v>
   <v>       0.00000000       0.00000000       0.00000000 </v>
   <v>       0.00000000       0.00000000       0.00000000 </v>
   <v>       0.00000000       0.00000000       0.00000000 </v>
   <v>       0.00000000       0.00000000       0.00000000 </v>
   <v>       0.00000000       0.00000000       0.00000000 </v>
   <v>       0.00000000       0.00000000       0.00000000 </v>
   <v>       0.00000000       0.00000000       0.00000000 </v>
   <v>       0.00000000       0.00000000       0.00000000 </v>
   <v>       0.00000000       0.00000000       0.00000000 </v>
   <v>       0.00000000       0.00000000       0.00000000 </v>
   <v>       0.00000000       0.00000000       0.00000000 </v>
   <v>       0.00000000       0.00000000       0.00000000 </v>
   <v>       0.00000000       0.00000000       0.00000000 </v>
   <v>       0.00000000       0.00000000       0.00000000 </v>
   <v>       0.00000000       0.00000000       0.00000000 </v>
   <v>       0.00000000       0.00000000       0.00000000 </v>
   <v>       0.00000000       0.00000000       0.00000000 </v>
   <v>       0.00000000       0.00000000       0.00000000 </v>
   <v>       0.00000000       0.00000000       0.00000000 </v>
   <v>       0.00000000       0.00000000       0.00000000 </v>
   <v>       0.00000000       0.00000000       0.00000000 </v>
   <v>       0.00000000       0.00000000       0.00000000 </v>
   <v>       0.00000000       0.00000000       0.00000000 </v>
   <v>       0.00000000       0.00000000       0.00000000 </v>
   <v>       0.00000000       0.00000000       0.00000000 </v>
   <v>       0.00000000       0.00000000       0.00000000 </v>
   <v>       0.00000000       0.00000000       0.00000000 </v>
   <v>       0.00000000       0.00000000       0.00000000 </v>
   <v>       0.00000000       0.00000000       0.00000000 </v>
   <v>       0.00000000       0.00000000       0.00000000 </v>
   <v>       0.00000000       0.00000000       0.00000000 </v>
   <v>       0.00000000       0.00000000       0.00000000 </v>
   <v>       0.00000000       0.00000000       0.00000000 </v>
   <v>       0.00000000       0.00000000       0.00000000 </v>
   <v>       0.00000000       0.00000000       0.00000000 </v>
   <v>       0.00000000       0.00000000       0.00000000 </v>
   <v>       0.00000000       0.00000000       0.00000000 </v>
   <v>       0.00000000       0.00000000       0.00000000 </v>
   <v>       0.00000000       0.00000000       0.00000000 </v>
   <v>       0.00000000       0.00000000       0.00000000 </v>
   <v>       0.00000000       0.00000000       0.00000000 </v>
   <v>       0.00000000       0.00000000       0.00000000 </v>
   <v>       0.00000000       0.00000000       0.00000000 </v>
   <v>       0.00000000       0.00000000       0.00000000 </v>
   <v>       0.00000000       0.00000000       0.00000000 </v>
   <v>       0.00000000       0.00000000       0.00000000 </v>
   <v>       0.00000000       0.00000000       0.00000000 </v>
   <v>       0.00000000       0.00000000       0.00000000 </v>
   <v>       0.00000000       0.00000000       0.00000000 </v>
   <v>       0.00000000       0.00000000       0.00000000 </v>
   <v>       0.00000000       0.00000000       0.00000000 </v>
   <v>       0.00000000       0.00000000       0.00000000 </v>
   <v>       0.00000000       0.00000000       0.00000000 </v>
   <v>       0.00000000       0.00000000       0.00000000 </v>
   <v>       0.00000000       0.00000000       0.00000000 </v>
   <v>       0.00000000       0.00000000       0.00000000 </v>
   <v>       0.00000000       0.00000000       0.00000000 </v>
   <v>       0.00000000       0.00000000       0.00000000 </v>
   <v>       0.00000000       0.00000000       0.00000000 </v>
   <v>       0.00000000       0.00000000       0.00000000 </v>
   <v>       0.00000000       0.00000000       0.00000000 </v>
   <v>       0.00000000       0.00000000       0.00000000 </v>
   <v>       0.00000000       0.00000000       0.00000000 </v>
   <v>       0.00000000       0.00000000       0.00000000 </v>
   <v>       0.00000000       0.00000000       0.00000000 </v>
   <v>       0.00000000       0.00000000       0.00000000 </v>
   <v>       0.00000000       0.00000000       0.00000000 </v>
   <v>       0.00000000       0.00000000       0.00000000 </v>
   <v>       0.00000000       0.00000000       0.00000000 </v>
   <v>       0.00000000       0.00000000       0.00000000 </v>
   <v>       0.00000000       0.00000000       0.00000000 </v>
   <v>       0.00000000       0.00000000       0.00000000 </v>
  </varray>
 </structure>
</modeling>
