<?xml version="1.0" encoding="ISO-8859-1"?>
<modeling>
 <generator>
  <i name="program" type="string">vasp </i>
  <i name="version" type="string">5.4.4.18Apr17-6-g9f103f2a35  </i>
  <i name="subversion" type="string">(build Oct 31 2019 15:01:46) complex            parallel </i>
  <i name="platform" type="string">LinuxIFC </i>
  <i name="date" type="string">2024 04 30 </i>
  <i name="time" type="string">03:38:09 </i>
 </generator>
 <incar>
  <i type="int" name="ISTART">     0</i>
  <i type="string" name="PREC">a</i>
  <i type="logical" name="ADDGRID"> T  </i>
  <i type="int" name="IBRION">    -1</i>
  <i name="EDIFF">      0.00000100</i>
  <i name="EDIFFG">     -0.01000000</i>
  <i type="int" name="NSW">     1</i>
  <i type="int" name="ISIF">     2</i>
  <i type="int" name="ISYM">     0</i>
  <i name="ENCUT">    600.00000000</i>
  <i name="POTIM">      1.00000000</i>
  <i type="string" name="LREAL">  Auto</i>
  <i type="int" name="ISMEAR">     0</i>
  <i name="SIGMA">      0.05000000</i>
  <i name="KSPACING">      0.30000000</i>
  <i type="logical" name="KGAMMA"> T  </i>
  <i type="logical" name="LWAVE"> F  </i>
  <i type="logical" name="LCHARG"> F  </i>
  <i type="logical" name="LSCALAPACK"> F  </i>
  <v type="int" name="KPOINT_BSE">    -1     0     0     0</v>
 </incar>
 <structure name="primitive_cell" >
  <crystal>
   <varray name="basis" >
    <v>      11.12194768       0.00000000       0.00000000 </v>
    <v>       0.00000000      11.12194768       0.00000000 </v>
    <v>       0.00000000       0.00000000      11.12194768 </v>
   </varray>
   <i name="volume">   1375.75957216 </i>
   <varray name="rec_basis" >
    <v>       0.08991231       0.00000000       0.00000000 </v>
    <v>       0.00000000       0.08991231       0.00000000 </v>
    <v>       0.00000000       0.00000000       0.08991231 </v>
   </varray>
  </crystal>
  <varray name="positions" >
   <v>      -0.24431049       0.42837567       0.09408303 </v>
   <v>      -0.38096811       0.49623523       0.18076319 </v>
   <v>      -0.16294193       0.31311864       0.20577999 </v>
   <v>      -0.35281861       0.31887046      -0.05684077 </v>
   <v>      -0.05778284      -0.46354787       0.11020503 </v>
   <v>      -0.09407089       0.33477956      -0.03750852 </v>
   <v>      -0.28145143      -0.36494683       0.02658314 </v>
   <v>      -0.21854551       0.47064628      -0.12623430 </v>
   <v>      -0.29625816       0.43905593       0.32985514 </v>
   <v>      -0.43821514       0.26431610       0.16436363 </v>
   <v>      -0.47236531       0.40370023       0.23111964 </v>
   <v>      -0.28315918      -0.41567659       0.32587221 </v>
   <v>      -0.15539480       0.39137921       0.36295045 </v>
   <v>      -0.28262199       0.19028317       0.27915159 </v>
   <v>      -0.01437466      -0.44791304       0.26311047 </v>
   <v>      -0.34268693      -0.31274862       0.23623016 </v>
   <v>      -0.14157143      -0.40333858       0.33641178 </v>
   <v>       0.06570683       0.42229529       0.03359015 </v>
   <v>      -0.28989155       0.11452959       0.10733232 </v>
   <v>      -0.40436598       0.49165607      -0.17897392 </v>
   <v>      -0.12407197      -0.26902763       0.12749283 </v>
   <v>      -0.06824473       0.15013389       0.10476452 </v>
   <v>      -0.02943550       0.45182231       0.35869577 </v>
   <v>       0.41043534       0.45579243       0.09512956 </v>
   <v>       0.47394132      -0.36604118       0.10166770 </v>
   <v>      -0.47419551       0.17142290       0.03304658 </v>
   <v>      -0.31060015      -0.28325410      -0.09391536 </v>
   <v>      -0.18110760       0.23085915      -0.20001361 </v>
   <v>      -0.18308440      -0.36561313      -0.19459279 </v>
   <v>      -0.42765277       0.33902570      -0.20408304 </v>
   <v>      -0.49848843       0.37045681       0.36412503 </v>
   <v>       0.09656489       0.27211525       0.17957278 </v>
   <v>      -0.01965820      -0.31038823       0.27314584 </v>
   <v>       0.40585962       0.44569717      -0.07921277 </v>
   <v>      -0.44639963      -0.32001703      -0.13070332 </v>
   <v>       0.04067223      -0.35651438      -0.07246981 </v>
   <v>      -0.18857279       0.30081001       0.46327902 </v>
   <v>      -0.13953471       0.08368759       0.28754942 </v>
   <v>       0.13179817       0.49936378       0.23993359 </v>
   <v>      -0.45322712       0.10657904      -0.09137701 </v>
   <v>      -0.10548892      -0.19393199      -0.05229834 </v>
   <v>      -0.05227284      -0.29298479      -0.17061284 </v>
   <v>      -0.34010773      -0.38086826       0.46993479 </v>
   <v>       0.38708026       0.21755094       0.01073247 </v>
   <v>      -0.23010194       0.04901895      -0.11590001 </v>
   <v>      -0.29083704       0.00271301       0.02200447 </v>
   <v>       0.01406762       0.38749015      -0.26953165 </v>
   <v>      -0.19934408       0.31795986      -0.34388786 </v>
   <v>      -0.35277046       0.30969113      -0.47863846 </v>
   <v>       0.04211987       0.16821138       0.33945652 </v>
   <v>       0.41180649       0.19287654       0.29085566 </v>
   <v>      -0.06761769      -0.42298038      -0.49870940 </v>
   <v>       0.42342393       0.34109355      -0.22538384 </v>
   <v>       0.15636747       0.32842586       0.33238709 </v>
   <v>      -0.40695200      -0.38858767      -0.31537034 </v>
   <v>      -0.04871326       0.01302244      -0.04337341 </v>
   <v>       0.45957310       0.05034731       0.10952019 </v>
   <v>      -0.25557690      -0.18298812      -0.19143451 </v>
   <v>       0.06044543      -0.38116163       0.41598996 </v>
   <v>       0.10205806       0.11870616       0.23313445 </v>
   <v>       0.02091674       0.13187634      -0.18383404 </v>
   <v>       0.33645900      -0.43072862       0.29395202 </v>
   <v>       0.08002254      -0.20935109       0.09314218 </v>
   <v>       0.13013800       0.28270306      -0.18337359 </v>
   <v>       0.21311899       0.32555120      -0.04284873 </v>
   <v>      -0.22583215      -0.08304788       0.12954671 </v>
   <v>       0.27723495      -0.49261192       0.16657220 </v>
   <v>       0.15118055       0.14027290       0.04092590 </v>
   <v>       0.47396238      -0.23198686       0.31427270 </v>
   <v>       0.44839920      -0.40704341       0.44297768 </v>
   <v>      -0.33652599       0.01655108       0.35144498 </v>
   <v>      -0.47572708       0.17146156       0.45386175 </v>
   <v>      -0.07441310      -0.14857246       0.30033115 </v>
   <v>      -0.42733699       0.22115150      -0.32399031 </v>
   <v>       0.25978526       0.36705099       0.15053538 </v>
   <v>      -0.26986535      -0.20507949       0.43852002 </v>
   <v>       0.23113867       0.25484756       0.07558790 </v>
   <v>      -0.24724866       0.13567460      -0.48975038 </v>
   <v>       0.05028536       0.33625470       0.49866712 </v>
   <v>       0.15320306      -0.26990188      -0.01170068 </v>
   <v>      -0.11328475       0.48096102      -0.39902312 </v>
   <v>      -0.40630385      -0.09789377      -0.02181485 </v>
   <v>      -0.17052879      -0.05362313       0.25653362 </v>
   <v>      -0.35277461       0.07321382      -0.26681048 </v>
   <v>       0.38530003      -0.26602716      -0.11729888 </v>
   <v>       0.06840183      -0.18457782       0.26200159 </v>
   <v>      -0.14124486      -0.30009751      -0.46235502 </v>
   <v>       0.40632078      -0.17478701       0.04053196 </v>
   <v>      -0.37320222       0.07322313       0.47254410 </v>
   <v>       0.07057923       0.00188768       0.17438305 </v>
   <v>       0.25675221      -0.36703633       0.03695240 </v>
   <v>      -0.43145992      -0.08991434       0.26071656 </v>
   <v>      -0.04744908       0.31137589      -0.39935095 </v>
   <v>      -0.11564071      -0.05822535      -0.12962301 </v>
   <v>       0.38124418       0.15105761      -0.20551505 </v>
   <v>       0.20332363      -0.38694433       0.36717053 </v>
   <v>       0.45604930      -0.02624851      -0.02704927 </v>
   <v>       0.44720844      -0.49111189      -0.36487882 </v>
   <v>       0.19717428      -0.26295652       0.27057527 </v>
   <v>       0.25980141      -0.46823277      -0.16387636 </v>
   <v>       0.39521408       0.32296589      -0.46794659 </v>
   <v>       0.00819036      -0.21226978      -0.28515796 </v>
   <v>      -0.05287291       0.04832068       0.49776007 </v>
   <v>       0.22089838       0.46827298       0.44950412 </v>
   <v>       0.25784619       0.13764968       0.20717161 </v>
   <v>      -0.14530445      -0.17481014      -0.33141561 </v>
   <v>      -0.49886654      -0.16938041      -0.25672095 </v>
   <v>      -0.02380600       0.14852834      -0.37855635 </v>
   <v>      -0.48088843      -0.22389752      -0.48129974 </v>
   <v>       0.13343229      -0.02144787      -0.03269275 </v>
   <v>       0.11386955       0.45206009      -0.41666702 </v>
   <v>      -0.17423423      -0.04780838      -0.27738365 </v>
   <v>       0.30898761      -0.46107903      -0.30776642 </v>
   <v>       0.16041609      -0.16859258      -0.13039140 </v>
   <v>       0.39750558      -0.01327500       0.34966856 </v>
   <v>       0.03476318      -0.20705893      -0.48094831 </v>
   <v>       0.38083811      -0.19201480       0.42308275 </v>
   <v>       0.33049398       0.00348230      -0.09134929 </v>
   <v>       0.12384790      -0.39401187      -0.38560401 </v>
   <v>       0.07602819       0.06298520      -0.30739681 </v>
   <v>       0.25448813       0.23990130       0.45112981 </v>
   <v>       0.13535530      -0.13250102       0.37797940 </v>
   <v>       0.32110145      -0.05409787       0.18630635 </v>
   <v>       0.23739978       0.40321021      -0.35103207 </v>
   <v>      -0.13093386      -0.10068573      -0.45824360 </v>
   <v>       0.32788625      -0.31199623      -0.33597500 </v>
   <v>       0.47005346       0.05482696      -0.37005431 </v>
   <v>       0.26061958      -0.28483899       0.44279666 </v>
   <v>      -0.35483045      -0.06910821      -0.45079900 </v>
   <v>       0.22641281       0.12233247      -0.31460631 </v>
   <v>       0.23579974       0.03415131       0.46597160 </v>
   <v>       0.49603774      -0.10039342      -0.39137857 </v>
   <v>       0.29706580      -0.11399831      -0.27710270 </v>
   <v>       0.13024576      -0.02719719      -0.39351376 </v>
   <v>       0.31969055      -0.08828561      -0.43137368 </v>
  </varray>
 </structure>
 <varray name="primitive_index" >
  <v type="int" >        1 </v>
  <v type="int" >      111 </v>
  <v type="int" >       65 </v>
  <v type="int" >      132 </v>
  <v type="int" >       74 </v>
  <v type="int" >      119 </v>
  <v type="int" >       84 </v>
  <v type="int" >        8 </v>
  <v type="int" >      125 </v>
  <v type="int" >      102 </v>
  <v type="int" >       28 </v>
  <v type="int" >       44 </v>
  <v type="int" >       40 </v>
  <v type="int" >       12 </v>
  <v type="int" >       42 </v>
  <v type="int" >       97 </v>
  <v type="int" >       78 </v>
  <v type="int" >       24 </v>
  <v type="int" >      127 </v>
  <v type="int" >      103 </v>
  <v type="int" >       25 </v>
  <v type="int" >       18 </v>
  <v type="int" >       83 </v>
  <v type="int" >      109 </v>
  <v type="int" >       23 </v>
  <v type="int" >       51 </v>
  <v type="int" >       41 </v>
  <v type="int" >        6 </v>
  <v type="int" >       95 </v>
  <v type="int" >       38 </v>
  <v type="int" >      129 </v>
  <v type="int" >       58 </v>
  <v type="int" >       79 </v>
  <v type="int" >        7 </v>
  <v type="int" >      133 </v>
  <v type="int" >      100 </v>
  <v type="int" >       70 </v>
  <v type="int" >       62 </v>
  <v type="int" >       71 </v>
  <v type="int" >      106 </v>
  <v type="int" >       59 </v>
  <v type="int" >       48 </v>
  <v type="int" >      115 </v>
  <v type="int" >       92 </v>
  <v type="int" >       94 </v>
  <v type="int" >       36 </v>
  <v type="int" >       89 </v>
  <v type="int" >       86 </v>
  <v type="int" >       27 </v>
  <v type="int" >      131 </v>
  <v type="int" >       14 </v>
  <v type="int" >       45 </v>
  <v type="int" >       90 </v>
  <v type="int" >       26 </v>
  <v type="int" >       22 </v>
  <v type="int" >       60 </v>
  <v type="int" >       61 </v>
  <v type="int" >       69 </v>
  <v type="int" >      108 </v>
  <v type="int" >       32 </v>
  <v type="int" >      120 </v>
  <v type="int" >       82 </v>
  <v type="int" >      116 </v>
  <v type="int" >        9 </v>
  <v type="int" >       85 </v>
  <v type="int" >       56 </v>
  <v type="int" >       53 </v>
  <v type="int" >      126 </v>
  <v type="int" >      110 </v>
  <v type="int" >       17 </v>
  <v type="int" >      113 </v>
  <v type="int" >       96 </v>
  <v type="int" >       75 </v>
  <v type="int" >      128 </v>
  <v type="int" >       55 </v>
  <v type="int" >       19 </v>
  <v type="int" >       34 </v>
  <v type="int" >       73 </v>
  <v type="int" >       80 </v>
  <v type="int" >       39 </v>
  <v type="int" >       99 </v>
  <v type="int" >       98 </v>
  <v type="int" >       31 </v>
  <v type="int" >        5 </v>
  <v type="int" >        2 </v>
  <v type="int" >       49 </v>
  <v type="int" >      122 </v>
  <v type="int" >       76 </v>
  <v type="int" >       37 </v>
  <v type="int" >       64 </v>
  <v type="int" >      101 </v>
  <v type="int" >       16 </v>
  <v type="int" >       50 </v>
  <v type="int" >       35 </v>
  <v type="int" >       21 </v>
  <v type="int" >       33 </v>
  <v type="int" >       30 </v>
  <v type="int" >       67 </v>
  <v type="int" >      134 </v>
  <v type="int" >      104 </v>
  <v type="int" >       20 </v>
  <v type="int" >      114 </v>
  <v type="int" >       10 </v>
  <v type="int" >      107 </v>
  <v type="int" >      105 </v>
  <v type="int" >       54 </v>
  <v type="int" >       93 </v>
  <v type="int" >      121 </v>
  <v type="int" >       87 </v>
  <v type="int" >       15 </v>
  <v type="int" >       43 </v>
  <v type="int" >       88 </v>
  <v type="int" >       47 </v>
  <v type="int" >      117 </v>
  <v type="int" >      112 </v>
  <v type="int" >        3 </v>
  <v type="int" >       46 </v>
  <v type="int" >      130 </v>
  <v type="int" >      124 </v>
  <v type="int" >       29 </v>
  <v type="int" >       68 </v>
  <v type="int" >       91 </v>
  <v type="int" >        4 </v>
  <v type="int" >       66 </v>
  <v type="int" >      123 </v>
  <v type="int" >      135 </v>
  <v type="int" >      118 </v>
  <v type="int" >       63 </v>
  <v type="int" >       57 </v>
  <v type="int" >       81 </v>
  <v type="int" >       13 </v>
  <v type="int" >       52 </v>
  <v type="int" >       11 </v>
  <v type="int" >       72 </v>
  <v type="int" >       77 </v>
 </varray>
 <kpoints>
  <generation param="Gamma">
   <v type="int" name="divisions">       2        2        2 </v>
   <v name="usershift">      0.00000000       0.00000000       0.00000000 </v>
   <v name="genvec1">      0.50000000       0.00000000       0.00000000 </v>
   <v name="genvec2">      0.00000000       0.50000000       0.00000000 </v>
   <v name="genvec3">      0.00000000       0.00000000       0.50000000 </v>
   <v name="shift">      0.00000000       0.00000000       0.00000000 </v>
  </generation>
  <varray name="kpointlist" >
   <v>       0.00000000       0.00000000       0.00000000 </v>
   <v>       0.50000000       0.00000000       0.00000000 </v>
   <v>       0.00000000       0.50000000       0.00000000 </v>
   <v>       0.50000000       0.50000000       0.00000000 </v>
   <v>       0.00000000       0.00000000       0.50000000 </v>
   <v>       0.50000000       0.00000000       0.50000000 </v>
   <v>       0.00000000       0.50000000       0.50000000 </v>
   <v>       0.50000000       0.50000000       0.50000000 </v>
  </varray>
  <varray name="weights" >
   <v>       0.12500000 </v>
   <v>       0.12500000 </v>
   <v>       0.12500000 </v>
   <v>       0.12500000 </v>
   <v>       0.12500000 </v>
   <v>       0.12500000 </v>
   <v>       0.12500000 </v>
   <v>       0.12500000 </v>
  </varray>
 </kpoints>
 <parameters>
  <separator name="general" >
   <i type="string" name="SYSTEM">unknown system</i>
   <i type="logical" name="LCOMPAT"> F  </i>
  </separator>
  <separator name="electronic" >
   <i type="string" name="PREC">a</i>
   <i name="ENMAX">    600.00000000</i>
   <i name="ENAUG">    605.39200000</i>
   <i name="EDIFF">      0.00000100</i>
   <i type="int" name="IALGO">    38</i>
   <i type="int" name="IWAVPR">    10</i>
   <i type="int" name="NBANDS">   520</i>
   <i name="NELECT">    864.00000000</i>
   <i type="int" name="TURBO">     0</i>
   <i type="int" name="IRESTART">     0</i>
   <i type="int" name="NREBOOT">     0</i>
   <i type="int" name="NMIN">     0</i>
   <i name="EREF">      0.00000000</i>
   <separator name="electronic smearing" >
    <i type="int" name="ISMEAR">     0</i>
    <i name="SIGMA">      0.05000000</i>
    <i name="KSPACING">      0.30000000</i>
    <i type="logical" name="KGAMMA"> T  </i>
   </separator>
   <separator name="electronic projectors" >
    <i type="logical" name="LREAL"> T  </i>
    <v name="ROPT">     -0.00025000     -0.00025000     -0.00025000</v>
    <i type="int" name="LMAXPAW">  -100</i>
    <i type="int" name="LMAXMIX">     2</i>
    <i type="logical" name="NLSPLINE"> F  </i>
   </separator>
   <separator name="electronic startup" >
    <i type="int" name="ISTART">     0</i>
    <i type="int" name="ICHARG">     2</i>
    <i type="int" name="INIWAV">     1</i>
   </separator>
   <separator name="electronic spin" >
    <i type="int" name="ISPIN">     1</i>
    <i type="logical" name="LNONCOLLINEAR"> F  </i>
    <v name="MAGMOM">      1.00000000      1.00000000      1.00000000      1.00000000      1.00000000      1.00000000      1.00000000      1.00000000      1.00000000      1.00000000      1.00000000      1.00000000      1.00000000      1.00000000      1.00000000      1.00000000      1.00000000      1.00000000      1.00000000      1.00000000
      1.00000000      1.00000000      1.00000000      1.00000000      1.00000000      1.00000000      1.00000000      1.00000000      1.00000000      1.00000000      1.00000000      1.00000000      1.00000000      1.00000000      1.00000000      1.00000000      1.00000000      1.00000000      1.00000000      1.00000000
      1.00000000      1.00000000      1.00000000      1.00000000      1.00000000      1.00000000      1.00000000      1.00000000      1.00000000      1.00000000      1.00000000      1.00000000      1.00000000      1.00000000      1.00000000      1.00000000      1.00000000      1.00000000      1.00000000      1.00000000
      1.00000000      1.00000000      1.00000000      1.00000000      1.00000000      1.00000000      1.00000000      1.00000000      1.00000000      1.00000000      1.00000000      1.00000000      1.00000000      1.00000000      1.00000000      1.00000000      1.00000000      1.00000000      1.00000000      1.00000000
      1.00000000      1.00000000      1.00000000      1.00000000      1.00000000      1.00000000      1.00000000      1.00000000      1.00000000      1.00000000      1.00000000      1.00000000      1.00000000      1.00000000      1.00000000      1.00000000      1.00000000      1.00000000      1.00000000      1.00000000
      1.00000000      1.00000000      1.00000000      1.00000000      1.00000000      1.00000000      1.00000000      1.00000000      1.00000000      1.00000000      1.00000000      1.00000000      1.00000000      1.00000000      1.00000000      1.00000000      1.00000000      1.00000000      1.00000000      1.00000000
      1.00000000      1.00000000      1.00000000      1.00000000      1.00000000      1.00000000      1.00000000      1.00000000      1.00000000      1.00000000      1.00000000      1.00000000      1.00000000      1.00000000      1.00000000</v>
    <i name="NUPDOWN">     -1.00000000</i>
    <i type="logical" name="LSORBIT"> F  </i>
    <v name="SAXIS">      0.00000000      0.00000000      1.00000000</v>
    <i type="logical" name="LSPIRAL"> F  </i>
    <v name="QSPIRAL">      0.00000000      0.00000000      0.00000000</v>
    <i type="logical" name="LZEROZ"> F  </i>
   </separator>
   <separator name="electronic exchange-correlation" >
    <i type="logical" name="LASPH"> F  </i>
    <i type="logical" name="LMETAGGA"> F  </i>
   </separator>
   <separator name="electronic convergence" >
    <i type="int" name="NELM">    60</i>
    <i type="int" name="NELMDL">    -5</i>
    <i type="int" name="NELMIN">     2</i>
    <i name="ENINI">    600.00000000</i>
    <separator name="electronic convergence detail" >
     <i type="logical" name="LDIAG"> T  </i>
     <i type="logical" name="LSUBROT"> F  </i>
     <i name="WEIMIN">      0.00000000</i>
     <i name="EBREAK">      0.00000000</i>
     <i name="DEPER">      0.30000000</i>
     <i type="int" name="NRMM">     4</i>
     <i name="TIME">      0.40000000</i>
    </separator>
   </separator>
   <separator name="electronic mixer" >
    <i name="AMIX">      0.40000000</i>
    <i name="BMIX">      1.00000000</i>
    <i name="AMIN">      0.10000000</i>
    <i name="AMIX_MAG">      1.60000000</i>
    <i name="BMIX_MAG">      1.00000000</i>
    <separator name="electronic mixer details" >
     <i type="int" name="IMIX">     4</i>
     <i type="logical" name="MIXFIRST"> F  </i>
     <i type="int" name="MAXMIX">   -45</i>
     <i name="WC">    100.00000000</i>
     <i type="int" name="INIMIX">     1</i>
     <i type="int" name="MIXPRE">     1</i>
     <i type="int" name="MREMOVE">     5</i>
    </separator>
   </separator>
   <separator name="electronic dipolcorrection" >
    <i type="logical" name="LDIPOL"> F  </i>
    <i type="logical" name="LMONO"> F  </i>
    <i type="int" name="IDIPOL">     0</i>
    <i name="EPSILON">      1.00000000</i>
    <v name="DIPOL">   -100.00000000   -100.00000000   -100.00000000</v>
    <i name="EFIELD">      0.00000000</i>
   </separator>
  </separator>
  <separator name="grids" >
   <i type="int" name="NGX">    90</i>
   <i type="int" name="NGY">    90</i>
   <i type="int" name="NGZ">    90</i>
   <i type="int" name="NGXF">   180</i>
   <i type="int" name="NGYF">   180</i>
   <i type="int" name="NGZF">   180</i>
   <i type="logical" name="ADDGRID"> T  </i>
  </separator>
  <separator name="ionic" >
   <i type="int" name="NSW">     1</i>
   <i type="int" name="IBRION">    -1</i>
   <i type="int" name="MDALGO">     0</i>
   <i type="int" name="ISIF">     2</i>
   <i name="PSTRESS">      0.00000000</i>
   <i name="EDIFFG">     -0.01000000</i>
   <i type="int" name="NFREE">     0</i>
   <i name="POTIM">      1.00000000</i>
   <i name="SMASS">     -3.00000000</i>
   <i name="SCALEE">      1.00000000</i>
  </separator>
  <separator name="ionic md" >
   <i name="TEBEG">      0.00010000</i>
   <i name="TEEND">      0.00010000</i>
   <i type="int" name="NBLOCK">     1</i>
   <i type="int" name="KBLOCK">     1</i>
   <i type="int" name="NPACO">   256</i>
   <i name="APACO">     16.00000000</i>
  </separator>
  <separator name="symmetry" >
   <i type="int" name="ISYM">     0</i>
   <i name="SYMPREC">      0.00001000</i>
  </separator>
  <separator name="dos" >
   <i type="int" name="LORBIT">     0</i>
   <v name="RWIGS">     -1.00000000     -1.00000000     -1.00000000</v>
   <i type="int" name="NEDOS">   301</i>
   <i name="EMIN">     10.00000000</i>
   <i name="EMAX">    -10.00000000</i>
   <i name="EFERMI">      0.00000000</i>
  </separator>
  <separator name="writing" >
   <i type="int" name="NWRITE">     2</i>
   <i type="logical" name="LWAVE"> F  </i>
   <i type="logical" name="LDOWNSAMPLE"> F  </i>
   <i type="logical" name="LCHARG"> F  </i>
   <i type="logical" name="LPARD"> F  </i>
   <i type="logical" name="LVTOT"> F  </i>
   <i type="logical" name="LVHAR"> F  </i>
   <i type="logical" name="LELF"> F  </i>
   <i type="logical" name="LOPTICS"> F  </i>
   <v name="STM">      0.00000000      0.00000000      0.00000000      0.00000000      0.00000000      0.00000000      0.00000000</v>
  </separator>
  <separator name="performance" >
   <i type="int" name="NPAR">     4</i>
   <i type="int" name="NSIM">     4</i>
   <i type="int" name="NBLK">    -1</i>
   <i type="logical" name="LPLANE"> T  </i>
   <i type="logical" name="LSCALAPACK"> F  </i>
   <i type="logical" name="LSCAAWARE"> F  </i>
   <i type="logical" name="LSCALU"> F  </i>
   <i type="logical" name="LASYNC"> F  </i>
   <i type="logical" name="LORBITALREAL"> F  </i>
  </separator>
  <separator name="miscellaneous" >
   <i type="int" name="IDIOT">     3</i>
   <i type="int" name="ISPECIAL">     0</i>
   <i type="logical" name="LMUSIC"> F  </i>
   <v name="POMASS">     40.07800000     28.08500000     16.00000000</v>
   <v name="DARWINR">      0.00000000      0.00000000      0.00000000</v>
   <v name="DARWINV">      1.00000000      1.00000000      1.00000000</v>
   <i type="logical" name="LCORR"> T  </i>
  </separator>
  <i type="logical" name="GGA_COMPAT"> T  </i>
  <i type="logical" name="LBERRY"> F  </i>
  <i type="int" name="ICORELEVEL">     0</i>
  <i type="logical" name="LDAU"> F  </i>
  <i type="int" name="I_CONSTRAINED_M">     0</i>
  <separator name="electronic exchange-correlation" >
   <i type="string" name="GGA">--</i>
   <i type="int" name="VOSKOWN">     0</i>
   <i type="logical" name="LHFCALC"> F  </i>
   <i type="string" name="PRECFOCK"></i>
   <i type="logical" name="LSYMGRAD"> F  </i>
   <i type="logical" name="LHFONE"> F  </i>
   <i type="logical" name="LRHFCALC"> F  </i>
   <i type="logical" name="LTHOMAS"> F  </i>
   <i type="logical" name="LMODELHF"> F  </i>
   <i name="ENCUT4O">     -1.00000000</i>
   <i type="int" name="EXXOEP">     0</i>
   <i type="int" name="FOURORBIT">     0</i>
   <i name="AEXX">      0.00000000</i>
   <i name="HFALPHA">      0.00000000</i>
   <i name="MCALPHA">      0.00000000</i>
   <i name="ALDAX">      1.00000000</i>
   <i name="AGGAX">      1.00000000</i>
   <i name="ALDAC">      1.00000000</i>
   <i name="AGGAC">      1.00000000</i>
   <i type="int" name="NKREDX">     1</i>
   <i type="int" name="NKREDY">     1</i>
   <i type="int" name="NKREDZ">     1</i>
   <i type="logical" name="SHIFTRED"> F  </i>
   <i type="logical" name="ODDONLY"> F  </i>
   <i type="logical" name="EVENONLY"> F  </i>
   <i type="int" name="LMAXFOCK">     0</i>
   <i type="int" name="NMAXFOCKAE">     0</i>
   <i type="logical" name="LFOCKAEDFT"> F  </i>
   <i name="HFSCREEN">      0.00000000</i>
   <i name="HFSCREENC">      0.00000000</i>
   <i type="int" name="NBANDSGWLOW">     0</i>
  </separator>
  <separator name="vdW DFT" >
   <i type="logical" name="LUSE_VDW"> F  </i>
   <i name="Zab_VDW">     -0.84910000</i>
   <i name="PARAM1">      0.12340000</i>
   <i name="PARAM2">      1.00000000</i>
   <i name="PARAM3">      0.00000000</i>
  </separator>
  <separator name="model GW" >
   <i type="int" name="MODEL_GW">     0</i>
   <i name="MODEL_EPS0">      6.11448699</i>
   <i name="MODEL_ALPHA">      1.00000000</i>
  </separator>
  <separator name="linear response parameters" >
   <i type="logical" name="LEPSILON"> F  </i>
   <i type="logical" name="LRPA"> F  </i>
   <i type="logical" name="LNABLA"> F  </i>
   <i type="logical" name="LVEL"> F  </i>
   <i type="int" name="KINTER">     0</i>
   <i name="CSHIFT">      0.10000000</i>
   <i name="OMEGAMAX">     -1.00000000</i>
   <i name="DEG_THRESHOLD">      0.00200000</i>
   <i name="RTIME">     -0.10000000</i>
   <i name="WPLASMAI">      0.00000000</i>
   <v name="DFIELD">      0.00000000      0.00000000      0.00000000</v>
   <v name="WPLASMA">      0.00000000      0.00000000      0.00000000      0.00000000      0.00000000      0.00000000      0.00000000      0.00000000      0.00000000</v>
  </separator>
  <separator name="orbital magnetization" >
   <i type="logical" name="NUCIND"> F  </i>
   <v name="MAGPOS">      0.00000000      0.00000000      0.00000000</v>
   <i type="logical" name="LNICSALL"> T  </i>
   <i type="logical" name="ORBITALMAG"> F  </i>
   <i type="logical" name="LMAGBLOCH"> F  </i>
   <i type="logical" name="LCHIMAG"> F  </i>
   <i type="logical" name="LGAUGE"> T  </i>
   <i type="int" name="MAGATOM">     0</i>
   <v name="MAGDIPOL">      0.00000000      0.00000000      0.00000000</v>
   <v name="AVECCONST">      0.00000000      0.00000000      0.00000000</v>
  </separator>
  <separator name="response functions" >
   <i type="logical" name="LADDER"> F  </i>
   <i type="logical" name="LRPAFORCE"> F  </i>
   <i type="logical" name="LFXC"> F  </i>
   <i type="logical" name="LHARTREE"> T  </i>
   <i type="int" name="IBSE">     0</i>
   <v type="int" name="KPOINT">    -1     0     0     0</v>
   <i type="logical" name="LTCTE"> F  </i>
   <i type="logical" name="LTETE"> F  </i>
   <i type="logical" name="LTRIPLET"> F  </i>
   <i type="logical" name="LFXCEPS"> F  </i>
   <i type="logical" name="LFXHEG"> F  </i>
   <i type="int" name="NATURALO">     2</i>
   <i type="logical" name="L2ORDER"> F  </i>
   <i type="logical" name="LMP2LT"> F  </i>
   <i type="logical" name="LUSEW"> F  </i>
   <i name="ENCUTGW">     -2.00000000</i>
   <i name="ENCUTGWSOFT">     -2.00000000</i>
   <i name="ENCUTLF">     -1.00000000</i>
   <i type="int" name="LMAXMP2">    -1</i>
   <i name="SCISSOR">      0.00000000</i>
   <i type="int" name="NOMEGA">     0</i>
   <i type="int" name="NOMEGAR">     0</i>
   <i type="int" name="NBANDSGW">    -1</i>
   <i type="int" name="NBANDSO">    -1</i>
   <i type="int" name="NBANDSV">    -1</i>
   <i type="int" name="NELM">     1</i>
   <i type="int" name="NELMHF">     1</i>
   <i type="int" name="DIM">     3</i>
   <i type="int" name="ANTIRES">     0</i>
   <i name="OMEGAMAX">    -30.00000000</i>
   <i name="OMEGAMIN">    -30.00000000</i>
   <i name="OMEGATL">   -200.00000000</i>
   <i type="int" name="OMEGAGRID">   140</i>
   <i name="CSHIFT">     -0.10000000</i>
   <i type="logical" name="SELFENERGY"> F  </i>
   <i type="logical" name="LSPECTRAL"> F  </i>
   <i type="logical" name="LSPECTRALGW"> F  </i>
   <i type="logical" name="LSINGLES"> F  </i>
   <i type="logical" name="LFERMIGW"> F  </i>
   <i type="logical" name="ODDONLYGW"> F  </i>
   <i type="logical" name="EVENONLYGW"> F  </i>
   <i type="int" name="NKREDLFX">     1</i>
   <i type="int" name="NKREDLFY">     1</i>
   <i type="int" name="NKREDLFZ">     1</i>
   <i type="int" name="MAXMEM">  2800</i>
   <i type="int" name="TELESCOPE">     0</i>
   <i type="int" name="TAUPAR">     1</i>
   <i type="int" name="OMEGAPAR">    -1</i>
   <i name="LAMBDA">      1.00000000</i>
  </separator>
  <separator name="External order field" >
   <i name="OFIELD_KAPPA">      0.00000000</i>
   <v name="OFIELD_K">      0.00000000      0.00000000      0.00000000</v>
   <i name="OFIELD_Q6_NEAR">      0.00000000</i>
   <i name="OFIELD_Q6_FAR">      0.00000000</i>
   <i name="OFIELD_A">      0.00000000</i>
  </separator>
 </parameters>
 <atominfo>
  <atoms>     135 </atoms>
  <types>       3 </types>
  <array name="atoms" >
   <dimension dim="1">ion</dimension>
   <field type="string">element</field>
   <field type="int">atomtype</field>
   <set>
    <rc><c>Ca</c><c>   1</c></rc>
    <rc><c>Ca</c><c>   1</c></rc>
    <rc><c>Ca</c><c>   1</c></rc>
    <rc><c>Ca</c><c>   1</c></rc>
    <rc><c>Ca</c><c>   1</c></rc>
    <rc><c>Ca</c><c>   1</c></rc>
    <rc><c>Ca</c><c>   1</c></rc>
    <rc><c>Ca</c><c>   1</c></rc>
    <rc><c>Ca</c><c>   1</c></rc>
    <rc><c>Ca</c><c>   1</c></rc>
    <rc><c>Ca</c><c>   1</c></rc>
    <rc><c>Ca</c><c>   1</c></rc>
    <rc><c>Ca</c><c>   1</c></rc>
    <rc><c>Ca</c><c>   1</c></rc>
    <rc><c>Ca</c><c>   1</c></rc>
    <rc><c>Ca</c><c>   1</c></rc>
    <rc><c>Ca</c><c>   1</c></rc>
    <rc><c>Ca</c><c>   1</c></rc>
    <rc><c>Ca</c><c>   1</c></rc>
    <rc><c>Ca</c><c>   1</c></rc>
    <rc><c>Ca</c><c>   1</c></rc>
    <rc><c>Ca</c><c>   1</c></rc>
    <rc><c>Ca</c><c>   1</c></rc>
    <rc><c>Ca</c><c>   1</c></rc>
    <rc><c>Ca</c><c>   1</c></rc>
    <rc><c>Ca</c><c>   1</c></rc>
    <rc><c>Ca</c><c>   1</c></rc>
    <rc><c>Si</c><c>   2</c></rc>
    <rc><c>Si</c><c>   2</c></rc>
    <rc><c>Si</c><c>   2</c></rc>
    <rc><c>Si</c><c>   2</c></rc>
    <rc><c>Si</c><c>   2</c></rc>
    <rc><c>Si</c><c>   2</c></rc>
    <rc><c>Si</c><c>   2</c></rc>
    <rc><c>Si</c><c>   2</c></rc>
    <rc><c>Si</c><c>   2</c></rc>
    <rc><c>Si</c><c>   2</c></rc>
    <rc><c>Si</c><c>   2</c></rc>
    <rc><c>Si</c><c>   2</c></rc>
    <rc><c>Si</c><c>   2</c></rc>
    <rc><c>Si</c><c>   2</c></rc>
    <rc><c>Si</c><c>   2</c></rc>
    <rc><c>Si</c><c>   2</c></rc>
    <rc><c>Si</c><c>   2</c></rc>
    <rc><c>Si</c><c>   2</c></rc>
    <rc><c>Si</c><c>   2</c></rc>
    <rc><c>Si</c><c>   2</c></rc>
    <rc><c>Si</c><c>   2</c></rc>
    <rc><c>Si</c><c>   2</c></rc>
    <rc><c>Si</c><c>   2</c></rc>
    <rc><c>Si</c><c>   2</c></rc>
    <rc><c>Si</c><c>   2</c></rc>
    <rc><c>Si</c><c>   2</c></rc>
    <rc><c>Si</c><c>   2</c></rc>
    <rc><c>O </c><c>   3</c></rc>
    <rc><c>O </c><c>   3</c></rc>
    <rc><c>O </c><c>   3</c></rc>
    <rc><c>O </c><c>   3</c></rc>
    <rc><c>O </c><c>   3</c></rc>
    <rc><c>O </c><c>   3</c></rc>
    <rc><c>O </c><c>   3</c></rc>
    <rc><c>O </c><c>   3</c></rc>
    <rc><c>O </c><c>   3</c></rc>
    <rc><c>O </c><c>   3</c></rc>
    <rc><c>O </c><c>   3</c></rc>
    <rc><c>O </c><c>   3</c></rc>
    <rc><c>O </c><c>   3</c></rc>
    <rc><c>O </c><c>   3</c></rc>
    <rc><c>O </c><c>   3</c></rc>
    <rc><c>O </c><c>   3</c></rc>
    <rc><c>O </c><c>   3</c></rc>
    <rc><c>O </c><c>   3</c></rc>
    <rc><c>O </c><c>   3</c></rc>
    <rc><c>O </c><c>   3</c></rc>
    <rc><c>O </c><c>   3</c></rc>
    <rc><c>O </c><c>   3</c></rc>
    <rc><c>O </c><c>   3</c></rc>
    <rc><c>O </c><c>   3</c></rc>
    <rc><c>O </c><c>   3</c></rc>
    <rc><c>O </c><c>   3</c></rc>
    <rc><c>O </c><c>   3</c></rc>
    <rc><c>O </c><c>   3</c></rc>
    <rc><c>O </c><c>   3</c></rc>
    <rc><c>O </c><c>   3</c></rc>
    <rc><c>O </c><c>   3</c></rc>
    <rc><c>O </c><c>   3</c></rc>
    <rc><c>O </c><c>   3</c></rc>
    <rc><c>O </c><c>   3</c></rc>
    <rc><c>O </c><c>   3</c></rc>
    <rc><c>O </c><c>   3</c></rc>
    <rc><c>O </c><c>   3</c></rc>
    <rc><c>O </c><c>   3</c></rc>
    <rc><c>O </c><c>   3</c></rc>
    <rc><c>O </c><c>   3</c></rc>
    <rc><c>O </c><c>   3</c></rc>
    <rc><c>O </c><c>   3</c></rc>
    <rc><c>O </c><c>   3</c></rc>
    <rc><c>O </c><c>   3</c></rc>
    <rc><c>O </c><c>   3</c></rc>
    <rc><c>O </c><c>   3</c></rc>
    <rc><c>O </c><c>   3</c></rc>
    <rc><c>O </c><c>   3</c></rc>
    <rc><c>O </c><c>   3</c></rc>
    <rc><c>O </c><c>   3</c></rc>
    <rc><c>O </c><c>   3</c></rc>
    <rc><c>O </c><c>   3</c></rc>
    <rc><c>O </c><c>   3</c></rc>
    <rc><c>O </c><c>   3</c></rc>
    <rc><c>O </c><c>   3</c></rc>
    <rc><c>O </c><c>   3</c></rc>
    <rc><c>O </c><c>   3</c></rc>
    <rc><c>O </c><c>   3</c></rc>
    <rc><c>O </c><c>   3</c></rc>
    <rc><c>O </c><c>   3</c></rc>
    <rc><c>O </c><c>   3</c></rc>
    <rc><c>O </c><c>   3</c></rc>
    <rc><c>O </c><c>   3</c></rc>
    <rc><c>O </c><c>   3</c></rc>
    <rc><c>O </c><c>   3</c></rc>
    <rc><c>O </c><c>   3</c></rc>
    <rc><c>O </c><c>   3</c></rc>
    <rc><c>O </c><c>   3</c></rc>
    <rc><c>O </c><c>   3</c></rc>
    <rc><c>O </c><c>   3</c></rc>
    <rc><c>O </c><c>   3</c></rc>
    <rc><c>O </c><c>   3</c></rc>
    <rc><c>O </c><c>   3</c></rc>
    <rc><c>O </c><c>   3</c></rc>
    <rc><c>O </c><c>   3</c></rc>
    <rc><c>O </c><c>   3</c></rc>
    <rc><c>O </c><c>   3</c></rc>
    <rc><c>O </c><c>   3</c></rc>
    <rc><c>O </c><c>   3</c></rc>
    <rc><c>O </c><c>   3</c></rc>
    <rc><c>O </c><c>   3</c></rc>
   </set>
  </array>
  <array name="atomtypes" >
   <dimension dim="1">type</dimension>
   <field type="int">atomspertype</field>
   <field type="string">element</field>
   <field>mass</field>
   <field>valence</field>
   <field type="string">pseudopotential</field>
   <set>
    <rc><c>  27</c><c>Ca</c><c>     40.07800000</c><c>     10.00000000</c><c>  PAW_PBE Ca_sv 06Sep2000               </c></rc>
    <rc><c>  27</c><c>Si</c><c>     28.08500000</c><c>      4.00000000</c><c>  PAW_PBE Si 05Jan2001                  </c></rc>
    <rc><c>  81</c><c>O </c><c>     16.00000000</c><c>      6.00000000</c><c>  PAW_PBE O 08Apr2002                   </c></rc>
   </set>
  </array>
 </atominfo>
 <structure name="initialpos" >
  <crystal>
   <varray name="basis" >
    <v>      11.12194768       0.00000000       0.00000000 </v>
    <v>       0.00000000      11.12194768       0.00000000 </v>
    <v>       0.00000000       0.00000000      11.12194768 </v>
   </varray>
   <i name="volume">   1375.75957216 </i>
   <varray name="rec_basis" >
    <v>       0.08991231       0.00000000       0.00000000 </v>
    <v>       0.00000000       0.08991231       0.00000000 </v>
    <v>       0.00000000       0.00000000       0.08991231 </v>
   </varray>
  </crystal>
  <varray name="positions" >
   <v>       0.75568951       0.42837567       0.09408303 </v>
   <v>       0.38530003       0.73397284       0.88270112 </v>
   <v>       0.03476318       0.79294107       0.51905169 </v>
   <v>       0.32110145       0.94590213       0.18630635 </v>
   <v>       0.64722539       0.07321382       0.73318952 </v>
   <v>       0.81889240       0.23085915       0.79998639 </v>
   <v>       0.40585962       0.44569717       0.92078723 </v>
   <v>       0.78145449       0.47064628       0.87376570 </v>
   <v>       0.13013800       0.28270306       0.81662641 </v>
   <v>       0.94712709       0.04832068       0.49776007 </v>
   <v>       0.29706580       0.88600169       0.72289730 </v>
   <v>       0.71737801       0.19028317       0.27915159 </v>
   <v>       0.23579974       0.03415131       0.46597160 </v>
   <v>       0.41180649       0.19287654       0.29085566 </v>
   <v>       0.13343229       0.97855213       0.96730725 </v>
   <v>       0.56854008       0.91008566       0.26071656 </v>
   <v>       0.44839920       0.59295659       0.44297768 </v>
   <v>       0.93175527       0.15013389       0.10476452 </v>
   <v>       0.73013465       0.79492051       0.43852002 </v>
   <v>       0.39521408       0.32296589       0.53205341 </v>
   <v>       0.38124418       0.15105761       0.79448495 </v>
   <v>       0.59304800       0.61141233       0.68462966 </v>
   <v>       0.47394132       0.63395882       0.10166770 </v>
   <v>       0.06570683       0.42229529       0.03359015 </v>
   <v>       0.87592803       0.73097237       0.12749283 </v>
   <v>       0.15636747       0.32842586       0.33238709 </v>
   <v>       0.64722954       0.30969113       0.52136154 </v>
   <v>       0.52763469       0.40370023       0.23111964 </v>
   <v>       0.07602819       0.06298520       0.69260319 </v>
   <v>       0.45604930       0.97375149       0.97295073 </v>
   <v>       0.82947121       0.94637687       0.25653362 </v>
   <v>       0.10205806       0.11870616       0.23313445 </v>
   <v>       0.20332363       0.61305567       0.36717053 </v>
   <v>       0.23113867       0.25484756       0.07558790 </v>
   <v>       0.88435929       0.94177465       0.87037699 </v>
   <v>       0.70916296       0.00271301       0.02200447 </v>
   <v>       0.62679778       0.07322313       0.47254410 </v>
   <v>       0.57234723       0.33902570       0.79591696 </v>
   <v>       0.15320306       0.73009812       0.98829932 </v>
   <v>       0.84460520       0.39137921       0.36295045 </v>
   <v>       0.68939985       0.71674590       0.90608464 </v>
   <v>       0.98562534       0.55208696       0.26311047 </v>
   <v>       0.11386955       0.45206009       0.58333298 </v>
   <v>       0.71684082       0.58432341       0.32587221 </v>
   <v>       0.93238231       0.57701962       0.50129060 </v>
   <v>       0.38083811       0.80798520       0.42308275 </v>
   <v>       0.30898761       0.53892097       0.69223358 </v>
   <v>       0.94772716       0.70701521       0.82938716 </v>
   <v>       0.06840183       0.81542218       0.26200159 </v>
   <v>       0.95255092       0.31137589       0.60064905 </v>
   <v>       0.52580449       0.17142290       0.03304658 </v>
   <v>       0.49603774       0.89960658       0.60862143 </v>
   <v>       0.27723495       0.50738808       0.16657220 </v>
   <v>       0.85469555       0.82518986       0.66858439 </v>
   <v>       0.25978526       0.36705099       0.15053538 </v>
   <v>       0.77416785       0.91695212       0.12954671 </v>
   <v>       0.64516955       0.93089179       0.54920100 </v>
   <v>       0.09656489       0.27211525       0.17957278 </v>
   <v>       0.89451108       0.80606801       0.94770166 </v>
   <v>       0.95128674       0.01302244       0.95662659 </v>
   <v>       0.45957310       0.05034731       0.10952019 </v>
   <v>       0.86046529       0.08368759       0.28754942 </v>
   <v>       0.26061958       0.71516101       0.44279666 </v>
   <v>       0.07057923       0.00188768       0.17438305 </v>
   <v>       0.83705807       0.31311864       0.20577999 </v>
   <v>       0.23739978       0.40321021       0.64896793 </v>
   <v>       0.44720844       0.50888811       0.63512118 </v>
   <v>       0.25448813       0.23990130       0.45112981 </v>
   <v>       0.74442310       0.81701188       0.80856549 </v>
   <v>       0.81142721       0.30081001       0.46327902 </v>
   <v>       0.13179817       0.49936378       0.23993359 </v>
   <v>       0.13024576       0.97280281       0.60648624 </v>
   <v>       0.75275134       0.13567460       0.51024962 </v>
   <v>       0.94221716       0.53645213       0.11020503 </v>
   <v>       0.92558690       0.85142754       0.30033115 </v>
   <v>       0.40632078       0.82521299       0.04053196 </v>
   <v>       0.31969055       0.91171439       0.56862632 </v>
   <v>       0.85842857       0.59666142       0.33641178 </v>
   <v>       0.98034180       0.68961177       0.27314584 </v>
   <v>       0.05028536       0.33625470       0.49866712 </v>
   <v>       0.22641281       0.12233247       0.68539369 </v>
   <v>       0.33645900       0.56927138       0.29395202 </v>
   <v>       0.97056450       0.45182231       0.35869577 </v>
   <v>       0.71854857       0.63505317       0.02658314 </v>
   <v>       0.21311899       0.32555120       0.95715127 </v>
   <v>       0.80065592       0.31795986       0.65611214 </v>
   <v>       0.51911157       0.77610248       0.51870026 </v>
   <v>       0.82576577       0.95219162       0.72261635 </v>
   <v>       0.01406762       0.38749015       0.73046835 </v>
   <v>       0.42342393       0.34109355       0.77461616 </v>
   <v>       0.13535530       0.86749898       0.37797940 </v>
   <v>       0.38708026       0.21755094       0.01073247 </v>
   <v>       0.50113346       0.83061959       0.74327905 </v>
   <v>       0.76989806       0.04901895       0.88409999 </v>
   <v>       0.81691560       0.63438687       0.80540721 </v>
   <v>       0.52427292       0.17146156       0.45386175 </v>
   <v>       0.65731307       0.68725138       0.23623016 </v>
   <v>       0.59369615       0.90210623       0.97818515 </v>
   <v>       0.88671525       0.48096102       0.60097688 </v>
   <v>       0.04067223       0.64348562       0.92753019 </v>
   <v>       0.25675221       0.63296367       0.03695240 </v>
   <v>       0.56178486       0.26431610       0.16436363 </v>
   <v>       0.59563402       0.49165607       0.82102608 </v>
   <v>       0.25980141       0.53176723       0.83612364 </v>
   <v>       0.25784619       0.13764968       0.20717161 </v>
   <v>       0.54677288       0.10657904       0.90862299 </v>
   <v>       0.22089838       0.46827298       0.44950412 </v>
   <v>       0.06044543       0.61883837       0.41598996 </v>
   <v>       0.41043534       0.45579243       0.09512956 </v>
   <v>       0.47396238       0.76801314       0.31427270 </v>
   <v>       0.61903189       0.49623523       0.18076319 </v>
   <v>       0.39750558       0.98672500       0.34966856 </v>
   <v>       0.66347401       0.01655108       0.35144498 </v>
   <v>       0.00819036       0.78773022       0.71484204 </v>
   <v>       0.65989227       0.61913174       0.46993479 </v>
   <v>       0.08002254       0.79064891       0.09314218 </v>
   <v>       0.16041609       0.83140742       0.86960860 </v>
   <v>       0.47005346       0.05482696       0.62994569 </v>
   <v>       0.90592911       0.33477956       0.96249148 </v>
   <v>       0.02091674       0.13187634       0.81616596 </v>
   <v>       0.97619400       0.14852834       0.62144365 </v>
   <v>       0.85875514       0.69990249       0.53764498 </v>
   <v>       0.86906614       0.89931427       0.54175640 </v>
   <v>       0.12384790       0.60598813       0.61439599 </v>
   <v>       0.70374184       0.43905593       0.32985514 </v>
   <v>       0.15118055       0.14027290       0.04092590 </v>
   <v>       0.71010845       0.11452959       0.10733232 </v>
   <v>       0.57266301       0.22115150       0.67600969 </v>
   <v>       0.50151157       0.37045681       0.36412503 </v>
   <v>       0.33049398       0.00348230       0.90865071 </v>
   <v>       0.04211987       0.16821138       0.33945652 </v>
   <v>       0.64718139       0.31887046       0.94315923 </v>
   <v>       0.55360037       0.67998297       0.86929668 </v>
   <v>       0.19717428       0.73704348       0.27057527 </v>
   <v>       0.32788625       0.68800377       0.66402500 </v>
  </varray>
  <varray name="velocities" >
   <v>       0.00000000       0.00000000       0.00000000 </v>
   <v>       0.00000000       0.00000000       0.00000000 </v>
   <v>       0.00000000       0.00000000       0.00000000 </v>
   <v>       0.00000000       0.00000000       0.00000000 </v>
   <v>       0.00000000       0.00000000       0.00000000 </v>
   <v>       0.00000000       0.00000000       0.00000000 </v>
   <v>       0.00000000       0.00000000       0.00000000 </v>
   <v>       0.00000000       0.00000000       0.00000000 </v>
   <v>       0.00000000       0.00000000       0.00000000 </v>
   <v>       0.00000000       0.00000000       0.00000000 </v>
   <v>       0.00000000       0.00000000       0.00000000 </v>
   <v>       0.00000000       0.00000000       0.00000000 </v>
   <v>       0.00000000       0.00000000       0.00000000 </v>
   <v>       0.00000000       0.00000000       0.00000000 </v>
   <v>       0.00000000       0.00000000       0.00000000 </v>
   <v>       0.00000000       0.00000000       0.00000000 </v>
   <v>       0.00000000       0.00000000       0.00000000 </v>
   <v>       0.00000000       0.00000000       0.00000000 </v>
   <v>       0.00000000       0.00000000       0.00000000 </v>
   <v>       0.00000000       0.00000000       0.00000000 </v>
   <v>       0.00000000       0.00000000       0.00000000 </v>
   <v>       0.00000000       0.00000000       0.00000000 </v>
   <v>       0.00000000       0.00000000       0.00000000 </v>
   <v>       0.00000000       0.00000000       0.00000000 </v>
   <v>       0.00000000       0.00000000       0.00000000 </v>
   <v>       0.00000000       0.00000000       0.00000000 </v>
   <v>       0.00000000       0.00000000       0.00000000 </v>
   <v>       0.00000000       0.00000000       0.00000000 </v>
   <v>       0.00000000       0.00000000       0.00000000 </v>
   <v>       0.00000000       0.00000000       0.00000000 </v>
   <v>       0.00000000       0.00000000       0.00000000 </v>
   <v>       0.00000000       0.00000000       0.00000000 </v>
   <v>       0.00000000       0.00000000       0.00000000 </v>
   <v>       0.00000000       0.00000000       0.00000000 </v>
   <v>       0.00000000       0.00000000       0.00000000 </v>
   <v>       0.00000000       0.00000000       0.00000000 </v>
   <v>       0.00000000       0.00000000       0.00000000 </v>
   <v>       0.00000000       0.00000000       0.00000000 </v>
   <v>       0.00000000       0.00000000       0.00000000 </v>
   <v>       0.00000000       0.00000000       0.00000000 </v>
   <v>       0.00000000       0.00000000       0.00000000 </v>
   <v>       0.00000000       0.00000000       0.00000000 </v>
   <v>       0.00000000       0.00000000       0.00000000 </v>
   <v>       0.00000000       0.00000000       0.00000000 </v>
   <v>       0.00000000       0.00000000       0.00000000 </v>
   <v>       0.00000000       0.00000000       0.00000000 </v>
   <v>       0.00000000       0.00000000       0.00000000 </v>
   <v>       0.00000000       0.00000000       0.00000000 </v>
   <v>       0.00000000       0.00000000       0.00000000 </v>
   <v>       0.00000000       0.00000000       0.00000000 </v>
   <v>       0.00000000       0.00000000       0.00000000 </v>
   <v>       0.00000000       0.00000000       0.00000000 </v>
   <v>       0.00000000       0.00000000       0.00000000 </v>
   <v>       0.00000000       0.00000000       0.00000000 </v>
   <v>       0.00000000       0.00000000       0.00000000 </v>
   <v>       0.00000000       0.00000000       0.00000000 </v>
   <v>       0.00000000       0.00000000       0.00000000 </v>
   <v>       0.00000000       0.00000000       0.00000000 </v>
   <v>       0.00000000       0.00000000       0.00000000 </v>
   <v>       0.00000000       0.00000000       0.00000000 </v>
   <v>       0.00000000       0.00000000       0.00000000 </v>
   <v>       0.00000000       0.00000000       0.00000000 </v>
   <v>       0.00000000       0.00000000       0.00000000 </v>
   <v>       0.00000000       0.00000000       0.00000000 </v>
   <v>       0.00000000       0.00000000       0.00000000 </v>
   <v>       0.00000000       0.00000000       0.00000000 </v>
   <v>       0.00000000       0.00000000       0.00000000 </v>
   <v>       0.00000000       0.00000000       0.00000000 </v>
   <v>       0.00000000       0.00000000       0.00000000 </v>
   <v>       0.00000000       0.00000000       0.00000000 </v>
   <v>       0.00000000       0.00000000       0.00000000 </v>
   <v>       0.00000000       0.00000000       0.00000000 </v>
   <v>       0.00000000       0.00000000       0.00000000 </v>
   <v>       0.00000000       0.00000000       0.00000000 </v>
   <v>       0.00000000       0.00000000       0.00000000 </v>
   <v>       0.00000000       0.00000000       0.00000000 </v>
   <v>       0.00000000       0.00000000       0.00000000 </v>
   <v>       0.00000000       0.00000000       0.00000000 </v>
   <v>       0.00000000       0.00000000       0.00000000 </v>
   <v>       0.00000000       0.00000000       0.00000000 </v>
   <v>       0.00000000       0.00000000       0.00000000 </v>
   <v>       0.00000000       0.00000000       0.00000000 </v>
   <v>       0.00000000       0.00000000       0.00000000 </v>
   <v>       0.00000000       0.00000000       0.00000000 </v>
   <v>       0.00000000       0.00000000       0.00000000 </v>
   <v>       0.00000000       0.00000000       0.00000000 </v>
   <v>       0.00000000       0.00000000       0.00000000 </v>
   <v>       0.00000000       0.00000000       0.00000000 </v>
   <v>       0.00000000       0.00000000       0.00000000 </v>
   <v>       0.00000000       0.00000000       0.00000000 </v>
   <v>       0.00000000       0.00000000       0.00000000 </v>
   <v>       0.00000000       0.00000000       0.00000000 </v>
   <v>       0.00000000       0.00000000       0.00000000 </v>
   <v>       0.00000000       0.00000000       0.00000000 </v>
   <v>       0.00000000       0.00000000       0.00000000 </v>
   <v>       0.00000000       0.00000000       0.00000000 </v>
   <v>       0.00000000       0.00000000       0.00000000 </v>
   <v>       0.00000000       0.00000000       0.00000000 </v>
   <v>       0.00000000       0.00000000       0.00000000 </v>
   <v>       0.00000000       0.00000000       0.00000000 </v>
   <v>       0.00000000       0.00000000       0.00000000 </v>
   <v>       0.00000000       0.00000000       0.00000000 </v>
   <v>       0.00000000       0.00000000       0.00000000 </v>
   <v>       0.00000000       0.00000000       0.00000000 </v>
   <v>       0.00000000       0.00000000       0.00000000 </v>
   <v>       0.00000000       0.00000000       0.00000000 </v>
   <v>       0.00000000       0.00000000       0.00000000 </v>
   <v>       0.00000000       0.00000000       0.00000000 </v>
   <v>       0.00000000       0.00000000       0.00000000 </v>
   <v>       0.00000000       0.00000000       0.00000000 </v>
   <v>       0.00000000       0.00000000       0.00000000 </v>
   <v>       0.00000000       0.00000000       0.00000000 </v>
   <v>       0.00000000       0.00000000       0.00000000 </v>
   <v>       0.00000000       0.00000000       0.00000000 </v>
   <v>       0.00000000       0.00000000       0.00000000 </v>
   <v>       0.00000000       0.00000000       0.00000000 </v>
   <v>       0.00000000       0.00000000       0.00000000 </v>
   <v>       0.00000000       0.00000000       0.00000000 </v>
   <v>       0.00000000       0.00000000       0.00000000 </v>
   <v>       0.00000000       0.00000000       0.00000000 </v>
   <v>       0.00000000       0.00000000       0.00000000 </v>
   <v>       0.00000000       0.00000000       0.00000000 </v>
   <v>       0.00000000       0.00000000       0.00000000 </v>
   <v>       0.00000000       0.00000000       0.00000000 </v>
   <v>       0.00000000       0.00000000       0.00000000 </v>
   <v>       0.00000000       0.00000000       0.00000000 </v>
   <v>       0.00000000       0.00000000       0.00000000 </v>
   <v>       0.00000000       0.00000000       0.00000000 </v>
   <v>       0.00000000       0.00000000       0.00000000 </v>
   <v>       0.00000000       0.00000000       0.00000000 </v>
   <v>       0.00000000       0.00000000       0.00000000 </v>
   <v>       0.00000000       0.00000000       0.00000000 </v>
   <v>       0.00000000       0.00000000       0.00000000 </v>
   <v>       0.00000000       0.00000000       0.00000000 </v>
   <v>       0.00000000       0.00000000       0.00000000 </v>
  </varray>
 </structure>
 <calculation>
  <scstep>
   <time name="dav">   29.62   29.62</time>
   <time name="total">   30.06   30.08</time>
   <energy>
    <i name="alphaZ">   3473.39795963 </i>
    <i name="ewald"> -51629.35318244 </i>
    <i name="hartreedc"> -14639.42319630 </i>
    <i name="XCdc">   3227.77666509 </i>
    <i name="pawpsdc">  50594.51003143 </i>
    <i name="pawaedc"> -49994.65612350 </i>
    <i name="eentropy">     -0.03127003 </i>
    <i name="bandstr">   4026.88097148 </i>
    <i name="atom">  64968.54023382 </i>
    <i name="e_fr_energy">  10027.64208918 </i>
    <i name="e_wo_entrp">  10027.67335921 </i>
    <i name="e_0_energy">  10027.65772420 </i>
   </energy>
  </scstep>
  <scstep>
   <time name="dav">   32.80   32.81</time>
   <time name="total">   32.80   32.81</time>
   <energy>
    <i name="e_fr_energy">    174.68046162 </i>
    <i name="e_wo_entrp">    174.68046162 </i>
    <i name="e_0_energy">    174.68046162 </i>
   </energy>
  </scstep>
  <scstep>
   <time name="dav">   34.92   34.94</time>
   <time name="total">   34.92   34.94</time>
   <energy>
    <i name="e_fr_energy">   -947.99014338 </i>
    <i name="e_wo_entrp">   -947.99014338 </i>
    <i name="e_0_energy">   -947.99014338 </i>
   </energy>
  </scstep>
  <scstep>
   <time name="dav">   39.02   39.03</time>
   <time name="total">   39.02   39.03</time>
   <energy>
    <i name="e_fr_energy">  -1003.90558947 </i>
    <i name="e_wo_entrp">  -1003.90558947 </i>
    <i name="e_0_energy">  -1003.90558947 </i>
   </energy>
  </scstep>
  <scstep>
   <time name="dav">   44.04   44.06</time>
   <time name="total">   45.11   45.14</time>
   <energy>
    <i name="e_fr_energy">  -1008.76008962 </i>
    <i name="e_wo_entrp">  -1008.76008962 </i>
    <i name="e_0_energy">  -1008.76008962 </i>
   </energy>
  </scstep>
  <scstep>
   <time name="dav">   33.54   33.55</time>
   <time name="total">   35.02   35.04</time>
   <energy>
    <i name="e_fr_energy">   -862.03731484 </i>
    <i name="e_wo_entrp">   -862.03347296 </i>
    <i name="e_0_energy">   -862.03539390 </i>
   </energy>
  </scstep>
  <scstep>
   <time name="dav">   35.35   35.36</time>
   <time name="total">   36.87   36.90</time>
   <energy>
    <i name="e_fr_energy">   -863.43751380 </i>
    <i name="e_wo_entrp">   -863.43646874 </i>
    <i name="e_0_energy">   -863.43699127 </i>
   </energy>
  </scstep>
  <scstep>
   <time name="dav">   35.72   35.73</time>
   <time name="total">   37.23   37.25</time>
   <energy>
    <i name="e_fr_energy">   -862.09273306 </i>
    <i name="e_wo_entrp">   -862.06090176 </i>
    <i name="e_0_energy">   -862.07681741 </i>
   </energy>
  </scstep>
  <scstep>
   <time name="dav">   39.23   39.24</time>
   <time name="total">   40.78   40.80</time>
   <energy>
    <i name="e_fr_energy">   -862.54475320 </i>
    <i name="e_wo_entrp">   -862.54475320 </i>
    <i name="e_0_energy">   -862.54475320 </i>
   </energy>
  </scstep>
  <scstep>
   <time name="dav">   37.33   37.33</time>
   <time name="total">   38.83   38.84</time>
   <energy>
    <i name="e_fr_energy">   -862.00798449 </i>
    <i name="e_wo_entrp">   -862.00798449 </i>
    <i name="e_0_energy">   -862.00798449 </i>
   </energy>
  </scstep>
  <scstep>
   <time name="dav">   34.29   34.29</time>
   <time name="total">   35.79   35.81</time>
   <energy>
    <i name="e_fr_energy">   -861.78076199 </i>
    <i name="e_wo_entrp">   -861.78070994 </i>
    <i name="e_0_energy">   -861.78073596 </i>
   </energy>
  </scstep>
  <scstep>
   <time name="dav">   34.34   34.34</time>
   <time name="total">   35.81   35.83</time>
   <energy>
    <i name="e_fr_energy">   -861.76102422 </i>
    <i name="e_wo_entrp">   -861.74352264 </i>
    <i name="e_0_energy">   -861.75227343 </i>
   </energy>
  </scstep>
  <scstep>
   <time name="dav">   37.06   37.06</time>
   <time name="total">   38.52   38.55</time>
   <energy>
    <i name="e_fr_energy">   -861.76456940 </i>
    <i name="e_wo_entrp">   -861.76205953 </i>
    <i name="e_0_energy">   -861.76331446 </i>
   </energy>
  </scstep>
  <scstep>
   <time name="dav">   32.74   32.74</time>
   <time name="total">   34.17   34.18</time>
   <energy>
    <i name="e_fr_energy">   -861.75626699 </i>
    <i name="e_wo_entrp">   -861.74160890 </i>
    <i name="e_0_energy">   -861.74893795 </i>
   </energy>
  </scstep>
  <scstep>
   <time name="dav">   36.20   36.20</time>
   <time name="total">   37.69   37.70</time>
   <energy>
    <i name="e_fr_energy">   -861.75712460 </i>
    <i name="e_wo_entrp">   -861.74836081 </i>
    <i name="e_0_energy">   -861.75274271 </i>
   </energy>
  </scstep>
  <scstep>
   <time name="dav">   39.33   39.33</time>
   <time name="total">   40.87   40.89</time>
   <energy>
    <i name="e_fr_energy">   -861.75842163 </i>
    <i name="e_wo_entrp">   -861.73838815 </i>
    <i name="e_0_energy">   -861.74840489 </i>
   </energy>
  </scstep>
  <scstep>
   <time name="dav">   34.46   34.47</time>
   <time name="total">   36.01   36.03</time>
   <energy>
    <i name="e_fr_energy">   -861.75628563 </i>
    <i name="e_wo_entrp">   -861.74415666 </i>
    <i name="e_0_energy">   -861.75022114 </i>
   </energy>
  </scstep>
  <scstep>
   <time name="dav">   34.13   34.14</time>
   <time name="total">   35.64   35.65</time>
   <energy>
    <i name="e_fr_energy">   -861.75649332 </i>
    <i name="e_wo_entrp">   -861.74161465 </i>
    <i name="e_0_energy">   -861.74905399 </i>
   </energy>
  </scstep>
  <scstep>
   <time name="dav">   39.43   39.43</time>
   <time name="total">   40.91   40.93</time>
   <energy>
    <i name="e_fr_energy">   -861.75630063 </i>
    <i name="e_wo_entrp">   -861.74352451 </i>
    <i name="e_0_energy">   -861.74991257 </i>
   </energy>
  </scstep>
  <scstep>
   <time name="dav">   34.46   34.46</time>
   <time name="total">   35.96   35.98</time>
   <energy>
    <i name="e_fr_energy">   -861.75631666 </i>
    <i name="e_wo_entrp">   -861.74369251 </i>
    <i name="e_0_energy">   -861.75000458 </i>
   </energy>
  </scstep>
  <scstep>
   <time name="dav">   35.57   35.58</time>
   <time name="total">   37.08   37.11</time>
   <energy>
    <i name="e_fr_energy">   -861.75631335 </i>
    <i name="e_wo_entrp">   -861.74344410 </i>
    <i name="e_0_energy">   -861.74987872 </i>
   </energy>
  </scstep>
  <scstep>
   <time name="dav">   29.44   29.45</time>
   <time name="total">   29.85   29.87</time>
   <energy>
    <i name="alphaZ">   3473.39795963 </i>
    <i name="ewald"> -51629.35318244 </i>
    <i name="hartreedc"> -16071.19045421 </i>
    <i name="XCdc">   3322.77818818 </i>
    <i name="pawpsdc">  95168.83660370 </i>
    <i name="pawaedc"> -94808.29741043 </i>
    <i name="eentropy">     -0.01293296 </i>
    <i name="bandstr">  -5286.45531887 </i>
    <i name="atom">  64968.54023382 </i>
    <i name="e_fr_energy">   -861.75631359 </i>
    <i name="e_wo_entrp">   -861.74338062 </i>
    <i name="e_0_energy">   -861.74984711 </i>
   </energy>
  </scstep>
  <structure>
   <crystal>
    <varray name="basis" >
     <v>      11.12194768       0.00000000       0.00000000 </v>
     <v>       0.00000000      11.12194768       0.00000000 </v>
     <v>       0.00000000       0.00000000      11.12194768 </v>
    </varray>
    <i name="volume">   1375.75957216 </i>
    <varray name="rec_basis" >
     <v>       0.08991231       0.00000000       0.00000000 </v>
     <v>       0.00000000       0.08991231       0.00000000 </v>
     <v>       0.00000000       0.00000000       0.08991231 </v>
    </varray>
   </crystal>
   <varray name="positions" >
    <v>       0.75568951       0.42837567       0.09408303 </v>
    <v>       0.38530003       0.73397284       0.88270112 </v>
    <v>       0.03476318       0.79294107       0.51905169 </v>
    <v>       0.32110145       0.94590213       0.18630635 </v>
    <v>       0.64722539       0.07321382       0.73318952 </v>
    <v>       0.81889240       0.23085915       0.79998639 </v>
    <v>       0.40585962       0.44569717       0.92078723 </v>
    <v>       0.78145449       0.47064628       0.87376570 </v>
    <v>       0.13013800       0.28270306       0.81662641 </v>
    <v>       0.94712709       0.04832068       0.49776007 </v>
    <v>       0.29706580       0.88600169       0.72289730 </v>
    <v>       0.71737801       0.19028317       0.27915159 </v>
    <v>       0.23579974       0.03415131       0.46597160 </v>
    <v>       0.41180649       0.19287654       0.29085566 </v>
    <v>       0.13343229       0.97855213       0.96730725 </v>
    <v>       0.56854008       0.91008566       0.26071656 </v>
    <v>       0.44839920       0.59295659       0.44297768 </v>
    <v>       0.93175527       0.15013389       0.10476452 </v>
    <v>       0.73013465       0.79492051       0.43852002 </v>
    <v>       0.39521408       0.32296589       0.53205341 </v>
    <v>       0.38124418       0.15105761       0.79448495 </v>
    <v>       0.59304800       0.61141233       0.68462966 </v>
    <v>       0.47394132       0.63395882       0.10166770 </v>
    <v>       0.06570683       0.42229529       0.03359015 </v>
    <v>       0.87592803       0.73097237       0.12749283 </v>
    <v>       0.15636747       0.32842586       0.33238709 </v>
    <v>       0.64722954       0.30969113       0.52136154 </v>
    <v>       0.52763469       0.40370023       0.23111964 </v>
    <v>       0.07602819       0.06298520       0.69260319 </v>
    <v>       0.45604930       0.97375149       0.97295073 </v>
    <v>       0.82947121       0.94637687       0.25653362 </v>
    <v>       0.10205806       0.11870616       0.23313445 </v>
    <v>       0.20332363       0.61305567       0.36717053 </v>
    <v>       0.23113867       0.25484756       0.07558790 </v>
    <v>       0.88435929       0.94177465       0.87037699 </v>
    <v>       0.70916296       0.00271301       0.02200447 </v>
    <v>       0.62679778       0.07322313       0.47254410 </v>
    <v>       0.57234723       0.33902570       0.79591696 </v>
    <v>       0.15320306       0.73009812       0.98829932 </v>
    <v>       0.84460520       0.39137921       0.36295045 </v>
    <v>       0.68939985       0.71674590       0.90608464 </v>
    <v>       0.98562534       0.55208696       0.26311047 </v>
    <v>       0.11386955       0.45206009       0.58333298 </v>
    <v>       0.71684082       0.58432341       0.32587221 </v>
    <v>       0.93238231       0.57701962       0.50129060 </v>
    <v>       0.38083811       0.80798520       0.42308275 </v>
    <v>       0.30898761       0.53892097       0.69223358 </v>
    <v>       0.94772716       0.70701521       0.82938716 </v>
    <v>       0.06840183       0.81542218       0.26200159 </v>
    <v>       0.95255092       0.31137589       0.60064905 </v>
    <v>       0.52580449       0.17142290       0.03304658 </v>
    <v>       0.49603774       0.89960658       0.60862143 </v>
    <v>       0.27723495       0.50738808       0.16657220 </v>
    <v>       0.85469555       0.82518986       0.66858439 </v>
    <v>       0.25978526       0.36705099       0.15053538 </v>
    <v>       0.77416785       0.91695212       0.12954671 </v>
    <v>       0.64516955       0.93089179       0.54920100 </v>
    <v>       0.09656489       0.27211525       0.17957278 </v>
    <v>       0.89451108       0.80606801       0.94770166 </v>
    <v>       0.95128674       0.01302244       0.95662659 </v>
    <v>       0.45957310       0.05034731       0.10952019 </v>
    <v>       0.86046529       0.08368759       0.28754942 </v>
    <v>       0.26061958       0.71516101       0.44279666 </v>
    <v>       0.07057923       0.00188768       0.17438305 </v>
    <v>       0.83705807       0.31311864       0.20577999 </v>
    <v>       0.23739978       0.40321021       0.64896793 </v>
    <v>       0.44720844       0.50888811       0.63512118 </v>
    <v>       0.25448813       0.23990130       0.45112981 </v>
    <v>       0.74442310       0.81701188       0.80856549 </v>
    <v>       0.81142721       0.30081001       0.46327902 </v>
    <v>       0.13179817       0.49936378       0.23993359 </v>
    <v>       0.13024576       0.97280281       0.60648624 </v>
    <v>       0.75275134       0.13567460       0.51024962 </v>
    <v>       0.94221716       0.53645213       0.11020503 </v>
    <v>       0.92558690       0.85142754       0.30033115 </v>
    <v>       0.40632078       0.82521299       0.04053196 </v>
    <v>       0.31969055       0.91171439       0.56862632 </v>
    <v>       0.85842857       0.59666142       0.33641178 </v>
    <v>       0.98034180       0.68961177       0.27314584 </v>
    <v>       0.05028536       0.33625470       0.49866712 </v>
    <v>       0.22641281       0.12233247       0.68539369 </v>
    <v>       0.33645900       0.56927138       0.29395202 </v>
    <v>       0.97056450       0.45182231       0.35869577 </v>
    <v>       0.71854857       0.63505317       0.02658314 </v>
    <v>       0.21311899       0.32555120       0.95715127 </v>
    <v>       0.80065592       0.31795986       0.65611214 </v>
    <v>       0.51911157       0.77610248       0.51870026 </v>
    <v>       0.82576577       0.95219162       0.72261635 </v>
    <v>       0.01406762       0.38749015       0.73046835 </v>
    <v>       0.42342393       0.34109355       0.77461616 </v>
    <v>       0.13535530       0.86749898       0.37797940 </v>
    <v>       0.38708026       0.21755094       0.01073247 </v>
    <v>       0.50113346       0.83061959       0.74327905 </v>
    <v>       0.76989806       0.04901895       0.88409999 </v>
    <v>       0.81691560       0.63438687       0.80540721 </v>
    <v>       0.52427292       0.17146156       0.45386175 </v>
    <v>       0.65731307       0.68725138       0.23623016 </v>
    <v>       0.59369615       0.90210623       0.97818515 </v>
    <v>       0.88671525       0.48096102       0.60097688 </v>
    <v>       0.04067223       0.64348562       0.92753019 </v>
    <v>       0.25675221       0.63296367       0.03695240 </v>
    <v>       0.56178486       0.26431610       0.16436363 </v>
    <v>       0.59563402       0.49165607       0.82102608 </v>
    <v>       0.25980141       0.53176723       0.83612364 </v>
    <v>       0.25784619       0.13764968       0.20717161 </v>
    <v>       0.54677288       0.10657904       0.90862299 </v>
    <v>       0.22089838       0.46827298       0.44950412 </v>
    <v>       0.06044543       0.61883837       0.41598996 </v>
    <v>       0.41043534       0.45579243       0.09512956 </v>
    <v>       0.47396238       0.76801314       0.31427270 </v>
    <v>       0.61903189       0.49623523       0.18076319 </v>
    <v>       0.39750558       0.98672500       0.34966856 </v>
    <v>       0.66347401       0.01655108       0.35144498 </v>
    <v>       0.00819036       0.78773022       0.71484204 </v>
    <v>       0.65989227       0.61913174       0.46993479 </v>
    <v>       0.08002254       0.79064891       0.09314218 </v>
    <v>       0.16041609       0.83140742       0.86960860 </v>
    <v>       0.47005346       0.05482696       0.62994569 </v>
    <v>       0.90592911       0.33477956       0.96249148 </v>
    <v>       0.02091674       0.13187634       0.81616596 </v>
    <v>       0.97619400       0.14852834       0.62144365 </v>
    <v>       0.85875514       0.69990249       0.53764498 </v>
    <v>       0.86906614       0.89931427       0.54175640 </v>
    <v>       0.12384790       0.60598813       0.61439599 </v>
    <v>       0.70374184       0.43905593       0.32985514 </v>
    <v>       0.15118055       0.14027290       0.04092590 </v>
    <v>       0.71010845       0.11452959       0.10733232 </v>
    <v>       0.57266301       0.22115150       0.67600969 </v>
    <v>       0.50151157       0.37045681       0.36412503 </v>
    <v>       0.33049398       0.00348230       0.90865071 </v>
    <v>       0.04211987       0.16821138       0.33945652 </v>
    <v>       0.64718139       0.31887046       0.94315923 </v>
    <v>       0.55360037       0.67998297       0.86929668 </v>
    <v>       0.19717428       0.73704348       0.27057527 </v>
    <v>       0.32788625       0.68800377       0.66402500 </v>
   </varray>
  </structure>
  <varray name="forces" >
   <v>       2.81765403      -1.07136518      -2.09340895 </v>
   <v>      -2.66976719      -0.90417828      -3.25333219 </v>
   <v>       3.95211832       0.15147700       0.07479728 </v>
   <v>      -3.33157025      -1.94494217      -0.38252192 </v>
   <v>       0.59511408      -4.50585475      -1.18108028 </v>
   <v>       3.16124523      -2.28108276       4.86023203 </v>
   <v>      -1.65940932      -0.14131694      -1.73441057 </v>
   <v>       2.05996030      -1.54343120      -0.59429252 </v>
   <v>       1.16176891      -1.63905237      -3.23169470 </v>
   <v>      -1.41582722      -0.38992532      -9.09043881 </v>
   <v>      -3.27057448      -0.95323639       6.85260296 </v>
   <v>      -1.80810528       2.47981194       1.73179918 </v>
   <v>       0.11569241       3.77772756      -1.47330431 </v>
   <v>      -0.42570090      -0.96933391       1.56407421 </v>
   <v>       0.14808864       1.96746466       1.46837118 </v>
   <v>      -2.28090010      -2.26125065      -4.89739715 </v>
   <v>       1.65531100      -1.27568723       1.92064938 </v>
   <v>      -0.91955973       2.84273789      -2.67868988 </v>
   <v>      -1.45265720       0.90484115      -0.26511096 </v>
   <v>      -1.89624459      -0.45024810       2.03696982 </v>
   <v>      -0.83430279       0.90771535      -1.51198203 </v>
   <v>       0.45142101       2.97624722      -2.39268388 </v>
   <v>       3.19649406       3.58256047       1.69802918 </v>
   <v>      -1.30633303       0.52896603      -0.76068884 </v>
   <v>      -1.93879906      -1.12715427      -2.29112728 </v>
   <v>       0.30340395       1.11856818       2.96758592 </v>
   <v>      -0.77886347       2.28303373       1.43938694 </v>
   <v>      -0.42525184      -1.69875350      -4.28667629 </v>
   <v>       3.00552731       7.83087080       4.64314374 </v>
   <v>      -0.25049251      -3.64836314       1.40082495 </v>
   <v>       1.14123999       4.58702600       2.41171452 </v>
   <v>       7.92932260       4.84044285      -3.58524632 </v>
   <v>      -1.04648386      -3.48658588      -0.90438770 </v>
   <v>       0.37631866      -6.78762240       0.19752030 </v>
   <v>      -6.26724444      -2.09273770      -4.06444915 </v>
   <v>      -0.54117701      -1.08149907      -3.60559141 </v>
   <v>       0.88391687      -1.71050613       5.82930631 </v>
   <v>      -1.33416542       0.24696607      -0.59276303 </v>
   <v>      -1.84846772      -1.60821030      -2.84790366 </v>
   <v>      -2.84928197      -4.33807208      -4.57418865 </v>
   <v>      -0.01812130      -0.99216899       0.07264517 </v>
   <v>       2.97109267       0.06936912      -6.85168743 </v>
   <v>       3.76046651       2.16757343       0.24298472 </v>
   <v>      -6.13705245       2.14792483       1.37200732 </v>
   <v>       0.77496403       0.03180824       0.55832493 </v>
   <v>      -0.57904701       2.95479338       1.75443194 </v>
   <v>      -1.68387104       1.98908228       0.89958977 </v>
   <v>       1.31585434      -1.40984333       3.70711471 </v>
   <v>       2.80216662      -1.92322443      -2.36254932 </v>
   <v>      -5.34541930       0.42274529       3.56677707 </v>
   <v>      -0.95627234       5.58231797       4.37338688 </v>
   <v>       0.98268568       0.96080421       0.72275819 </v>
   <v>      -0.75453464       1.22522884       0.42502014 </v>
   <v>      -0.67804065      -0.86587502      -2.69309837 </v>
   <v>       1.49744912       2.16385971       4.91990118 </v>
   <v>      -0.55225645      -1.85934369      -1.87749144 </v>
   <v>      -2.45180982       2.70885967       1.65337363 </v>
   <v>      -4.22332130      -2.00707611      -5.20054813 </v>
   <v>       0.75676703       0.39372932      -3.39827115 </v>
   <v>       3.17198055       2.31230546       6.29652576 </v>
   <v>       3.37496584      -0.61815559      -0.61621772 </v>
   <v>       1.39717328      -3.71802108      -0.89621818 </v>
   <v>       6.41183755       2.61400754       5.63586770 </v>
   <v>      -1.82848801      -6.90151689      -0.67986022 </v>
   <v>       2.01061781       0.74672654       3.68698515 </v>
   <v>       0.59313840       0.40924372       1.23757272 </v>
   <v>      -0.57890916      -1.24729142      -1.86610671 </v>
   <v>       3.12056856      -2.99166132       0.05956980 </v>
   <v>      -2.63731938      -0.89953814      -0.43778843 </v>
   <v>       5.81380274       1.30870239      -2.73237631 </v>
   <v>       1.18046316       3.89383815      -1.80338376 </v>
   <v>      -4.54973204      -6.23779419      -1.55711807 </v>
   <v>      -2.44000147      -2.66756298       1.52283752 </v>
   <v>      -1.81445605       1.00019942       4.37583418 </v>
   <v>      -3.50642908       4.46574562       0.59950879 </v>
   <v>       0.03923445       2.75046522       1.17169863 </v>
   <v>       6.08847823      -3.40334461      -9.07751775 </v>
   <v>      -5.86977001      -0.88865907       3.75185260 </v>
   <v>       5.62727280       5.74408736      -5.62096657 </v>
   <v>       0.30901300       0.66647886       3.09765621 </v>
   <v>      -2.07584483       1.07135749       2.09093781 </v>
   <v>      -0.07744573      -1.71202145      -4.53255610 </v>
   <v>       1.36543260      -5.37735908       1.73749646 </v>
   <v>       0.16691437       1.32776828      -2.31440097 </v>
   <v>       1.95759542       3.86597631      -0.54316238 </v>
   <v>      -0.17400286       0.26930827       0.12593666 </v>
   <v>      -4.08032702       0.83834742      -0.34644586 </v>
   <v>       4.49038955       4.95483754       2.07593378 </v>
   <v>      -0.96823425       0.06804810      -4.20194408 </v>
   <v>       1.68065400      -1.52561348       0.34264326 </v>
   <v>      -1.75186092       5.96525940       1.57268594 </v>
   <v>       0.35695844       1.74159118       0.18064090 </v>
   <v>      -0.51145313       3.15798715      -1.85582111 </v>
   <v>      -2.48576895      -1.24645343       4.45002897 </v>
   <v>       2.52533798       0.31877322      -1.08631915 </v>
   <v>       0.57572886      -0.26601063      -1.43021274 </v>
   <v>       2.67433369       1.34915425       1.81767015 </v>
   <v>       3.04386020       1.62946380       1.18136097 </v>
   <v>       1.09502110       1.82721675      -3.65222522 </v>
   <v>      -0.00247247      -0.70419184      -1.64614822 </v>
   <v>       0.58959080      -1.48815757       2.05117722 </v>
   <v>      -1.15424110       1.01087857      -0.00572258 </v>
   <v>       0.46087507      -4.50980801      -0.61138345 </v>
   <v>       1.67794071       1.22126983      -1.90423517 </v>
   <v>      -0.69409858      -0.70943242       1.95189564 </v>
   <v>       0.41357397      -2.38555465      -0.87769662 </v>
   <v>       0.34252213       4.12515979       0.03474931 </v>
   <v>      -1.34828060      -0.91749647       3.39573659 </v>
   <v>       3.18898485       2.32795911       5.42879800 </v>
   <v>      -3.72319685      -1.86758155       0.02082241 </v>
   <v>      -4.88963224       2.67674960      -1.86277200 </v>
   <v>       0.56910066      -2.10388602       1.39559412 </v>
   <v>       2.30886008      -1.30196526      -2.75153119 </v>
   <v>      -4.60824089      -0.57400590       2.24417180 </v>
   <v>       0.32342345      -2.49408696      -2.26737107 </v>
   <v>      -0.48481121       2.20443821       2.18943490 </v>
   <v>       1.90407146      -5.00783105       1.31453166 </v>
   <v>       0.96879841      -3.56834857       0.65206603 </v>
   <v>      -0.72810261      -0.39253984      -0.79377849 </v>
   <v>       0.67507282      -3.36862380      -1.12940386 </v>
   <v>       0.13699122       6.81411421       2.67021904 </v>
   <v>       1.13049417      -1.09111658       2.61162272 </v>
   <v>      -0.75261812      -2.91818170      -0.71210293 </v>
   <v>      -2.15920243      -3.05998845       0.74753259 </v>
   <v>       2.95383468      -1.60681916       3.36334400 </v>
   <v>      -0.62832634      -0.32475689      -2.72861744 </v>
   <v>      -2.25374408       0.90060523      -2.07550350 </v>
   <v>       0.54568795       5.72042328       3.28816431 </v>
   <v>      -1.78893299       1.35962682       0.45040354 </v>
   <v>       1.09386175      -1.32738034      -0.20603939 </v>
   <v>      -2.34784328      -0.82382075       7.52591383 </v>
   <v>      -2.07883052      -2.01758226      -2.51281017 </v>
   <v>       2.33699254      -0.61923329       2.35891560 </v>
   <v>       0.53782644      -3.19913470      -5.55208062 </v>
   <v>      -0.12177625      -1.45219870       1.49319355 </v>
  </varray>
  <varray name="stress" >
   <v>     278.44369590      28.34089722      49.27601141 </v>
   <v>      28.34089724     380.81509309      17.28999665 </v>
   <v>      49.27601143      17.28999672     354.08547196 </v>
  </varray>
  <energy>
   <i name="e_fr_energy">   -861.75631359 </i>
   <i name="e_wo_entrp">   -861.74984711 </i>
   <i name="e_0_energy">     -0.01293296 </i>
  </energy>
  <time name="totalsc">  844.10  844.53</time>
  <eigenvalues>
   <array>
    <dimension dim="1">band</dimension>
    <dimension dim="2">kpoint</dimension>
    <dimension dim="3">spin</dimension>
    <field>eigene</field>
    <field>occ</field>
    <set>
     <set comment="spin 1">
      <set comment="kpoint 1">
       <r>  -34.2221    1.0000 </r>
       <r>  -33.4886    1.0000 </r>
       <r>  -33.3550    1.0000 </r>
       <r>  -33.3464    1.0000 </r>
       <r>  -33.2574    1.0000 </r>
       <r>  -33.1765    1.0000 </r>
       <r>  -33.0622    1.0000 </r>
       <r>  -32.9074    1.0000 </r>
       <r>  -32.9040    1.0000 </r>
       <r>  -32.8430    1.0000 </r>
       <r>  -32.8364    1.0000 </r>
[...]
       <r>     7.4742     0.0434   868.0000 </r>
       <r>     7.6462     0.0000   868.0000 </r>
       <r>     7.8183     0.0158   868.0027 </r>
       <r>     7.9903    10.7566   869.8533 </r>
       <r>     8.1623     5.4334   870.7881 </r>
       <r>     8.3344     9.1163   872.3564 </r>
       <r>     8.5064     9.5554   874.0003 </r>
       <r>     8.6785    10.4317   875.7950 </r>
       <r>     8.8505     9.9325   877.5038 </r>
       <r>     9.0225    21.0096   881.1183 </r>
       <r>     9.1946    11.7682   883.1429 </r>
       <r>     9.3666    17.3103   886.1210 </r>
       <r>     9.5387    22.0746   889.9187 </r>
       <r>     9.7107    23.5829   893.9759 </r>
       <r>     9.8827    26.5708   898.5471 </r>
       <r>    10.0548    38.5408   905.1777 </r>
       <r>    10.2268    29.6221   910.2739 </r>
       <r>    10.3989    46.4484   918.2649 </r>
       <r>    10.5709    36.6288   924.5665 </r>
       <r>    10.7429    43.7275   932.0894 </r>
       <r>    10.9150    46.0506   940.0120 </r>
       <r>    11.0870    39.6620   946.8354 </r>
       <r>    11.2591    48.0229   955.0973 </r>
       <r>    11.4311    51.3511   963.9317 </r>
       <r>    11.6031    49.1716   972.3912 </r>
       <r>    11.7752    57.5627   982.2943 </r>
       <r>    11.9472    57.7507   992.2298 </r>
       <r>    12.1193    63.4379  1003.1437 </r>
       <r>    12.2913    64.6910  1014.2731 </r>
       <r>    12.4633    69.5540  1026.2392 </r>
       <r>    12.6354    63.9453  1037.2403 </r>
       <r>    12.8074    16.0387  1039.9997 </r>
       <r>    12.9795     0.0020  1040.0000 </r>
       <r>    13.1515     0.0000  1040.0000 </r>
       <r>    13.3236     0.0000  1040.0000 </r>
       <r>    13.4956     0.0000  1040.0000 </r>
       <r>    13.6676     0.0000  1040.0000 </r>
       <r>    13.8397     0.0000  1040.0000 </r>
       <r>    14.0117     0.0000  1040.0000 </r>
       <r>    14.1838     0.0000  1040.0000 </r>
       <r>    14.3558     0.0000  1040.0000 </r>
       <r>    14.5278     0.0000  1040.0000 </r>
       <r>    14.6999     0.0000  1040.0000 </r>
       <r>    14.8719     0.0000  1040.0000 </r>
       <r>    15.0440     0.0000  1040.0000 </r>
      </set>
     </set>
    </array>
   </total>
  </dos>
 </calculation>
 <structure name="finalpos" >
  <crystal>
   <varray name="basis" >
    <v>      11.12194768       0.00000000       0.00000000 </v>
    <v>       0.00000000      11.12194768       0.00000000 </v>
    <v>       0.00000000       0.00000000      11.12194768 </v>
   </varray>
   <i name="volume">   1375.75957216 </i>
   <varray name="rec_basis" >
    <v>       0.08991231       0.00000000       0.00000000 </v>
    <v>       0.00000000       0.08991231       0.00000000 </v>
    <v>       0.00000000       0.00000000       0.08991231 </v>
   </varray>
  </crystal>
  <varray name="positions" >
   <v>       0.75568951       0.42837567       0.09408303 </v>
   <v>       0.38530003       0.73397284       0.88270112 </v>
   <v>       0.03476318       0.79294107       0.51905169 </v>
   <v>       0.32110145       0.94590213       0.18630635 </v>
   <v>       0.64722539       0.07321382       0.73318952 </v>
   <v>       0.81889240       0.23085915       0.79998639 </v>
   <v>       0.40585962       0.44569717       0.92078723 </v>
   <v>       0.78145449       0.47064628       0.87376570 </v>
   <v>       0.13013800       0.28270306       0.81662641 </v>
   <v>       0.94712709       0.04832068       0.49776007 </v>
   <v>       0.29706580       0.88600169       0.72289730 </v>
   <v>       0.71737801       0.19028317       0.27915159 </v>
   <v>       0.23579974       0.03415131       0.46597160 </v>
   <v>       0.41180649       0.19287654       0.29085566 </v>
   <v>       0.13343229       0.97855213       0.96730725 </v>
   <v>       0.56854008       0.91008566       0.26071656 </v>
   <v>       0.44839920       0.59295659       0.44297768 </v>
   <v>       0.93175527       0.15013389       0.10476452 </v>
   <v>       0.73013465       0.79492051       0.43852002 </v>
   <v>       0.39521408       0.32296589       0.53205341 </v>
   <v>       0.38124418       0.15105761       0.79448495 </v>
   <v>       0.59304800       0.61141233       0.68462966 </v>
   <v>       0.47394132       0.63395882       0.10166770 </v>
   <v>       0.06570683       0.42229529       0.03359015 </v>
   <v>       0.87592803       0.73097237       0.12749283 </v>
   <v>       0.15636747       0.32842586       0.33238709 </v>
   <v>       0.64722954       0.30969113       0.52136154 </v>
   <v>       0.52763469       0.40370023       0.23111964 </v>
   <v>       0.07602819       0.06298520       0.69260319 </v>
   <v>       0.45604930       0.97375149       0.97295073 </v>
   <v>       0.82947121       0.94637687       0.25653362 </v>
   <v>       0.10205806       0.11870616       0.23313445 </v>
   <v>       0.20332363       0.61305567       0.36717053 </v>
   <v>       0.23113867       0.25484756       0.07558790 </v>
   <v>       0.88435929       0.94177465       0.87037699 </v>
   <v>       0.70916296       0.00271301       0.02200447 </v>
   <v>       0.62679778       0.07322313       0.47254410 </v>
   <v>       0.57234723       0.33902570       0.79591696 </v>
   <v>       0.15320306       0.73009812       0.98829932 </v>
   <v>       0.84460520       0.39137921       0.36295045 </v>
   <v>       0.68939985       0.71674590       0.90608464 </v>
   <v>       0.98562534       0.55208696       0.26311047 </v>
   <v>       0.11386955       0.45206009       0.58333298 </v>
   <v>       0.71684082       0.58432341       0.32587221 </v>
   <v>       0.93238231       0.57701962       0.50129060 </v>
   <v>       0.38083811       0.80798520       0.42308275 </v>
   <v>       0.30898761       0.53892097       0.69223358 </v>
   <v>       0.94772716       0.70701521       0.82938716 </v>
   <v>       0.06840183       0.81542218       0.26200159 </v>
   <v>       0.95255092       0.31137589       0.60064905 </v>
   <v>       0.52580449       0.17142290       0.03304658 </v>
   <v>       0.49603774       0.89960658       0.60862143 </v>
   <v>       0.27723495       0.50738808       0.16657220 </v>
   <v>       0.85469555       0.82518986       0.66858439 </v>
   <v>       0.25978526       0.36705099       0.15053538 </v>
   <v>       0.77416785       0.91695212       0.12954671 </v>
   <v>       0.64516955       0.93089179       0.54920100 </v>
   <v>       0.09656489       0.27211525       0.17957278 </v>
   <v>       0.89451108       0.80606801       0.94770166 </v>
   <v>       0.95128674       0.01302244       0.95662659 </v>
   <v>       0.45957310       0.05034731       0.10952019 </v>
   <v>       0.86046529       0.08368759       0.28754942 </v>
   <v>       0.26061958       0.71516101       0.44279666 </v>
   <v>       0.07057923       0.00188768       0.17438305 </v>
   <v>       0.83705807       0.31311864       0.20577999 </v>
   <v>       0.23739978       0.40321021       0.64896793 </v>
   <v>       0.44720844       0.50888811       0.63512118 </v>
   <v>       0.25448813       0.23990130       0.45112981 </v>
   <v>       0.74442310       0.81701188       0.80856549 </v>
   <v>       0.81142721       0.30081001       0.46327902 </v>
   <v>       0.13179817       0.49936378       0.23993359 </v>
   <v>       0.13024576       0.97280281       0.60648624 </v>
   <v>       0.75275134       0.13567460       0.51024962 </v>
   <v>       0.94221716       0.53645213       0.11020503 </v>
   <v>       0.92558690       0.85142754       0.30033115 </v>
   <v>       0.40632078       0.82521299       0.04053196 </v>
   <v>       0.31969055       0.91171439       0.56862632 </v>
   <v>       0.85842857       0.59666142       0.33641178 </v>
   <v>       0.98034180       0.68961177       0.27314584 </v>
   <v>       0.05028536       0.33625470       0.49866712 </v>
   <v>       0.22641281       0.12233247       0.68539369 </v>
   <v>       0.33645900       0.56927138       0.29395202 </v>
   <v>       0.97056450       0.45182231       0.35869577 </v>
   <v>       0.71854857       0.63505317       0.02658314 </v>
   <v>       0.21311899       0.32555120       0.95715127 </v>
   <v>       0.80065592       0.31795986       0.65611214 </v>
   <v>       0.51911157       0.77610248       0.51870026 </v>
   <v>       0.82576577       0.95219162       0.72261635 </v>
   <v>       0.01406762       0.38749015       0.73046835 </v>
   <v>       0.42342393       0.34109355       0.77461616 </v>
   <v>       0.13535530       0.86749898       0.37797940 </v>
   <v>       0.38708026       0.21755094       0.01073247 </v>
   <v>       0.50113346       0.83061959       0.74327905 </v>
   <v>       0.76989806       0.04901895       0.88409999 </v>
   <v>       0.81691560       0.63438687       0.80540721 </v>
   <v>       0.52427292       0.17146156       0.45386175 </v>
   <v>       0.65731307       0.68725138       0.23623016 </v>
   <v>       0.59369615       0.90210623       0.97818515 </v>
   <v>       0.88671525       0.48096102       0.60097688 </v>
   <v>       0.04067223       0.64348562       0.92753019 </v>
   <v>       0.25675221       0.63296367       0.03695240 </v>
   <v>       0.56178486       0.26431610       0.16436363 </v>
   <v>       0.59563402       0.49165607       0.82102608 </v>
   <v>       0.25980141       0.53176723       0.83612364 </v>
   <v>       0.25784619       0.13764968       0.20717161 </v>
   <v>       0.54677288       0.10657904       0.90862299 </v>
   <v>       0.22089838       0.46827298       0.44950412 </v>
   <v>       0.06044543       0.61883837       0.41598996 </v>
   <v>       0.41043534       0.45579243       0.09512956 </v>
   <v>       0.47396238       0.76801314       0.31427270 </v>
   <v>       0.61903189       0.49623523       0.18076319 </v>
   <v>       0.39750558       0.98672500       0.34966856 </v>
   <v>       0.66347401       0.01655108       0.35144498 </v>
   <v>       0.00819036       0.78773022       0.71484204 </v>
   <v>       0.65989227       0.61913174       0.46993479 </v>
   <v>       0.08002254       0.79064891       0.09314218 </v>
   <v>       0.16041609       0.83140742       0.86960860 </v>
   <v>       0.47005346       0.05482696       0.62994569 </v>
   <v>       0.90592911       0.33477956       0.96249148 </v>
   <v>       0.02091674       0.13187634       0.81616596 </v>
   <v>       0.97619400       0.14852834       0.62144365 </v>
   <v>       0.85875514       0.69990249       0.53764498 </v>
   <v>       0.86906614       0.89931427       0.54175640 </v>
   <v>       0.12384790       0.60598813       0.61439599 </v>
   <v>       0.70374184       0.43905593       0.32985514 </v>
   <v>       0.15118055       0.14027290       0.04092590 </v>
   <v>       0.71010845       0.11452959       0.10733232 </v>
   <v>       0.57266301       0.22115150       0.67600969 </v>
   <v>       0.50151157       0.37045681       0.36412503 </v>
   <v>       0.33049398       0.00348230       0.90865071 </v>
   <v>       0.04211987       0.16821138       0.33945652 </v>
   <v>       0.64718139       0.31887046       0.94315923 </v>
   <v>       0.55360037       0.67998297       0.86929668 </v>
   <v>       0.19717428       0.73704348       0.27057527 </v>
   <v>       0.32788625       0.68800377       0.66402500 </v>
  </varray>
  <varray name="velocities" >
   <v>       0.00000000       0.00000000       0.00000000 </v>
   <v>       0.00000000       0.00000000       0.00000000 </v>
   <v>       0.00000000       0.00000000       0.00000000 </v>
   <v>       0.00000000       0.00000000       0.00000000 </v>
   <v>       0.00000000       0.00000000       0.00000000 </v>
   <v>       0.00000000       0.00000000       0.00000000 </v>
   <v>       0.00000000       0.00000000       0.00000000 </v>
   <v>       0.00000000       0.00000000       0.00000000 </v>
   <v>       0.00000000       0.00000000       0.00000000 </v>
   <v>       0.00000000       0.00000000       0.00000000 </v>
   <v>       0.00000000       0.00000000       0.00000000 </v>
   <v>       0.00000000       0.00000000       0.00000000 </v>
   <v>       0.00000000       0.00000000       0.00000000 </v>
   <v>       0.00000000       0.00000000       0.00000000 </v>
   <v>       0.00000000       0.00000000       0.00000000 </v>
   <v>       0.00000000       0.00000000       0.00000000 </v>
   <v>       0.00000000       0.00000000       0.00000000 </v>
   <v>       0.00000000       0.00000000       0.00000000 </v>
   <v>       0.00000000       0.00000000       0.00000000 </v>
   <v>       0.00000000       0.00000000       0.00000000 </v>
   <v>       0.00000000       0.00000000       0.00000000 </v>
   <v>       0.00000000       0.00000000       0.00000000 </v>
   <v>       0.00000000       0.00000000       0.00000000 </v>
   <v>       0.00000000       0.00000000       0.00000000 </v>
   <v>       0.00000000       0.00000000       0.00000000 </v>
   <v>       0.00000000       0.00000000       0.00000000 </v>
   <v>       0.00000000       0.00000000       0.00000000 </v>
   <v>       0.00000000       0.00000000       0.00000000 </v>
   <v>       0.00000000       0.00000000       0.00000000 </v>
   <v>       0.00000000       0.00000000       0.00000000 </v>
   <v>       0.00000000       0.00000000       0.00000000 </v>
   <v>       0.00000000       0.00000000       0.00000000 </v>
   <v>       0.00000000       0.00000000       0.00000000 </v>
   <v>       0.00000000       0.00000000       0.00000000 </v>
   <v>       0.00000000       0.00000000       0.00000000 </v>
   <v>       0.00000000       0.00000000       0.00000000 </v>
   <v>       0.00000000       0.00000000       0.00000000 </v>
   <v>       0.00000000       0.00000000       0.00000000 </v>
   <v>       0.00000000       0.00000000       0.00000000 </v>
   <v>       0.00000000       0.00000000       0.00000000 </v>
   <v>       0.00000000       0.00000000       0.00000000 </v>
   <v>       0.00000000       0.00000000       0.00000000 </v>
   <v>       0.00000000       0.00000000       0.00000000 </v>
   <v>       0.00000000       0.00000000       0.00000000 </v>
   <v>       0.00000000       0.00000000       0.00000000 </v>
   <v>       0.00000000       0.00000000       0.00000000 </v>
   <v>       0.00000000       0.00000000       0.00000000 </v>
   <v>       0.00000000       0.00000000       0.00000000 </v>
   <v>       0.00000000       0.00000000       0.00000000 </v>
   <v>       0.00000000       0.00000000       0.00000000 </v>
   <v>       0.00000000       0.00000000       0.00000000 </v>
   <v>       0.00000000       0.00000000       0.00000000 </v>
   <v>       0.00000000       0.00000000       0.00000000 </v>
   <v>       0.00000000       0.00000000       0.00000000 </v>
   <v>       0.00000000       0.00000000       0.00000000 </v>
   <v>       0.00000000       0.00000000       0.00000000 </v>
   <v>       0.00000000       0.00000000       0.00000000 </v>
   <v>       0.00000000       0.00000000       0.00000000 </v>
   <v>       0.00000000       0.00000000       0.00000000 </v>
   <v>       0.00000000       0.00000000       0.00000000 </v>
   <v>       0.00000000       0.00000000       0.00000000 </v>
   <v>       0.00000000       0.00000000       0.00000000 </v>
   <v>       0.00000000       0.00000000       0.00000000 </v>
   <v>       0.00000000       0.00000000       0.00000000 </v>
   <v>       0.00000000       0.00000000       0.00000000 </v>
   <v>       0.00000000       0.00000000       0.00000000 </v>
   <v>       0.00000000       0.00000000       0.00000000 </v>
   <v>       0.00000000       0.00000000       0.00000000 </v>
   <v>       0.00000000       0.00000000       0.00000000 </v>
   <v>       0.00000000       0.00000000       0.00000000 </v>
   <v>       0.00000000       0.00000000       0.00000000 </v>
   <v>       0.00000000       0.00000000       0.00000000 </v>
   <v>       0.00000000       0.00000000       0.00000000 </v>
   <v>       0.00000000       0.00000000       0.00000000 </v>
   <v>       0.00000000       0.00000000       0.00000000 </v>
   <v>       0.00000000       0.00000000       0.00000000 </v>
   <v>       0.00000000       0.00000000       0.00000000 </v>
   <v>       0.00000000       0.00000000       0.00000000 </v>
   <v>       0.00000000       0.00000000       0.00000000 </v>
   <v>       0.00000000       0.00000000       0.00000000 </v>
   <v>       0.00000000       0.00000000       0.00000000 </v>
   <v>       0.00000000       0.00000000       0.00000000 </v>
   <v>       0.00000000       0.00000000       0.00000000 </v>
   <v>       0.00000000       0.00000000       0.00000000 </v>
   <v>       0.00000000       0.00000000       0.00000000 </v>
   <v>       0.00000000       0.00000000       0.00000000 </v>
   <v>       0.00000000       0.00000000       0.00000000 </v>
   <v>       0.00000000       0.00000000       0.00000000 </v>
   <v>       0.00000000       0.00000000       0.00000000 </v>
   <v>       0.00000000       0.00000000       0.00000000 </v>
   <v>       0.00000000       0.00000000       0.00000000 </v>
   <v>       0.00000000       0.00000000       0.00000000 </v>
   <v>       0.00000000       0.00000000       0.00000000 </v>
   <v>       0.00000000       0.00000000       0.00000000 </v>
   <v>       0.00000000       0.00000000       0.00000000 </v>
   <v>       0.00000000       0.00000000       0.00000000 </v>
   <v>       0.00000000       0.00000000       0.00000000 </v>
   <v>       0.00000000       0.00000000       0.00000000 </v>
   <v>       0.00000000       0.00000000       0.00000000 </v>
   <v>       0.00000000       0.00000000       0.00000000 </v>
   <v>       0.00000000       0.00000000       0.00000000 </v>
   <v>       0.00000000       0.00000000       0.00000000 </v>
   <v>       0.00000000       0.00000000       0.00000000 </v>
   <v>       0.00000000       0.00000000       0.00000000 </v>
   <v>       0.00000000       0.00000000       0.00000000 </v>
   <v>       0.00000000       0.00000000       0.00000000 </v>
   <v>       0.00000000       0.00000000       0.00000000 </v>
   <v>       0.00000000       0.00000000       0.00000000 </v>
   <v>       0.00000000       0.00000000       0.00000000 </v>
   <v>       0.00000000       0.00000000       0.00000000 </v>
   <v>       0.00000000       0.00000000       0.00000000 </v>
   <v>       0.00000000       0.00000000       0.00000000 </v>
   <v>       0.00000000       0.00000000       0.00000000 </v>
   <v>       0.00000000       0.00000000       0.00000000 </v>
   <v>       0.00000000       0.00000000       0.00000000 </v>
   <v>       0.00000000       0.00000000       0.00000000 </v>
   <v>       0.00000000       0.00000000       0.00000000 </v>
   <v>       0.00000000       0.00000000       0.00000000 </v>
   <v>       0.00000000       0.00000000       0.00000000 </v>
   <v>       0.00000000       0.00000000       0.00000000 </v>
   <v>       0.00000000       0.00000000       0.00000000 </v>
   <v>       0.00000000       0.00000000       0.00000000 </v>
   <v>       0.00000000       0.00000000       0.00000000 </v>
   <v>       0.00000000       0.00000000       0.00000000 </v>
   <v>       0.00000000       0.00000000       0.00000000 </v>
   <v>       0.00000000       0.00000000       0.00000000 </v>
   <v>       0.00000000       0.00000000       0.00000000 </v>
   <v>       0.00000000       0.00000000       0.00000000 </v>
   <v>       0.00000000       0.00000000       0.00000000 </v>
   <v>       0.00000000       0.00000000       0.00000000 </v>
   <v>       0.00000000       0.00000000       0.00000000 </v>
   <v>       0.00000000       0.00000000       0.00000000 </v>
   <v>       0.00000000       0.00000000       0.00000000 </v>
   <v>       0.00000000       0.00000000       0.00000000 </v>
   <v>       0.00000000       0.00000000       0.00000000 </v>
  </varray>
 </structure>
</modeling>
