135
Config_type=79 Weight=1.0 Lattice="12.093787620 0.000000000 0.000000000 0.000000000 12.093787620 0.000000000 0.000000000 0.000000000 12.093787620" Energy=-942.410342 Virial="88.57141 15.62436 -5.00447 15.62436 92.58557 -20.22733 -5.00447 -20.22733 83.90344" Properties=species:S:1:pos:R:3:forces:R:3
Ca	      6.85523     10.54972      7.05714         0.340312      0.419078      1.350610
Ca	      6.83460      9.25435      1.17485         1.052055      1.206143     -0.010381
Ca	      4.31123      2.37515     10.94015        -0.065900      1.447006      0.370471
Ca	     10.05780      4.73976      5.39288        -0.620499      0.440548     -1.141894
Ca	      7.44323      3.19309     11.22038         0.461491      0.481005     -0.016232
Ca	     11.54418      4.93066      1.00288        -2.286423      2.596091      0.503646
Ca	      5.98215      5.95159     12.04530        -1.453161      1.181272     -0.214881
Ca	      9.76384     10.89168      5.03983        -0.330909      1.229633      1.308101
Ca	      0.65573      7.40574      8.91935        -1.176544      0.326390      0.147644
Ca	     11.66888     10.19283      8.25844        -2.986778     -1.137150      2.931910
Ca	      3.16319      8.57710      6.96266         0.805993     -1.575130     -1.079650
Ca	      7.19066      2.43057      5.56224        -2.210894     -2.591688     -0.349625
Ca	      9.04324      8.32029      9.94864         0.804583      1.886023     -0.328390
Ca	      3.62980      6.74460      3.33440        -0.980423      1.245788      0.658112
Ca	      2.20226     11.77292      9.34362        -2.520751     -3.972671      3.107579
Ca	      3.36469      0.44058      1.24064         2.834300     -2.201728      1.485939
Ca	      0.95133     10.50980      3.30859         2.143351      0.329491      1.441519
Ca	      1.82650      5.69042     11.16825         2.024073      2.017951     -0.773801
Ca	      0.23671      2.23030      3.29039         1.638879     -2.603509     -1.136216
Ca	      6.97023      8.62820      4.67391        -0.114982     -1.507014     -0.792861
Ca	      3.92206      3.46531      5.88057         2.406987      0.536161     -0.700327
Ca	     10.06374      1.22225      0.44212        -0.093202     -0.016956     -1.218284
Ca	      1.21867      2.63194      8.94427         0.481127      1.376345      0.760625
Ca	      7.62230      5.45654      7.39236         0.050978      0.979680      0.957674
Ca	      7.24692      4.23585      2.68907        -1.437719      2.035333     -0.270255
Ca	      3.37566      0.22512      5.98943        -0.908868      0.045842     -1.412199
Ca	      0.16371      6.37476      4.39604         2.797210      1.954289     -2.843880
Si	      9.58820      3.25680      7.93386         0.173085     -0.305610      2.136083
Si	      5.85400     10.62929     10.04544         3.128287     -2.487792      1.943750
Si	      1.91607      5.51803      6.80212         0.449011     -0.744123     -3.520547
Si	      8.99734      2.06318      3.07238        -0.703651      1.963995      1.392283
Si	      5.22161      4.02033      8.67022        -1.592132     -1.581464      5.980777
Si	      5.02537      1.19884      8.18581         4.726908      0.916737      0.244086
Si	      4.33769      2.27233      3.23528         1.427047     -0.735268     -0.208627
Si	      4.16289      8.60779      0.59342         0.626603      0.393715      5.795823
Si	      3.51216      8.95665      9.97935        -2.217893      0.082333     -5.276587
Si	      0.66563      2.49528     11.73597         0.070032      2.015740      1.565820
Si	      6.69921      0.33981      0.32196         4.735871     -1.476927     -4.888038
Si	      5.83414      7.61187      8.36419        -2.517700      2.498581     -0.317378
Si	      9.32257      0.35693      8.10163         2.453527     -2.170166     -1.547284
Si	      0.38471      9.02155      5.70640        -3.933495     -2.716277     -0.757406
Si	     11.66353      9.89147      0.24538        -4.003503     -0.394443     -6.181311
Si	      9.44311      6.71656      2.81913         1.648361      1.138373      1.818599
Si	      1.37340      7.87007      1.01130        -0.001124      0.540657      7.417802
Si	     10.10946      4.79513     10.23159         4.111563      2.533757      1.666933
Si	      9.83537      9.85939      2.46820         2.130716     -4.054607     -2.333070
Si	      1.14271      0.00274      0.27702        -3.626768     -1.224918     -1.239381
Si	      0.14863      3.26402      6.42628         4.636684      0.948973     -0.917427
Si	      4.14879      4.43413      1.44224         3.598566      0.775655      0.038302
Si	      4.53781     10.16702      4.21910        -3.941125      0.823766      1.922328
Si	      9.79523      7.86858      6.75093         5.217739      4.638722      0.712228
Si	      0.23392      0.19963      6.33223        -1.887091     -1.063397     -0.032225
Si	      6.71791     12.08295      3.09409        -1.338302     -2.181322      0.545634
Si	      8.74408      6.42397     12.00299         7.490362     -0.899475      3.340540
O	      6.82821      6.64917      9.05703         1.680715     -0.466232      0.370695
O	     12.05297      3.44640      4.89676        -1.480856      1.130991     -0.432290
O	     11.57412      5.21238      9.60223         0.725912     -1.570407     -0.114676
O	      5.40634      7.73546      1.29977        -0.693374     -0.159802     -2.058825
O	      3.24917     11.20639      4.20007         0.744569     -2.026806     -2.245188
O	      9.22979      6.47797      6.78233        -0.441642     -3.491606     -1.254523
O	      3.59631      8.17808     11.29064         2.181223     -1.338197      0.379540
O	      9.00932      4.51702      9.04384         0.212344     -1.960147     -1.066044
O	      5.95472      2.21730      9.26320        -1.981912      0.059323     -1.873973
O	      7.89464      0.43239      4.09143         0.210848      2.424227     -0.163258
O	     12.08043      1.39135     10.86227        -1.599188      1.106272     -3.093614
O	      6.64095      9.22154      9.45239        -0.763833      0.306199     -1.123270
O	      8.07964      7.76992     11.94074        -3.580995      3.458265     -1.073396
O	      2.57957      6.32781      5.56964         2.442453     -0.653017     -2.374299
O	      9.81938      6.58503      1.28499        -1.235563     -1.225377     -2.970362
O	      8.34400     10.05834      2.83405        -2.668596      0.211967      1.867142
O	      9.78433      1.81704      8.72298        -0.650290      2.938801     -0.537717
O	      5.31793      0.94331      0.13843        -3.442610      1.910676     -0.287756
O	      5.13045      5.51225      2.54898        -0.568973     -4.080379     -1.870502
O	      3.40073      2.91112      1.99370         1.046341      1.368936     -0.806407
O	      8.49750      3.30793      6.79877         1.402733      1.614473      1.136620
O	     10.66198      8.23606      8.28094        -2.334433     -1.321949     -2.777870
O	      5.36630      3.77423      0.35806        -1.459654      0.108892      2.628496
O	     11.04664      7.77343      5.48022        -0.890905      3.354913      2.793529
O	      8.68367      2.87998      1.65338        -0.178445     -2.470424      1.826677
O	      2.25505     11.15216     11.77130         0.329463     -0.103818     -1.475568
O	      7.47914     11.96380      1.64052        -1.088481      0.016389      0.944363
O	      3.68995      3.37013      8.44048         1.584265      0.132934      1.406239
O	     10.00078      8.23455      3.04560         0.583636      1.348773      0.143698
O	      8.74787      9.11295      6.49016        -0.691803      0.129783     -1.028633
O	     10.34724      1.33790      3.24547         1.095520     -1.042617     -0.959338
O	     11.51312      9.31214     10.68820         0.429486     -0.078180      2.491680
O	     12.06255      2.95382      1.03158         0.102528     -2.328927      0.889027
O	      2.93994      8.15525      1.64845        -2.137401      0.287239     -0.027601
O	      5.14735      1.61275      6.53613         0.728788     -1.123296      2.692960
O	      1.92069      1.51768     12.02614         3.136403     -0.508116      0.660862
O	      5.61179      7.68061      6.67392         1.547961      0.585114      2.777250
O	      8.75112      3.23061      4.26396        -0.796796     -0.725948     -1.738450
O	      9.60150     11.42650      9.28186        -0.534053     -0.685724     -0.798784
O	     10.03586      9.89705      0.75564         0.454611     -0.143406      2.386962
O	     12.05855     10.50799      5.76335        -3.467747      2.342235     -0.857425
O	      4.54324     10.12936      0.79563         0.013173      0.676184      0.455412
O	      4.25275      7.65767      9.01630         1.529258      2.390173     -0.341387
O	      4.43677      8.58708      4.05796         0.967460      0.218152      0.490835
O	      3.37855      5.65366      0.70368        -0.664112     -2.117109     -0.144081
O	      5.08454     10.55160      5.72280         0.111648     -0.411467      3.093250
O	      5.90499     11.71765      8.95053         1.374337      4.847980     -4.059701
O	     10.54381      0.19393      6.79904         3.713915      0.181359     -1.038254
O	     11.61363     11.55616     11.84117         3.100492     -0.582555      3.479601
O	      2.61277      6.17502      8.01507        -1.006025      0.212840      3.563274
O	      4.31576     10.36008      9.75040        -2.754953     -1.333500      1.333302
O	      5.98860      4.35624      7.39200        -1.987184     -1.157584     -2.935577
O	      8.34222      0.11462      6.82712        -3.340680      0.491854      0.829720
O	     10.96832     10.64869      3.26210        -1.556219      0.545349     -0.551334
O	      3.60926      0.57815      8.38494        -0.079953      1.622571     -0.857963
O	      7.98114      1.15974     11.65302        -1.765220     -1.087810      0.676118
O	      0.57585      1.83320      7.04078        -1.204374     -0.717075     -0.180777
O	      2.07794      9.30702      9.13537         2.884464     -0.448832      1.850339
O	      1.29291      8.62617      4.58104         2.404034     -1.497201     -4.257553
O	      5.59511      4.65117     10.24409        -1.084791     -1.607234     -3.997678
O	      5.49451      1.07695      2.86502        -0.812876     -0.892551     -0.658424
O	      0.59328      6.66380      1.74963         1.089342     -0.772950      0.635049
O	     10.62740      5.54868      3.34310        -2.779446     -0.037174      0.156525
O	      0.49382      9.25931      1.44251         0.100869      0.233093     -1.034838
O	      7.93659      6.72560      3.48626         0.440981     -1.288959     -0.156076
O	     11.00888      3.88962      7.27460        -0.981000     -1.207575      1.274601
O	      3.30301      1.95130      4.31508        -2.772833     -1.358760      2.090983
O	      1.04722      8.86655      7.05537         1.128281     -2.200763      4.305258
O	      1.03336      0.34794      4.89521        -1.200739      1.693888      1.363211
O	      0.42789      5.75889      6.28554        -2.386200     -2.194866      3.528723
O	      1.37239      3.78263     11.10483        -0.131037     -2.395643     -1.108963
O	      5.90957     10.61856      3.57875         4.250390      2.546351     -3.706304
O	      2.06229      3.67343      6.58627        -5.379144      2.666969      1.642202
O	      6.45204     10.88996     11.58615         1.004950      0.821322     -1.733180
O	      8.04849      5.10710      0.35853        -2.986080     -1.091886     -0.484533
O	      5.33961      3.21621      3.92166         3.678900      3.247949      1.824001
O	      0.81464     11.58365      7.67863         4.068935      3.205410      0.255839
O	     10.14211      6.50653     10.92575        -4.162800     -2.548232     -0.059243
O	      1.29596      0.01588      1.89753        -0.812696      1.461769     -0.674977
O	      1.55898      7.70207     11.67267        -2.191313     -1.086462     -7.364139
O	      9.91701      3.77249     11.49684         0.710132      0.277509     -1.925896
135
Config_type=89 Weight=1.0 Lattice="12.093787620 0.000000000 0.000000000 0.000000000 12.093787620 0.000000000 0.000000000 0.000000000 12.093787620" Energy=-947.293940 Virial="73.74661 14.12608 -23.50070 14.12608 64.48039 5.20725 -23.50070 5.20725 40.79627" Properties=species:S:1:pos:R:3:forces:R:3
Ca	      5.04635      0.88769      5.41939        -2.144477      0.444258     -2.711169
Ca	      8.54606      2.53370      3.49810         0.061672      0.829982      1.726109
Ca	      1.44909      5.18638     11.07104        -1.035080     -0.170877      0.888756
Ca	      3.79798      8.06492     11.39327         0.116815     -1.040615      0.616960
Ca	     11.70976     11.35009     10.63494        -0.156439     -1.097441      1.174924
Ca	     11.68838      8.11768      9.58763         0.196250      1.551361      0.208802
Ca	      0.77633     11.31664      1.57428         0.741971     -1.680787      0.441168
Ca	      2.69122      7.57643      3.32316         1.506934     -2.541693     -1.223983
Ca	      9.81423      5.29124      9.33692        -1.286816     -1.194652      1.582379
Ca	      5.64936      8.97215      6.43190         2.252545     -0.969644      2.256735
Ca	      0.52082      4.00614      2.52931        -3.820077     -1.451698     -2.054761
Ca	      0.54049      1.44209      4.76895        -0.763118     -1.293026      0.712630
Ca	     10.95551      2.79346     11.74650         0.221921      0.076968     -1.672860
Ca	      5.91119      7.87619      2.75322         0.228073      0.883468     -0.154205
Ca	      9.51050      9.53824      1.15861         0.280633     -0.097479      0.641153
Ca	      5.84193      4.63238      4.40632        -0.226667     -1.180409     -2.751262
Ca	      9.43382      0.37464      8.44228        -0.572075     -1.426258     -0.889822
Ca	      5.36706     11.72915      8.36524         0.564902     -2.845550     -0.566457
Ca	      8.10399      1.10461      0.62717        -2.602566     -1.098258     -0.374343
Ca	      3.26176      3.55350      7.08075        -0.650914     -1.248057     -0.255895
Ca	      8.75183      6.42369      5.70443        -0.904339     -0.343232     -1.881407
Ca	      3.34236     11.31003     11.09745        -1.791423      2.087501      0.883063
Ca	      6.92943      7.84155      9.98833        -0.787075     -1.847928      0.670433
Ca	      2.97874      6.96857      7.38723        -0.683810     -1.155719     -0.261323
Ca	     11.56724      7.66219      3.54887        -0.177304      0.048101     -0.352587
Ca	      9.15181      8.98752      7.40825        -0.744554      1.993268     -0.618712
Ca	      7.53241      4.87711      0.31741        -2.268194      0.100490      1.307934
Si	      4.21022      5.16431      9.53866         1.631419      2.191136      1.150109
Si	     11.27505      5.95749      7.25084        -0.369427      1.683450      5.041048
Si	      6.37896      5.80466      7.41731        -9.584578      7.975350     -1.042436
Si	      0.09406     10.96974      7.04928        -0.033450      0.200521     -3.545758
Si	      7.89067      2.49998     10.04002        -2.606736      4.502779      5.864307
Si	     10.19546      6.17421      0.37161         2.357645     -1.591366     -1.435838
Si	      8.08739      9.52589      4.44635        -0.617056     -1.988556     -0.304986
Si	      6.30006      9.87885      0.14289        -4.737178     -1.492914     -0.800211
Si	      7.54299      0.03372      5.52210         2.095034      1.867754     -1.279038
Si	      4.09503     10.33818      2.02383         0.923491      0.584387     -0.402345
Si	     10.53184      0.86408      1.77579         1.206915     -0.817719      4.865564
Si	      7.34606      3.43379      7.13558         1.808570     -1.371285     -2.601084
Si	     10.67707     10.69735      4.19669        -0.669508      3.263906     -2.829899
Si	      2.38568      9.88506      8.47731         5.242569     -2.082073      0.661213
Si	      4.78247      2.15654     10.73112        -1.165005     -0.276940     -0.013115
Si	      2.51303      0.61531      7.98588        -5.109467      3.026532     -1.713933
Si	      2.00275      1.69724      0.36402         0.267220      1.410830     -1.155657
Si	      3.91496      4.76292      1.53892        -5.003009     -0.222685     -4.130642
Si	      1.32206      5.06508      5.16924        -2.390900     -0.772719      1.204607
Si	      5.58147      2.28079      2.06215        -0.555293      1.440497      0.219774
Si	      8.31613     10.06498     10.10867         1.956982     -1.250149     -4.155054
Si	      3.56701      9.68627      4.73445        -1.336618      9.907944      2.314970
Si	      0.37658      8.19136      0.63799        -1.528290      0.442529     -2.022405
Si	      3.04743      2.42736      3.08995         1.905629      0.874783      3.497449
Si	     10.46508      2.98330      6.07892        -0.195261      1.573034      0.328195
Si	     11.79388      2.08739      8.39029         3.567621      0.786815      2.299384
Si	      8.57798      6.05800      2.78190         1.188811      0.781187      3.388653
O	      8.00049      9.04633      2.88347        -1.135811      2.614776      0.652049
O	      7.64385      5.41469      8.02192         8.129754     -5.130422      2.037437
O	      4.58741      5.48781      2.64095         2.324138      3.764284      5.427821
O	      1.21459      0.40741     11.81653        -0.411340      0.262534      0.873296
O	      8.10097      4.03575     10.65423         3.007278     -1.647673     -3.009344
O	      2.90432     11.46957      8.95789        -0.417306      0.552869     -3.315289
O	      9.52540      5.41498      1.61845        -0.749424     -0.903545      0.166240
O	      9.63874      9.83157      5.01389        -1.481064     -2.030260      0.459572
O	      6.38838      2.57515     11.05938        -0.331042     -2.741060     -0.654885
O	      2.49277      3.79131      2.40525         2.511668      2.352770      0.410051
O	      6.04068      7.46061      8.14853         0.734429     -3.010177     -3.175355
O	      4.40398      3.80215     10.34314        -0.966374     -2.787532     -0.623980
O	      8.71263      4.93891      4.02564        -1.619815      0.024425     -0.627622
O	      2.11934      9.30228      4.35002        -2.888758     -0.510453      0.204246
O	      5.13619      6.26302     10.27881        -0.674595      0.779217      0.603952
O	      1.25131      9.91129      7.44823        -0.569884     -1.277458     -2.888916
O	      5.74173     10.66783      1.52639        -0.108051     -1.471533     -0.818222
O	      7.54668     10.54381     11.41048        -1.469010     -0.459161      4.555611
O	      9.44569      7.34614      3.44372         0.165474     -2.395824      0.583921
O	      5.00672     10.21914     11.00452         3.208519     -3.344368      1.684083
O	      4.57784      8.60918      4.67992         3.838352     -7.223726     -3.296446
O	      7.06481      0.96031      4.08653         0.551928     -0.821370      3.247859
O	      1.50620      2.10013      8.30271         0.408978     -0.315192      0.683180
O	     11.45523      3.47694      9.33284        -0.749137     -2.707325     -1.421120
O	      6.04935      1.00374      1.29413        -0.929967     -0.129821     -0.196059
O	      4.61199      3.38630      1.17837         0.233404     -1.617508     -2.107257
O	      2.88533     10.86292      1.09839         0.240679     -0.500952      0.087446
O	      2.86938      5.31517      5.68461        -0.776968      0.545680     -0.399142
O	      0.73381      7.42826     11.36188         0.395915     -0.441267     -0.732077
O	      1.32297      7.62704      1.78211        -0.993469      1.571107      0.400419
O	      7.60515      8.40486      5.57616         1.631174     -0.646748     -0.357805
O	     11.10249      1.59137      6.83757        -0.450215      3.701858      2.113773
O	     11.82135      9.72069      0.15122         1.122534     -1.493995      0.916021
O	     11.00445      9.86285      2.77893         1.982336     -0.132587      2.066005
O	     10.76902      2.87255      4.55615        -1.017818     -0.438913     -1.594662
O	      1.09792      3.06975      0.05137         0.494576     -1.327629      1.492885
O	      9.93789     12.00561      3.29249        -0.459609      0.814416     -1.552897
O	     11.67910     11.22335      5.38919         1.297504     -0.735170     -0.249934
O	      3.86552     11.14364      3.51100         0.619720     -3.250974      0.607875
O	     12.01902      0.96784      2.60326        -0.646081      1.389922     -2.269740
O	     10.32757      0.16641      0.31279         0.913863     -0.030288      2.471285
O	      6.99211     10.63754      5.03782         0.255117      0.187027     -0.344900
O	      9.38059     11.11421     10.30278         4.806219      3.261331     -1.344647
O	      6.12031      3.14203      6.12575         0.532865      0.909839      1.087953
O	     10.10698      7.11541      7.26215         0.407836     -1.471030     -0.075346
O	      8.94264      1.54412     10.83665        -0.642567      0.873767     -3.944025
O	      0.73721      5.60794      3.71255         1.287417      2.366085      2.639288
O	     11.45672      0.72774      9.22985        -0.317032      1.666298     -1.191334
O	      1.00230      0.23477      6.99455         2.632059     -0.844540      1.114892
O	      3.60924      8.73963      8.10991        -1.782133      2.582700      1.660756
O	      3.20434      5.82191      0.44918         0.469725     -1.910882      0.518933
O	      9.15797      0.00867      5.89311        -2.617263      0.658507      1.263152
O	      2.74073      1.48714      1.91597        -2.069322     -3.351553     -4.342702
O	      3.28191      1.72411     11.44447         1.952470      0.619311      0.159525
O	     10.79232      4.50253      6.92292        -2.224715     -3.137266     -0.895868
O	     11.05085     10.18471      7.78671        -2.109847      0.640764      1.405927
O	      7.13259      6.35921      2.12671         1.850830     -1.806313      0.319057
O	      7.30085     10.18749      8.85676        -0.489344     -0.206190     -0.691953
O	     10.97692      7.53305      1.18452        -1.895645     -1.371309     -1.707950
O	      0.77726      3.51624      5.44130         1.923667      3.475802      0.807048
O	      4.14777      8.66931      1.74548        -1.263516      0.945771      0.882890
O	      2.60885      5.64628      9.25898         2.758851     -0.933888     -1.277344
O	      9.28710      8.69253      9.58594        -1.770865     -0.174759      2.101169
O	      4.69174      0.69448      9.86585         1.173823      4.672519      2.234784
O	      2.60812      1.96078      4.53724        -0.627417     -0.298969      0.469050
O	      6.47568      6.01138      5.81515        -0.397798      0.034296      1.294030
O	      3.68714      1.24552      7.16120         0.914170      0.279822      0.140716
O	      8.97390      6.21909     11.27927         2.768929      1.977521      1.547105
O	      6.52122      8.17783      0.22768        -0.177948      3.171345     -0.630837
O	      7.25767      2.78426      8.58409         0.615699     -1.913947     -0.538733
O	      1.84754      9.68822      9.91326        -1.855399     -1.747409      3.361480
O	      6.52753      0.42046      6.84459         2.568652     -0.211950     -1.421829
O	      8.81262      2.98641      6.29564        -2.477464      0.887602      1.905431
O	     11.36662      4.91496      0.05016        -1.400423      2.665959     -0.149897
O	      6.73022      3.33644      2.24449         3.707274      1.318588      0.996777
O	      4.66977      2.48053      3.55174         1.013445     -0.531649     -1.991381
O	      4.10183     10.26651      6.23127        -2.537473      3.479619     -1.247832
O	      0.29150      6.32417      6.32431         6.607770      0.605991     -5.811886
O	     11.83361      6.13994      8.84952        -0.653060     -0.610019     -1.285310
O	      9.66534      2.32450      1.60638         1.704551     -1.558843      0.162020
O	      5.05872      4.91261      8.01056        -1.415536     -0.029976     -0.377613
135
Config_type=39 Weight=1.0 Lattice="12.093787620 0.000000000 0.000000000 0.000000000 12.093787620 0.000000000 0.000000000 0.000000000 12.093787620" Energy=-942.960120 Virial="42.73347 3.50201 -7.56276 3.50201 94.75932 1.78304 -7.56276 1.78304 75.70833" Properties=species:S:1:pos:R:3:forces:R:3
Ca	      1.40541      7.63229      7.80372        -0.889959      0.438336      2.808451
Ca	      8.33523      1.89153     12.00446         0.093949     -0.014436     -1.006351
Ca	      4.97463      2.09957      1.62623        -0.108634      0.874240      1.003943
Ca	      4.55403      7.48112      5.36321         0.889261      2.535574     -2.339201
Ca	      7.81863      4.31012      6.27278         1.977218     -0.003361     -1.079799
Ca	      3.88474      9.95067      7.92274        -1.157490     -0.296926      0.533512
Ca	      6.92985      0.42202      7.43755         1.193951      1.663259      0.232680
Ca	     10.15506      8.27205      0.96443         1.046937      0.196110      0.083308
Ca	      7.67926      8.37771      4.42807         0.943410     -0.832373      1.640812
Ca	     11.64447      1.20930     11.30365         2.128343      0.609193      0.907631
Ca	     11.27272      7.02047      4.83340        -0.883735      1.796163     -1.455914
Ca	     11.38369      0.69603      5.01303        -0.113969     -0.482830      0.193290
Ca	      4.14692      2.11781      9.39657        -0.727714      0.832959      0.489820
Ca	      2.92482      1.08182      4.70815        -1.697666      2.467953     -0.027537
Ca	      6.99720      8.23955     10.53747         0.683387      0.188086      2.113611
Ca	      2.96455      5.09060      3.08890         1.137048      2.013755      0.731247
Ca	     11.93874      3.86635      5.89473        -2.732463     -1.933992     -0.594070
Ca	      3.05066      5.03464     10.80647        -0.783922     -0.258017     -1.467368
Ca	      9.63302     10.10997      6.30426         0.480364     -0.176089      0.731313
Ca	      9.21148     11.78106      9.37932         0.593318     -0.404632      1.790082
Ca	      5.44727      6.54354      8.66647        -1.201931     -0.309637      0.332288
Ca	      7.90579      5.20180      0.57479         1.785194      2.276237      0.097982
Ca	      8.16961     11.10904      3.34428         0.847737      0.135428     -1.222660
Ca	      4.32462      3.55888      6.48673        -0.302452      1.538115      0.849364
Ca	      5.06586      7.31320      0.93797        -1.625345     -1.885766      1.228701
Ca	      4.54893     10.73715      2.31501         0.442489     -2.142201      0.927378
Ca	      9.77786      6.14854      9.99342         1.849344     -0.862393      0.226112
Si	      5.60837      3.94470     11.42605        -0.714162     -0.495380     -1.492406
Si	      8.94337      7.15235      7.61869         0.806575      1.692138     -2.689353
Si	      0.10403     10.48365     12.01958        -1.357707      0.663138      1.903152
Si	      6.17808      1.92450      4.82899        -2.922851      2.566112      1.363123
Si	      7.26787      4.40771      9.24335        -1.215798     -4.881312     -5.645921
Si	     10.97561      8.92524     10.00905         0.564670     -1.709207     -1.632956
Si	      1.62900      1.23523      7.64485        -0.577479      4.105824     -0.735345
Si	      2.13175     10.47974      4.85191        -2.990513     -7.680581      2.335069
Si	      0.49517      3.74293      8.54821         0.272478     -0.198879      4.537349
Si	     11.12189      4.88482      0.65901         2.255001     -0.358225     -3.508378
Si	      4.11251     11.31783     10.70376        -0.737904     -2.114440     -2.085070
Si	      9.68189      4.65334      3.24312        -3.393785      0.992147     -0.351605
Si	      2.06458      8.06031      2.99462        -0.447024      1.904422     -0.998933
Si	      0.95336      2.85274      2.11947         2.566084     -5.196291     -0.538146
Si	      6.36792      5.59671      3.34668         1.317765      3.347701     -3.009829
Si	     11.58807      9.97664      3.11549        -1.078803     -3.164509     -4.156720
Si	      2.49772      0.38970      0.67236        -7.685595      2.561948     -0.031875
Si	      6.84655      9.54719      7.81399         0.903411     -4.569540     -0.994571
Si	      7.39479      8.70292      1.38500        -2.165038      0.937432      0.138522
Si	      1.33453      6.63288      0.48075         0.872959      6.922700     -0.754234
Si	      9.69806      2.36669      8.59881         3.178819     -0.484257     -0.063233
Si	      6.14854     10.81827      5.47865         1.845683      2.521936     -7.390769
Si	      1.86745      5.64622      5.98210         1.414519     -3.542576     -0.681041
Si	      8.70706      1.70500      3.03140         2.133916      2.811592      0.061533
Si	      3.32479      8.44094     10.55590         3.488667      0.028387      1.283663
Si	      0.29976     10.99028      7.45761        -0.950803     -0.095582     -1.447957
Si	      6.71227     11.27847      0.00931        -0.510286     -1.552069      2.953146
O	      6.73166      8.29901      6.60056        -0.372494      0.798743      0.269797
O	      1.46368     11.41757      6.00765        -0.726279      0.890291     -0.801022
O	      4.58764      2.38040      4.40630         2.423296      0.939092      0.035751
O	      5.07802     10.82494     11.93379         1.056593      1.054004     -1.960343
O	      6.13542      3.26866      9.86426         1.642284      0.306902      0.806652
O	      4.79248      8.21709     11.19398         1.398867      0.476398     -0.060850
O	      3.03932     10.02423     10.57042        -0.228952      1.590092     -1.032305
O	      1.43241      8.09958      1.48012        -0.451856     -2.504089     -0.760210