 vasp.5.4.4.18Apr17-6-g9f103f2a35 (build Mar 16 2023 09:39:13) complex          
  
 executed on             LinuxIFC date 2024.04.29  23:58:00
 running on   48 total cores
 distrk:  each k-point on   48 cores,    1 groups
 distr:  one band on NCORES_PER_BAND=  12 cores,    4 groups


--------------------------------------------------------------------------------------------------------


 INCAR:
 POTCAR:    PAW_PBE Ca_sv 06Sep2000               
 POTCAR:    PAW_PBE Si 05Jan2001                  
 POTCAR:    PAW_PBE O 08Apr2002                   
 POTCAR:    PAW_PBE Ca_sv 06Sep2000               
   SHA256 =  a47365830e737f14e0e6c5cf1ed81b94e081eecf0a33df105380881bc9da05d5 Ca
   COPYR  = (c) Copyright 06Sep2000 Georg Kresse                                
   COPYR  = This file is part of the software VASP. Any use, copying, and all ot
   COPYR  = If you do not have a valid VASP license, you may not use, copy or di
   VRHFIN =Ca: 3s3p4s                                                           
   LEXCH  = PE                                                                  
   EATOM  =  1006.0909 eV,   73.9456 Ry                                         
                                                                                
   TITEL  = PAW_PBE Ca_sv 06Sep2000                                             
   LULTRA =        F    use ultrasoft PP ?                                      
   IUNSCR =        1    unscreen: 0-lin 1-nonlin 2-no                           
   RPACOR =    2.000    partial core radius                                     
   POMASS =   40.078; ZVAL   =   10.000    mass and valenz                      
   RCORE  =    2.300    outmost cutoff radius                                   
   RWIGS  =    2.500; RWIGS  =    1.323    wigner-seitz radius (au A)           
   ENMAX  =  266.622; ENMIN  =  199.967 eV                                      
   RCLOC  =    1.808    cutoff for local pot                                    
   LCOR   =        T    correct aug charges                                     
   LPAW   =        T    paw PP                                                  
   EAUG   =  420.852                                                            
   RMAX   =    2.359    core radius for proj-oper                               
   RAUG   =    1.300    factor for augmentation sphere                          
   RDEP   =    2.392    radius for radial grids                                 
   RDEPT  =    1.987    core radius for aug-charge                              
                                                                                
   Atomic configuration                                                         
    7 entries                                                                   
     n  l   j            E        occ.                                          
     1  0  0.50     -3949.1705   2.0000                                         
     2  0  0.50      -414.3434   2.0000                                         
     2  1  1.50      -334.7047   6.0000                                         
     3  0  0.50       -47.0896   2.0000                                         
     4  0  0.50        -3.7663   2.0000                                         
     3  1  1.50       -28.0061   6.0000                                         
     3  2  1.50        -4.0817   0.0000                                         
   Description                                                                  
     l       E           TYP  RCUT    TYP  RCUT                                 
     0    -47.0896403     23  2.300                                             
     0     -3.7663320     23  2.300                                             
     1    -28.0060855     23  2.300                                             
     1      6.8029130     23  2.300                                             
     2     -4.0817478     23  2.300                                             
     2      0.4464412     23  2.300                                             
  local pseudopotential read in
  partial core-charges read in
  partial kinetic energy density read in
  atomic valenz-charges read in
  non local Contribution for L=           0  read in
    real space projection operators read in
  non local Contribution for L=           0  read in
    real space projection operators read in
  non local Contribution for L=           1  read in
    real space projection operators read in
  non local Contribution for L=           1  read in
    real space projection operators read in
  non local Contribution for L=           2  read in
    real space projection operators read in
  non local Contribution for L=           2  read in
    real space projection operators read in
    PAW grid and wavefunctions read in
 
   number of l-projection  operators is LMAX  =           6
   number of lm-projection operators is LMMAX =          18
 
 POTCAR:    PAW_PBE Si 05Jan2001                  
   SHA256 =  79d9987ad8750f624c4d6acb2a16d13abf6a777132adc04dc6c8399be72b42bb Si
   COPYR  = (c) Copyright 05Jan2001 Georg Kresse                                
   COPYR  = This file is part of the software VASP. Any use, copying, and all ot
   COPYR  = If you do not have a valid VASP license, you may not use, copy or di
   VRHFIN =Si: s2p2                                                             
   LEXCH  = PE                                                                  
   EATOM  =   103.0669 eV,    7.5752 Ry                                         
                                                                                
   TITEL  = PAW_PBE Si 05Jan2001                                                
   LULTRA =        F    use ultrasoft PP ?                                      
   IUNSCR =        1    unscreen: 0-lin 1-nonlin 2-no                           
   RPACOR =    1.500    partial core radius                                     
   POMASS =   28.085; ZVAL   =    4.000    mass and valenz                      
   RCORE  =    1.900    outmost cutoff radius                                   
   RWIGS  =    2.480; RWIGS  =    1.312    wigner-seitz radius (au A)           
   ENMAX  =  245.345; ENMIN  =  184.009 eV                                      
   ICORE  =        2    local potential                                         
   LCOR   =        T    correct aug charges                                     
   LPAW   =        T    paw PP                                                  
   EAUG   =  322.069                                                            
   DEXC   =    0.000                                                            
   RMAX   =    1.950    core radius for proj-oper                               
   RAUG   =    1.300    factor for augmentation sphere                          
   RDEP   =    1.993    radius for radial grids                                 
   RDEPT  =    1.837    core radius for aug-charge                              
                                                                                
   Atomic configuration                                                         
    6 entries                                                                   
     n  l   j            E        occ.                                          
     1  0  0.50     -1785.8828   2.0000                                         
     2  0  0.50      -139.4969   2.0000                                         
     2  1  1.50       -95.5546   6.0000                                         
     3  0  0.50       -10.8127   2.0000                                         
     3  1  0.50        -4.0811   2.0000                                         
     3  2  1.50        -4.0817   0.0000                                         
   Description                                                                  
     l       E           TYP  RCUT    TYP  RCUT                                 
     0    -10.8127223     23  1.900                                             
     0     -7.6451159     23  1.900                                             
     1     -4.0811372     23  1.900                                             
     1      2.4879257     23  1.900                                             
     2     -4.0817478      7  1.900                                             
  local pseudopotential read in
  partial core-charges read in
  partial kinetic energy density read in
  atomic valenz-charges read in
  non local Contribution for L=           0  read in
    real space projection operators read in
  non local Contribution for L=           0  read in
    real space projection operators read in
  non local Contribution for L=           1  read in
    real space projection operators read in
  non local Contribution for L=           1  read in
    real space projection operators read in
    PAW grid and wavefunctions read in
 
   number of l-projection  operators is LMAX  =           4
   number of lm-projection operators is LMMAX =           8
 
 POTCAR:    PAW_PBE O 08Apr2002                   
   SHA256 =  818f92134a0a090dccd8ba1447fa70422a3b330e708bb4f08108d8ae51209ddf O/
   COPYR  = (c) Copyright 08Apr2002 Georg Kresse                                
   COPYR  = This file is part of the software VASP. Any use, copying, and all ot
   COPYR  = If you do not have a valid VASP license, you may not use, copy or di
   VRHFIN =O: s2p4                                                              
   LEXCH  = PE                                                                  
   EATOM  =   432.3788 eV,   31.7789 Ry                                         
                                                                                
   TITEL  = PAW_PBE O 08Apr2002                                                 
   LULTRA =        F    use ultrasoft PP ?                                      
   IUNSCR =        1    unscreen: 0-lin 1-nonlin 2-no                           
   RPACOR =    1.200    partial core radius                                     
   POMASS =   16.000; ZVAL   =    6.000    mass and valenz                      
   RCORE  =    1.520    outmost cutoff radius                                   
   RWIGS  =    1.550; RWIGS  =    0.820    wigner-seitz radius (au A)           
   ENMAX  =  400.000; ENMIN  =  300.000 eV                                      
   ICORE  =        2    local potential                                         
   LCOR   =        T    correct aug charges                                     
   LPAW   =        T    paw PP                                                  
   EAUG   =  605.392                                                            
   DEXC   =    0.000                                                            
   RMAX   =    1.553    core radius for proj-oper                               
   RAUG   =    1.300    factor for augmentation sphere                          
   RDEP   =    1.550    radius for radial grids                                 
   RDEPT  =    1.329    core radius for aug-charge                              
                                                                                
   Atomic configuration                                                         
    4 entries                                                                   
     n  l   j            E        occ.                                          
     1  0  0.50      -514.6923   2.0000                                         
     2  0  0.50       -23.9615   2.0000                                         
     2  1  0.50        -9.0305   4.0000                                         
     3  2  1.50        -9.5241   0.0000                                         
   Description                                                                  
     l       E           TYP  RCUT    TYP  RCUT                                 
     0    -23.9615318     23  1.200                                             
     0     -9.5240782     23  1.200                                             
     1     -9.0304911     23  1.520                                             
     1      8.1634956     23  1.520                                             
     2     -9.5240782      7  1.500                                             
  local pseudopotential read in
  partial core-charges read in
  partial kinetic energy density read in
  kinetic energy density of atom read in
  atomic valenz-charges read in
  non local Contribution for L=           0  read in
    real space projection operators read in
  non local Contribution for L=           0  read in
    real space projection operators read in
  non local Contribution for L=           1  read in
    real space projection operators read in
  non local Contribution for L=           1  read in
    real space projection operators read in
    PAW grid and wavefunctions read in
 
   number of l-projection  operators is LMAX  =           4
   number of lm-projection operators is LMMAX =           8
 
 Optimization of the real space projectors (new method)

 maximal supplied QI-value         = 16.25
 optimisation between [QCUT,QGAM] = [ 12.51, 25.03] = [ 43.85,175.40] Ry 
 Optimized for a Real-space Cutoff    1.47 Angstroem

   l    n(q)    QCUT    max X(q) W(low)/X(q) W(high)/X(q)  e(spline) 
   0     11    12.514    11.817    0.25E-04    0.32E-05    0.87E-07
   0     11    12.514     8.461    0.39E-04    0.59E-05    0.18E-06
   1     11    12.514     3.957    0.97E-05    0.57E-05    0.28E-07
   1     11    12.514     4.314    0.42E-04    0.14E-04    0.23E-06
   2     10    12.514    14.565    0.79E-04    0.50E-03    0.16E-05
   2     10    12.514    14.552    0.75E-04    0.48E-03    0.15E-05
 Optimization of the real space projectors (new method)

 maximal supplied QI-value         = 19.84
 optimisation between [QCUT,QGAM] = [ 12.50, 25.00] = [ 43.76,175.03] Ry 
 Optimized for a Real-space Cutoff    1.16 Angstroem

   l    n(q)    QCUT    max X(q) W(low)/X(q) W(high)/X(q)  e(spline) 
   0      9    12.501   159.560    0.10E-03    0.83E-04    0.71E-07
   0      9    12.501   115.863    0.99E-04    0.81E-04    0.70E-07
   1      8    12.501    88.339    0.20E-03    0.25E-03    0.76E-07
   1      8    12.501    48.592    0.20E-03    0.24E-03    0.75E-07
 Optimization of the real space projectors (new method)

 maximal supplied QI-value         = 24.76
 optimisation between [QCUT,QGAM] = [ 12.38, 25.00] = [ 42.90,175.06] Ry 
 Optimized for a Real-space Cutoff    1.16 Angstroem

   l    n(q)    QCUT    max X(q) W(low)/X(q) W(high)/X(q)  e(spline) 
   0      9    12.378    20.381    0.16E-03    0.67E-05    0.31E-06
   0      9    12.378    15.268    0.17E-03    0.81E-05    0.33E-06
   1      8    12.378     5.964    0.20E-03    0.16E-03    0.30E-06
   1      8    12.378     5.382    0.18E-03    0.14E-03    0.26E-06
  PAW_PBE Ca_sv 06Sep2000               :
 energy of atom  1       EATOM=-1006.0909
 kinetic energy error for atom=    0.0012 (will be added to EATOM!!)
  PAW_PBE Si 05Jan2001                  :
 energy of atom  2       EATOM= -103.0669
 kinetic energy error for atom=    0.0003 (will be added to EATOM!!)
  PAW_PBE O 08Apr2002                   :
 energy of atom  3       EATOM= -432.3788
 kinetic energy error for atom=    0.0168 (will be added to EATOM!!)
 
 
 POSCAR: Ca Si  O                                
  positions in direct lattice
  No initial velocities read in
 exchange correlation table for  LEXCH =        8
   RHO(1)=    0.500       N(1)  =     2000
   RHO(2)=  100.500       N(2)  =     4000
 


--------------------------------------------------------------------------------------------------------


 ion  position               nearest neighbor table
   1  0.280  0.447  0.518-  78 2.20  66 2.22  75 2.30  82 2.31  56 2.36 120 2.47 133 2.57  47 2.79
                            46 2.90  42 2.96  21 2.99  44 3.04  51 3.07  34 3.11
   2  0.846  0.231  0.004-  94 2.03 124 2.22  71 2.37  67 2.45  73 2.48  80 2.52 107 2.56  40 2.68
                            54 2.76  41 3.07  43 3.07  52 3.14  17 3.17
   3  0.293  0.103  0.876- 125 2.07  98 2.08  58 2.32  34 2.89  29 2.96  50 2.97  33 3.03  36 3.03

   4  0.621  0.456  0.904-  69 2.16  62 2.20  71 2.23  80 2.40  74 2.45  86 2.46 114 2.56  43 2.93
                            41 3.00   6 3.00  35 3.03  29 3.06  48 3.16
   5  0.368  0.326  0.103- 115 2.05 112 2.17  74 2.21  56 2.34  98 2.34 118 2.37  64 2.40 132 2.43
                            60 2.51 114 2.57  20 2.80  29 2.91  50 2.95  36 2.97  40 3.03  47 3.08
   6  0.736  0.636  0.091-  80 2.01 126 2.05 122 2.23 104 2.25  89 2.29  62 2.39  35 2.64  43 2.93
                            49 2.95   4 3.00  48 3.04
   7  0.969  0.145  0.550- 128 2.04 134 2.13 120 2.22 110 2.32  68 2.42  91 2.50 101 2.56  42 2.74
                            34 2.94  52 2.96  32 3.07
   8  0.039  0.709  0.449-  87 2.15 130 2.26  90 2.41 103 2.54  32 2.89  28 2.91  49 2.97  46 2.98

   9  0.075  0.336  0.793-  64 2.12  73 2.23 110 2.26 120 2.35 124 2.36  75 2.37 105 2.46  91 2.50
                           113 2.54  40 2.71  44 2.78  50 2.81  43 2.85  16 3.02  52 3.02  34 3.06
  10  0.941  0.427  0.237- 100 2.13  90 2.14 107 2.16 104 2.31 134 2.36  66 2.44 135 2.45  80 2.52
                            54 2.52 118 2.54  35 2.92  42 2.93  49 2.95  40 3.00  47 3.02
  11  0.166  0.901  0.679- 123 2.25  61 2.25  58 2.29 101 2.38 128 2.48 127 2.49  52 2.83  37 2.86
                            34 3.05  32 3.13  46 3.15
  12  0.833  0.919  0.339- 111 2.11  76 2.14 130 2.14  84 2.26  92 2.37 106 2.40  88 2.57  45 2.93
                            28 2.96  14 3.09  54 3.10
  13  0.415  0.698  0.752-  61 2.04  57 2.16  83 2.21 121 2.36  69 2.36  93 2.39  63 2.43  21 2.67
                            48 2.74  33 2.79  37 2.87  46 2.89
  14  0.768  0.943  0.055-  84 1.84 126 1.98  85 1.99 116 2.03  94 2.18  88 2.32  22 2.52  17 2.85
                            12 3.09
  15  0.810  0.554  0.629-  81 1.90  91 2.31  86 2.32 121 2.51 103 2.51  90 2.54  87 2.54  26 2.86
                            49 2.89  21 2.93  42 2.95  41 3.08  43 3.13
  16  0.155  0.531  0.986-  64 2.12 118 2.15 115 2.31 124 2.35 131 2.37 122 2.52 135 2.55  40 2.76
                            43 2.89  39 2.92  44 2.94  50 2.99  37 3.00   9 3.02  47 3.07
  17  0.743  0.034  0.802-  77 2.13  67 2.17 116 2.21 108 2.33  68 2.50 101 2.56  52 2.74  41 2.77
                            14 2.85  29 3.03  28 3.08  33 3.08   2 3.17
  18  0.591  0.116  0.247- 132 2.02  84 2.21  70 2.23  72 2.31  96 2.32  92 2.32  85 2.47  51 2.58
                            45 2.85  36 2.93  38 3.03
  19  0.490  0.542  0.321-  60 1.96  56 2.12 117 2.29  59 2.29 133 2.46  96 2.48  35 2.76  51 2.79
                            30 2.98  47 2.99  21 3.17
  20  0.206  0.229  0.289- 112 2.06 100 2.22 132 2.25  65 2.33  82 2.34  56 2.39 118 2.44  66 2.44
                            36 2.73   5 2.80  40 2.92  47 2.96  51 3.13  32 3.15
  21  0.535  0.522  0.617-  59 1.96  81 2.05  69 2.06  78 2.15 121 2.17  79 2.23  13 2.67  53 2.82
                            15 2.93   1 2.99  19 3.17
  22  0.534  0.914  0.015-  85 2.17 126 2.22  70 2.26  63 2.34 125 2.41  89 2.43  84 2.43  14 2.52
                            98 2.54  38 2.76  48 2.88  29 2.88  36 2.94
  23  0.385  0.011  0.466- 127 2.17  72 2.22  58 2.25 129 2.33  83 2.47  82 2.47  55 2.48  34 2.81
                            33 2.87  32 2.88
  24  0.073  0.018  0.084-  88 2.33  73 2.35 123 2.35 119 2.36 112 2.38 116 2.40  97 2.41  94 2.51
                            40 2.86  36 2.92  52 2.98
  25  0.505  0.204  0.687-  55 1.95  77 2.24  79 2.27 114 2.30 125 2.38 105 2.47  72 2.53  58 2.54
                            33 2.69  29 2.90  41 2.93  34 2.93  45 2.97  50 2.98
  26  0.749  0.344  0.470-  81 2.15 134 2.18  79 2.31  68 2.33  91 2.36  92 2.47  96 2.55  42 2.78
                            41 2.83  15 2.86  45 2.93  51 3.05  49 3.15  54 3.16
  27  0.944  0.760  0.882- 103 2.23 113 2.34 131 2.35 122 2.35  86 2.36 108 2.53 123 2.57  43 2.80
                            39 2.84  37 3.04  48 3.10  28 3.16
  28  0.868  0.855  0.609- 101 1.69 103 1.70 108 1.73 106 1.75  76 1.77 130 2.11   8 2.91  12 2.96
                            53 3.08  17 3.08  27 3.16
  29  0.550  0.180  0.957-  85 1.60  74 1.62  98 1.67  77 1.75 114 1.92 125 2.17  22 2.88  25 2.90
                             5 2.91   3 2.96  17 3.03   4 3.06
  30  0.433  0.630  0.059-  99 1.56 115 1.66  57 1.69  89 1.82  62 2.00  60 2.00  31 2.82  19 2.98

  31  0.275  0.792  0.201- 109 1.57  99 1.60 102 1.64  95 2.00  97 2.05 133 2.37  65 2.47  30 2.82
                            36 2.87  39 2.88  38 2.92  37 3.00  32 3.11  47 3.15
  32  0.127  0.960  0.391- 130 1.69 128 1.73 127 1.78  65 1.81 119 1.82 109 2.01  23 2.88   8 2.89
                             7 3.07  31 3.11  11 3.13  20 3.15
  33  0.477  0.953  0.715- 125 1.53  63 1.62  55 1.71  83 1.82  61 1.91  58 2.05  25 2.69  13 2.79
                            23 2.87   3 3.03  17 3.08
  34  0.238  0.174  0.618- 105 1.59 110 1.59  58 1.61  82 1.84 120 1.85 128 1.86  23 2.81   3 2.89
                            25 2.93   7 2.94  11 3.05   9 3.06   1 3.11
  35  0.671  0.414  0.183-  96 1.68 104 1.70  60 1.75 107 1.77  80 1.86  74 2.11   6 2.64  19 2.76
                            10 2.92   4 3.03
  36  0.337  0.052  0.155-  70 1.60  65 1.66  98 1.79  97 1.81 132 1.94 112 2.11  20 2.73  31 2.87
                            24 2.92  18 2.93  22 2.94   5 2.97   3 3.03
  37  0.227  0.798  0.921-  95 1.61 131 1.65  57 1.66 123 1.86  61 1.92  97 2.04  11 2.86  13 2.87
                            16 3.00  31 3.00  27 3.04
  38  0.541  0.833  0.263- 102 1.63  89 1.68 129 1.77  70 1.79  84 1.82 117 2.02  22 2.76  53 2.92
                            31 2.92  18 3.03
  39  0.020  0.719  0.137-  88 1.55 122 1.62 135 1.68  95 1.79 109 2.12 111 2.19  27 2.84  31 2.88
                            16 2.92
  40  0.091  0.285  0.044- 124 1.67 112 1.68  73 1.76 100 1.79 118 1.80  64 1.85   2 2.68   9 2.71
                            16 2.76  24 2.86  20 2.92  10 3.00   5 3.03
  41  0.767  0.284  0.730-  79 1.55  68 1.64  71 1.71  67 1.74  77 1.76  91 1.93  17 2.77  26 2.83
                            25 2.93   4 3.00   2 3.07  15 3.08
  42  0.005  0.398  0.505- 134 1.74  87 1.77  91 1.77 120 1.79  66 1.81  90 1.93   7 2.74  26 2.78
                            10 2.93  15 2.95   1 2.96
  43  0.895  0.501  0.908-  71 1.63 113 1.71 124 1.75  86 1.79  80 2.00 122 2.03  27 2.80   9 2.85
                            16 2.89   6 2.93   4 2.93   2 3.07  15 3.13
  44  0.121  0.584  0.715-  75 1.58 113 1.61  93 1.73 131 1.73  87 1.75 103 2.41   9 2.78  16 2.94
                             1 3.04
  45  0.674  0.079  0.501-  72 1.62  76 1.62  92 1.62  55 1.71  68 1.82 129 2.36  18 2.85  12 2.93
                            26 2.93  25 2.97
  46  0.316  0.719  0.498-  59 1.55  93 1.72 127 1.73 133 1.83  83 2.16 102 2.43  13 2.89   1 2.90
                             8 2.98  53 3.11  11 3.15
  47  0.213  0.509  0.270-  56 1.68 133 1.69 135 1.70  66 1.77 118 1.82  99 2.31   1 2.79  20 2.96
                            19 2.99  10 3.02  16 3.07   5 3.08  31 3.15
  48  0.654  0.746  0.837-  63 1.59 126 1.60  62 1.64 121 1.79 108 1.82  86 1.99  13 2.74  22 2.88
                             6 3.04  27 3.10   4 3.16
  49  0.786  0.621  0.365- 104 1.48 111 1.73  90 1.74 117 1.91  81 1.96 106 2.02  15 2.89  53 2.92
                            10 2.95   6 2.95   8 2.97  26 3.15
  50  0.335  0.377  0.831- 114 1.46 105 1.71  64 1.72  69 1.72  75 1.93 115 2.28   9 2.81   5 2.95
                             3 2.97  25 2.98  16 2.99
  51  0.481  0.285  0.383-  78 1.51  96 1.58  72 1.79 132 1.82  82 2.03  56 2.21  18 2.58  19 2.79
                            26 3.05   1 3.07  20 3.13
  52  0.001  0.061  0.816- 101 1.71 116 1.72  73 1.76  67 1.81 110 1.92 123 1.98  17 2.74  11 2.83
                             7 2.96  24 2.98   9 3.02   2 3.14
  53  0.607  0.761  0.522- 117 1.69 121 1.80  83 1.91 129 1.93 106 2.00  59 2.20  81 2.54  21 2.82
                            49 2.92  38 2.92  28 3.08  46 3.11
  54  0.897  0.194  0.258-  94 1.56 100 1.56 107 1.66 134 1.90 119 1.98  92 2.08  10 2.52   2 2.76
                            12 3.10  26 3.16
  55  0.563  0.045  0.614-  33 1.71  45 1.71  25 1.95  23 2.48
  56  0.336  0.414  0.304-  47 1.68  19 2.12  51 2.21   5 2.34   1 2.36  20 2.39
  57  0.346  0.699  0.945-  37 1.66  30 1.69  13 2.16
  58  0.320  0.054  0.664-  34 1.61  33 2.05  23 2.25  11 2.29   3 2.32  25 2.54
  59  0.439  0.639  0.509-  46 1.55  21 1.96  53 2.20  19 2.29
  60  0.531  0.494  0.146-  35 1.75  19 1.96  30 2.00   5 2.51
  61  0.339  0.870  0.799-  33 1.91  37 1.92  13 2.04  11 2.25
  62  0.573  0.656  0.935-  48 1.64 126 1.96  30 2.00   4 2.20   6 2.39
  63  0.567  0.863  0.801-  48 1.59  33 1.62  22 2.34  13 2.43
  64  0.216  0.346  0.936-  50 1.72  40 1.85   9 2.12  16 2.12   5 2.40
  65  0.236  0.012  0.268-  36 1.66  32 1.81  20 2.33  31 2.47
  66  0.121  0.423  0.382-  47 1.77  42 1.81   1 2.22  10 2.44  20 2.44
  67  0.884  0.181  0.781-  41 1.74  52 1.81  17 2.17   2 2.45
  68  0.753  0.180  0.616-  41 1.64  45 1.82  26 2.33   7 2.42  17 2.50
  69  0.454  0.481  0.789-  50 1.72  21 2.06   4 2.16  13 2.36
  70  0.450  0.964  0.205-  36 1.60  38 1.79  18 2.23  22 2.26
  71  0.812  0.387  0.846-  43 1.63  41 1.71   4 2.23   2 2.37
  72  0.544  0.147  0.458-  45 1.62  51 1.79  23 2.22  18 2.31  25 2.53
  73  0.060  0.172  0.925-  40 1.76  52 1.76   9 2.23  24 2.35   2 2.48
  74  0.570  0.292  0.060-  29 1.62  35 2.11   5 2.21   4 2.45
  75  0.231  0.484  0.727-  44 1.58  50 1.93   1 2.30   9 2.37
  76  0.766  0.958  0.526-  45 1.62  28 1.77  12 2.14
  77  0.657  0.214  0.835-  29 1.75  41 1.76  17 2.13  25 2.24
  78  0.472  0.369  0.499-  51 1.51  21 2.15   1 2.20
  79  0.655  0.356  0.667-  41 1.55  21 2.23  25 2.27  26 2.31
  80  0.788  0.456  0.058-  35 1.86  43 2.00   6 2.01   4 2.40  10 2.52   2 2.52
  81  0.689  0.536  0.498-  15 1.90  49 1.96  21 2.05  26 2.15  53 2.54
  82  0.321  0.236  0.478-  34 1.84  51 2.03   1 2.31  20 2.34  23 2.47
  83  0.457  0.830  0.595-  33 1.82  53 1.91  46 2.16  13 2.21  23 2.47
  84  0.671  0.928  0.200-  38 1.82  14 1.84  18 2.21  12 2.26  22 2.43
  85  0.648  0.085  0.022-  29 1.60  14 1.99  22 2.17  18 2.47
  86  0.784  0.609  0.840-  43 1.79  48 1.99  15 2.32  27 2.36   4 2.46
  87  0.044  0.546  0.572-  44 1.75  42 1.77   8 2.15  15 2.54
  88  0.946  0.845  0.137-  39 1.55  14 2.32  24 2.33  12 2.57
  89  0.547  0.726  0.146-  38 1.68  30 1.82   6 2.29  22 2.43
  90  0.910  0.523  0.413-  49 1.74  42 1.93  10 2.14   8 2.41  15 2.54
  91  0.903  0.357  0.632-  42 1.77  41 1.93  15 2.31  26 2.36   9 2.50   7 2.50
  92  0.762  0.127  0.384-  45 1.62  54 2.08  18 2.32  12 2.37  26 2.47
  93  0.230  0.668  0.626-  46 1.72  44 1.73  13 2.39
  94  0.860  0.103  0.147-  54 1.56   2 2.03  14 2.18  24 2.51
  95  0.156  0.778  0.055-  37 1.61  39 1.79  31 2.00
  96  0.589  0.331  0.290-  51 1.58  35 1.68  18 2.32  19 2.48  26 2.55
  97  0.279  0.924  0.058-  36 1.81  37 2.04  31 2.05  24 2.41
  98  0.419  0.125  0.026-  29 1.67  36 1.79   3 2.08   5 2.34  22 2.54
  99  0.336  0.658  0.167-  30 1.56  31 1.60  47 2.31
 100  0.019  0.247  0.193-  54 1.56  40 1.79  10 2.13  20 2.22
 101  0.949  0.957  0.702-  28 1.69  52 1.71  11 2.38  17 2.56   7 2.56
 102  0.393  0.808  0.301-  38 1.63  31 1.64  46 2.43
 103  0.956  0.737  0.673-  28 1.70  27 2.23  44 2.41  15 2.51   8 2.54
 104  0.748  0.524  0.271-  49 1.48  35 1.70   6 2.25  10 2.31
 105  0.286  0.283  0.709-  34 1.59  50 1.71   9 2.46  25 2.47
 106  0.794  0.759  0.496-  28 1.75  53 2.00  49 2.02  12 2.40
 107  0.783  0.298  0.228-  54 1.66  35 1.77  10 2.16   2 2.56
 108  0.767  0.825  0.735-  28 1.73  48 1.82  17 2.33  27 2.53
 109  0.141  0.828  0.255-  31 1.57  32 2.01  39 2.12
 110  0.121  0.145  0.709-  34 1.59  52 1.92   9 2.26   7 2.32
 111  0.868  0.733  0.277-  49 1.73  12 2.11  39 2.19
 112  0.210  0.195  0.097-  40 1.68  20 2.06  36 2.11   5 2.17  24 2.38
 113  0.993  0.562  0.795-  44 1.61  43 1.71  27 2.34   9 2.54
 114  0.440  0.297  0.873-  50 1.46  29 1.92  25 2.30   4 2.56   5 2.57
 115  0.370  0.495  0.008-  30 1.66   5 2.05  50 2.28  16 2.31
 116  0.904  0.004  0.933-  52 1.72  14 2.03  17 2.21  24 2.40
 117  0.625  0.703  0.375-  53 1.69  49 1.91  38 2.02  19 2.29
 118  0.161  0.403  0.144-  40 1.80  47 1.82  16 2.15   5 2.37  20 2.44  10 2.54
 119  0.026  0.064  0.298-  32 1.82  54 1.98  24 2.36
 120  0.115  0.293  0.579-  42 1.79  34 1.85   7 2.22   9 2.35   1 2.47
 121  0.626  0.696  0.678-  48 1.79  53 1.80  21 2.17  13 2.36  15 2.51
 122  0.943  0.617  0.053-  39 1.62  43 2.03   6 2.23  27 2.35  16 2.52
 123  0.117  0.930  0.884-  37 1.86  52 1.98  11 2.25  24 2.35  27 2.57
 124  0.985  0.389  0.991-  40 1.67  43 1.75   2 2.22  16 2.35   9 2.36
 125  0.472  0.036  0.833-  33 1.53   3 2.07  29 2.17  25 2.38  22 2.41
 126  0.698  0.788  0.976-  48 1.60  62 1.96  14 1.98   6 2.05  22 2.22
 127  0.245  0.861  0.460-  46 1.73  32 1.78  23 2.17  11 2.49
 128  0.142  0.067  0.515-  32 1.73  34 1.86   7 2.04  11 2.48
 129  0.569  0.903  0.413-  38 1.77  53 1.93  23 2.33  45 2.36
 130  0.992  0.917  0.465-  32 1.69  28 2.11  12 2.14   8 2.26
 131  0.151  0.694  0.832-  37 1.65  44 1.73  27 2.35  16 2.37
 132  0.410  0.174  0.271-  51 1.82  36 1.94  18 2.02  20 2.25   5 2.43
 133  0.277  0.628  0.356-  47 1.69  46 1.83  31 2.37  19 2.46   1 2.57
 134  0.936  0.284  0.408-  42 1.74  54 1.90   7 2.13  26 2.18  10 2.36
 135  0.095  0.599  0.210-  39 1.68  47 1.70  10 2.45  16 2.55
 

IMPORTANT INFORMATION: All symmetrisations will be switched off!
NOSYMM: (Re-)initialisation of all symmetry stuff for point group C_1.

 
 

Automatic generation of k-mesh.
 generate k-points for:    2    2    2
Space group operators:
 irot       det(A)        alpha          n_x          n_y          n_z        tau_x        tau_y        tau_z
    1     1.000000     0.000000     1.000000     0.000000     0.000000     0.000000     0.000000     0.000000
 
 Subroutine IBZKPT returns following result:
 ===========================================
 
 Found      8 irreducible k-points:
 
 Following reciprocal coordinates:
            Coordinates               Weight
  0.000000  0.000000  0.000000      1.000000
  0.500000  0.000000  0.000000      1.000000
  0.000000  0.500000  0.000000      1.000000
  0.500000  0.500000  0.000000      1.000000
  0.000000  0.000000  0.500000      1.000000
  0.500000  0.000000  0.500000      1.000000
  0.000000  0.500000  0.500000      1.000000
  0.500000  0.500000  0.500000      1.000000
 
 Following cartesian coordinates:
            Coordinates               Weight
  0.000000  0.000000  0.000000      1.000000
  0.047327  0.000000  0.000000      1.000000
  0.000000  0.047327  0.000000      1.000000
  0.047327  0.047327  0.000000      1.000000
  0.000000  0.000000  0.047327      1.000000
  0.047327  0.000000  0.047327      1.000000
  0.000000  0.047327  0.047327      1.000000
  0.047327  0.047327  0.047327      1.000000
 


--------------------------------------------------------------------------------------------------------




 Dimension of arrays:
   k-points           NKPTS =      8   k-points in BZ     NKDIM =      8   number of bands    NBANDS=    520
   number of dos      NEDOS =    301   number of ions     NIONS =    135
   non local maximal  LDIM  =      6   non local SUM 2l+1 LMDIM =     18
   total plane-waves  NPLWV = 592704
   max r-space proj   IRMAX =   6747   max aug-charges    IRDMAX= 192025
   dimension x,y,z NGX =    84 NGY =   84 NGZ =   84
   dimension x,y,z NGXF=   168 NGYF=  168 NGZF=  168
   support grid    NGXF=   336 NGYF=  336 NGZF=  336
   ions per type =              27  27  81
   NGX,Y,Z   is equivalent  to a cutoff of  13.22, 13.22, 13.22 a.u.
   NGXF,Y,Z  is equivalent  to a cutoff of  26.44, 26.44, 26.44 a.u.

 SYSTEM =  unknown system                          
 POSCAR =  Ca Si  O                                

 Startparameter for this run:
   NWRITE =      2    write-flag & timer
   PREC   = a         normal or accurate (medium, high low for compatibility)
   ISTART =      0    job   : 0-new  1-cont  2-samecut
   ICHARG =      2    charge: 1-file 2-atom 10-const
   ISPIN  =      1    spin polarized calculation?
   LNONCOLLINEAR =      F non collinear calculations
   LSORBIT =      F    spin-orbit coupling
   INIWAV =      1    electr: 0-lowe 1-rand  2-diag
   LASPH  =      F    aspherical Exc in radial PAW
   METAGGA=      F    non-selfconsistent MetaGGA calc.

 Electronic Relaxation 1
   ENCUT  =  600.0 eV  44.10 Ry    6.64 a.u.  21.10 21.10 21.10*2*pi/ulx,y,z
   ENINI  =  600.0     initial cutoff
   ENAUG  =  605.4 eV  augmentation charge cutoff
   NELM   =     60;   NELMIN=  2; NELMDL= -5     # of ELM steps 
   EDIFF  = 0.1E-05   stopping-criterion for ELM
   LREAL  =      T    real-space projection
   NLSPLINE    = F    spline interpolate recip. space projectors
   LCOMPAT=      F    compatible to vasp.4.4
   GGA_COMPAT  = T    GGA compatible to vasp.4.4-vasp.4.6
   LMAXPAW     = -100 max onsite density
   LMAXMIX     =    2 max onsite mixed and CHGCAR
   VOSKOWN=      0    Vosko Wilk Nusair interpolation
   ROPT   =   -0.00025  -0.00025  -0.00025
 Ionic relaxation
   EDIFFG = -.1E-01   stopping-criterion for IOM
   NSW    =      1    number of steps for IOM
   NBLOCK =      1;   KBLOCK =      1    inner block; outer block 
   IBRION =     -1    ionic relax: 0-MD 1-quasi-New 2-CG
   NFREE  =      0    steps in history (QN), initial steepest desc. (CG)
   ISIF   =      2    stress and relaxation
   IWAVPR =     10    prediction:  0-non 1-charg 2-wave 3-comb
   ISYM   =      0    0-nonsym 1-usesym 2-fastsym
   LCORR  =      T    Harris-Foulkes like correction to forces

   POTIM  = 1.0000    time-step for ionic-motion
   TEIN   =    0.0    initial temperature
   TEBEG  =    0.0;   TEEND  =   0.0 temperature during run
   SMASS  =  -3.00    Nose mass-parameter (am)
   estimated Nose-frequenzy (Omega)   =  0.10E-29 period in steps =****** mass=  -0.255E-26a.u.
   SCALEE = 1.0000    scale energy and forces
   NPACO  =    256;   APACO  = 16.0  distance and # of slots for P.C.
   PSTRESS=    0.0 pullay stress

  Mass of Ions in am
   POMASS =  40.08 28.09 16.00
  Ionic Valenz
   ZVAL   =  10.00  4.00  6.00
  Atomic Wigner-Seitz radii
   RWIGS  =  -1.00 -1.00 -1.00
  virtual crystal weights 
   VCA    =   1.00  1.00  1.00
   NELECT =     864.0000    total number of electrons
   NUPDOWN=      -1.0000    fix difference up-down

 DOS related values:
   EMIN   =  10.00;   EMAX   =-10.00  energy-range for DOS
   EFERMI =   0.00
   ISMEAR =     0;   SIGMA  =   0.05  broadening in eV -4-tet -1-fermi 0-gaus

 Electronic relaxation 2 (details)
   IALGO  =     38    algorithm
   LDIAG  =      T    sub-space diagonalisation (order eigenvalues)
   LSUBROT=      F    optimize rotation matrix (better conditioning)
   TURBO    =      0    0=normal 1=particle mesh
   IRESTART =      0    0=no restart 2=restart with 2 vectors
   NREBOOT  =      0    no. of reboots
   NMIN     =      0    reboot dimension
   EREF     =   0.00    reference energy to select bands
   IMIX   =      4    mixing-type and parameters
     AMIX     =   0.40;   BMIX     =  1.00
     AMIX_MAG =   1.60;   BMIX_MAG =  1.00
     AMIN     =   0.10
     WC   =   100.;   INIMIX=   1;  MIXPRE=   1;  MAXMIX= -45

 Intra band minimization:
   WEIMIN = 0.0000     energy-eigenvalue tresh-hold
   EBREAK =  0.48E-09  absolut break condition
   DEPER  =   0.30     relativ break condition  

   TIME   =   0.40     timestep for ELM

  volume/ion in A,a.u.               =       8.73        58.95
  Fermi-wavevector in a.u.,A,eV,Ry     =   1.475868  2.788986 29.636021  2.178186
  Thomas-Fermi vector in A             =   2.590464
 
 Write flags
   LWAVE        =      F    write WAVECAR
   LDOWNSAMPLE  =      F    k-point downsampling of WAVECAR
   LCHARG       =      F    write CHGCAR
   LVTOT        =      F    write LOCPOT, total local potential
   LVHAR        =      F    write LOCPOT, Hartree potential only
   LELF         =      F    write electronic localiz. function (ELF)
   LORBIT       =      0    0 simple, 1 ext, 2 COOP (PROOUT), +10 PAW based schemes


 Dipole corrections
   LMONO  =      F    monopole corrections only (constant potential shift)
   LDIPOL =      F    correct potential (dipole corrections)
   IDIPOL =      0    1-x, 2-y, 3-z, 4-all directions 
   EPSILON=  1.0000000 bulk dielectric constant

 Exchange correlation treatment:
   GGA     =    --    GGA type
   LEXCH   =     8    internal setting for exchange type
   VOSKOWN=      0    Vosko Wilk Nusair interpolation
   LHFCALC =     F    Hartree Fock is set to
   LHFONE  =     F    Hartree Fock one center treatment
   AEXX    =    0.0000 exact exchange contribution

 Linear response parameters
   LEPSILON=     F    determine dielectric tensor
   LRPA    =     F    only Hartree local field effects (RPA)
   LNABLA  =     F    use nabla operator in PAW spheres
   LVEL    =     F    velocity operator in full k-point grid
   LINTERFAST=   F  fast interpolation
   KINTER  =     0    interpolate to denser k-point grid
   CSHIFT  =0.1000    complex shift for real part using Kramers Kronig
   OMEGAMAX=  -1.0    maximum frequency
   DEG_THRESHOLD= 0.2000000E-02 threshold for treating states as degnerate
   RTIME   =   -0.100 relaxation time in fs
  (WPLASMAI=    0.000 imaginary part of plasma frequency in eV, 0.658/RTIME)
   DFIELD  = 0.0000000 0.0000000 0.0000000 field for delta impulse in time
 
 Orbital magnetization related:
   ORBITALMAG=     F  switch on orbital magnetization
   LCHIMAG   =     F  perturbation theory with respect to B field
   DQ        =  0.001000  dq finite difference perturbation B field
   LLRAUG    =     F  two centre corrections for induced B field



--------------------------------------------------------------------------------------------------------


 Static calculation
 charge density and potential will be updated during run
 non-spin polarized calculation
 Variant of blocked Davidson
 Davidson routine will perform the subspace rotation
 perform sub-space diagonalisation
    after iterative eigenvector-optimisation
 modified Broyden-mixing scheme, WC =      100.0
 initial mixing is a Kerker type mixing with AMIX =  0.4000 and BMIX =      1.0000
 Hartree-type preconditioning will be used
 using additional bands           88
 real space projection scheme for non local part
 use partial core corrections
 calculate Harris-corrections to forces 
   (improved forces if not selfconsistent)
 use gradient corrections 
 use of overlap-Matrix (Vanderbilt PP)
 Gauss-broadening in eV      SIGMA  =   0.05


--------------------------------------------------------------------------------------------------------


  energy-cutoff  :      600.00
  volume of cell :     1179.22
      direct lattice vectors                 reciprocal lattice vectors
    10.564896610  0.000000000  0.000000000     0.094653080  0.000000000  0.000000000
     0.000000000 10.564896610  0.000000000     0.000000000  0.094653080  0.000000000
     0.000000000  0.000000000 10.564896610     0.000000000  0.000000000  0.094653080

  length of vectors
    10.564896610 10.564896610 10.564896610     0.094653080  0.094653080  0.094653080


 
 k-points in units of 2pi/SCALE and weight: read from INCAR                         
   0.00000000  0.00000000  0.00000000       0.125
   0.04732654  0.00000000  0.00000000       0.125
   0.00000000  0.04732654  0.00000000       0.125
   0.04732654  0.04732654  0.00000000       0.125
   0.00000000  0.00000000  0.04732654       0.125
   0.04732654  0.00000000  0.04732654       0.125
   0.00000000  0.04732654  0.04732654       0.125
   0.04732654  0.04732654  0.04732654       0.125
 
 k-points in reciprocal lattice and weights: read from INCAR                         
   0.00000000  0.00000000  0.00000000       0.125
   0.50000000  0.00000000  0.00000000       0.125
   0.00000000  0.50000000  0.00000000       0.125
   0.50000000  0.50000000  0.00000000       0.125
   0.00000000  0.00000000  0.50000000       0.125
   0.50000000  0.00000000  0.50000000       0.125
   0.00000000  0.50000000  0.50000000       0.125
   0.50000000  0.50000000  0.50000000       0.125
 
 position of ions in fractional coordinates (direct lattice) 
   0.28049260  0.44728558  0.51772668
   0.84628976  0.23099828  0.00410699
   0.29311297  0.10312027  0.87614923
   0.62126617  0.45566023  0.90367914
   0.36824061  0.32630151  0.10335198
   0.73610733  0.63615238  0.09060118
   0.96940532  0.14486967  0.54994770
   0.03866938  0.70850866  0.44943890
   0.07513343  0.33642950  0.79313138
   0.94138757  0.42749757  0.23738581
   0.16614730  0.90113498  0.67871781
   0.83283521  0.91926058  0.33907771
   0.41459940  0.69828934  0.75217468
   0.76777205  0.94312146  0.05536179
   0.80999670  0.55437259  0.62936998
   0.15540561  0.53091762  0.98603772
   0.74301099  0.03371525  0.80241246
   0.59092333  0.11556691  0.24691623
   0.48973232  0.54164481  0.32114603
   0.20555166  0.22944783  0.28916807
   0.53519408  0.52230669  0.61665646
   0.53425465  0.91402219  0.01478304
   0.38450368  0.01083107  0.46599922
   0.07272128  0.01767357  0.08440124
   0.50498244  0.20434882  0.68702497
   0.74940054  0.34441300  0.46974095
   0.94418221  0.75971399  0.88233626
   0.86844568  0.85502078  0.60939802
   0.54995053  0.17993555  0.95689909
   0.43333883  0.62988323  0.05932020
   0.27494018  0.79163354  0.20114184
   0.12729711  0.96044860  0.39109932
   0.47681175  0.95262125  0.71489975
   0.23803270  0.17359275  0.61767526
   0.67121704  0.41367687  0.18286491
   0.33727103  0.05193579  0.15530397
   0.22667021  0.79756780  0.92110153
   0.54125537  0.83329189  0.26341248
   0.02039902  0.71912808  0.13718184
   0.09108051  0.28457177  0.04350988
   0.76659602  0.28420754  0.73014865
   0.00493370  0.39794842  0.50541189
   0.89531743  0.50068520  0.90813288
   0.12051978  0.58369299  0.71456436
   0.67440542  0.07880709  0.50088703
   0.31637193  0.71867981  0.49761238
   0.21325144  0.50855898  0.27028220
   0.65448428  0.74553970  0.83742579
   0.78582998  0.62071736  0.36473733
   0.33538949  0.37717344  0.83109487
   0.48055805  0.28540262  0.38327580
   0.00065534  0.06094838  0.81563113
   0.60695127  0.76094384  0.52192601
   0.89740392  0.19403848  0.25768936
   0.56323378  0.04491527  0.61381584
   0.33573727  0.41369849  0.30406546
   0.34635036  0.69857298  0.94461656
   0.31963099  0.05355348  0.66381541
   0.43916209  0.63895616  0.50857205
   0.53140445  0.49386097  0.14647453
   0.33944745  0.87016726  0.79910667
   0.57342957  0.65626712  0.93528258
   0.56724179  0.86327737  0.80138638
   0.21561962  0.34568533  0.93641079
   0.23558724  0.01176552  0.26820875
   0.12130622  0.42339552  0.38202008
   0.88430276  0.18108540  0.78062465
   0.75284692  0.17966352  0.61648933
   0.45378481  0.48132874  0.78917018
   0.44995982  0.96363704  0.20484144
   0.81206007  0.38666993  0.84640114
   0.54395033  0.14684133  0.45771334
   0.05962666  0.17231134  0.92495016
   0.57034248  0.29190668  0.06020766
   0.23062180  0.48367093  0.72671477
   0.76596283  0.95831693  0.52622004
   0.65716701  0.21372909  0.83469925
   0.47211431  0.36911920  0.49876334
   0.65542335  0.35592719  0.66654230
   0.78765597  0.45606577  0.05777505
   0.68866195  0.53625990  0.49808469
   0.32099881  0.23579622  0.47760210
   0.45684933  0.83049660  0.59546806
   0.67079786  0.92764922  0.19961060
   0.64805654  0.08513621  0.02241597
   0.78414914  0.60895910  0.84029483
   0.04351732  0.54646255  0.57223101
   0.94624737  0.84524240  0.13736601
   0.54707599  0.72584792  0.14606085
   0.90980443  0.52345396  0.41326455
   0.90268249  0.35681622  0.63211397
   0.76223764  0.12726711  0.38433852
   0.22983066  0.66787199  0.62576381
   0.85995195  0.10345727  0.14698646
   0.15616939  0.77799059  0.05467575
   0.58852805  0.33085038  0.29007262
   0.27890422  0.92353153  0.05829148
   0.41917106  0.12470959  0.02574990
   0.33634218  0.65761790  0.16714516
   0.01922975  0.24715599  0.19265245
   0.94940290  0.95745438  0.70176247
   0.39333349  0.80839509  0.30066935
   0.95627973  0.73692984  0.67328247
   0.74778898  0.52444727  0.27102923
   0.28597811  0.28276579  0.70918213
   0.79434548  0.75947549  0.49636868
   0.78343128  0.29770544  0.22796987
   0.76699175  0.82533714  0.73453103
   0.14098749  0.82828180  0.25492722
   0.12104054  0.14517565  0.70861759
   0.86767198  0.73302781  0.27724906
   0.21039810  0.19513096  0.09738626
   0.99298703  0.56242331  0.79480077
   0.43996961  0.29727699  0.87285403
   0.36983111  0.49499346  0.00826010
   0.90363940  0.00406945  0.93333895
   0.62516827  0.70257167  0.37451977
   0.16120535  0.40342864  0.14402206
   0.02636056  0.06383210  0.29800762
   0.11547576  0.29303219  0.57852590
   0.62555005  0.69630024  0.67832403
   0.94336864  0.61681263  0.05327845
   0.11707142  0.93043951  0.88418056
   0.98465679  0.38896375  0.99070400
   0.47162923  0.03625581  0.83252139
   0.69761900  0.78800506  0.97615935
   0.24454842  0.86115592  0.46046121
   0.14231500  0.06744175  0.51472945
   0.56883907  0.90287036  0.41303960
   0.99168481  0.91665141  0.46474954
   0.15080475  0.69443343  0.83191575
   0.41022419  0.17435904  0.27126876
   0.27653358  0.62830263  0.35555033
   0.93642247  0.28381009  0.40820069
   0.09487056  0.59868159  0.20955976
 
 position of ions in cartesian coordinates  (Angst):
   2.96337532  4.72552591  5.46972881
   8.94096379  2.44047293  0.04338990
   3.09670827  1.08945498  9.25642600
   6.56361290  4.81400321  9.54727669
   3.89042393  3.44734168  1.09190301
   7.77689787  6.72088411  0.95719211
  10.24166700  1.53053310  5.81014060
   0.40853802  7.48532070  4.74827551
   0.79377687  3.55434288  8.37935102
   9.94566236  4.51646768  2.50795649
   1.75532900  9.52039794  7.17058344
   8.79881786  9.71189299  3.58232093
   4.38019977  7.37735471  7.94664774
   8.11143232  9.96398070  0.58489155
   8.55753140  5.85688912  6.64922878
   1.64184422  5.60908979 10.41738657
   7.84983431  0.35619811  8.47740465
   6.24304388  1.22095247  2.60864448
   5.17397130  5.72242142  3.39287464
   2.17163208  2.42409256  3.05503077
   5.65427013  5.51811619  6.51491173
   5.64434517  9.65654991  0.15618130
   4.06224163  0.11442910  4.92323356
   0.76829281  0.18671943  0.89169039
   5.33508726  2.15892414  7.25834775
   7.91733918  3.63868778  4.96276460
   9.97518743  8.02629980  9.32179134
   9.17503882  9.03320613  6.43822703
   5.81017052  1.90100050 10.10953990
   4.57817989  6.65465120  0.62671178
   2.90471460  8.36352655  2.12504277
   1.34488085 10.14704017  4.13192390
   5.03746685 10.06434499  7.55284195
   2.51479089  1.83398948  6.52567523
   7.09133861  4.37045338  1.93194884
   3.56323352  0.54869620  1.64077040
   2.39474736  8.42622131  9.73134244
   5.71830698  8.80364265  2.78292560
   0.21551359  7.59751384  1.44931194
   0.96225619  3.00647130  0.45967734
   8.09900765  3.00262329  7.71394496
   0.05212402  4.20428387  5.33962432
   9.45893607  5.28968742  9.59433000
   1.27327899  6.16665610  7.54929855
   7.12502352  0.83258881  5.29181972
   3.34243671  7.59277784  5.25722330
   2.25297938  5.37287303  2.85550354
   6.91455870  7.87654985  8.84731693
   8.30221254  6.55781473  3.85341213
   3.54335528  3.98479839  8.78043142
   5.07704616  3.01524922  4.04926921
   0.00692364  0.64391333  8.61705861
   6.41237745  8.03929297  5.51409430
   9.48097960  2.04999643  2.72246141
   5.95050664  0.47452516  6.48490092
   3.54702951  4.37068177  3.21242017
   3.65915579  7.38035126  9.97977633
   3.37686840  0.56578703  7.01314115
   4.63970204  6.75050575  5.37301110
   5.61423307  5.21759005  1.54748823
   3.58622719  9.19322714  8.44247932
   6.05822409  6.93339427  9.88116371
   5.99285083  9.12043619  8.46656430
   2.27799902  3.65212973  9.89308313
   2.48895481  0.12430153  2.83359774
   1.28158771  4.47312989  4.03600265
   9.34256725  1.91314853  8.24721873
   7.95374985  1.89812654  6.51314601
   4.79418959  5.08518838  8.33750131
   4.75377894 10.18072574  2.16412859
   8.57933063  4.08512783  8.94214053
   5.74677897  1.55136343  4.83569410
   0.62994951  1.82045147  9.77200283
   6.02560934  3.08396386  0.63608768
   2.43649547  5.10993338  7.67766645
   8.09231811 10.12451930  5.55946029
   6.94290152  2.25802579  8.81851131
   4.98783886  3.89970623  5.26938310
   6.92447989  3.76033400  7.04195046
   8.32150390  4.81828771  0.61038748
   7.27564233  5.66553041  5.26221321
   3.39131923  2.49116268  5.04581686
   4.82656589  8.77411067  6.29105853
   7.08690999  9.80051808  2.10886533
   6.84665032  0.89945527  0.23682237
   8.28445456  6.43358992  8.87762803
   0.45975594  5.77332034  6.04556149
   9.99700561  8.92989859  1.45125768
   5.77980132  7.66850820  1.54311777
   9.61198971  5.53023694  4.36609725
   9.53674723  3.76972644  6.67821875
   8.05296189  1.34456382  4.06049668
   2.42813721  7.05599849  6.61112994
   9.08530339  1.09301534  1.55289675
   1.64991344  8.21939013  0.57764367
   6.21773804  3.49540005  3.06458725
   2.94659425  9.75701517  0.61584350
   4.42849890  1.31754392  0.27204500
   3.55342032  6.94766515  1.76587136
   0.20316027  2.61117752  2.03535324
  10.03034353 10.11540657  7.41404791
   4.15552765  8.54061050  3.17654059
  10.10299649  7.78558753  7.11315971
   7.90031330  5.54073114  2.86339577
   3.02132913  2.98739130  7.49243593
   8.39217789  8.02378004  5.24408379
   8.27687043  3.14522717  2.40847815
   8.10318854  8.71960150  7.76024438
   1.48951821  8.75071157  2.69327968
   1.27878077  1.53376569  7.48647154
   9.16686476  7.74436299  2.92910763
   2.22283414  2.06153840  1.02887582
  10.49080533  5.94194414  8.39698794
   4.64823347  3.14070070  9.22161260
   3.90722748  5.22955468  0.08726710
   9.54685688  0.04299327  9.86062950
   6.60483809  7.42259709  3.95676267
   1.70311787  4.26218191  1.52157821
   0.27849660  0.67437951  3.14841969
   1.21998944  3.09585474  6.11206632
   6.60887161  7.35634008  7.16642328
   9.96659214  6.51656170  0.56288135
   1.23684743  9.82999720  9.34127618
  10.40279723  4.10936177 10.46668538
   4.98271409  0.38303885  8.79550240
   7.37027261  8.32519194 10.31302265
   2.58362873  9.09802328  4.86472511
   1.50354327  0.71251512  5.43806337
   6.00972601  9.53873205  4.36372063
  10.47704753  9.68432735  4.91003084
   1.59323661  7.33661738  8.78910393
   4.33397612  1.84208526  2.86592637
   2.92154865  6.63795230  3.75635243
   9.89320660  2.99842422  4.31259804
   1.00229763  6.32500914  2.21397716
 


--------------------------------------------------------------------------------------------------------


 k-point  1 :   0.0000 0.0000 0.0000  plane waves:   39223
 k-point  2 :   0.5000 0.0000 0.0000  plane waves:   39210
 k-point  3 :   0.0000 0.5000 0.0000  plane waves:   39210
 k-point  4 :   0.5000 0.5000 0.0000  plane waves:   39356
 k-point  5 :   0.0000 0.0000 0.5000  plane waves:   39210
 k-point  6 :   0.5000 0.0000 0.5000  plane waves:   39356
 k-point  7 :   0.0000 0.5000 0.5000  plane waves:   39356
 k-point  8 :   0.5000 0.5000 0.5000  plane waves:   39456

 maximum and minimum number of plane-waves per node :      3318     3238

 maximum number of plane-waves:     39456
 maximum index in each direction: 
   IXMAX=   21   IYMAX=   21   IZMAX=   21
   IXMIN=  -21   IYMIN=  -21   IZMIN=  -21


 real space projection operators:
  total allocation   :      46257.38 KBytes
  max/ min on nodes  :       3892.84       3818.20


 parallel 3D FFT for wavefunctions:
    minimum data exchange during FFTs selected (reduces bandwidth)
 parallel 3D FFT for charge:
    minimum data exchange during FFTs selected (reduces bandwidth)


 total amount of memory used by VASP MPI-rank0   132702. kBytes
=======================================================================

   base      :      30000. kBytes
   nonlr-proj:      20278. kBytes
   fftplans  :      16056. kBytes
   grid      :       9274. kBytes
   one-center:        186. kBytes
   wavefun   :      56908. kBytes
 
     INWAV:  cpu time    0.0000: real time    0.0003
 Broyden mixing: mesh for mixing (old mesh)
   NGX = 43   NGY = 43   NGZ = 43
  (NGX  =168   NGY  =168   NGZ  =168)
  gives a total of  79507 points

 initial charge density was supplied:
 charge density of overlapping atoms calculated
 number of electron     864.0000000 magnetization 
 keeping initial charge density in first step


--------------------------------------------------------------------------------------------------------


 Maximum index for non-local projection operator          618
 Maximum index for augmentation-charges         4258 (set IRDMAX)


--------------------------------------------------------------------------------------------------------


 First call to EWALD:  gamma=   0.168
 Maximum number of real-space cells 3x 3x 3
 Maximum number of reciprocal cells 3x 3x 3

    FEWALD:  cpu time    0.0049: real time    0.0049


--------------------------------------- Iteration      1(   1)  ---------------------------------------


    POTLOK:  cpu time    0.0740: real time    0.0763
    SETDIJ:  cpu time    0.2632: real time    0.2641
     EDDAV:  cpu time   25.0752: real time   25.1464
       DOS:  cpu time    0.0024: real time    0.0024
    --------------------------------------------
      LOOP:  cpu time   25.4148: real time   25.4892

 eigenvalue-minimisations  :  8320
 total energy-change (2. order) : 0.1027126E+05  (-0.4940769E+05)
 number of electron     864.0000000 magnetization 
 augmentation part      864.0000000 magnetization 

 Free energy of the ion-electron system (eV)
  ---------------------------------------------------
  alpha Z        PSCENC =      4052.29761577
  Ewald energy   TEWEN  =    -56711.05841995
  -Hartree energ DENC   =    -11748.13686941
  -exchange      EXHF   =         0.00000000
  -V(xc)+E(xc)   XCENC  =      3269.25118374
  PAW double counting   =     50594.51003143   -49994.65612350
  entropy T*S    EENTRO =        -0.03561816
  eigenvalues    EBANDS =      5840.55006549
  atomic energy  EATOM  =     64968.54023382
  Solvation  Ediel_sol  =         0.00000000
  ---------------------------------------------------
  free energy    TOTEN  =     10271.26209924 eV

  energy without entropy =    10271.29771740  energy(sigma->0) =    10271.27990832


--------------------------------------------------------------------------------------------------------




--------------------------------------- Iteration      1(   2)  ---------------------------------------


     EDDAV:  cpu time   27.6982: real time   27.7930
       DOS:  cpu time    0.0010: real time    0.0010
    --------------------------------------------
      LOOP:  cpu time   27.6992: real time   27.7940

 eigenvalue-minimisations  :  9424
 total energy-change (2. order) :-0.1009968E+05  (-0.9714522E+04)
 number of electron     864.0000000 magnetization 
 augmentation part      864.0000000 magnetization 

 Free energy of the ion-electron system (eV)
  ---------------------------------------------------
  alpha Z        PSCENC =      4052.29761577
  Ewald energy   TEWEN  =    -56711.05841995
  -Hartree energ DENC   =    -11748.13686941
  -exchange      EXHF   =         0.00000000
  -V(xc)+E(xc)   XCENC  =      3269.25118374
  PAW double counting   =     50594.51003143   -49994.65612350
  entropy T*S    EENTRO =        -0.00000000
  eigenvalues    EBANDS =     -4259.16996945
  atomic energy  EATOM  =     64968.54023382
  Solvation  Ediel_sol  =         0.00000000
  ---------------------------------------------------
  free energy    TOTEN  =       171.57768246 eV

  energy without entropy =      171.57768246  energy(sigma->0) =      171.57768246


--------------------------------------------------------------------------------------------------------




--------------------------------------- Iteration      1(   3)  ---------------------------------------


     EDDAV:  cpu time   27.9295: real time   28.0303
       DOS:  cpu time    0.0010: real time    0.0010
    --------------------------------------------
      LOOP:  cpu time   27.9305: real time   28.0313

 eigenvalue-minimisations  :  9608
 total energy-change (2. order) :-0.1132196E+04  (-0.1124027E+04)
 number of electron     864.0000000 magnetization 
 augmentation part      864.0000000 magnetization 

 Free energy of the ion-electron system (eV)
  ---------------------------------------------------
  alpha Z        PSCENC =      4052.29761577
  Ewald energy   TEWEN  =    -56711.05841995
  -Hartree energ DENC   =    -11748.13686941
  -exchange      EXHF   =         0.00000000
  -V(xc)+E(xc)   XCENC  =      3269.25118374
  PAW double counting   =     50594.51003143   -49994.65612350
  entropy T*S    EENTRO =        -0.00000000
  eigenvalues    EBANDS =     -5391.36579123
  atomic energy  EATOM  =     64968.54023382
  Solvation  Ediel_sol  =         0.00000000
  ---------------------------------------------------
  free energy    TOTEN  =      -960.61813932 eV

  energy without entropy =     -960.61813932  energy(sigma->0) =     -960.61813932


--------------------------------------------------------------------------------------------------------




--------------------------------------- Iteration      1(   4)  ---------------------------------------


     EDDAV:  cpu time   43.9112: real time   45.0128
       DOS:  cpu time    0.0009: real time    0.0009
    --------------------------------------------
      LOOP:  cpu time   43.9122: real time   45.0137

 eigenvalue-minimisations  : 11976
 total energy-change (2. order) :-0.5915148E+02  (-0.5893457E+02)
 number of electron     864.0000000 magnetization 
 augmentation part      864.0000000 magnetization 

 Free energy of the ion-electron system (eV)
  ---------------------------------------------------
  alpha Z        PSCENC =      4052.29761577
  Ewald energy   TEWEN  =    -56711.05841995
  -Hartree energ DENC   =    -11748.13686941
  -exchange      EXHF   =         0.00000000
  -V(xc)+E(xc)   XCENC  =      3269.25118374
  PAW double counting   =     50594.51003143   -49994.65612350
  entropy T*S    EENTRO =        -0.00000000
  eigenvalues    EBANDS =     -5450.51727033
  atomic energy  EATOM  =     64968.54023382
  Solvation  Ediel_sol  =         0.00000000
  ---------------------------------------------------
  free energy    TOTEN  =     -1019.76961842 eV

  energy without entropy =    -1019.76961842  energy(sigma->0) =    -1019.76961842


--------------------------------------------------------------------------------------------------------




--------------------------------------- Iteration      1(   5)  ---------------------------------------


     EDDAV:  cpu time   36.7971: real time   36.9831
       DOS:  cpu time    0.0010: real time    0.0010
    CHARGE:  cpu time    0.8614: real time    0.8636
    MIXING:  cpu time    0.0036: real time    0.0036
    --------------------------------------------
      LOOP:  cpu time   37.6631: real time   37.8514

 eigenvalue-minimisations  : 13672
 total energy-change (2. order) :-0.4175890E+01  (-0.4173464E+01)
 number of electron     864.0000007 magnetization 
 augmentation part      134.1740108 magnetization 

 Broyden mixing:
  rms(total) = 0.85189E+01    rms(broyden)= 0.85183E+01
  rms(prec ) = 0.10129E+02
  weight for this iteration     100.00

 Free energy of the ion-electron system (eV)
  ---------------------------------------------------
  alpha Z        PSCENC =      4052.29761577
  Ewald energy   TEWEN  =    -56711.05841995
  -Hartree energ DENC   =    -11748.13686941
  -exchange      EXHF   =         0.00000000
  -V(xc)+E(xc)   XCENC  =      3269.25118374
  PAW double counting   =     50594.51003143   -49994.65612350
  entropy T*S    EENTRO =        -0.00000000
  eigenvalues    EBANDS =     -5454.69315985
  atomic energy  EATOM  =     64968.54023382
  Solvation  Ediel_sol  =         0.00000000
  ---------------------------------------------------
  free energy    TOTEN  =     -1023.94550794 eV

  energy without entropy =    -1023.94550794  energy(sigma->0) =    -1023.94550794


--------------------------------------------------------------------------------------------------------




--------------------------------------- Iteration      1(   6)  ---------------------------------------


    POTLOK:  cpu time    0.0707: real time    0.0760
    SETDIJ:  cpu time    0.2587: real time    0.2593
     EDDAV:  cpu time   28.9747: real time   29.1078
       DOS:  cpu time    0.0011: real time    0.0011
    CHARGE:  cpu time    0.8508: real time    0.8531
    MIXING:  cpu time    0.0065: real time    0.0065
    --------------------------------------------
      LOOP:  cpu time   30.1625: real time   30.3038

 eigenvalue-minimisations  : 10016
 total energy-change (2. order) : 0.1260818E+03  (-0.5124340E+02)
 number of electron     864.0000006 magnetization 
 augmentation part      123.5111883 magnetization 

 Broyden mixing:
  rms(total) = 0.35324E+01    rms(broyden)= 0.35318E+01
  rms(prec ) = 0.37407E+01
  weight for this iteration     100.00

 eigenvalues of (default mixing * dielectric matrix)
  average eigenvalue GAMMA=   1.1558
  1.1558

 Free energy of the ion-electron system (eV)
  ---------------------------------------------------
  alpha Z        PSCENC =      4052.29761577
  Ewald energy   TEWEN  =    -56711.05841995
  -Hartree energ DENC   =    -12813.94475959
  -exchange      EXHF   =         0.00000000
  -V(xc)+E(xc)   XCENC  =      3346.47804592
  PAW double counting   =     67382.66723284   -66920.17270815
  entropy T*S    EENTRO =        -0.00000000
  eigenvalues    EBANDS =     -4202.67098927
  atomic energy  EATOM  =     64968.54023382
  Solvation  Ediel_sol  =         0.00000000
  ---------------------------------------------------
  free energy    TOTEN  =      -897.86374860 eV

  energy without entropy =     -897.86374860  energy(sigma->0) =     -897.86374860


--------------------------------------------------------------------------------------------------------




--------------------------------------- Iteration      1(   7)  ---------------------------------------


    POTLOK:  cpu time    0.0721: real time    0.0760
    SETDIJ:  cpu time    0.2593: real time    0.2601
     EDDAV:  cpu time   30.4672: real time   30.6155
       DOS:  cpu time    0.0010: real time    0.0010
    CHARGE:  cpu time    0.8588: real time    0.8612
    MIXING:  cpu time    0.0055: real time    0.0055
    --------------------------------------------
      LOOP:  cpu time   31.6640: real time   31.8194

 eigenvalue-minimisations  : 10800
 total energy-change (2. order) :-0.1801565E+01  (-0.6406050E+01)
 number of electron     864.0000006 magnetization 
 augmentation part      121.3619063 magnetization 

 Broyden mixing:
  rms(total) = 0.16086E+01    rms(broyden)= 0.16086E+01
  rms(prec ) = 0.17523E+01
  weight for this iteration     100.00

 eigenvalues of (default mixing * dielectric matrix)
  average eigenvalue GAMMA=   1.2747
  1.2747  1.2747

 Free energy of the ion-electron system (eV)
  ---------------------------------------------------
  alpha Z        PSCENC =      4052.29761577
  Ewald energy   TEWEN  =    -56711.05841995
  -Hartree energ DENC   =    -12922.53136691
  -exchange      EXHF   =         0.00000000
  -V(xc)+E(xc)   XCENC  =      3355.09790186
  PAW double counting   =     84002.38307305   -83604.75817570
  entropy T*S    EENTRO =        -0.00000000
  eigenvalues    EBANDS =     -4039.63617514
  atomic energy  EATOM  =     64968.54023382
  Solvation  Ediel_sol  =         0.00000000
  ---------------------------------------------------
  free energy    TOTEN  =      -899.66531319 eV

  energy without entropy =     -899.66531319  energy(sigma->0) =     -899.66531319


--------------------------------------------------------------------------------------------------------




--------------------------------------- Iteration      1(   8)  ---------------------------------------


    POTLOK:  cpu time    0.0732: real time    0.0797
    SETDIJ:  cpu time    0.2635: real time    0.2666
     EDDAV:  cpu time   31.6337: real time   31.7959
       DOS:  cpu time    0.0011: real time    0.0011
    CHARGE:  cpu time    0.8589: real time    0.8610
    MIXING:  cpu time    0.0058: real time    0.0058
    --------------------------------------------
      LOOP:  cpu time   32.8362: real time   33.0100

 eigenvalue-minimisations  : 11208
 total energy-change (2. order) : 0.6728513E+00  (-0.1017466E+01)
 number of electron     864.0000006 magnetization 
 augmentation part      121.6036401 magnetization 

 Broyden mixing:
  rms(total) = 0.67295E+00    rms(broyden)= 0.67288E+00
  rms(prec ) = 0.77459E+00
  weight for this iteration     100.00

 eigenvalues of (default mixing * dielectric matrix)
  average eigenvalue GAMMA=   1.3790
  2.0952  1.0209  1.0209

 Free energy of the ion-electron system (eV)
  ---------------------------------------------------
  alpha Z        PSCENC =      4052.29761577
  Ewald energy   TEWEN  =    -56711.05841995
  -Hartree energ DENC   =    -12870.93306446
  -exchange      EXHF   =         0.00000000
  -V(xc)+E(xc)   XCENC  =      3352.24407123
  PAW double counting   =     91855.62892743   -91489.60896756
  entropy T*S    EENTRO =        -0.00000000
  eigenvalues    EBANDS =     -4056.10285818
  atomic energy  EATOM  =     64968.54023382
  Solvation  Ediel_sol  =         0.00000000
  ---------------------------------------------------
  free energy    TOTEN  =      -898.99246188 eV

  energy without entropy =     -898.99246188  energy(sigma->0) =     -898.99246188


--------------------------------------------------------------------------------------------------------




--------------------------------------- Iteration      1(   9)  ---------------------------------------


    POTLOK:  cpu time    0.0695: real time    0.0761
    SETDIJ:  cpu time    0.2591: real time    0.2597
     EDDAV:  cpu time   29.7623: real time   29.8636
       DOS:  cpu time    0.0010: real time    0.0010
    CHARGE:  cpu time    0.8620: real time    0.8641
    MIXING:  cpu time    0.0054: real time    0.0054
    --------------------------------------------
      LOOP:  cpu time   30.9592: real time   31.0699

 eigenvalue-minimisations  : 10448
 total energy-change (2. order) : 0.2110100E+00  (-0.2140569E+00)
 number of electron     864.0000006 magnetization 
 augmentation part      120.9622672 magnetization 

 Broyden mixing:
  rms(total) = 0.20104E+00    rms(broyden)= 0.20102E+00
  rms(prec ) = 0.23271E+00
  weight for this iteration     100.00

 eigenvalues of (default mixing * dielectric matrix)
  average eigenvalue GAMMA=   1.3899
  2.2164  1.3926  0.9752  0.9752

 Free energy of the ion-electron system (eV)
  ---------------------------------------------------
  alpha Z        PSCENC =      4052.29761577
  Ewald energy   TEWEN  =    -56711.05841995
  -Hartree energ DENC   =    -12924.38398638
  -exchange      EXHF   =         0.00000000
  -V(xc)+E(xc)   XCENC  =      3356.65574745
  PAW double counting   =     97898.53966800   -97553.71995499
  entropy T*S    EENTRO =        -0.00000000
  eigenvalues    EBANDS =     -3985.65235556
  atomic energy  EATOM  =     64968.54023382
  Solvation  Ediel_sol  =         0.00000000
  ---------------------------------------------------
  free energy    TOTEN  =      -898.78145183 eV

  energy without entropy =     -898.78145183  energy(sigma->0) =     -898.78145183


--------------------------------------------------------------------------------------------------------




--------------------------------------- Iteration      1(  10)  ---------------------------------------


    POTLOK:  cpu time    0.0682: real time    0.0765
    SETDIJ:  cpu time    0.2550: real time    0.2597
     EDDAV:  cpu time   30.8527: real time   31.5427
       DOS:  cpu time    0.0009: real time    0.0009
    CHARGE:  cpu time    0.8415: real time    0.8578
    MIXING:  cpu time    0.0062: real time    0.0063
    --------------------------------------------
      LOOP:  cpu time   32.0246: real time   32.7439

 eigenvalue-minimisations  : 11160
 total energy-change (2. order) :-0.5697144E-01  (-0.8320091E-01)
 number of electron     864.0000006 magnetization 
 augmentation part      120.8319699 magnetization 

 Broyden mixing:
  rms(total) = 0.15088E+00    rms(broyden)= 0.15087E+00
  rms(prec ) = 0.16909E+00
  weight for this iteration     100.00

 eigenvalues of (default mixing * dielectric matrix)
  average eigenvalue GAMMA=   1.3577
  2.3538  1.5272  1.1776  0.8650  0.8650

 Free energy of the ion-electron system (eV)
  ---------------------------------------------------
  alpha Z        PSCENC =      4052.29761577
  Ewald energy   TEWEN  =    -56711.05841995
  -Hartree energ DENC   =    -12929.81901643
  -exchange      EXHF   =         0.00000000
  -V(xc)+E(xc)   XCENC  =      3357.19661205
  PAW double counting   =     98572.40270536   -98228.80969807
  entropy T*S    EENTRO =        -0.00000000
  eigenvalues    EBANDS =     -3979.58845584
  atomic energy  EATOM  =     64968.54023382
  Solvation  Ediel_sol  =         0.00000000
  ---------------------------------------------------
  free energy    TOTEN  =      -898.83842327 eV

  energy without entropy =     -898.83842327  energy(sigma->0) =     -898.83842327


--------------------------------------------------------------------------------------------------------




--------------------------------------- Iteration      1(  11)  ---------------------------------------


    POTLOK:  cpu time    0.0702: real time    0.0765
    SETDIJ:  cpu time    0.2591: real time    0.2597
     EDDAV:  cpu time   30.8005: real time   31.1378
       DOS:  cpu time    0.0011: real time    0.0011
    CHARGE:  cpu time    0.8450: real time    0.8635
    MIXING:  cpu time    0.0202: real time    0.0211
    --------------------------------------------
      LOOP:  cpu time   31.9959: real time   32.3596

 eigenvalue-minimisations  : 10944
 total energy-change (2. order) : 0.1240140E-02  (-0.1443772E-01)
 number of electron     864.0000006 magnetization 
 augmentation part      120.7775391 magnetization 

 Broyden mixing:
  rms(total) = 0.76701E-01    rms(broyden)= 0.76694E-01
  rms(prec ) = 0.85550E-01
  weight for this iteration     100.00

 eigenvalues of (default mixing * dielectric matrix)
  average eigenvalue GAMMA=   1.4181
  2.2877  2.2877  1.0329  1.0329  0.9336  0.9336

 Free energy of the ion-electron system (eV)
  ---------------------------------------------------
  alpha Z        PSCENC =      4052.29761577
  Ewald energy   TEWEN  =    -56711.05841995
  -Hartree energ DENC   =    -12937.56954197
  -exchange      EXHF   =         0.00000000
  -V(xc)+E(xc)   XCENC  =      3357.77696487
  PAW double counting   =     98448.33622431   -98104.11072157
  entropy T*S    EENTRO =        -0.00000000
  eigenvalues    EBANDS =     -3973.04953842
  atomic energy  EATOM  =     64968.54023382
  Solvation  Ediel_sol  =         0.00000000
  ---------------------------------------------------
  free energy    TOTEN  =      -898.83718313 eV

  energy without entropy =     -898.83718313  energy(sigma->0) =     -898.83718313


--------------------------------------------------------------------------------------------------------




--------------------------------------- Iteration      1(  12)  ---------------------------------------


    POTLOK:  cpu time    0.0813: real time    0.0831
    SETDIJ:  cpu time    0.2587: real time    0.2594
     EDDAV:  cpu time   31.6392: real time   31.7877
       DOS:  cpu time    0.0010: real time    0.0010
    CHARGE:  cpu time    0.8736: real time    0.8757
    MIXING:  cpu time    0.0050: real time    0.0050
    --------------------------------------------
      LOOP:  cpu time   32.8588: real time   33.0119

 eigenvalue-minimisations  : 11320
 total energy-change (2. order) : 0.8026937E-03  (-0.3779637E-02)
 number of electron     864.0000006 magnetization 
 augmentation part      120.8134698 magnetization 

 Broyden mixing:
  rms(total) = 0.18209E-01    rms(broyden)= 0.18200E-01
  rms(prec ) = 0.21737E-01
  weight for this iteration     100.00

 eigenvalues of (default mixing * dielectric matrix)
  average eigenvalue GAMMA=   1.4405
  2.6913  2.3757  1.1849  1.0008  1.0008  0.9149  0.9149

 Free energy of the ion-electron system (eV)
  ---------------------------------------------------
  alpha Z        PSCENC =      4052.29761577
  Ewald energy   TEWEN  =    -56711.05841995
  -Hartree energ DENC   =    -12934.98889887
  -exchange      EXHF   =         0.00000000
  -V(xc)+E(xc)   XCENC  =      3357.57855130
  PAW double counting   =     98105.55980737   -97759.57356706
  entropy T*S    EENTRO =        -0.00000000
  eigenvalues    EBANDS =     -3977.19170282
  atomic energy  EATOM  =     64968.54023382
  Solvation  Ediel_sol  =         0.00000000
  ---------------------------------------------------
  free energy    TOTEN  =      -898.83638044 eV

  energy without entropy =     -898.83638044  energy(sigma->0) =     -898.83638044


--------------------------------------------------------------------------------------------------------




--------------------------------------- Iteration      1(  13)  ---------------------------------------


    POTLOK:  cpu time    0.0706: real time    0.0774
    SETDIJ:  cpu time    0.2558: real time    0.2600
     EDDAV:  cpu time   32.8978: real time   33.4582
       DOS:  cpu time    0.0010: real time    0.0010
    CHARGE:  cpu time    0.8597: real time    0.8675
    MIXING:  cpu time    0.0054: real time    0.0054
    --------------------------------------------
      LOOP:  cpu time   34.0902: real time   34.6694

 eigenvalue-minimisations  : 11992
 total energy-change (2. order) :-0.4588445E-03  (-0.5511899E-03)
 number of electron     864.0000006 magnetization 
 augmentation part      120.8087477 magnetization 

 Broyden mixing:
  rms(total) = 0.10567E-01    rms(broyden)= 0.10565E-01
  rms(prec ) = 0.12032E-01
  weight for this iteration     100.00

 eigenvalues of (default mixing * dielectric matrix)
  average eigenvalue GAMMA=   1.3912
  2.7060  2.4495  1.2711  0.9264  0.9264  1.0680  0.8911  0.8911

 Free energy of the ion-electron system (eV)
  ---------------------------------------------------
  alpha Z        PSCENC =      4052.29761577
  Ewald energy   TEWEN  =    -56711.05841995
  -Hartree energ DENC   =    -12936.95305992
  -exchange      EXHF   =         0.00000000
  -V(xc)+E(xc)   XCENC  =      3357.70576397
  PAW double counting   =     98013.21615435   -97666.58189045
  entropy T*S    EENTRO =        -0.00000000
  eigenvalues    EBANDS =     -3976.00323689
  atomic energy  EATOM  =     64968.54023382
  Solvation  Ediel_sol  =         0.00000000
  ---------------------------------------------------
  free energy    TOTEN  =      -898.83683928 eV

  energy without entropy =     -898.83683928  energy(sigma->0) =     -898.83683928


--------------------------------------------------------------------------------------------------------




--------------------------------------- Iteration      1(  14)  ---------------------------------------


    POTLOK:  cpu time    0.0690: real time    0.0752
    SETDIJ:  cpu time    0.2588: real time    0.2594
     EDDAV:  cpu time   29.7878: real time   29.8958
       DOS:  cpu time    0.0010: real time    0.0010
    CHARGE:  cpu time    0.8602: real time    0.8730
    MIXING:  cpu time    0.0055: real time    0.0055
    --------------------------------------------
      LOOP:  cpu time   30.9822: real time   31.1099

 eigenvalue-minimisations  : 10480
 total energy-change (2. order) :-0.8616917E-04  (-0.1626659E-03)
 number of electron     864.0000006 magnetization 
 augmentation part      120.8108271 magnetization 

 Broyden mixing:
  rms(total) = 0.82479E-02    rms(broyden)= 0.82474E-02
  rms(prec ) = 0.92565E-02
  weight for this iteration     100.00

 eigenvalues of (default mixing * dielectric matrix)
  average eigenvalue GAMMA=   1.3267
  2.8299  2.3964  1.3793  0.9681  0.9681  0.8936  0.8936  0.8058  0.8058

 Free energy of the ion-electron system (eV)
  ---------------------------------------------------
  alpha Z        PSCENC =      4052.29761577
  Ewald energy   TEWEN  =    -56711.05841995
  -Hartree energ DENC   =    -12937.06751769
  -exchange      EXHF   =         0.00000000
  -V(xc)+E(xc)   XCENC  =      3357.70819140
  PAW double counting   =     98008.43926586   -97661.70608964
  entropy T*S    EENTRO =        -0.00000000
  eigenvalues    EBANDS =     -3975.99020503
  atomic energy  EATOM  =     64968.54023382
  Solvation  Ediel_sol  =         0.00000000
  ---------------------------------------------------
  free energy    TOTEN  =      -898.83692545 eV

  energy without entropy =     -898.83692545  energy(sigma->0) =     -898.83692545


--------------------------------------------------------------------------------------------------------




--------------------------------------- Iteration      1(  15)  ---------------------------------------


    POTLOK:  cpu time    0.0691: real time    0.0755
    SETDIJ:  cpu time    0.2593: real time    0.2600
     EDDAV:  cpu time   31.0709: real time   31.2048
       DOS:  cpu time    0.0010: real time    0.0010
    CHARGE:  cpu time    0.8604: real time    0.8624
    MIXING:  cpu time    0.0061: real time    0.0061
    --------------------------------------------
      LOOP:  cpu time   32.2670: real time   32.4099

 eigenvalue-minimisations  : 10928
 total energy-change (2. order) : 0.2496250E-04  (-0.2398760E-04)
 number of electron     864.0000006 magnetization 
 augmentation part      120.8100446 magnetization 

 Broyden mixing:
  rms(total) = 0.52923E-02    rms(broyden)= 0.52918E-02
  rms(prec ) = 0.57810E-02
  weight for this iteration     100.00

 eigenvalues of (default mixing * dielectric matrix)
  average eigenvalue GAMMA=   1.4020
  2.8576  2.2871  2.2871  1.0096  0.9529  0.9529  0.9308  0.9308  0.9059  0.9059

 Free energy of the ion-electron system (eV)
  ---------------------------------------------------
  alpha Z        PSCENC =      4052.29761577
  Ewald energy   TEWEN  =    -56711.05841995
  -Hartree energ DENC   =    -12937.31400499
  -exchange      EXHF   =         0.00000000
  -V(xc)+E(xc)   XCENC  =      3357.72415410
  PAW double counting   =     98018.15308256   -97671.41592267
  entropy T*S    EENTRO =        -0.00000000
  eigenvalues    EBANDS =     -3975.76363914
  atomic energy  EATOM  =     64968.54023382
  Solvation  Ediel_sol  =         0.00000000
  ---------------------------------------------------
  free energy    TOTEN  =      -898.83690049 eV

  energy without entropy =     -898.83690049  energy(sigma->0) =     -898.83690049


--------------------------------------------------------------------------------------------------------




--------------------------------------- Iteration      1(  16)  ---------------------------------------


    POTLOK:  cpu time    0.0697: real time    0.0759
    SETDIJ:  cpu time    0.2589: real time    0.2595
     EDDAV:  cpu time   29.4161: real time   29.5061
       DOS:  cpu time    0.0009: real time    0.0009
    CHARGE:  cpu time    0.8494: real time    0.8514
    MIXING:  cpu time    0.0050: real time    0.0050
    --------------------------------------------
      LOOP:  cpu time   30.5999: real time   30.6988

 eigenvalue-minimisations  : 10344
 total energy-change (2. order) : 0.1478911E-04  (-0.7371539E-05)
 number of electron     864.0000006 magnetization 
[...]
   0.529E+01 -.851E+01 -.119E+02   -.210E+02 0.327E+02 0.163E+02   0.150E+02 -.208E+02 -.784E+01   0.835E-03 -.108E-02 0.189E-03
   -.155E+01 0.617E+01 -.343E+02   0.140E+02 -.136E+02 0.265E+02   -.135E+02 0.801E+01 0.763E+01   -.316E-03 0.479E-04 0.398E-03
   -.452E+02 -.836E+02 -.863E+01   0.547E+02 0.823E+02 0.899E+01   -.100E+02 0.173E+01 0.746E+00   0.815E-03 0.111E-02 -.528E-03
   -.298E+02 -.426E+02 -.294E+02   0.313E+02 0.397E+02 0.411E+02   -.161E+01 0.430E+01 -.131E+02   0.852E-03 0.114E-02 -.880E-03
   -.500E+02 0.252E+02 0.299E+02   0.603E+02 -.187E+02 -.426E+02   -.939E+01 -.594E+01 0.106E+02   -.359E-03 -.927E-03 0.189E-03
   0.293E+02 -.547E+02 0.455E+02   -.285E+02 0.547E+02 -.365E+02   0.686E+00 0.329E+01 -.127E+02   0.329E-03 0.219E-03 -.524E-03
   0.144E+02 0.831E+02 -.583E+02   -.211E+02 -.103E+03 0.420E+02   0.585E+01 0.175E+02 0.164E+02   0.863E-03 -.270E-03 0.397E-03
   0.421E+02 0.372E+02 -.403E+01   -.454E+02 -.292E+02 0.153E+02   -.359E+00 -.132E+02 -.103E+02   0.270E-03 -.244E-03 0.197E-03
   -.211E+02 -.174E+02 -.185E+02   0.312E+02 0.130E+02 0.133E+02   -.102E+02 0.589E+01 0.668E+01   -.918E-03 0.596E-03 0.565E-03
   -.301E+02 0.292E+02 0.367E+02   0.250E+02 -.336E+02 -.458E+02   0.850E+01 0.641E+01 0.104E+02   -.225E-03 -.592E-03 0.320E-03
   0.661E+01 0.430E+02 -.391E+02   -.135E+02 -.433E+02 0.379E+02   0.560E+01 -.926E+00 0.438E+01   -.866E-03 -.632E-03 -.854E-05
   0.466E+02 0.609E+01 0.229E+01   -.521E+02 -.224E+02 0.131E+02   0.264E+01 0.139E+02 -.157E+02   0.151E-04 0.497E-03 0.305E-04
   0.473E-01 0.358E+02 -.186E+02   0.196E+02 -.356E+02 0.226E+02   -.180E+02 0.251E+01 -.866E+01   0.819E-03 0.355E-03 0.897E-03
   -.130E+02 0.364E+02 0.329E+02   0.149E+02 -.400E+02 -.333E+02   -.604E+00 0.663E+01 0.546E+00   0.925E-03 -.126E-02 -.316E-03
   0.273E+02 0.301E+02 -.778E+02   -.310E+02 -.290E+02 0.989E+02   0.218E+01 -.302E+01 -.176E+02   -.343E-03 -.612E-03 -.447E-04
   -.664E+02 -.848E+01 0.515E+02   0.725E+02 -.631E+01 -.424E+02   -.364E+01 0.151E+02 -.121E+02   0.417E-03 0.137E-03 -.654E-03
   0.296E+02 -.394E+02 -.923E+01   -.288E+02 0.284E+02 0.706E+00   -.495E+01 0.558E+01 0.262E+01   0.453E-03 0.159E-02 0.341E-03
   -.611E+02 -.500E+02 0.268E+02   0.609E+02 0.605E+02 -.288E+02   0.390E+01 -.928E+01 0.489E+01   -.107E-03 0.436E-03 -.305E-03
   -.190E+02 0.165E+02 0.320E+01   0.178E+02 -.184E+02 -.122E+02   0.632E+00 -.674E+00 0.954E+01   0.487E-03 -.258E-03 -.768E-03
   0.684E+02 0.326E+02 0.105E+02   -.790E+02 -.353E+02 -.895E+01   0.103E+02 0.396E+01 -.269E+01   0.848E-03 0.768E-03 0.517E-03
   -.252E+02 -.160E+02 0.240E+02   0.212E+02 0.164E+02 -.212E+02   0.583E+01 0.187E+01 -.107E+01   0.130E-03 -.406E-03 -.245E-03
   0.753E+02 0.338E+02 -.737E+02   -.993E+02 -.269E+02 0.766E+02   0.209E+02 -.766E+01 0.862E+00   0.364E-03 -.781E-03 0.124E-03
   0.390E+02 0.920E+02 -.491E+02   -.501E+02 -.885E+02 0.548E+02   0.628E+01 -.824E+01 0.122E+01   0.793E-03 -.283E-03 -.544E-03
   -.320E+02 0.185E+02 0.109E+02   0.388E+02 -.328E+01 -.227E+02   -.773E+01 -.211E+02 0.138E+02   0.184E-03 0.125E-03 0.519E-03
   -.115E+02 0.113E+03 0.375E+02   0.218E+02 -.118E+03 -.378E+02   -.871E+01 0.927E+00 -.791E+00   0.850E-04 0.305E-03 0.931E-03
   0.350E+01 0.383E+00 0.198E+02   -.175E+02 0.860E+01 -.270E+02   0.127E+02 -.138E+02 0.110E+02   0.775E-03 0.107E-02 -.146E-03
   -.435E+02 -.751E+01 -.250E+01   0.669E+02 -.229E+00 0.862E+01   -.170E+02 -.120E+01 -.177E+01   -.145E-02 0.110E-02 -.529E-03
   -.150E+02 -.672E+02 0.503E+02   0.105E+02 0.538E+02 -.574E+02   0.377E+01 0.137E+02 0.590E+01   -.826E-03 0.998E-03 0.614E-03
   -.487E+02 0.825E+02 0.763E+01   0.425E+02 -.899E+02 0.673E+01   0.796E+01 0.801E+01 -.170E+02   0.258E-03 -.123E-02 0.238E-03
   -.117E+02 -.345E+02 0.486E+02   0.965E+01 0.283E+02 -.621E+02   0.184E+01 0.590E+01 0.108E+02   -.488E-03 -.761E-04 -.118E-03
   0.249E+01 -.862E+02 -.531E+02   -.220E+01 0.861E+02 0.544E+02   0.618E+00 0.114E+01 0.203E-01   0.451E-03 0.919E-03 0.366E-03
   0.309E+02 0.582E+02 -.499E+02   -.318E+02 -.551E+02 0.411E+02   0.289E+00 -.351E+01 0.105E+02   0.110E-02 -.937E-03 -.620E-04
   -.130E+02 -.645E+02 0.710E+02   0.172E+02 0.621E+02 -.658E+02   -.558E+01 0.648E+01 -.785E+01   0.352E-03 0.748E-03 -.581E-03
   -.392E+02 -.985E+01 0.264E+02   0.447E+02 0.450E+01 -.237E+02   -.728E+01 0.260E+01 -.553E+01   -.990E-03 -.237E-03 -.453E-03
   -.150E+02 -.341E+02 -.122E+02   0.448E+01 0.201E+02 0.116E+02   0.105E+02 0.129E+02 -.336E+01   0.718E-03 0.122E-02 0.766E-03
   0.135E+02 0.303E+02 0.297E+01   -.184E+02 -.278E+02 0.247E+01   0.544E+01 -.218E+01 -.653E+01   0.665E-03 -.984E-03 0.183E-03
   0.282E+02 -.621E+02 -.848E+01   -.369E+02 0.658E+02 0.145E+02   0.101E+02 -.288E+01 -.679E+01   0.111E-02 0.731E-03 0.459E-03
   -.340E+02 0.926E+01 -.340E+02   0.329E+02 -.197E+01 0.574E+02   0.326E+01 -.283E+00 -.192E+02   -.113E-02 -.132E-02 -.347E-03
   -.849E+02 0.180E+01 0.506E+01   0.890E+02 0.108E+00 0.135E+02   0.520E+00 0.212E+01 -.192E+02   -.264E-03 -.846E-04 0.551E-03
   0.451E+02 0.715E+02 -.169E+02   -.417E+02 -.644E+02 0.161E+02   -.463E+01 -.954E+01 0.325E+01   -.572E-04 -.554E-03 -.816E-04
   -.252E+02 0.531E+02 0.728E+02   0.202E+02 -.485E+02 -.660E+02   0.905E+01 -.616E+01 -.919E+01   -.147E-04 -.941E-03 -.390E-03
   -.353E+02 0.157E+02 -.268E+02   0.364E+02 -.336E+01 0.338E+02   -.258E+00 -.122E+02 -.627E+01   -.875E-03 -.103E-02 -.366E-03
   -.190E+02 0.463E+02 -.256E+02   0.624E+01 -.421E+02 0.315E+02   0.134E+02 -.725E+01 -.432E+01   0.616E-03 -.114E-02 -.742E-03
   -.982E+01 -.273E+02 0.294E+02   0.297E+01 0.246E+02 -.310E+02   0.678E+01 0.310E+01 0.134E+01   0.505E-03 0.163E-03 0.524E-03
   0.274E+02 0.836E+01 -.234E+02   -.308E+02 -.134E+02 0.243E+02   0.150E+01 0.682E+01 -.154E+01   -.590E-03 -.393E-03 0.247E-03
   0.789E+02 -.626E+02 -.568E+02   -.710E+02 0.731E+02 0.510E+02   -.104E+02 -.104E+02 0.107E+02   -.195E-03 0.201E-03 0.216E-03
   -.400E+02 0.442E+02 0.183E+02   0.383E+02 -.522E+02 -.197E+02   0.200E+01 0.825E+01 -.328E+00   0.758E-03 0.696E-03 0.228E-03
   0.221E+02 -.758E+02 -.644E+02   -.284E+02 0.698E+02 0.665E+02   0.606E+01 0.675E+01 -.133E+01   0.337E-03 0.417E-03 0.359E-03
 -----------------------------------------------------------------------------------------------
   -.327E+01 -.127E+03 0.145E+03   -.185E-12 -.739E-12 -.313E-12   0.326E+01 0.127E+03 -.145E+03   -.314E-02 0.345E-02 -.162E-02
 
 
 POSITION                                       TOTAL-FORCE (eV/Angst)
 -----------------------------------------------------------------------------------
      2.96338      4.72553      5.46973        -0.801837     -1.562422      1.107807
      8.94096      2.44047      0.04339        -2.971466     -0.404863     -1.670210
      3.09671      1.08945      9.25643        -3.238515     -0.384770     -0.310087
      6.56361      4.81400      9.54728        -1.655388     -0.987322     -0.090547
      3.89042      3.44734      1.09190         1.707631      0.645620      0.185055
      7.77690      6.72088      0.95719        -0.678730      4.058465      0.849631
     10.24167      1.53053      5.81014        -2.618550     -1.652310      0.946271
      0.40854      7.48532      4.74828        -0.341681     -0.650143     -1.087540
      0.79378      3.55434      8.37935        -1.915493     -1.619958     -4.314690
      9.94566      4.51647      2.50796         1.950043      3.899472     -1.341432
      1.75533      9.52040      7.17058        -0.835488     -0.483416     -1.295869
      8.79882      9.71189      3.58232        -0.022476      1.074667     -2.421348
      4.38020      7.37735      7.94665         0.088138     -2.704104      0.934004
      8.11143      9.96398      0.58489         6.951212     -0.156949     -0.480151
      8.55753      5.85689      6.64923         3.812360      2.392337      4.237522
      1.64184      5.60909     10.41739         1.671952      3.047873      0.858167
      7.84983      0.35620      8.47740        -0.835774     -2.836654     -1.515612
      6.24304      1.22095      2.60864         4.176423     -1.132118     -2.709546
      5.17397      5.72242      3.39287         0.220085      2.531868      3.151660
      2.17163      2.42409      3.05503        -1.957747      0.418992      4.933411
      5.65427      5.51812      6.51491         1.484540     -4.317178      1.857388
      5.64435      9.65655      0.15618        -2.874359     -1.072187     -1.126126
      4.06224      0.11443      4.92323         0.837262      0.399304     -2.030420
      0.76829      0.18672      0.89169        -1.719519     -1.883815      1.372248
      5.33509      2.15892      7.25835        -1.285986      5.050404     -0.692135
      7.91734      3.63869      4.96276        -1.862503     -1.060629     -0.953840
      9.97519      8.02630      9.32179        -1.334653      2.887970     -1.195262
      9.17504      9.03321      6.43823        -1.417499     -0.792463      1.950363
      5.81017      1.90100     10.10954        -0.034877      1.890566     -1.439917
      4.57818      6.65465      0.62671         4.459644     -2.039403     -4.483459
      2.90471      8.36353      2.12504         0.136141      2.173649     -0.974303
      1.34488     10.14704      4.13192        -1.705673      2.463751     -2.496522
      5.03747     10.06434      7.55284        -1.890752     -3.812694     -3.231212
      2.51479      1.83399      6.52568        -2.186309      2.199653     -7.309148
      7.09134      4.37045      1.93195        -0.035428     -3.132453     -2.852098
      3.56323      0.54870      1.64077         0.508195      0.378650     -0.603865
      2.39475      8.42622      9.73134         2.392691      3.968664     -1.916840
      5.71831      8.80364      2.78293         2.830717      2.259969      1.252748
      0.21551      7.59751      1.44931         1.831948      1.116846      3.230372
      0.96226      3.00647      0.45968         3.896612     -0.264496      1.870804
      8.09901      3.00262      7.71394         3.632453     -0.918257      1.095680
      0.05212      4.20428      5.33962         2.530732      0.424299      0.105126
      9.45894      5.28969      9.59433        -3.488153      1.508483      1.328504
      1.27328      6.16666      7.54930        -0.358088      4.483312     -3.472587
      7.12502      0.83259      5.29182         2.007322     -0.522920      3.234078
      3.34244      7.59278      5.25722        -2.864772      2.488220     -2.523928
      2.25298      5.37287      2.85550        -2.627623     -1.114175      0.242795
      6.91456      7.87655      8.84732         5.117148     -1.152445     -3.175829
      8.30221      6.55781      3.85341         0.943367      6.192183      7.648269
      3.54336      3.98480      8.78043        -3.500321      7.695109     -3.756064
      5.07705      3.01525      4.04927        -5.277813     -5.918404      0.120047
      0.00692      0.64391      8.61706        -0.612013      0.171605      0.810870
      6.41238      8.03929      5.51409         0.423572      2.114868      0.193754
      9.48098      2.05000      2.72246        -1.593358     -4.833677      5.829897
      5.95051      0.47453      6.48490         0.466122     -6.368687      3.652324
      3.54703      4.37068      3.21242         0.214217     -0.616084     -1.242994
      3.65916      7.38035      9.97978         0.005097      1.954072      0.987524
      3.37687      0.56579      7.01314         3.186032     -1.876073     -0.249003
      4.63970      6.75051      5.37301         1.013254     -0.026572     -0.842919
      5.61423      5.21759      1.54749         3.557327      0.697504     -2.466435
      3.58623      9.19323      8.44248        -3.152514      0.505845      0.650973
      6.05822      6.93339      9.88116        -5.544193     -4.994432     -0.951384
      5.99285      9.12044      8.46656        -0.721891      0.146118      1.181801
      2.27800      3.65213      9.89308         0.473253     -0.649432     -1.588673
      2.48895      0.12430      2.83360         1.160951      1.839768      1.418118
      1.28159      4.47313      4.03600         0.070219      0.902771     -1.003182
      9.34257      1.91315      8.24722         2.244491     -0.226361      1.133051
      7.95375      1.89813      6.51315        -1.188647     -3.802528     -3.633938
      4.79419      5.08519      8.33750        -2.508708      1.068465     -1.349861
      4.75378     10.18073      2.16413         3.152423      1.740827     -1.753561
      8.57933      4.08513      8.94214         0.496905     -0.874452     -1.285725
      5.74678      1.55136      4.83569        -0.726538      4.949771     -4.098109
      0.62995      1.82045      9.77200         0.272821      0.717941      2.494222
      6.02561      3.08396      0.63609         2.844745      1.913231      1.091137
      2.43650      5.10993      7.67767        -0.169228     -1.597792      3.392400
      8.09232     10.12452      5.55946         1.043592      0.271409      3.266756
      6.94290      2.25803      8.81851        -0.741428      0.282098      1.656791
      4.98784      3.89971      5.26938         2.576694      4.748086      2.572388
      6.92448      3.76033      7.04195        -2.132518      4.924583     -0.692691
      8.32150      4.81829      0.61039        -2.101060     -2.535770      0.293197
      7.27564      5.66553      5.26221        -0.937048      0.681539     -4.834816
      3.39132      2.49116      5.04582        -1.565408     -3.097807      0.850986
      4.82657      8.77411      6.29106        -0.833364      1.847296     -0.131384
      7.08691      9.80052      2.10887        -4.419384     -3.407018      5.556873
      6.84665      0.89946      0.23682        -0.221544      0.089666     -1.407053
      8.28445      6.43359      8.87763        -0.002840     -0.329128      2.007131
      0.45976      5.77332      6.04556         2.067918     -2.231407      2.293860
      9.99701      8.92990      1.45126        -0.729541      3.450327     -3.416112
      5.77980      7.66851      1.54312        -1.029268      0.566969     -0.136995
      9.61199      5.53024      4.36610        -0.505106      0.421275      1.110939
      9.53675      3.76973      6.67822        -0.165339      1.463891     -1.385512
      8.05296      1.34456      4.06050         0.924664      0.599645     -2.016306
      2.42814      7.05600      6.61113         1.463594      3.318792     -3.721030
      9.08530      1.09302      1.55290        -0.839462     -2.679674      0.112657
      1.64991      8.21939      0.57764        -3.625355     -5.300044      0.953458
      6.21774      3.49540      3.06459        -0.196202      1.414005      1.483822
      2.94659      9.75702      0.61584         3.368501      2.012970      1.256431
      4.42850      1.31754      0.27205        -1.288715     -1.238205      3.146759
      3.55342      6.94767      1.76587        -2.876696     -2.444153     -0.285826
      0.20316      2.61118      2.03535         1.677673      2.745133     -4.662493
     10.03034     10.11541      7.41405         1.352654      3.084016      0.121044
      4.15553      8.54061      3.17654        -1.569174     -1.857939      3.514073
     10.10300      7.78559      7.11316         2.437618      0.280247     -2.958342
      7.90031      5.54073      2.86340        -4.147786     -5.485767     -5.904770
      3.02133      2.98739      7.49244         3.695835      1.218400      2.877645
      8.39218      8.02378      5.24408        -0.606181     -2.582956      0.578677
      8.27687      3.14523      2.40848        -0.312492      1.280591     -1.162301
      8.10319      8.71960      7.76024         1.777222      2.266487      1.704727
      1.48952      8.75071      2.69328        -3.077385     -0.776972      3.687523
      1.27878      1.53377      7.48647        -4.842752     -4.748388      6.969294
      9.16686      7.74436      2.92911        -0.905681     -5.783627      2.010522
      2.22283      2.06154      1.02888         1.584778     -4.752115     -1.075183
     10.49081      5.94194      8.39699        -1.227309     -4.867928      3.775412
      4.64823      3.14070      9.22161         6.483814     -8.935175      4.359062
      3.90723      5.22955      0.08727        -0.806296      0.325508     -1.201284
      9.54686      0.04299      9.86063         1.752678      0.672880     -2.685391
      6.60484      7.42260      3.95676        -0.227868     -0.346850     -2.677556
      1.70312      4.26218      1.52158         0.903660      1.022145      1.320573
      0.27850      0.67438      3.14842        -0.564275     -0.440502      1.747696
      1.21999      3.09585      6.11207        -1.430631      4.047739     -2.669938
      6.60887      7.35634      7.16642        -1.730831     -2.755321     -2.868508
      9.96659      6.51656      0.56288        -0.029249     -1.144919     -3.912693
      1.23685      9.83000      9.34128         0.519388      0.346283     -1.093755
     10.40280      4.10936     10.46669         1.449264      0.792161     -0.820561
      4.98271      0.38304      8.79550         2.120412      7.010812      4.167978
      7.37027      8.32519     10.31302         4.633986      4.034948     -0.714596
      2.58363      9.09802      4.86473        -1.265818     -2.398963      2.430466
      1.50354      0.71252      5.43806         4.013601     -1.553410     -2.375197
      6.00973      9.53873      4.36372         0.779211      0.159228      0.778056
     10.47705      9.68433      4.91003         0.615685     -3.026154      1.539610
      1.59324      7.33662      8.78910        -0.077027      0.436163     -0.238420
      4.33398      1.84209      2.86593        -1.929810      1.825470     -0.640714
      2.92155      6.63795      3.75635        -2.480417      0.150945      5.002983
      9.89321      2.99842      4.31260         0.245744      0.261693     -1.712658
      1.00230      6.32501      2.21398        -0.260408      0.736319      0.843051
 -----------------------------------------------------------------------------------
    total drift:                               -0.016439      0.016347      0.005031


--------------------------------------------------------------------------------------------------------



  FREE ENERGIE OF THE ION-ELECTRON SYSTEM (eV)
  ---------------------------------------------------
  free  energy   TOTEN  =      -898.83688460 eV

  energy  without entropy=     -898.83688460  energy(sigma->0) =     -898.83688460
 


--------------------------------------------------------------------------------------------------------


    POTLOK:  cpu time    0.3345: real time    0.3352


--------------------------------------------------------------------------------------------------------


     LOOP+:  cpu time  603.3396: real time  609.2522
    4ORBIT:  cpu time    0.0000: real time    0.0000

 total amount of memory used by VASP MPI-rank0   132702. kBytes
=======================================================================

   base      :      30000. kBytes
   nonlr-proj:      20278. kBytes
   fftplans  :      16056. kBytes
   grid      :       9274. kBytes
   one-center:        186. kBytes
   wavefun   :      56908. kBytes
 
  
  
 General timing and accounting informations for this job:
 ========================================================
  
                  Total CPU time used (sec):      617.471
                            User time (sec):      613.878
                          System time (sec):        3.593
                         Elapsed time (sec):      623.653
  
                   Maximum memory used (kb):      241640.
                   Average memory used (kb):           0.
  
                          Minor page faults:       167171
                          Major page faults:            0
                 Voluntary context switches:          390
