<?xml version="1.0" encoding="ISO-8859-1"?>
<modeling>
 <generator>
  <i name="program" type="string">vasp </i>
  <i name="version" type="string">5.4.4.18Apr17-6-g9f103f2a35  </i>
  <i name="subversion" type="string">(build Oct 31 2019 15:01:46) complex            parallel </i>
  <i name="platform" type="string">LinuxIFC </i>
  <i name="date" type="string">2024 04 19 </i>
  <i name="time" type="string">12:23:28 </i>
 </generator>
 <incar>
  <i type="int" name="ISTART">     0</i>
  <i type="string" name="PREC">anormal</i>
  <i type="logical" name="ADDGRID"> T  </i>
  <i type="int" name="IBRION">    -1</i>
  <i name="EDIFF">      0.00000100</i>
  <i name="EDIFFG">     -0.01000000</i>
  <i type="int" name="NSW">     1</i>
  <i type="int" name="ISIF">     2</i>
  <i type="int" name="ISYM">     2</i>
  <i name="ENCUT">    600.00000000</i>
  <i name="POTIM">      1.00000000</i>
  <i type="string" name="LREAL"> Auto.</i>
  <i type="int" name="ISMEAR">     0</i>
  <i name="SIGMA">      0.05000000</i>
  <i name="KSPACING">      0.25000000</i>
  <i type="logical" name="LWAVE"> F  </i>
  <i type="logical" name="LCHARG"> F  </i>
  <i type="logical" name="LSCALAPACK"> F  </i>
  <v type="int" name="KPOINT_BSE">    -1     0     0     0</v>
 </incar>
 <structure name="primitive_cell" >
  <crystal>
   <varray name="basis" >
    <v>      13.12862340       0.00000000       0.00000000 </v>
    <v>      -6.56431170      11.36972138       0.00000000 </v>
    <v>       0.00000000       0.00000000      26.82809424 </v>
   </varray>
   <i name="volume">   4004.59716953 </i>
   <varray name="rec_basis" >
    <v>       0.07616945       0.04397645       0.00000000 </v>
    <v>       0.00000000       0.08795290       0.00000000 </v>
    <v>       0.00000000       0.00000000       0.03727436 </v>
   </varray>
  </crystal>
  <varray name="positions" >
   <v>       0.09018817       0.15929680       0.45481941 </v>
   <v>       0.16965655       0.08161041       0.41364471 </v>
   <v>       0.01200059       0.00472957      -0.49860902 </v>
   <v>       0.16611395       0.32734096       0.41607668 </v>
   <v>      -0.07417210       0.09241373       0.40900249 </v>
   <v>       0.25288660       0.24761421      -0.49773907 </v>
   <v>      -0.00191253       0.24852233      -0.49803103 </v>
   <v>       0.17069987       0.08760002      -0.44846212 </v>
   <v>       0.33769758       0.17798252       0.45296187 </v>
   <v>       0.08321290      -0.08469000       0.45273023 </v>
   <v>      -0.08026787       0.08167830      -0.45162686 </v>
   <v>      -0.16294795      -0.07820566       0.45102929 </v>
   <v>       0.33160429       0.41555602       0.45174967 </v>
   <v>       0.15978928       0.34287318      -0.45169165 </v>
   <v>       0.08123872       0.41828527       0.45581742 </v>
   <v>      -0.16967467       0.16751535       0.44929373 </v>
   <v>       0.08531694       0.16480128      -0.40445795 </v>
   <v>       0.40648619       0.34487017       0.40628115 </v>
   <v>       0.25988594       0.00414212       0.49890732 </v>
   <v>      -0.06682332      -0.16455182       0.40669049 </v>
   <v>      -0.23629513       0.00528096      -0.49912461 </v>
   <v>      -0.07847274       0.33076929       0.40540053 </v>
   <v>       0.24977926      -0.49648158      -0.49759746 </v>
   <v>       0.40878179       0.33475035      -0.45408853 </v>
   <v>      -0.09591917      -0.17216019      -0.45632589 </v>
   <v>      -0.09886383       0.32382153      -0.44972307 </v>
   <v>       0.07746666      -0.09140507      -0.40994727 </v>
   <v>       0.32759558       0.42587885      -0.41338708 </v>
   <v>      -0.16090652      -0.08662215      -0.41006709 </v>
   <v>       0.33105466       0.15872784      -0.40621318 </v>
   <v>       0.40968954       0.07819060       0.41193504 </v>
   <v>       0.18014193      -0.15790489       0.41238140 </v>
   <v>      -0.49879982       0.25994667       0.49861700 </v>
   <v>      -0.17567516       0.14942739      -0.40682009 </v>
   <v>      -0.00620791      -0.25383813      -0.49928758 </v>
   <v>      -0.32632083      -0.15732825       0.40851869 </v>
   <v>      -0.24834335      -0.25184295       0.49586467 </v>
   <v>      -0.49907742       0.49955874       0.49915933 </v>
   <v>       0.07586621       0.42156600      -0.40499635 </v>
   <v>       0.16950926      -0.42070667       0.41203183 </v>
   <v>       0.42389177      -0.41341002       0.40577101 </v>
   <v>      -0.33606155       0.07832221       0.40816748 </v>
   <v>       0.00244132      -0.49880939      -0.49978299 </v>
   <v>      -0.25130524       0.24886567      -0.49993973 </v>
   <v>       0.15454179      -0.17174463      -0.45456617 </v>
   <v>       0.40651055       0.07009491      -0.45165979 </v>
   <v>      -0.16127787      -0.32227169       0.44788141 </v>
   <v>       0.34191904      -0.07881175       0.45286501 </v>
   <v>      -0.33412337      -0.16712149      -0.45601798 </v>
   <v>       0.41796411      -0.41072847      -0.45812275 </v>
   <v>      -0.41079287       0.41937274       0.45580541 </v>
   <v>       0.33546893      -0.33642119       0.44713050 </v>
   <v>      -0.41506761      -0.07700447       0.45204115 </v>
   <v>      -0.34399357       0.07602041      -0.45253553 </v>
   <v>      -0.16259624       0.41692788       0.45618998 </v>
   <v>       0.18226641      -0.40073432      -0.45305327 </v>
   <v>      -0.42080803       0.16376065       0.45402375 </v>
   <v>       0.08139754      -0.33895107       0.45437914 </v>
   <v>      -0.41721318      -0.33959361       0.45345619 </v>
   <v>      -0.16615997      -0.32929946      -0.41216111 </v>
   <v>       0.33078631      -0.09666837      -0.41380360 </v>
   <v>       0.33339386      -0.34093680      -0.41095356 </v>
   <v>      -0.40846297       0.42696053      -0.40959345 </v>
   <v>      -0.41220273      -0.10406806      -0.40759925 </v>
   <v>      -0.33340108       0.33344088       0.41428154 </v>
   <v>       0.24903175      -0.25536624       0.49616434 </v>
   <v>      -0.08978311      -0.41737270       0.40560160 </v>
   <v>      -0.32743217      -0.41339474       0.41032719 </v>
   <v>      -0.49760630      -0.00393115      -0.49787374 </v>
   <v>      -0.16541006       0.41660660      -0.40781998 </v>
   <v>      -0.49599118      -0.25037391       0.49796637 </v>
   <v>      -0.33499851       0.33893061      -0.45493335 </v>
   <v>      -0.32862268      -0.40704237      -0.45113543 </v>
   <v>      -0.08341696      -0.42353767      -0.44801973 </v>
   <v>       0.08072891      -0.33061565      -0.41168496 </v>
   <v>      -0.42559796       0.15412850      -0.40552021 </v>
   <v>      -0.41675305      -0.33485601      -0.41270512 </v>
   <v>       0.41873935      -0.16606643       0.41107574 </v>
   <v>      -0.24584770      -0.49983561      -0.49702922 </v>
   <v>       0.41574063      -0.17066557      -0.45465392 </v>
  </varray>
 </structure>
 <varray name="primitive_index" >
  <v type="int" >        1 </v>
  <v type="int" >       49 </v>
  <v type="int" >       65 </v>
  <v type="int" >       50 </v>
  <v type="int" >       61 </v>
  <v type="int" >       70 </v>
  <v type="int" >       66 </v>
  <v type="int" >       17 </v>
  <v type="int" >        5 </v>
  <v type="int" >        4 </v>
  <v type="int" >       29 </v>
  <v type="int" >       16 </v>
  <v type="int" >        6 </v>
  <v type="int" >       18 </v>
  <v type="int" >        2 </v>
  <v type="int" >       13 </v>
  <v type="int" >       33 </v>
  <v type="int" >       54 </v>
  <v type="int" >       69 </v>
  <v type="int" >       64 </v>
  <v type="int" >       77 </v>
  <v type="int" >       62 </v>
  <v type="int" >       71 </v>
  <v type="int" >       22 </v>
  <v type="int" >       32 </v>
  <v type="int" >       30 </v>
  <v type="int" >       36 </v>
  <v type="int" >       38 </v>
  <v type="int" >       48 </v>
  <v type="int" >       37 </v>
  <v type="int" >       53 </v>
  <v type="int" >       52 </v>
  <v type="int" >       74 </v>
  <v type="int" >       45 </v>
  <v type="int" >       68 </v>
  <v type="int" >       60 </v>
  <v type="int" >       80 </v>
  <v type="int" >       75 </v>
  <v type="int" >       34 </v>
  <v type="int" >       51 </v>
  <v type="int" >       55 </v>
  <v type="int" >       57 </v>
  <v type="int" >       67 </v>
  <v type="int" >       78 </v>
  <v type="int" >       20 </v>
  <v type="int" >       21 </v>
  <v type="int" >       15 </v>
  <v type="int" >        8 </v>
  <v type="int" >       28 </v>
  <v type="int" >       23 </v>
  <v type="int" >       10 </v>
  <v type="int" >        7 </v>
  <v type="int" >       12 </v>
  <v type="int" >       25 </v>
  <v type="int" >       14 </v>
  <v type="int" >       19 </v>
  <v type="int" >        9 </v>
  <v type="int" >        3 </v>
  <v type="int" >       11 </v>
  <v type="int" >       47 </v>
  <v type="int" >       40 </v>
  <v type="int" >       39 </v>
  <v type="int" >       42 </v>
  <v type="int" >       44 </v>
  <v type="int" >       58 </v>
  <v type="int" >       72 </v>
  <v type="int" >       63 </v>
  <v type="int" >       59 </v>
  <v type="int" >       73 </v>
  <v type="int" >       46 </v>
  <v type="int" >       76 </v>
  <v type="int" >       26 </v>
  <v type="int" >       27 </v>
  <v type="int" >       31 </v>
  <v type="int" >       35 </v>
  <v type="int" >       41 </v>
  <v type="int" >       43 </v>
  <v type="int" >       56 </v>
  <v type="int" >       79 </v>
  <v type="int" >       24 </v>
 </varray>
 <kpoints>
  <generation param="Gamma">
   <v type="int" name="divisions">       3        3        1 </v>
   <v name="usershift">      0.00000000       0.00000000       0.00000000 </v>
   <v name="genvec1">      0.33333333       0.00000000       0.00000000 </v>
   <v name="genvec2">      0.00000000       0.33333333       0.00000000 </v>
   <v name="genvec3">      0.00000000       0.00000000       1.00000000 </v>
   <v name="shift">      0.00000000       0.00000000       0.00000000 </v>
  </generation>
  <varray name="kpointlist" >
   <v>       0.00000000       0.00000000       0.00000000 </v>
   <v>       0.33333333      -0.00000000       0.00000000 </v>
   <v>       0.00000000       0.33333333       0.00000000 </v>
   <v>       0.33333333       0.33333333       0.00000000 </v>
   <v>      -0.33333333       0.33333333       0.00000000 </v>
  </varray>
  <varray name="weights" >
   <v>       0.11111111 </v>
   <v>       0.22222222 </v>
   <v>       0.22222222 </v>
   <v>       0.22222222 </v>
   <v>       0.22222222 </v>
  </varray>
 </kpoints>
 <parameters>
  <separator name="general" >
   <i type="string" name="SYSTEM">unknown system</i>
   <i type="logical" name="LCOMPAT"> F  </i>
  </separator>
  <separator name="electronic" >
   <i type="string" name="PREC">anorma</i>
   <i name="ENMAX">    600.00000000</i>
   <i name="ENAUG">    644.87300000</i>
   <i name="EDIFF">      0.00000100</i>
   <i type="int" name="IALGO">    38</i>
   <i type="int" name="IWAVPR">    10</i>
   <i type="int" name="NBANDS">   384</i>
   <i name="NELECT">    640.00000000</i>
   <i type="int" name="TURBO">     0</i>
   <i type="int" name="IRESTART">     0</i>
   <i type="int" name="NREBOOT">     0</i>
   <i type="int" name="NMIN">     0</i>
   <i name="EREF">      0.00000000</i>
   <separator name="electronic smearing" >
    <i type="int" name="ISMEAR">     0</i>
    <i name="SIGMA">      0.05000000</i>
    <i name="KSPACING">      0.25000000</i>
    <i type="logical" name="KGAMMA"> T  </i>
   </separator>
   <separator name="electronic projectors" >
    <i type="logical" name="LREAL"> T  </i>
    <v name="ROPT">     -0.00025000     -0.00025000     -0.00025000</v>
    <i type="int" name="LMAXPAW">  -100</i>
    <i type="int" name="LMAXMIX">     2</i>
    <i type="logical" name="NLSPLINE"> F  </i>
   </separator>
   <separator name="electronic startup" >
    <i type="int" name="ISTART">     0</i>
    <i type="int" name="ICHARG">     2</i>
    <i type="int" name="INIWAV">     1</i>
   </separator>
   <separator name="electronic spin" >
    <i type="int" name="ISPIN">     1</i>
    <i type="logical" name="LNONCOLLINEAR"> F  </i>
    <v name="MAGMOM">      1.00000000      1.00000000      1.00000000      1.00000000      1.00000000      1.00000000      1.00000000      1.00000000      1.00000000      1.00000000      1.00000000      1.00000000      1.00000000      1.00000000      1.00000000      1.00000000      1.00000000      1.00000000      1.00000000      1.00000000
      1.00000000      1.00000000      1.00000000      1.00000000      1.00000000      1.00000000      1.00000000      1.00000000      1.00000000      1.00000000      1.00000000      1.00000000      1.00000000      1.00000000      1.00000000      1.00000000      1.00000000      1.00000000      1.00000000      1.00000000
      1.00000000      1.00000000      1.00000000      1.00000000      1.00000000      1.00000000      1.00000000      1.00000000      1.00000000      1.00000000      1.00000000      1.00000000      1.00000000      1.00000000      1.00000000      1.00000000      1.00000000      1.00000000      1.00000000      1.00000000
      1.00000000      1.00000000      1.00000000      1.00000000      1.00000000      1.00000000      1.00000000      1.00000000      1.00000000      1.00000000      1.00000000      1.00000000      1.00000000      1.00000000      1.00000000      1.00000000      1.00000000      1.00000000      1.00000000      1.00000000
</v>
    <i name="NUPDOWN">     -1.00000000</i>
    <i type="logical" name="LSORBIT"> F  </i>
    <v name="SAXIS">      0.00000000      0.00000000      1.00000000</v>
    <i type="logical" name="LSPIRAL"> F  </i>
    <v name="QSPIRAL">      0.00000000      0.00000000      0.00000000</v>
    <i type="logical" name="LZEROZ"> F  </i>
   </separator>
   <separator name="electronic exchange-correlation" >
    <i type="logical" name="LASPH"> F  </i>
    <i type="logical" name="LMETAGGA"> F  </i>
   </separator>
   <separator name="electronic convergence" >
    <i type="int" name="NELM">    60</i>
    <i type="int" name="NELMDL">    -5</i>
    <i type="int" name="NELMIN">     2</i>
    <i name="ENINI">    600.00000000</i>
    <separator name="electronic convergence detail" >
     <i type="logical" name="LDIAG"> T  </i>
     <i type="logical" name="LSUBROT"> F  </i>
     <i name="WEIMIN">      0.00000000</i>
     <i name="EBREAK">      0.00000000</i>
     <i name="DEPER">      0.30000000</i>
     <i type="int" name="NRMM">     4</i>
     <i name="TIME">      0.40000000</i>
    </separator>
   </separator>
   <separator name="electronic mixer" >
    <i name="AMIX">      0.40000000</i>
    <i name="BMIX">      1.00000000</i>
    <i name="AMIN">      0.10000000</i>
    <i name="AMIX_MAG">      1.60000000</i>
    <i name="BMIX_MAG">      1.00000000</i>
    <separator name="electronic mixer details" >
     <i type="int" name="IMIX">     4</i>
     <i type="logical" name="MIXFIRST"> F  </i>
     <i type="int" name="MAXMIX">   -45</i>
     <i name="WC">    100.00000000</i>
     <i type="int" name="INIMIX">     1</i>
     <i type="int" name="MIXPRE">     1</i>
     <i type="int" name="MREMOVE">     5</i>
    </separator>
   </separator>
   <separator name="electronic dipolcorrection" >
    <i type="logical" name="LDIPOL"> F  </i>
    <i type="logical" name="LMONO"> F  </i>
    <i type="int" name="IDIPOL">     0</i>
    <i name="EPSILON">      1.00000000</i>
    <v name="DIPOL">   -100.00000000   -100.00000000   -100.00000000</v>
    <i name="EFIELD">      0.00000000</i>
   </separator>
  </separator>
  <separator name="grids" >
   <i type="int" name="NGX">   108</i>
   <i type="int" name="NGY">   108</i>
   <i type="int" name="NGZ">   216</i>
   <i type="int" name="NGXF">   216</i>
   <i type="int" name="NGYF">   216</i>
   <i type="int" name="NGZF">   432</i>
   <i type="logical" name="ADDGRID"> T  </i>
  </separator>
  <separator name="ionic" >
   <i type="int" name="NSW">     1</i>
   <i type="int" name="IBRION">    -1</i>
   <i type="int" name="MDALGO">     0</i>
   <i type="int" name="ISIF">     2</i>
   <i name="PSTRESS">      0.00000000</i>
   <i name="EDIFFG">     -0.01000000</i>
   <i type="int" name="NFREE">     0</i>
   <i name="POTIM">      1.00000000</i>
   <i name="SMASS">     -3.00000000</i>
   <i name="SCALEE">      1.00000000</i>
  </separator>
  <separator name="ionic md" >
   <i name="TEBEG">      0.00010000</i>
   <i name="TEEND">      0.00010000</i>
   <i type="int" name="NBLOCK">     1</i>
   <i type="int" name="KBLOCK">     1</i>
   <i type="int" name="NPACO">   256</i>
   <i name="APACO">     16.00000000</i>
  </separator>
  <separator name="symmetry" >
   <i type="int" name="ISYM">     2</i>
   <i name="SYMPREC">      0.00001000</i>
  </separator>
  <separator name="dos" >
   <i type="int" name="LORBIT">     0</i>
   <v name="RWIGS">     -1.00000000     -1.00000000     -1.00000000</v>
   <i type="int" name="NEDOS">   301</i>
   <i name="EMIN">     10.00000000</i>
   <i name="EMAX">    -10.00000000</i>
   <i name="EFERMI">      0.00000000</i>
  </separator>
  <separator name="writing" >
   <i type="int" name="NWRITE">     2</i>
   <i type="logical" name="LWAVE"> F  </i>
   <i type="logical" name="LDOWNSAMPLE"> F  </i>
   <i type="logical" name="LCHARG"> F  </i>
   <i type="logical" name="LPARD"> F  </i>
   <i type="logical" name="LVTOT"> F  </i>
   <i type="logical" name="LVHAR"> F  </i>
   <i type="logical" name="LELF"> F  </i>
   <i type="logical" name="LOPTICS"> F  </i>
   <v name="STM">      0.00000000      0.00000000      0.00000000      0.00000000      0.00000000      0.00000000      0.00000000</v>
  </separator>
  <separator name="performance" >
   <i type="int" name="NPAR">     4</i>
   <i type="int" name="NSIM">     4</i>
   <i type="int" name="NBLK">    -1</i>
   <i type="logical" name="LPLANE"> T  </i>
   <i type="logical" name="LSCALAPACK"> F  </i>
   <i type="logical" name="LSCAAWARE"> F  </i>
   <i type="logical" name="LSCALU"> F  </i>
   <i type="logical" name="LASYNC"> F  </i>
   <i type="logical" name="LORBITALREAL"> F  </i>
  </separator>
  <separator name="miscellaneous" >
   <i type="int" name="IDIOT">     3</i>
   <i type="int" name="ISPECIAL">     0</i>
   <i type="logical" name="LMUSIC"> F  </i>
   <v name="POMASS">     44.95600000     18.99800000     12.01100000</v>
   <v name="DARWINR">      0.00000000      0.00000000      0.00000000</v>
   <v name="DARWINV">      1.00000000      1.00000000      1.00000000</v>
   <i type="logical" name="LCORR"> T  </i>
  </separator>
  <i type="logical" name="GGA_COMPAT"> T  </i>
  <i type="logical" name="LBERRY"> F  </i>
  <i type="int" name="ICORELEVEL">     0</i>
  <i type="logical" name="LDAU"> F  </i>
  <i type="int" name="I_CONSTRAINED_M">     0</i>
  <separator name="electronic exchange-correlation" >
   <i type="string" name="GGA">--</i>
   <i type="int" name="VOSKOWN">     0</i>
   <i type="logical" name="LHFCALC"> F  </i>
   <i type="string" name="PRECFOCK"></i>
   <i type="logical" name="LSYMGRAD"> F  </i>
   <i type="logical" name="LHFONE"> F  </i>
   <i type="logical" name="LRHFCALC"> F  </i>
   <i type="logical" name="LTHOMAS"> F  </i>
   <i type="logical" name="LMODELHF"> F  </i>
   <i name="ENCUT4O">     -1.00000000</i>
   <i type="int" name="EXXOEP">     0</i>
   <i type="int" name="FOURORBIT">     0</i>
   <i name="AEXX">      0.00000000</i>
   <i name="HFALPHA">      0.00000000</i>
   <i name="MCALPHA">      0.00000000</i>
   <i name="ALDAX">      1.00000000</i>
   <i name="AGGAX">      1.00000000</i>
   <i name="ALDAC">      1.00000000</i>
   <i name="AGGAC">      1.00000000</i>
   <i type="int" name="NKREDX">     1</i>
   <i type="int" name="NKREDY">     1</i>
   <i type="int" name="NKREDZ">     1</i>
   <i type="logical" name="SHIFTRED"> F  </i>
   <i type="logical" name="ODDONLY"> F  </i>
   <i type="logical" name="EVENONLY"> F  </i>
   <i type="int" name="LMAXFOCK">     0</i>
   <i type="int" name="NMAXFOCKAE">     0</i>
   <i type="logical" name="LFOCKAEDFT"> F  </i>
   <i name="HFSCREEN">      0.00000000</i>
   <i name="HFSCREENC">      0.00000000</i>
   <i type="int" name="NBANDSGWLOW">     0</i>
  </separator>
  <separator name="vdW DFT" >
   <i type="logical" name="LUSE_VDW"> F  </i>
   <i name="Zab_VDW">     -0.84910000</i>
   <i name="PARAM1">      0.12340000</i>
   <i name="PARAM2">      1.00000000</i>
   <i name="PARAM3">      0.00000000</i>
  </separator>
  <separator name="model GW" >
   <i type="int" name="MODEL_GW">     0</i>
   <i name="MODEL_EPS0">     30.03447877</i>
   <i name="MODEL_ALPHA">      1.00000000</i>
  </separator>
  <separator name="linear response parameters" >
   <i type="logical" name="LEPSILON"> F  </i>
   <i type="logical" name="LRPA"> F  </i>
   <i type="logical" name="LNABLA"> F  </i>
   <i type="logical" name="LVEL"> F  </i>
   <i type="int" name="KINTER">     0</i>
   <i name="CSHIFT">      0.10000000</i>
   <i name="OMEGAMAX">     -1.00000000</i>
   <i name="DEG_THRESHOLD">      0.00200000</i>
   <i name="RTIME">     -0.10000000</i>
   <i name="WPLASMAI">      0.00000000</i>
   <v name="DFIELD">      0.00000000      0.00000000      0.00000000</v>
   <v name="WPLASMA">      0.00000000      0.00000000      0.00000000      0.00000000      0.00000000      0.00000000      0.00000000      0.00000000      0.00000000</v>
  </separator>
  <separator name="orbital magnetization" >
   <i type="logical" name="NUCIND"> F  </i>
   <v name="MAGPOS">      0.00000000      0.00000000      0.00000000</v>
   <i type="logical" name="LNICSALL"> T  </i>
   <i type="logical" name="ORBITALMAG"> F  </i>
   <i type="logical" name="LMAGBLOCH"> F  </i>
   <i type="logical" name="LCHIMAG"> F  </i>
   <i type="logical" name="LGAUGE"> T  </i>
   <i type="int" name="MAGATOM">     0</i>
   <v name="MAGDIPOL">      0.00000000      0.00000000      0.00000000</v>
   <v name="AVECCONST">      0.00000000      0.00000000      0.00000000</v>
  </separator>
  <separator name="response functions" >
   <i type="logical" name="LADDER"> F  </i>
   <i type="logical" name="LRPAFORCE"> F  </i>
   <i type="logical" name="LFXC"> F  </i>
   <i type="logical" name="LHARTREE"> T  </i>
   <i type="int" name="IBSE">     0</i>
   <v type="int" name="KPOINT">    -1     0     0     0</v>
   <i type="logical" name="LTCTE"> F  </i>
   <i type="logical" name="LTETE"> F  </i>
   <i type="logical" name="LTRIPLET"> F  </i>
   <i type="logical" name="LFXCEPS"> F  </i>
   <i type="logical" name="LFXHEG"> F  </i>
   <i type="int" name="NATURALO">     2</i>
   <i type="logical" name="L2ORDER"> F  </i>
   <i type="logical" name="LMP2LT"> F  </i>
   <i type="logical" name="LUSEW"> F  </i>
   <i name="ENCUTGW">     -2.00000000</i>
   <i name="ENCUTGWSOFT">     -2.00000000</i>
   <i name="ENCUTLF">     -1.00000000</i>
   <i type="int" name="LMAXMP2">    -1</i>
   <i name="SCISSOR">      0.00000000</i>
   <i type="int" name="NOMEGA">     0</i>
   <i type="int" name="NOMEGAR">     0</i>
   <i type="int" name="NBANDSGW">    -1</i>
   <i type="int" name="NBANDSO">    -1</i>
   <i type="int" name="NBANDSV">    -1</i>
   <i type="int" name="NELM">     1</i>
   <i type="int" name="NELMHF">     1</i>
   <i type="int" name="DIM">     3</i>
   <i type="int" name="ANTIRES">     0</i>
   <i name="OMEGAMAX">    -30.00000000</i>
   <i name="OMEGAMIN">    -30.00000000</i>
   <i name="OMEGATL">   -200.00000000</i>
   <i type="int" name="OMEGAGRID">   140</i>
   <i name="CSHIFT">     -0.10000000</i>
   <i type="logical" name="SELFENERGY"> F  </i>
   <i type="logical" name="LSPECTRAL"> F  </i>
   <i type="logical" name="LSPECTRALGW"> F  </i>
   <i type="logical" name="LSINGLES"> F  </i>
   <i type="logical" name="LFERMIGW"> F  </i>
   <i type="logical" name="ODDONLYGW"> F  </i>
   <i type="logical" name="EVENONLYGW"> F  </i>
   <i type="int" name="NKREDLFX">     1</i>
   <i type="int" name="NKREDLFY">     1</i>
   <i type="int" name="NKREDLFZ">     1</i>
   <i type="int" name="MAXMEM">  2800</i>
   <i type="int" name="TELESCOPE">     0</i>
   <i type="int" name="TAUPAR">     1</i>
   <i type="int" name="OMEGAPAR">    -1</i>
   <i name="LAMBDA">      1.00000000</i>
  </separator>
  <separator name="External order field" >
   <i name="OFIELD_KAPPA">      0.00000000</i>
   <v name="OFIELD_K">      0.00000000      0.00000000      0.00000000</v>
   <i name="OFIELD_Q6_NEAR">      0.00000000</i>
   <i name="OFIELD_Q6_FAR">      0.00000000</i>
   <i name="OFIELD_A">      0.00000000</i>
  </separator>
 </parameters>
 <atominfo>
  <atoms>      80 </atoms>
  <types>       3 </types>
  <array name="atoms" >
   <dimension dim="1">ion</dimension>
   <field type="string">element</field>
   <field type="int">atomtype</field>
   <set>
    <rc><c>Sc</c><c>   1</c></rc>
    <rc><c>Sc</c><c>   1</c></rc>
    <rc><c>Sc</c><c>   1</c></rc>
    <rc><c>Sc</c><c>   1</c></rc>
    <rc><c>Sc</c><c>   1</c></rc>
    <rc><c>Sc</c><c>   1</c></rc>
    <rc><c>Sc</c><c>   1</c></rc>
    <rc><c>Sc</c><c>   1</c></rc>
    <rc><c>Sc</c><c>   1</c></rc>
    <rc><c>Sc</c><c>   1</c></rc>
    <rc><c>Sc</c><c>   1</c></rc>
    <rc><c>Sc</c><c>   1</c></rc>
    <rc><c>Sc</c><c>   1</c></rc>
    <rc><c>Sc</c><c>   1</c></rc>
    <rc><c>Sc</c><c>   1</c></rc>
    <rc><c>Sc</c><c>   1</c></rc>
    <rc><c>Sc</c><c>   1</c></rc>
    <rc><c>Sc</c><c>   1</c></rc>
    <rc><c>Sc</c><c>   1</c></rc>
    <rc><c>Sc</c><c>   1</c></rc>
    <rc><c>Sc</c><c>   1</c></rc>
    <rc><c>Sc</c><c>   1</c></rc>
    <rc><c>Sc</c><c>   1</c></rc>
    <rc><c>Sc</c><c>   1</c></rc>
    <rc><c>Sc</c><c>   1</c></rc>
    <rc><c>Sc</c><c>   1</c></rc>
    <rc><c>Sc</c><c>   1</c></rc>
    <rc><c>Sc</c><c>   1</c></rc>
    <rc><c>Sc</c><c>   1</c></rc>
    <rc><c>Sc</c><c>   1</c></rc>
    <rc><c>Sc</c><c>   1</c></rc>
    <rc><c>Sc</c><c>   1</c></rc>
    <rc><c>F </c><c>   2</c></rc>
    <rc><c>F </c><c>   2</c></rc>
    <rc><c>F </c><c>   2</c></rc>
    <rc><c>F </c><c>   2</c></rc>
    <rc><c>F </c><c>   2</c></rc>
    <rc><c>F </c><c>   2</c></rc>
    <rc><c>F </c><c>   2</c></rc>
    <rc><c>F </c><c>   2</c></rc>
    <rc><c>F </c><c>   2</c></rc>
    <rc><c>F </c><c>   2</c></rc>
    <rc><c>F </c><c>   2</c></rc>
    <rc><c>F </c><c>   2</c></rc>
    <rc><c>F </c><c>   2</c></rc>
    <rc><c>F </c><c>   2</c></rc>
    <rc><c>F </c><c>   2</c></rc>
    <rc><c>F </c><c>   2</c></rc>
    <rc><c>F </c><c>   2</c></rc>
    <rc><c>F </c><c>   2</c></rc>
    <rc><c>F </c><c>   2</c></rc>
    <rc><c>F </c><c>   2</c></rc>
    <rc><c>F </c><c>   2</c></rc>
    <rc><c>F </c><c>   2</c></rc>
    <rc><c>F </c><c>   2</c></rc>
    <rc><c>F </c><c>   2</c></rc>
    <rc><c>F </c><c>   2</c></rc>
    <rc><c>F </c><c>   2</c></rc>
    <rc><c>F </c><c>   2</c></rc>
    <rc><c>F </c><c>   2</c></rc>
    <rc><c>F </c><c>   2</c></rc>
    <rc><c>F </c><c>   2</c></rc>
    <rc><c>F </c><c>   2</c></rc>
    <rc><c>F </c><c>   2</c></rc>
    <rc><c>C </c><c>   3</c></rc>
    <rc><c>C </c><c>   3</c></rc>
    <rc><c>C </c><c>   3</c></rc>
    <rc><c>C </c><c>   3</c></rc>
    <rc><c>C </c><c>   3</c></rc>
    <rc><c>C </c><c>   3</c></rc>
    <rc><c>C </c><c>   3</c></rc>
    <rc><c>C </c><c>   3</c></rc>
    <rc><c>C </c><c>   3</c></rc>
    <rc><c>C </c><c>   3</c></rc>
    <rc><c>C </c><c>   3</c></rc>
    <rc><c>C </c><c>   3</c></rc>
    <rc><c>C </c><c>   3</c></rc>
    <rc><c>C </c><c>   3</c></rc>
    <rc><c>C </c><c>   3</c></rc>
    <rc><c>C </c><c>   3</c></rc>
   </set>
  </array>
  <array name="atomtypes" >
   <dimension dim="1">type</dimension>
   <field type="int">atomspertype</field>
   <field type="string">element</field>
   <field>mass</field>
   <field>valence</field>
   <field type="string">pseudopotential</field>
   <set>
    <rc><c>  32</c><c>Sc</c><c>     44.95600000</c><c>     11.00000000</c><c>  PAW_PBE Sc_sv 07Sep2000               </c></rc>
    <rc><c>  32</c><c>F </c><c>     18.99800000</c><c>      7.00000000</c><c>  PAW_PBE F 08Apr2002                   </c></rc>
    <rc><c>  16</c><c>C </c><c>     12.01100000</c><c>      4.00000000</c><c>  PAW_PBE C 08Apr2002                   </c></rc>
   </set>
  </array>
 </atominfo>
 <structure name="initialpos" >
  <crystal>
   <varray name="basis" >
    <v>      13.12862340       0.00000000       0.00000000 </v>
    <v>      -6.56431170      11.36972138       0.00000000 </v>
    <v>       0.00000000       0.00000000      26.82809424 </v>
   </varray>
   <i name="volume">   4004.59716953 </i>
   <varray name="rec_basis" >
    <v>       0.07616945       0.04397645       0.00000000 </v>
    <v>       0.00000000       0.08795290       0.00000000 </v>
    <v>       0.00000000       0.00000000       0.03727436 </v>
   </varray>
  </crystal>
  <varray name="positions" >
   <v>       0.09018817       0.15929680       0.45481941 </v>
   <v>       0.08123872       0.41828527       0.45581742 </v>
   <v>       0.08139754       0.66104893       0.45437914 </v>
   <v>       0.08321290       0.91531000       0.45273023 </v>
   <v>       0.33769758       0.17798252       0.45296187 </v>
   <v>       0.33160429       0.41555602       0.45174967 </v>
   <v>       0.33546893       0.66357881       0.44713050 </v>
   <v>       0.34191904       0.92118825       0.45286501 </v>
   <v>       0.57919197       0.16376065       0.45402375 </v>
   <v>       0.58920713       0.41937274       0.45580541 </v>
   <v>       0.58278682       0.66040639       0.45345619 </v>
   <v>       0.58493239       0.92299553       0.45204115 </v>
   <v>       0.83032533       0.16751535       0.44929373 </v>
   <v>       0.83740376       0.41692788       0.45618998 </v>
   <v>       0.83872213       0.67772831       0.44788141 </v>
   <v>       0.83705205       0.92179434       0.45102929 </v>
   <v>       0.17069987       0.08760002       0.55153788 </v>
   <v>       0.15978928       0.34287318       0.54830835 </v>
   <v>       0.18226641       0.59926568       0.54694673 </v>
   <v>       0.15454179       0.82825537       0.54543383 </v>
   <v>       0.40651055       0.07009491       0.54834021 </v>
   <v>       0.40878179       0.33475035       0.54591147 </v>
   <v>       0.41796411       0.58927153       0.54187725 </v>
   <v>       0.41574063       0.82933443       0.54534608 </v>
   <v>       0.65600643       0.07602041       0.54746447 </v>
   <v>       0.66500149       0.33893061       0.54506665 </v>
   <v>       0.67137732       0.59295763       0.54886457 </v>
   <v>       0.66587663       0.83287851       0.54398202 </v>
   <v>       0.91973213       0.08167830       0.54837314 </v>
   <v>       0.90113617       0.32382153       0.55027693 </v>
   <v>       0.91658304       0.57646233       0.55198027 </v>
   <v>       0.90408083       0.82783981       0.54367411 </v>
   <v>       0.08531694       0.16480128       0.59554205 </v>
   <v>       0.07586621       0.42156600       0.59500365 </v>
   <v>       0.08072891       0.66938435       0.58831504 </v>
   <v>       0.07746666       0.90859493       0.59005273 </v>
   <v>       0.33105466       0.15872784       0.59378682 </v>
   <v>       0.32759558       0.42587885       0.58661292 </v>
   <v>       0.33339386       0.65906320       0.58904644 </v>
   <v>       0.33078631       0.90333163       0.58619640 </v>
   <v>       0.57440204       0.15412850       0.59447979 </v>
   <v>       0.59153703       0.42696053       0.59040655 </v>
   <v>       0.58324695       0.66514399       0.58729488 </v>
   <v>       0.58779727       0.89593194       0.59240075 </v>
   <v>       0.82432484       0.14942739       0.59317991 </v>
   <v>       0.83458994       0.41660660       0.59218002 </v>
   <v>       0.83384003       0.67070054       0.58783889 </v>
   <v>       0.83909348       0.91337785       0.58993291 </v>
   <v>       0.16965655       0.08161041       0.41364471 </v>
   <v>       0.16611395       0.32734096       0.41607668 </v>
   <v>       0.16950926       0.57929333       0.41203183 </v>
   <v>       0.18014193       0.84209511       0.41238140 </v>
   <v>       0.40968954       0.07819060       0.41193504 </v>
   <v>       0.40648619       0.34487017       0.40628115 </v>
   <v>       0.42389177       0.58658998       0.40577101 </v>
   <v>       0.41873935       0.83393357       0.41107574 </v>
   <v>       0.66393845       0.07832221       0.40816748 </v>
   <v>       0.66659892       0.33344088       0.41428154 </v>
   <v>       0.67256783       0.58660526       0.41032719 </v>
   <v>       0.67367917       0.84267175       0.40851869 </v>
   <v>       0.92582790       0.09241373       0.40900249 </v>
   <v>       0.92152726       0.33076929       0.40540053 </v>
   <v>       0.91021689       0.58262730       0.40560160 </v>
   <v>       0.93317668       0.83544818       0.40669049 </v>
   <v>       0.01200059       0.00472957       0.50139098 </v>
   <v>       0.99808747       0.24852233       0.50196897 </v>
   <v>       0.00244132       0.50119061       0.50021701 </v>
   <v>       0.99379209       0.74616187       0.50071242 </v>
   <v>       0.25988594       0.00414212       0.49890732 </v>
   <v>       0.25288660       0.24761421       0.50226093 </v>
   <v>       0.24977926       0.50351842       0.50240254 </v>
   <v>       0.24903175       0.74463376       0.49616434 </v>
   <v>       0.50239370       0.99606885       0.50212626 </v>
   <v>       0.50120018       0.25994667       0.49861700 </v>
   <v>       0.50092258       0.49955874       0.49915933 </v>
   <v>       0.50400882       0.74962609       0.49796637 </v>
   <v>       0.76370487       0.00528096       0.50087539 </v>
   <v>       0.74869476       0.24886567       0.50006027 </v>
   <v>       0.75415230       0.50016439       0.50297078 </v>
   <v>       0.75165665       0.74815705       0.49586467 </v>
  </varray>
  <varray name="velocities" >
   <v>       0.00000000       0.00000000       0.00000000 </v>
   <v>       0.00000000       0.00000000       0.00000000 </v>
   <v>       0.00000000       0.00000000       0.00000000 </v>
   <v>       0.00000000       0.00000000       0.00000000 </v>
   <v>       0.00000000       0.00000000       0.00000000 </v>
   <v>       0.00000000       0.00000000       0.00000000 </v>
   <v>       0.00000000       0.00000000       0.00000000 </v>
   <v>       0.00000000       0.00000000       0.00000000 </v>
   <v>       0.00000000       0.00000000       0.00000000 </v>
   <v>       0.00000000       0.00000000       0.00000000 </v>
   <v>       0.00000000       0.00000000       0.00000000 </v>
   <v>       0.00000000       0.00000000       0.00000000 </v>
   <v>       0.00000000       0.00000000       0.00000000 </v>
   <v>       0.00000000       0.00000000       0.00000000 </v>
   <v>       0.00000000       0.00000000       0.00000000 </v>
   <v>       0.00000000       0.00000000       0.00000000 </v>
   <v>       0.00000000       0.00000000       0.00000000 </v>
   <v>       0.00000000       0.00000000       0.00000000 </v>
   <v>       0.00000000       0.00000000       0.00000000 </v>
   <v>       0.00000000       0.00000000       0.00000000 </v>
   <v>       0.00000000       0.00000000       0.00000000 </v>
   <v>       0.00000000       0.00000000       0.00000000 </v>
   <v>       0.00000000       0.00000000       0.00000000 </v>
   <v>       0.00000000       0.00000000       0.00000000 </v>
   <v>       0.00000000       0.00000000       0.00000000 </v>
   <v>       0.00000000       0.00000000       0.00000000 </v>
   <v>       0.00000000       0.00000000       0.00000000 </v>
   <v>       0.00000000       0.00000000       0.00000000 </v>
   <v>       0.00000000       0.00000000       0.00000000 </v>
   <v>       0.00000000       0.00000000       0.00000000 </v>
   <v>       0.00000000       0.00000000       0.00000000 </v>
   <v>       0.00000000       0.00000000       0.00000000 </v>
   <v>       0.00000000       0.00000000       0.00000000 </v>
   <v>       0.00000000       0.00000000       0.00000000 </v>
   <v>       0.00000000       0.00000000       0.00000000 </v>
   <v>       0.00000000       0.00000000       0.00000000 </v>
   <v>       0.00000000       0.00000000       0.00000000 </v>
   <v>       0.00000000       0.00000000       0.00000000 </v>
   <v>       0.00000000       0.00000000       0.00000000 </v>
   <v>       0.00000000       0.00000000       0.00000000 </v>
   <v>       0.00000000       0.00000000       0.00000000 </v>
   <v>       0.00000000       0.00000000       0.00000000 </v>
   <v>       0.00000000       0.00000000       0.00000000 </v>
   <v>       0.00000000       0.00000000       0.00000000 </v>
   <v>       0.00000000       0.00000000       0.00000000 </v>
   <v>       0.00000000       0.00000000       0.00000000 </v>
   <v>       0.00000000       0.00000000       0.00000000 </v>
   <v>       0.00000000       0.00000000       0.00000000 </v>
   <v>       0.00000000       0.00000000       0.00000000 </v>
   <v>       0.00000000       0.00000000       0.00000000 </v>
   <v>       0.00000000       0.00000000       0.00000000 </v>
   <v>       0.00000000       0.00000000       0.00000000 </v>
   <v>       0.00000000       0.00000000       0.00000000 </v>
   <v>       0.00000000       0.00000000       0.00000000 </v>
   <v>       0.00000000       0.00000000       0.00000000 </v>
   <v>       0.00000000       0.00000000       0.00000000 </v>
   <v>       0.00000000       0.00000000       0.00000000 </v>
   <v>       0.00000000       0.00000000       0.00000000 </v>
   <v>       0.00000000       0.00000000       0.00000000 </v>
   <v>       0.00000000       0.00000000       0.00000000 </v>
   <v>       0.00000000       0.00000000       0.00000000 </v>
   <v>       0.00000000       0.00000000       0.00000000 </v>
   <v>       0.00000000       0.00000000       0.00000000 </v>
   <v>       0.00000000       0.00000000       0.00000000 </v>
   <v>       0.00000000       0.00000000       0.00000000 </v>
   <v>       0.00000000       0.00000000       0.00000000 </v>
   <v>       0.00000000       0.00000000       0.00000000 </v>
   <v>       0.00000000       0.00000000       0.00000000 </v>
   <v>       0.00000000       0.00000000       0.00000000 </v>
   <v>       0.00000000       0.00000000       0.00000000 </v>
   <v>       0.00000000       0.00000000       0.00000000 </v>
   <v>       0.00000000       0.00000000       0.00000000 </v>
   <v>       0.00000000       0.00000000       0.00000000 </v>
   <v>       0.00000000       0.00000000       0.00000000 </v>
   <v>       0.00000000       0.00000000       0.00000000 </v>
   <v>       0.00000000       0.00000000       0.00000000 </v>
   <v>       0.00000000       0.00000000       0.00000000 </v>
   <v>       0.00000000       0.00000000       0.00000000 </v>
   <v>       0.00000000       0.00000000       0.00000000 </v>
   <v>       0.00000000       0.00000000       0.00000000 </v>
  </varray>
 </structure>
 <calculation>
  <scstep>
   <time name="dav">   46.57   46.58</time>
   <time name="total">   47.39   47.41</time>
   <energy>
    <i name="alphaZ">    871.83850952 </i>
    <i name="ewald"> 287473.31787239 </i>
    <i name="hartreedc">-341810.82245573 </i>
    <i name="XCdc">   3043.69435166 </i>
    <i name="pawpsdc">  50525.51240023 </i>
    <i name="pawaedc"> -50422.77561733 </i>
    <i name="eentropy">     -0.06622297 </i>
    <i name="bandstr">   -233.88529800 </i>
    <i name="atom">  64207.43592568 </i>
    <i name="e_fr_energy">  13654.24946545 </i>
    <i name="e_wo_entrp">  13654.31568842 </i>
    <i name="e_0_energy">  13654.28257694 </i>
   </energy>
  </scstep>
  <scstep>
   <time name="dav">   49.96   49.97</time>
   <time name="total">   49.96   49.97</time>
   <energy>
    <i name="e_fr_energy">   2482.96220802 </i>
    <i name="e_wo_entrp">   2483.00865299 </i>
    <i name="e_0_energy">   2482.98543050 </i>
   </energy>
  </scstep>
  <scstep>
   <time name="dav">   68.63   68.63</time>
   <time name="total">   68.63   68.63</time>
   <energy>
    <i name="e_fr_energy">   -381.98748163 </i>
    <i name="e_wo_entrp">   -381.98748163 </i>
    <i name="e_0_energy">   -381.98748163 </i>
   </energy>
  </scstep>
  <scstep>
   <time name="dav">   62.35   62.36</time>
   <time name="total">   62.35   62.36</time>
   <energy>
    <i name="e_fr_energy">   -739.96985634 </i>
    <i name="e_wo_entrp">   -739.96985634 </i>
    <i name="e_0_energy">   -739.96985634 </i>
   </energy>
  </scstep>
  <scstep>
   <time name="dav">   62.65   62.66</time>
   <time name="total">   66.29   66.30</time>
   <energy>
    <i name="e_fr_energy">   -754.41082219 </i>
    <i name="e_wo_entrp">   -754.41082219 </i>
    <i name="e_0_energy">   -754.41082219 </i>
   </energy>
  </scstep>
  <scstep>
   <time name="dav">   59.83   59.83</time>
   <time name="total">   64.40   64.44</time>
   <energy>
    <i name="e_fr_energy">   -598.86809408 </i>
    <i name="e_wo_entrp">   -598.86809408 </i>
    <i name="e_0_energy">   -598.86809408 </i>
   </energy>
  </scstep>
  <scstep>
   <time name="dav">   61.73   61.73</time>
   <time name="total">   66.23   66.24</time>
   <energy>
    <i name="e_fr_energy">   -598.93312240 </i>
    <i name="e_wo_entrp">   -598.93312240 </i>
    <i name="e_0_energy">   -598.93312240 </i>
   </energy>
  </scstep>
  <scstep>
   <time name="dav">   57.80   57.80</time>
   <time name="total">   62.30   62.31</time>
   <energy>
    <i name="e_fr_energy">   -597.38579842 </i>
    <i name="e_wo_entrp">   -597.38579842 </i>
    <i name="e_0_energy">   -597.38579842 </i>
   </energy>
  </scstep>
  <scstep>
   <time name="dav">   57.22   57.23</time>
   <time name="total">   61.67   61.69</time>
   <energy>
    <i name="e_fr_energy">   -596.87380601 </i>
    <i name="e_wo_entrp">   -596.87380601 </i>
    <i name="e_0_energy">   -596.87380601 </i>
   </energy>
  </scstep>
  <scstep>
   <time name="dav">   60.19   60.20</time>
   <time name="total">   64.64   64.66</time>
   <energy>
    <i name="e_fr_energy">   -596.83560530 </i>
    <i name="e_wo_entrp">   -596.83560530 </i>
    <i name="e_0_energy">   -596.83560530 </i>
   </energy>
  </scstep>
  <scstep>
   <time name="dav">   58.10   58.11</time>
   <time name="total">   62.57   62.59</time>
   <energy>
    <i name="e_fr_energy">   -596.70796825 </i>
    <i name="e_wo_entrp">   -596.70796825 </i>
    <i name="e_0_energy">   -596.70796825 </i>
   </energy>
  </scstep>
  <scstep>
   <time name="dav">   62.77   62.77</time>
   <time name="total">   67.23   67.25</time>
   <energy>
    <i name="e_fr_energy">   -596.68592417 </i>
    <i name="e_wo_entrp">   -596.68592417 </i>
    <i name="e_0_energy">   -596.68592417 </i>
   </energy>
  </scstep>
  <scstep>
   <time name="dav">   59.81   59.81</time>
   <time name="total">   64.24   64.25</time>
   <energy>
    <i name="e_fr_energy">   -596.67683346 </i>
    <i name="e_wo_entrp">   -596.67683346 </i>
    <i name="e_0_energy">   -596.67683346 </i>
   </energy>
  </scstep>
  <scstep>
   <time name="dav">   59.23   59.23</time>
   <time name="total">   63.67   63.68</time>
   <energy>
    <i name="e_fr_energy">   -596.67396539 </i>
    <i name="e_wo_entrp">   -596.67396539 </i>
    <i name="e_0_energy">   -596.67396539 </i>
   </energy>
  </scstep>
  <scstep>
   <time name="dav">   60.14   60.14</time>
   <time name="total">   64.64   64.66</time>
   <energy>
    <i name="e_fr_energy">   -596.67969868 </i>
    <i name="e_wo_entrp">   -596.67969868 </i>
    <i name="e_0_energy">   -596.67969868 </i>
   </energy>
  </scstep>
  <scstep>
   <time name="dav">   56.65   56.65</time>
   <time name="total">   61.17   61.19</time>
   <energy>
    <i name="e_fr_energy">   -596.68339022 </i>
    <i name="e_wo_entrp">   -596.68339022 </i>
    <i name="e_0_energy">   -596.68339022 </i>
   </energy>
  </scstep>
  <scstep>
   <time name="dav">   59.82   59.82</time>
   <time name="total">   64.34   64.35</time>
   <energy>
    <i name="e_fr_energy">   -596.68877215 </i>
    <i name="e_wo_entrp">   -596.68877215 </i>
    <i name="e_0_energy">   -596.68877215 </i>
   </energy>
  </scstep>
  <scstep>
   <time name="dav">   57.00   57.00</time>
   <time name="total">   61.44   61.45</time>
   <energy>
    <i name="e_fr_energy">   -596.69184952 </i>
    <i name="e_wo_entrp">   -596.69184952 </i>
    <i name="e_0_energy">   -596.69184952 </i>
   </energy>
  </scstep>
  <scstep>
   <time name="dav">   59.66   59.66</time>
   <time name="total">   64.16   64.18</time>
   <energy>
    <i name="e_fr_energy">   -596.69345763 </i>
    <i name="e_wo_entrp">   -596.69345763 </i>
    <i name="e_0_energy">   -596.69345763 </i>
   </energy>
  </scstep>
  <scstep>
   <time name="dav">   57.64   57.65</time>
   <time name="total">   62.07   62.08</time>
   <energy>
    <i name="e_fr_energy">   -596.69630089 </i>
    <i name="e_wo_entrp">   -596.69630089 </i>
    <i name="e_0_energy">   -596.69630089 </i>
   </energy>
  </scstep>
  <scstep>
   <time name="dav">   49.88   49.89</time>
   <time name="total">   54.40   54.42</time>
   <energy>
    <i name="e_fr_energy">   -596.69873401 </i>
    <i name="e_wo_entrp">   -596.69873401 </i>
    <i name="e_0_energy">   -596.69873401 </i>
   </energy>
  </scstep>
  <scstep>
   <time name="dav">   51.64   51.64</time>
   <time name="total">   56.04   56.04</time>
   <energy>
    <i name="e_fr_energy">   -596.69975911 </i>
    <i name="e_wo_entrp">   -596.69975911 </i>
    <i name="e_0_energy">   -596.69975911 </i>
   </energy>
  </scstep>
  <scstep>
   <time name="dav">   51.02   51.02</time>
   <time name="total">   55.45   55.47</time>
   <energy>
    <i name="e_fr_energy">   -596.70021672 </i>
    <i name="e_wo_entrp">   -596.70021672 </i>
    <i name="e_0_energy">   -596.70021672 </i>
   </energy>
  </scstep>
  <scstep>
   <time name="dav">   48.89   48.89</time>
   <time name="total">   53.32   53.33</time>
   <energy>
    <i name="e_fr_energy">   -596.70054415 </i>
    <i name="e_wo_entrp">   -596.70054415 </i>
    <i name="e_0_energy">   -596.70054415 </i>
   </energy>
  </scstep>
  <scstep>
   <time name="dav">   45.71   45.72</time>
   <time name="total">   50.18   50.19</time>
   <energy>
    <i name="e_fr_energy">   -596.70073784 </i>
    <i name="e_wo_entrp">   -596.70073784 </i>
    <i name="e_0_energy">   -596.70073784 </i>
   </energy>
  </scstep>
  <scstep>
   <time name="dav">   38.85   38.85</time>
   <time name="total">   43.27   43.27</time>
   <energy>
    <i name="e_fr_energy">   -596.70083464 </i>
    <i name="e_wo_entrp">   -596.70083464 </i>
    <i name="e_0_energy">   -596.70083464 </i>
   </energy>
  </scstep>
  <scstep>
   <time name="dav">   33.51   33.51</time>
   <time name="total">   37.92   37.93</time>
   <energy>
    <i name="e_fr_energy">   -596.70086132 </i>
    <i name="e_wo_entrp">   -596.70086132 </i>
    <i name="e_0_energy">   -596.70086132 </i>
   </energy>
  </scstep>
  <scstep>
   <time name="dav">   34.60   34.60</time>
   <time name="total">   39.08   39.09</time>
   <energy>
    <i name="e_fr_energy">   -596.70088462 </i>
    <i name="e_wo_entrp">   -596.70088462 </i>
    <i name="e_0_energy">   -596.70088462 </i>
   </energy>
  </scstep>
  <scstep>
   <time name="dav">   32.98   32.98</time>
   <time name="total">   37.44   37.45</time>
   <energy>
    <i name="e_fr_energy">   -596.70089190 </i>
    <i name="e_wo_entrp">   -596.70089190 </i>
    <i name="e_0_energy">   -596.70089190 </i>
   </energy>
  </scstep>
  <scstep>
   <time name="dav">   33.31   33.32</time>
   <time name="total">   37.77   37.78</time>
   <energy>
    <i name="e_fr_energy">   -596.70089896 </i>
    <i name="e_wo_entrp">   -596.70089896 </i>
    <i name="e_0_energy">   -596.70089896 </i>
   </energy>
  </scstep>
  <scstep>
   <time name="dav">   32.94   32.94</time>
   <time name="total">   37.36   37.37</time>
   <energy>
    <i name="e_fr_energy">   -596.70090314 </i>
    <i name="e_wo_entrp">   -596.70090314 </i>
    <i name="e_0_energy">   -596.70090314 </i>
   </energy>
  </scstep>
  <scstep>
   <time name="dav">   32.75   32.76</time>
   <time name="total">   37.21   37.22</time>
   <energy>
    <i name="e_fr_energy">   -596.70090501 </i>
    <i name="e_wo_entrp">   -596.70090501 </i>
    <i name="e_0_energy">   -596.70090501 </i>
   </energy>
  </scstep>
  <scstep>
   <time name="dav">   32.27   32.28</time>
   <time name="total">   33.06   33.08</time>
   <energy>
    <i name="alphaZ">    871.83850952 </i>
    <i name="ewald"> 287473.31787239 </i>
    <i name="hartreedc">-343025.38923312 </i>
    <i name="XCdc">   3055.04683231 </i>
    <i name="pawpsdc">  66457.39073956 </i>
    <i name="pawaedc"> -66450.88912180 </i>
    <i name="eentropy">     -0.00000000 </i>
    <i name="bandstr"> -13185.45243018 </i>
    <i name="atom">  64207.43592568 </i>
    <i name="e_fr_energy">   -596.70090564 </i>
    <i name="e_wo_entrp">   -596.70090564 </i>
    <i name="e_0_energy">   -596.70090564 </i>
   </energy>
  </scstep>
  <structure>
   <crystal>
    <varray name="basis" >
     <v>      13.12862340       0.00000000       0.00000000 </v>
     <v>      -6.56431170      11.36972138       0.00000000 </v>
     <v>       0.00000000       0.00000000      26.82809424 </v>
    </varray>
    <i name="volume">   4004.59716953 </i>
    <varray name="rec_basis" >
     <v>       0.07616945       0.04397645       0.00000000 </v>
     <v>       0.00000000       0.08795290       0.00000000 </v>
     <v>       0.00000000       0.00000000       0.03727436 </v>
    </varray>
   </crystal>
   <varray name="positions" >
    <v>       0.09018817       0.15929680       0.45481941 </v>
    <v>       0.08123872       0.41828527       0.45581742 </v>
    <v>       0.08139754       0.66104893       0.45437914 </v>
    <v>       0.08321290       0.91531000       0.45273023 </v>
    <v>       0.33769758       0.17798252       0.45296187 </v>
    <v>       0.33160429       0.41555602       0.45174967 </v>
    <v>       0.33546893       0.66357881       0.44713050 </v>
    <v>       0.34191904       0.92118825       0.45286501 </v>
    <v>       0.57919197       0.16376065       0.45402375 </v>
    <v>       0.58920713       0.41937274       0.45580541 </v>
    <v>       0.58278682       0.66040639       0.45345619 </v>
    <v>       0.58493239       0.92299553       0.45204115 </v>
    <v>       0.83032533       0.16751535       0.44929373 </v>
    <v>       0.83740376       0.41692788       0.45618998 </v>
    <v>       0.83872213       0.67772831       0.44788141 </v>
    <v>       0.83705205       0.92179434       0.45102929 </v>
    <v>       0.17069987       0.08760002       0.55153788 </v>
    <v>       0.15978928       0.34287318       0.54830835 </v>
    <v>       0.18226641       0.59926568       0.54694673 </v>
    <v>       0.15454179       0.82825537       0.54543383 </v>
    <v>       0.40651055       0.07009491       0.54834021 </v>
    <v>       0.40878179       0.33475035       0.54591147 </v>
    <v>       0.41796411       0.58927153       0.54187725 </v>
    <v>       0.41574063       0.82933443       0.54534608 </v>
    <v>       0.65600643       0.07602041       0.54746447 </v>
    <v>       0.66500149       0.33893061       0.54506665 </v>
    <v>       0.67137732       0.59295763       0.54886457 </v>
    <v>       0.66587663       0.83287851       0.54398202 </v>
    <v>       0.91973213       0.08167830       0.54837314 </v>
    <v>       0.90113617       0.32382153       0.55027693 </v>
    <v>       0.91658304       0.57646233       0.55198027 </v>
    <v>       0.90408083       0.82783981       0.54367411 </v>
    <v>       0.08531694       0.16480128       0.59554205 </v>
    <v>       0.07586621       0.42156600       0.59500365 </v>
    <v>       0.08072891       0.66938435       0.58831504 </v>
    <v>       0.07746666       0.90859493       0.59005273 </v>
    <v>       0.33105466       0.15872784       0.59378682 </v>
    <v>       0.32759558       0.42587885       0.58661292 </v>
    <v>       0.33339386       0.65906320       0.58904644 </v>
    <v>       0.33078631       0.90333163       0.58619640 </v>
    <v>       0.57440204       0.15412850       0.59447979 </v>
    <v>       0.59153703       0.42696053       0.59040655 </v>
    <v>       0.58324695       0.66514399       0.58729488 </v>
    <v>       0.58779727       0.89593194       0.59240075 </v>
    <v>       0.82432484       0.14942739       0.59317991 </v>
    <v>       0.83458994       0.41660660       0.59218002 </v>
    <v>       0.83384003       0.67070054       0.58783889 </v>
    <v>       0.83909348       0.91337785       0.58993291 </v>
    <v>       0.16965655       0.08161041       0.41364471 </v>
    <v>       0.16611395       0.32734096       0.41607668 </v>
    <v>       0.16950926       0.57929333       0.41203183 </v>
    <v>       0.18014193       0.84209511       0.41238140 </v>
    <v>       0.40968954       0.07819060       0.41193504 </v>
    <v>       0.40648619       0.34487017       0.40628115 </v>
    <v>       0.42389177       0.58658998       0.40577101 </v>
    <v>       0.41873935       0.83393357       0.41107574 </v>
    <v>       0.66393845       0.07832221       0.40816748 </v>
    <v>       0.66659892       0.33344088       0.41428154 </v>
    <v>       0.67256783       0.58660526       0.41032719 </v>
    <v>       0.67367917       0.84267175       0.40851869 </v>
    <v>       0.92582790       0.09241373       0.40900249 </v>
    <v>       0.92152726       0.33076929       0.40540053 </v>
    <v>       0.91021689       0.58262730       0.40560160 </v>
    <v>       0.93317668       0.83544818       0.40669049 </v>
    <v>       0.01200059       0.00472957       0.50139098 </v>
    <v>       0.99808747       0.24852233       0.50196897 </v>
    <v>       0.00244132       0.50119061       0.50021701 </v>
    <v>       0.99379209       0.74616187       0.50071242 </v>
    <v>       0.25988594       0.00414212       0.49890732 </v>
    <v>       0.25288660       0.24761421       0.50226093 </v>
    <v>       0.24977926       0.50351842       0.50240254 </v>
    <v>       0.24903175       0.74463376       0.49616434 </v>
    <v>       0.50239370       0.99606885       0.50212626 </v>
    <v>       0.50120018       0.25994667       0.49861700 </v>
    <v>       0.50092258       0.49955874       0.49915933 </v>
    <v>       0.50400882       0.74962609       0.49796637 </v>
    <v>       0.76370487       0.00528096       0.50087539 </v>
    <v>       0.74869476       0.24886567       0.50006027 </v>
    <v>       0.75415230       0.50016439       0.50297078 </v>
    <v>       0.75165665       0.74815705       0.49586467 </v>
   </varray>
  </structure>
  <varray name="forces" >
   <v>      -1.41050802       1.04735953       0.14991637 </v>
   <v>       0.18127640      -0.79183830      -0.23855702 </v>
   <v>      -0.35787826       0.47153153      -0.65822242 </v>
   <v>       0.98794855       0.26863539       0.47927615 </v>
   <v>       0.45580999      -1.00865644       0.16717080 </v>
   <v>      -0.14152775       0.27094299       0.41628786 </v>
   <v>      -0.27554714       0.39493570       0.86863277 </v>
   <v>      -1.61906248      -0.92902966      -0.17337897 </v>
   <v>      -0.24394720       1.15265775      -0.03574611 </v>
   <v>      -0.13647859       0.53369876      -0.81458239 </v>
   <v>      -0.00082570       0.49980958      -1.20262569 </v>
   <v>       1.11352987      -1.12949319      -0.02619350 </v>
   <v>       1.18992967       0.26110687       0.90295985 </v>
   <v>      -0.62634680       0.46745848      -0.92359419 </v>
   <v>       0.66441665      -1.60216576       0.57428619 </v>
   <v>      -0.40960779       0.30232357      -0.07237781 </v>
   <v>      -0.14685296      -0.59128869      -0.17273875 </v>
   <v>       0.28230112      -0.61620084       0.73134094 </v>
   <v>      -1.18223553      -1.86004121       0.18183497 </v>
   <v>       0.38639713       0.66165317       0.04541452 </v>
   <v>      -0.05033404       1.29190651       0.54119656 </v>
   <v>       0.92479332       0.57150748       1.08665744 </v>
   <v>       0.44927331      -0.99454528       1.26703511 </v>
   <v>       0.41630088      -0.28255142       0.03465071 </v>
   <v>       1.33670575       0.88042689       1.04711153 </v>
   <v>      -0.31979647      -0.44949446       1.30625865 </v>
   <v>       0.20019527      -1.57997566      -0.48509753 </v>
   <v>       0.26605300       0.26322134       0.37216337 </v>
   <v>      -0.10538475       0.55017112       0.32717083 </v>
   <v>       1.79566933       0.08538060      -0.05720741 </v>
   <v>      -0.56986884       0.65258987      -1.22987787 </v>
   <v>       1.77904365       0.95102856       0.76175177 </v>
   <v>       0.00479951       0.08386230      -0.60521967 </v>
   <v>       0.24748344      -0.15510128      -0.72231568 </v>
   <v>       0.46934084       0.07893865       0.46812451 </v>
   <v>       0.17627860       0.17202182      -0.17745195 </v>
   <v>       0.12171280       0.20101631      -0.37950312 </v>
   <v>       0.48350308      -0.23623145       0.28711708 </v>
   <v>       0.10420334       0.77453112       0.21728348 </v>
   <v>      -0.25074775       0.18436959       0.47381793 </v>
   <v>       0.16188869       0.03306019      -0.76865483 </v>
   <v>      -0.14529266      -0.22588465      -0.11983672 </v>
   <v>      -0.04505936       0.28744027       0.17843490 </v>
   <v>      -0.82753857       0.58859457      -0.36594548 </v>
   <v>      -0.22791633       0.50913298      -0.43840685 </v>
   <v>      -0.17907540      -0.24840107       0.13744667 </v>
   <v>      -0.01942714      -0.09045018       0.46071937 </v>
   <v>      -0.36361221      -0.12827346      -0.15671202 </v>
   <v>       0.03287042       0.09562564      -0.67767047 </v>
   <v>      -0.10634686       0.24642314      -0.58106405 </v>
   <v>      -0.24605740      -0.06012318      -0.56339415 </v>
   <v>      -0.35256674      -0.38961121      -0.27739611 </v>
   <v>       0.52889814       0.57075398      -0.36077535 </v>
   <v>       0.66024774      -0.59161267       0.15864836 </v>
   <v>      -0.26966831      -0.21248719       0.37097619 </v>
   <v>       0.22416547       0.18766705      -0.38494193 </v>
   <v>      -0.20433304       0.32120965       0.11250481 </v>
   <v>       0.18628788      -0.17730604      -0.44553559 </v>
   <v>      -0.15836532      -0.18481769      -0.15240692 </v>
   <v>       0.02542941      -0.02089713       0.19136135 </v>
   <v>      -0.01077593      -0.41391177       0.16999425 </v>
   <v>      -0.23635730       0.06278985       0.78824255 </v>
   <v>       0.32595204      -0.01378972       0.70770164 </v>
   <v>      -0.58666062       0.13042774      -0.08756570 </v>
   <v>      -0.83016265      -0.86257968      -0.34010251 </v>
   <v>      -0.28233103       0.32294802       0.11569912 </v>
   <v>      -0.52473886      -0.25866484       0.40169752 </v>
   <v>       0.57349281       0.34190096      -0.71589134 </v>
   <v>      -0.63442283      -0.53923404       0.70574808 </v>
   <v>      -0.54822126       0.39428207      -0.36745820 </v>
   <v>       0.12362188      -0.09377013      -1.38806454 </v>
   <v>       0.42902603       0.68706487       0.73269009 </v>
   <v>      -0.25057797       0.15746024      -0.64273097 </v>
   <v>       0.50119337      -1.19291576       0.33820665 </v>
   <v>      -0.32481598       0.33916532      -0.01763682 </v>
   <v>      -0.43732699       0.48673308      -0.40273410 </v>
   <v>      -1.38843794      -0.85032784      -0.94171118 </v>
   <v>      -0.27836581      -0.66630946       0.09614109 </v>
   <v>      -0.16586941       0.08215173      -0.51684359 </v>
   <v>      -0.31876538       0.53006455       0.31449748 </v>
  </varray>
  <varray name="stress" >
   <v>       2.87065891       0.49590099       2.71836883 </v>
   <v>       0.49590100       3.67715728       1.99348870 </v>
   <v>       2.71836882       1.99348869       0.89995098 </v>
  </varray>
  <energy>
   <i name="e_fr_energy">   -596.70090564 </i>
   <i name="e_wo_entrp">   -596.70090564 </i>
   <i name="e_0_energy">     -0.00000000 </i>
  </energy>
  <time name="totalsc"> 1887.38 1887.85</time>
  <eigenvalues>
   <array>
    <dimension dim="1">band</dimension>
    <dimension dim="2">kpoint</dimension>
    <dimension dim="3">spin</dimension>
    <field>eigene</field>
    <field>occ</field>
    <set>
     <set comment="spin 1">
      <set comment="kpoint 1">
       <r>  -51.8261    1.0000 </r>
       <r>  -51.8155    1.0000 </r>
       <r>  -51.7759    1.0000 </r>
       <r>  -51.7394    1.0000 </r>
       <r>  -51.7286    1.0000 </r>
       <r>  -51.6605    1.0000 </r>
       <r>  -51.6573    1.0000 </r>
       <r>  -51.6460    1.0000 </r>
       <r>  -51.6447    1.0000 </r>
       <r>  -51.6332    1.0000 </r>
       <r>  -51.5970    1.0000 </r>
       <r>  -51.5816    1.0000 </r>
       <r>  -51.5587    1.0000 </r>
       <r>  -51.5356    1.0000 </r>
       <r>  -51.5131    1.0000 </r>
       <r>  -51.4625    1.0000 </r>
       <r>  -51.4506    1.0000 </r>
       <r>  -51.4223    1.0000 </r>
       <r>  -51.4182    1.0000 </r>
       <r>  -51.3905    1.0000 </r>
       <r>  -51.3427    1.0000 </r>
       <r>  -51.3199    1.0000 </r>
       <r>  -51.2801    1.0000 </r>
       <r>  -51.2748    1.0000 </r>
       <r>  -51.2575    1.0000 </r>
       <r>  -51.2522    1.0000 </r>
       <r>  -51.2411    1.0000 </r>
       <r>  -51.2368    1.0000 </r>
       <r>  -51.2317    1.0000 </r>
       <r>  -51.2021    1.0000 </r>
       <r>  -51.1261    1.0000 </r>
       <r>  -51.0369    1.0000 </r>
       <r>  -30.8371    1.0000 </r>
       <r>  -30.7698    1.0000 </r>
       <r>  -30.7204    1.0000 </r>
       <r>  -30.7104    1.0000 </r>
       <r>  -30.6945    1.0000 </r>
       <r>  -30.6803    1.0000 </r>
       <r>  -30.6695    1.0000 </r>
       <r>  -30.6606    1.0000 </r>
       <r>  -30.6475    1.0000 </r>
       <r>  -30.6217    1.0000 </r>
       <r>  -30.5970    1.0000 </r>
       <r>  -30.5951    1.0000 </r>
       <r>  -30.5739    1.0000 </r>
       <r>  -30.5684    1.0000 </r>
       <r>  -30.5588    1.0000 </r>
       <r>  -30.5476    1.0000 </r>
       <r>  -30.5270    1.0000 </r>
       <r>  -30.5222    1.0000 </r>
       <r>  -30.5090    1.0000 </r>
       <r>  -30.4812    1.0000 </r>
       <r>  -30.4770    1.0000 </r>
       <r>  -30.4581    1.0000 </r>
       <r>  -30.4472    1.0000 </r>
       <r>  -30.4346    1.0000 </r>
       <r>  -30.4273    1.0000 </r>
       <r>  -30.4195    1.0000 </r>
       <r>  -30.4153    1.0000 </r>
       <r>  -30.4093    1.0000 </r>
       <r>  -30.4038    1.0000 </r>
       <r>  -30.3879    1.0000 </r>
       <r>  -30.3802    1.0000 </r>
       <r>  -30.3706    1.0000 </r>
       <r>  -30.3501    1.0000 </r>
       <r>  -30.3444    1.0000 </r>
       <r>  -30.3334    1.0000 </r>
       <r>  -30.3245    1.0000 </r>
       <r>  -30.3169    1.0000 </r>
       <r>  -30.3110    1.0000 </r>
       <r>  -30.2987    1.0000 </r>
       <r>  -30.2836    1.0000 </r>
       <r>  -30.2731    1.0000 </r>
       <r>  -30.2624    1.0000 </r>
       <r>  -30.2521    1.0000 </r>
       <r>  -30.2446    1.0000 </r>
       <r>  -30.2382    1.0000 </r>
       <r>  -30.2354    1.0000 </r>
       <r>  -30.2251    1.0000 </r>
       <r>  -30.2174    1.0000 </r>
       <r>  -30.2054    1.0000 </r>
       <r>  -30.1894    1.0000 </r>
       <r>  -30.1656    1.0000 </r>
       <r>  -30.1604    1.0000 </r>
       <r>  -30.1563    1.0000 </r>
       <r>  -30.1467    1.0000 </r>
       <r>  -30.1341    1.0000 </r>
       <r>  -30.1270    1.0000 </r>
       <r>  -30.1066    1.0000 </r>
       <r>  -30.1026    1.0000 </r>
       <r>  -30.0988    1.0000 </r>
       <r>  -30.0888    1.0000 </r>
       <r>  -30.0799    1.0000 </r>
       <r>  -30.0749    1.0000 </r>
       <r>  -30.0640    1.0000 </r>
       <r>  -30.0594    1.0000 </r>
       <r>  -30.0493    1.0000 </r>
       <r>  -30.0436    1.0000 </r>
       <r>  -30.0377    1.0000 </r>
       <r>  -30.0245    1.0000 </r>
       <r>  -30.0093    1.0000 </r>
       <r>  -30.0062    1.0000 </r>
       <r>  -29.9963    1.0000 </r>
       <r>  -29.9794    1.0000 </r>
       <r>  -29.9672    1.0000 </r>
       <r>  -29.9612    1.0000 </r>
       <r>  -29.9588    1.0000 </r>
       <r>  -29.9496    1.0000 </r>
       <r>  -29.9464    1.0000 </r>
       <r>  -29.9366    1.0000 </r>
       <r>  -29.9280    1.0000 </r>
       <r>  -29.9212    1.0000 </r>
       <r>  -29.9133    1.0000 </r>
       <r>  -29.8967    1.0000 </r>
       <r>  -29.8950    1.0000 </r>
       <r>  -29.8890    1.0000 </r>
       <r>  -29.8818    1.0000 </r>
       <r>  -29.8684    1.0000 </r>
       <r>  -29.8596    1.0000 </r>
       <r>  -29.8468    1.0000 </r>
       <r>  -29.8377    1.0000 </r>
       <r>  -29.8292    1.0000 </r>
       <r>  -29.8068    1.0000 </r>
       <r>  -29.7835    1.0000 </r>
       <r>  -29.7679    1.0000 </r>
       <r>  -29.7425    1.0000 </r>
       <r>  -29.7308    1.0000 </r>
       <r>  -29.6964    1.0000 </r>
       <r>  -27.1011    1.0000 </r>
       <r>  -27.0321    1.0000 </r>
       <r>  -26.9704    1.0000 </r>
       <r>  -26.9561    1.0000 </r>
       <r>  -26.9117    1.0000 </r>
       <r>  -26.9076    1.0000 </r>
       <r>  -26.8765    1.0000 </r>
       <r>  -26.8705    1.0000 </r>
       <r>  -26.8609    1.0000 </r>
       <r>  -26.8428    1.0000 </r>
       <r>  -26.8311    1.0000 </r>
       <r>  -26.7007    1.0000 </r>
       <r>  -26.6772    1.0000 </r>
       <r>  -26.6509    1.0000 </r>
       <r>  -26.6336    1.0000 </r>
       <r>  -26.5897    1.0000 </r>
       <r>  -26.5454    1.0000 </r>
       <r>  -26.4599    1.0000 </r>
       <r>  -26.4527    1.0000 </r>
       <r>  -26.4413    1.0000 </r>
       <r>  -26.4198    1.0000 </r>
       <r>  -26.3831    1.0000 </r>
       <r>  -26.3772    1.0000 </r>
       <r>  -26.3695    1.0000 </r>
       <r>  -26.3296    1.0000 </r>
       <r>  -26.2622    1.0000 </r>
       <r>  -26.2557    1.0000 </r>
       <r>  -26.2334    1.0000 </r>
       <r>  -26.1491    1.0000 </r>
       <r>  -26.1262    1.0000 </r>
       <r>  -26.0964    1.0000 </r>
       <r>  -25.9030    1.0000 </r>
       <r>  -12.1305    1.0000 </r>
       <r>  -11.8317    1.0000 </r>
       <r>  -11.6880    1.0000 </r>
       <r>  -11.6700    1.0000 </r>
       <r>  -11.6294    1.0000 </r>
       <r>  -11.5873    1.0000 </r>
       <r>  -11.5561    1.0000 </r>
       <r>  -11.2292    1.0000 </r>
       <r>  -11.1233    1.0000 </r>
       <r>  -11.0925    1.0000 </r>
       <r>  -11.0519    1.0000 </r>
       <r>  -11.0078    1.0000 </r>
       <r>  -10.9834    1.0000 </r>
       <r>  -10.9508    1.0000 </r>
       <r>  -10.9034    1.0000 </r>
       <r>  -10.8341    1.0000 </r>
       <r>   -9.4559    1.0000 </r>
       <r>   -9.4045    1.0000 </r>
       <r>   -9.3288    1.0000 </r>
       <r>   -9.3109    1.0000 </r>
       <r>   -9.2602    1.0000 </r>
       <r>   -9.2224    1.0000 </r>
       <r>   -9.2096    1.0000 </r>
       <r>   -9.1824    1.0000 </r>
       <r>   -9.1771    1.0000 </r>
       <r>   -9.1564    1.0000 </r>
       <r>   -9.1343    1.0000 </r>
       <r>   -9.1210    1.0000 </r>
       <r>   -9.1029    1.0000 </r>
       <r>   -9.0893    1.0000 </r>
       <r>   -9.0710    1.0000 </r>
       <r>   -9.0632    1.0000 </r>
       <r>   -9.0361    1.0000 </r>
       <r>   -9.0265    1.0000 </r>
       <r>   -8.9981    1.0000 </r>
       <r>   -8.9887    1.0000 </r>
       <r>   -8.9544    1.0000 </r>
       <r>   -8.9290    1.0000 </r>
       <r>   -8.9236    1.0000 </r>
       <r>   -8.9084    1.0000 </r>
       <r>   -8.8782    1.0000 </r>
       <r>   -8.8559    1.0000 </r>
       <r>   -8.8278    1.0000 </r>
       <r>   -8.8155    1.0000 </r>
       <r>   -8.8074    1.0000 </r>
       <r>   -8.7902    1.0000 </r>
       <r>   -8.7839    1.0000 </r>
       <r>   -8.7640    1.0000 </r>
       <r>   -8.7374    1.0000 </r>
       <r>   -8.7318    1.0000 </r>
       <r>   -8.7145    1.0000 </r>
       <r>   -8.7080    1.0000 </r>
       <r>   -8.6887    1.0000 </r>
       <r>   -8.6768    1.0000 </r>
       <r>   -8.6625    1.0000 </r>
       <r>   -8.6404    1.0000 </r>
       <r>   -8.6336    1.0000 </r>
       <r>   -8.6197    1.0000 </r>
       <r>   -8.6131    1.0000 </r>
       <r>   -8.5862    1.0000 </r>
       <r>   -8.5742    1.0000 </r>
       <r>   -8.5601    1.0000 </r>
       <r>   -8.5434    1.0000 </r>
       <r>   -8.5280    1.0000 </r>
       <r>   -8.5149    1.0000 </r>
       <r>   -8.4870    1.0000 </r>
       <r>   -8.4693    1.0000 </r>
       <r>   -8.4327    1.0000 </r>
       <r>   -8.4256    1.0000 </r>
       <r>   -8.4037    1.0000 </r>
       <r>   -8.3899    1.0000 </r>
       <r>   -8.3737    1.0000 </r>
       <r>   -8.3659    1.0000 </r>
       <r>   -8.3444    1.0000 </r>
       <r>   -8.3398    1.0000 </r>
       <r>   -8.3348    1.0000 </r>
       <r>   -8.3170    1.0000 </r>
       <r>   -8.3096    1.0000 </r>
       <r>   -8.2826    1.0000 </r>
       <r>   -8.2750    1.0000 </r>
       <r>   -8.2686    1.0000 </r>
       <r>   -8.2595    1.0000 </r>
       <r>   -8.2370    1.0000 </r>
       <r>   -8.2073    1.0000 </r>
       <r>   -8.2055    1.0000 </r>
       <r>   -8.1915    1.0000 </r>
       <r>   -8.1762    1.0000 </r>
       <r>   -8.1660    1.0000 </r>
       <r>   -8.1530    1.0000 </r>
       <r>   -8.1417    1.0000 </r>
       <r>   -8.1248    1.0000 </r>
       <r>   -8.1155    1.0000 </r>
       <r>   -8.0895    1.0000 </r>
       <r>   -8.0771    1.0000 </r>
       <r>   -8.0672    1.0000 </r>
       <r>   -8.0568    1.0000 </r>
       <r>   -8.0314    1.0000 </r>
       <r>   -7.9995    1.0000 </r>
       <r>   -7.9757    1.0000 </r>
       <r>   -7.9564    1.0000 </r>
       <r>   -7.9515    1.0000 </r>
       <r>   -7.9386    1.0000 </r>
       <r>   -7.9200    1.0000 </r>
       <r>   -7.9041    1.0000 </r>
       <r>   -7.8868    1.0000 </r>
       <r>   -7.8649    1.0000 </r>
       <r>   -7.8523    1.0000 </r>
       <r>   -7.8224    1.0000 </r>
       <r>   -7.7995    1.0000 </r>
       <r>   -7.7664    1.0000 </r>
       <r>   -7.7096    1.0000 </r>
       <r>   -7.5734    1.0000 </r>
       <r>   -5.2165    1.0000 </r>
       <r>   -5.2088    1.0000 </r>
       <r>   -5.1199    1.0000 </r>
       <r>   -4.9609    1.0000 </r>
       <r>   -4.9127    1.0000 </r>
       <r>   -4.8918    1.0000 </r>
       <r>   -4.8372    1.0000 </r>
       <r>   -4.8073    1.0000 </r>
       <r>   -4.7425    1.0000 </r>
       <r>   -4.6199    1.0000 </r>
       <r>   -4.4631    1.0000 </r>
       <r>   -4.4572    1.0000 </r>
       <r>   -4.4263    1.0000 </r>
       <r>   -4.4130    1.0000 </r>
       <r>   -4.3378    1.0000 </r>
       <r>   -4.3148    1.0000 </r>
       <r>   -4.2939    1.0000 </r>
       <r>   -4.2473    1.0000 </r>
       <r>   -4.2350    1.0000 </r>
       <r>   -4.2214    1.0000 </r>
       <r>   -4.1821    1.0000 </r>
       <r>   -4.1574    1.0000 </r>
       <r>   -4.1279    1.0000 </r>
       <r>   -4.0982    1.0000 </r>
       <r>   -4.0820    1.0000 </r>
       <r>   -4.0354    1.0000 </r>
       <r>   -4.0028    1.0000 </r>
       <r>   -3.9853    1.0000 </r>
       <r>   -3.9612    1.0000 </r>
       <r>   -3.9389    1.0000 </r>
       <r>   -3.9037    1.0000 </r>
       <r>   -3.8769    1.0000 </r>
       <r>   -3.8602    1.0000 </r>
       <r>   -3.8092    1.0000 </r>
       <r>   -3.7397    1.0000 </r>
       <r>   -3.7057    1.0000 </r>
       <r>   -3.6429    1.0000 </r>
       <r>   -3.4323    1.0000 </r>
       <r>   -3.3792    1.0000 </r>
       <r>   -3.3465    1.0000 </r>
       <r>   -3.2923    1.0000 </r>
       <r>   -3.2386    1.0000 </r>
       <r>   -3.2001    1.0000 </r>
       <r>   -3.1211    1.0000 </r>
       <r>   -3.0933    1.0000 </r>
       <r>   -3.0436    1.0000 </r>
       <r>   -2.9101    1.0000 </r>
       <r>   -2.8515    1.0000 </r>
       <r>   -1.9222    0.0000 </r>
       <r>   -1.8931    0.0000 </r>
       <r>   -1.8274    0.0000 </r>
       <r>   -1.3466    0.0000 </r>
       <r>   -1.2534    0.0000 </r>
       <r>   -1.2506    0.0000 </r>
       <r>   -1.1844    0.0000 </r>
       <r>   -1.1635    0.0000 </r>
       <r>   -1.1043    0.0000 </r>
       <r>   -0.5903    0.0000 </r>
       <r>   -0.5044    0.0000 </r>
       <r>   -0.4598    0.0000 </r>
       <r>   -0.4326    0.0000 </r>
       <r>   -0.3907    0.0000 </r>
       <r>   -0.3481    0.0000 </r>
       <r>   -0.3436    0.0000 </r>
       <r>   -0.3042    0.0000 </r>
       <r>   -0.2588    0.0000 </r>
       <r>   -0.2084    0.0000 </r>
       <r>   -0.1899    0.0000 </r>
       <r>   -0.1349    0.0000 </r>
       <r>   -0.0762    0.0000 </r>
       <r>   -0.0341    0.0000 </r>
       <r>    0.0027    0.0000 </r>
       <r>    0.2489    0.0000 </r>
       <r>    0.2972    0.0000 </r>
       <r>    0.3156    0.0000 </r>
       <r>    0.3535    0.0000 </r>
       <r>    0.3758    0.0000 </r>
       <r>    0.4018    0.0000 </r>
       <r>    0.4532    0.0000 </r>
       <r>    0.4877    0.0000 </r>
       <r>    0.4975    0.0000 </r>
       <r>    0.5325    0.0000 </r>
       <r>    0.5533    0.0000 </r>
       <r>    0.5897    0.0000 </r>
       <r>    0.6043    0.0000 </r>
       <r>    0.6149    0.0000 </r>
       <r>    0.6454    0.0000 </r>
       <r>    0.6775    0.0000 </r>
       <r>    0.7109    0.0000 </r>
       <r>    0.7322    0.0000 </r>
       <r>    0.7608    0.0000 </r>
       <r>    0.7844    0.0000 </r>
       <r>    0.7994    0.0000 </r>
       <r>    0.8480    0.0000 </r>
       <r>    0.8640    0.0000 </r>
       <r>    0.8772    0.0000 </r>
       <r>    0.9046    0.0000 </r>
       <r>    0.9221    0.0000 </r>
       <r>    0.9526    0.0000 </r>
       <r>    0.9862    0.0000 </r>
       <r>    0.9965    0.0000 </r>
       <r>    1.0154    0.0000 </r>
       <r>    1.0202    0.0000 </r>
       <r>    1.0429    0.0000 </r>
       <r>    1.0594    0.0000 </r>
       <r>    1.0802    0.0000 </r>
       <r>    1.0874    0.0000 </r>
       <r>    1.0988    0.0000 </r>
       <r>    1.1499    0.0000 </r>
       <r>    1.1681    0.0000 </r>
       <r>    1.1738    0.0000 </r>
       <r>    1.2353    0.0000 </r>
      </set>
      <set comment="kpoint 2">
       <r>  -51.8261    1.0000 </r>
       <r>  -51.8155    1.0000 </r>
       <r>  -51.7759    1.0000 </r>
       <r>  -51.7394    1.0000 </r>
       <r>  -51.7286    1.0000 </r>
       <r>  -51.6604    1.0000 </r>
       <r>  -51.6573    1.0000 </r>
       <r>  -51.6461    1.0000 </r>
       <r>  -51.6446    1.0000 </r>
       <r>  -51.6331    1.0000 </r>
       <r>  -51.5970    1.0000 </r>
       <r>  -51.5816    1.0000 </r>
       <r>  -51.5587    1.0000 </r>
       <r>  -51.5356    1.0000 </r>
       <r>  -51.5130    1.0000 </r>
       <r>  -51.4625    1.0000 </r>
       <r>  -51.4506    1.0000 </r>
       <r>  -51.4223    1.0000 </r>
       <r>  -51.4182    1.0000 </r>
       <r>  -51.3905    1.0000 </r>
       <r>  -51.3427    1.0000 </r>
       <r>  -51.3199    1.0000 </r>
       <r>  -51.2801    1.0000 </r>
       <r>  -51.2748    1.0000 </r>
       <r>  -51.2575    1.0000 </r>
       <r>  -51.2522    1.0000 </r>
       <r>  -51.2412    1.0000 </r>
       <r>  -51.2367    1.0000 </r>
       <r>  -51.2317    1.0000 </r>
       <r>  -51.2021    1.0000 </r>
       <r>  -51.1261    1.0000 </r>
       <r>  -51.0369    1.0000 </r>
       <r>  -30.8315    1.0000 </r>
       <r>  -30.7696    1.0000 </r>
       <r>  -30.7194    1.0000 </r>
       <r>  -30.7086    1.0000 </r>
       <r>  -30.6958    1.0000 </r>
       <r>  -30.6797    1.0000 </r>
       <r>  -30.6698    1.0000 </r>
       <r>  -30.6595    1.0000 </r>
       <r>  -30.6469    1.0000 </r>
       <r>  -30.6171    1.0000 </r>
       <r>  -30.6015    1.0000 </r>
       <r>  -30.5930    1.0000 </r>
       <r>  -30.5784    1.0000 </r>
       <r>  -30.5646    1.0000 </r>
       <r>  -30.5599    1.0000 </r>
       <r>  -30.5506    1.0000 </r>
       <r>  -30.5361    1.0000 </r>
       <r>  -30.5199    1.0000 </r>
       <r>  -30.5131    1.0000 </r>
       <r>  -30.4803    1.0000 </r>
       <r>  -30.4752    1.0000 </r>
       <r>  -30.4574    1.0000 </r>
       <r>  -30.4505    1.0000 </r>
       <r>  -30.4424    1.0000 </r>
       <r>  -30.4290    1.0000 </r>
       <r>  -30.4246    1.0000 </r>
       <r>  -30.4145    1.0000 </r>
       <r>  -30.4126    1.0000 </r>
       <r>  -30.4030    1.0000 </r>
       <r>  -30.3955    1.0000 </r>
       <r>  -30.3788    1.0000 </r>
       <r>  -30.3704    1.0000 </r>
       <r>  -30.3470    1.0000 </r>
       <r>  -30.3440    1.0000 </r>
       <r>  -30.3375    1.0000 </r>
       <r>  -30.3297    1.0000 </r>
       <r>  -30.3228    1.0000 </r>
       <r>  -30.3008    1.0000 </r>
       <r>  -30.2893    1.0000 </r>
       <r>  -30.2800    1.0000 </r>
       <r>  -30.2747    1.0000 </r>
       <r>  -30.2670    1.0000 </r>
       <r>  -30.2525    1.0000 </r>
       <r>  -30.2493    1.0000 </r>
       <r>  -30.2397    1.0000 </r>
       <r>  -30.2323    1.0000 </r>
       <r>  -30.2268    1.0000 </r>
       <r>  -30.2193    1.0000 </r>
       <r>  -30.1951    1.0000 </r>
       <r>  -30.1839    1.0000 </r>
       <r>  -30.1619    1.0000 </r>
       <r>  -30.1568    1.0000 </r>
       <r>  -30.1491    1.0000 </r>
       <r>  -30.1398    1.0000 </r>
       <r>  -30.1320    1.0000 </r>
       <r>  -30.1230    1.0000 </r>
       <r>  -30.1150    1.0000 </r>
       <r>  -30.1053    1.0000 </r>
       <r>  -30.0982    1.0000 </r>
       <r>  -30.0912    1.0000 </r>
       <r>  -30.0795    1.0000 </r>
       <r>  -30.0730    1.0000 </r>
       <r>  -30.0639    1.0000 </r>
       <r>  -30.0558    1.0000 </r>
       <r>  -30.0483    1.0000 </r>
       <r>  -30.0408    1.0000 </r>
       <r>  -30.0256    1.0000 </r>
       <r>  -30.0215    1.0000 </r>
       <r>  -30.0108    1.0000 </r>
       <r>  -30.0024    1.0000 </r>
       <r>  -29.9978    1.0000 </r>
       <r>  -29.9865    1.0000 </r>
       <r>  -29.9692    1.0000 </r>
       <r>  -29.9627    1.0000 </r>
       <r>  -29.9585    1.0000 </r>
       <r>  -29.9510    1.0000 </r>
       <r>  -29.9457    1.0000 </r>
       <r>  -29.9386    1.0000 </r>
       <r>  -29.9287    1.0000 </r>
       <r>  -29.9215    1.0000 </r>
       <r>  -29.9170    1.0000 </r>
       <r>  -29.9016    1.0000 </r>
       <r>  -29.8931    1.0000 </r>
       <r>  -29.8888    1.0000 </r>
       <r>  -29.8766    1.0000 </r>
       <r>  -29.8687    1.0000 </r>
       <r>  -29.8597    1.0000 </r>
       <r>  -29.8527    1.0000 </r>
       <r>  -29.8343    1.0000 </r>
       <r>  -29.8279    1.0000 </r>
       <r>  -29.8077    1.0000 </r>
       <r>  -29.7871    1.0000 </r>
       <r>  -29.7704    1.0000 </r>
       <r>  -29.7434    1.0000 </r>
       <r>  -29.7315    1.0000 </r>
       <r>  -29.6991    1.0000 </r>
       <r>  -27.1001    1.0000 </r>
       <r>  -27.0327    1.0000 </r>
       <r>  -26.9688    1.0000 </r>
       <r>  -26.9546    1.0000 </r>
       <r>  -26.9138    1.0000 </r>
       <r>  -26.9084    1.0000 </r>
       <r>  -26.8770    1.0000 </r>
       <r>  -26.8736    1.0000 </r>
       <r>  -26.8579    1.0000 </r>
       <r>  -26.8427    1.0000 </r>
       <r>  -26.8306    1.0000 </r>
       <r>  -26.7005    1.0000 </r>
       <r>  -26.6771    1.0000 </r>
       <r>  -26.6514    1.0000 </r>
       <r>  -26.6331    1.0000 </r>
       <r>  -26.5900    1.0000 </r>
       <r>  -26.5453    1.0000 </r>
       <r>  -26.4598    1.0000 </r>
       <r>  -26.4527    1.0000 </r>
       <r>  -26.4413    1.0000 </r>
       <r>  -26.4198    1.0000 </r>
       <r>  -26.3828    1.0000 </r>
       <r>  -26.3772    1.0000 </r>
       <r>  -26.3699    1.0000 </r>
       <r>  -26.3296    1.0000 </r>
       <r>  -26.2622    1.0000 </r>
       <r>  -26.2558    1.0000 </r>
       <r>  -26.2334    1.0000 </r>
       <r>  -26.1491    1.0000 </r>
[...]
       <r>   -32.2995     0.0000    64.0000 </r>
       <r>   -32.1049     0.0000    64.0000 </r>
       <r>   -31.9104     0.0000    64.0000 </r>
       <r>   -31.7158     0.0000    64.0000 </r>
       <r>   -31.5213     0.0000    64.0000 </r>
       <r>   -31.3267     0.0000    64.0000 </r>
       <r>   -31.1321     0.0000    64.0000 </r>
       <r>   -30.9376     0.0164    64.0032 </r>
       <r>   -30.7430    23.7171    68.6176 </r>
       <r>   -30.5485   132.2254    94.3431 </r>
       <r>   -30.3539   180.9030   129.5393 </r>
       <r>   -30.1594   195.9474   167.6625 </r>
       <r>   -29.9648   225.9249   211.6181 </r>
       <r>   -29.7702   190.1798   248.6191 </r>
       <r>   -29.5757    37.9339   255.9995 </r>
       <r>   -29.3811     0.0028   256.0000 </r>
       <r>   -29.1866     0.0000   256.0000 </r>
       <r>   -28.9920     0.0000   256.0000 </r>
       <r>   -28.7974     0.0000   256.0000 </r>
       <r>   -28.6029     0.0000   256.0000 </r>
       <r>   -28.4083     0.0000   256.0000 </r>
       <r>   -28.2138     0.0000   256.0000 </r>
       <r>   -28.0192     0.0000   256.0000 </r>
       <r>   -27.8247     0.0000   256.0000 </r>
       <r>   -27.6301     0.0000   256.0000 </r>
       <r>   -27.4355     0.0000   256.0000 </r>
       <r>   -27.2410     0.0004   256.0001 </r>
       <r>   -27.0464    13.3727   258.6018 </r>
       <r>   -26.8519    75.4111   273.2737 </r>
       <r>   -26.6573    48.0515   282.6225 </r>
       <r>   -26.4627    50.8163   292.5092 </r>
       <r>   -26.2682    78.7384   307.8285 </r>
       <r>   -26.0736    48.7388   317.3110 </r>
       <r>   -25.8791    11.2559   319.5009 </r>
       <r>   -25.6845     2.5652   320.0000 </r>
       <r>   -25.4900     0.0000   320.0000 </r>
       <r>   -25.2954     0.0000   320.0000 </r>
       <r>   -25.1008     0.0000   320.0000 </r>
       <r>   -24.9063     0.0000   320.0000 </r>
       <r>   -24.7117     0.0000   320.0000 </r>
       <r>   -24.5172     0.0000   320.0000 </r>
       <r>   -24.3226     0.0000   320.0000 </r>
       <r>   -24.1280     0.0000   320.0000 </r>
       <r>   -23.9335     0.0000   320.0000 </r>
       <r>   -23.7389     0.0000   320.0000 </r>
       <r>   -23.5444     0.0000   320.0000 </r>
       <r>   -23.3498     0.0000   320.0000 </r>
       <r>   -23.1553     0.0000   320.0000 </r>
       <r>   -22.9607     0.0000   320.0000 </r>
       <r>   -22.7661     0.0000   320.0000 </r>
       <r>   -22.5716     0.0000   320.0000 </r>
       <r>   -22.3770     0.0000   320.0000 </r>
       <r>   -22.1825     0.0000   320.0000 </r>
       <r>   -21.9879     0.0000   320.0000 </r>
       <r>   -21.7933     0.0000   320.0000 </r>
       <r>   -21.5988     0.0000   320.0000 </r>
       <r>   -21.4042     0.0000   320.0000 </r>
       <r>   -21.2097     0.0000   320.0000 </r>
       <r>   -21.0151     0.0000   320.0000 </r>
       <r>   -20.8206     0.0000   320.0000 </r>
       <r>   -20.6260     0.0000   320.0000 </r>
       <r>   -20.4314     0.0000   320.0000 </r>
       <r>   -20.2369     0.0000   320.0000 </r>
       <r>   -20.0423     0.0000   320.0000 </r>
       <r>   -19.8478     0.0000   320.0000 </r>
       <r>   -19.6532     0.0000   320.0000 </r>
       <r>   -19.4586     0.0000   320.0000 </r>
       <r>   -19.2641     0.0000   320.0000 </r>
       <r>   -19.0695     0.0000   320.0000 </r>
       <r>   -18.8750     0.0000   320.0000 </r>
       <r>   -18.6804     0.0000   320.0000 </r>
       <r>   -18.4859     0.0000   320.0000 </r>
       <r>   -18.2913     0.0000   320.0000 </r>
       <r>   -18.0967     0.0000   320.0000 </r>
       <r>   -17.9022     0.0000   320.0000 </r>
       <r>   -17.7076     0.0000   320.0000 </r>
       <r>   -17.5131     0.0000   320.0000 </r>
       <r>   -17.3185     0.0000   320.0000 </r>
       <r>   -17.1239     0.0000   320.0000 </r>
       <r>   -16.9294     0.0000   320.0000 </r>
       <r>   -16.7348     0.0000   320.0000 </r>
       <r>   -16.5403     0.0000   320.0000 </r>
       <r>   -16.3457     0.0000   320.0000 </r>
       <r>   -16.1512     0.0000   320.0000 </r>
       <r>   -15.9566     0.0000   320.0000 </r>
       <r>   -15.7620     0.0000   320.0000 </r>
       <r>   -15.5675     0.0000   320.0000 </r>
       <r>   -15.3729     0.0000   320.0000 </r>
       <r>   -15.1784     0.0000   320.0000 </r>
       <r>   -14.9838     0.0000   320.0000 </r>
       <r>   -14.7892     0.0000   320.0000 </r>
       <r>   -14.5947     0.0000   320.0000 </r>
       <r>   -14.4001     0.0000   320.0000 </r>
       <r>   -14.2056     0.0000   320.0000 </r>
       <r>   -14.0110     0.0000   320.0000 </r>
       <r>   -13.8165     0.0000   320.0000 </r>
       <r>   -13.6219     0.0000   320.0000 </r>
       <r>   -13.4273     0.0000   320.0000 </r>
       <r>   -13.2328     0.0000   320.0000 </r>
       <r>   -13.0382     0.0000   320.0000 </r>
       <r>   -12.8437     0.0000   320.0000 </r>
       <r>   -12.6491     0.0000   320.0000 </r>
       <r>   -12.4545     0.0000   320.0000 </r>
       <r>   -12.2600     0.0002   320.0000 </r>
       <r>   -12.0654     7.4558   321.4506 </r>
       <r>   -11.8709    12.5165   323.8858 </r>
       <r>   -11.6763    17.1260   327.2178 </r>
       <r>   -11.4818    19.0404   330.9223 </r>
       <r>   -11.2872    20.8791   334.9845 </r>
       <r>   -11.0926    31.9890   341.2082 </r>
       <r>   -10.8981    34.7374   347.9666 </r>
       <r>   -10.7035    20.6652   351.9872 </r>
       <r>   -10.5090     0.0657   352.0000 </r>
       <r>   -10.3144     0.0000   352.0000 </r>
       <r>   -10.1198     0.0000   352.0000 </r>
       <r>    -9.9253     0.0000   352.0000 </r>
       <r>    -9.7307     0.0000   352.0000 </r>
       <r>    -9.5362     0.0339   352.0066 </r>
       <r>    -9.3416    22.8655   356.4553 </r>
       <r>    -9.1471    80.7380   372.1635 </r>
       <r>    -8.9525   110.2086   393.6055 </r>
       <r>    -8.7579   113.7717   415.7407 </r>
       <r>    -8.5634   136.9526   442.3860 </r>
       <r>    -8.3688   115.6657   464.8897 </r>
       <r>    -8.1743   149.3144   493.9401 </r>
       <r>    -7.9797   120.9388   517.4697 </r>
       <r>    -7.7851   102.1328   537.3405 </r>
       <r>    -7.5906    26.9994   542.5935 </r>
       <r>    -7.3960     7.2293   544.0000 </r>
       <r>    -7.2015     0.0000   544.0000 </r>
       <r>    -7.0069     0.0000   544.0000 </r>
       <r>    -6.8124     0.0000   544.0000 </r>
       <r>    -6.6178     0.0000   544.0000 </r>
       <r>    -6.4232     0.0000   544.0000 </r>
       <r>    -6.2287     0.0000   544.0000 </r>
       <r>    -6.0341     0.0000   544.0000 </r>
       <r>    -5.8396     0.0000   544.0000 </r>
       <r>    -5.6450     0.0000   544.0000 </r>
       <r>    -5.4504     0.0000   544.0000 </r>
       <r>    -5.2559     0.3679   544.0716 </r>
       <r>    -5.0613    27.0822   549.3406 </r>
       <r>    -4.8668    39.2283   556.9728 </r>
       <r>    -4.6722    34.9711   563.7767 </r>
       <r>    -4.4777    29.5974   569.5352 </r>
       <r>    -4.2831    37.8247   576.8943 </r>
       <r>    -4.0885    46.0438   585.8524 </r>
       <r>    -3.8940    79.0032   601.2232 </r>
       <r>    -3.6994    61.5373   613.1958 </r>
       <r>    -3.5049    42.6475   621.4932 </r>
       <r>    -3.3103    37.6698   628.8222 </r>
       <r>    -3.1157    27.3977   634.1526 </r>
       <r>    -2.9212    24.4455   638.9087 </r>
       <r>    -2.7266     5.6088   639.9999 </r>
       <r>    -2.5321     0.0003   640.0000 </r>
       <r>    -2.3375     0.0000   640.0000 </r>
       <r>    -2.1430     0.0000   640.0000 </r>
       <r>    -1.9484     0.3326   640.0647 </r>
       <r>    -1.7538     9.3213   641.8783 </r>
       <r>    -1.5593    17.3373   645.2514 </r>
       <r>    -1.3647    15.6664   648.2994 </r>
       <r>    -1.1702    16.9423   651.5957 </r>
       <r>    -0.9756    20.5959   655.6027 </r>
       <r>    -0.7810    26.4807   660.7548 </r>
       <r>    -0.5865    21.5297   664.9436 </r>
       <r>    -0.3919    33.4248   671.4466 </r>
       <r>    -0.1974    31.8469   677.6427 </r>
       <r>    -0.0028    32.2614   683.9194 </r>
       <r>     0.1917    26.2833   689.0331 </r>
       <r>     0.3863    34.5019   695.7457 </r>
       <r>     0.5809    44.4103   704.3861 </r>
       <r>     0.7754    97.3508   723.3265 </r>
       <r>     0.9700   104.7761   743.7116 </r>
       <r>     1.1645   100.1766   763.2017 </r>
       <r>     1.3591    24.6619   767.9999 </r>
       <r>     1.5537     0.0004   768.0000 </r>
       <r>     1.7482     0.0000   768.0000 </r>
       <r>     1.9428     0.0000   768.0000 </r>
       <r>     2.1373     0.0000   768.0000 </r>
       <r>     2.3319     0.0000   768.0000 </r>
       <r>     2.5264     0.0000   768.0000 </r>
       <r>     2.7210     0.0000   768.0000 </r>
       <r>     2.9156     0.0000   768.0000 </r>
       <r>     3.1101     0.0000   768.0000 </r>
       <r>     3.3047     0.0000   768.0000 </r>
       <r>     3.4992     0.0000   768.0000 </r>
       <r>     3.6938     0.0000   768.0000 </r>
       <r>     3.8883     0.0000   768.0000 </r>
      </set>
     </set>
    </array>
   </total>
  </dos>
 </calculation>
 <structure name="finalpos" >
  <crystal>
   <varray name="basis" >
    <v>      13.12862340       0.00000000       0.00000000 </v>
    <v>      -6.56431170      11.36972138       0.00000000 </v>
    <v>       0.00000000       0.00000000      26.82809424 </v>
   </varray>
   <i name="volume">   4004.59716953 </i>
   <varray name="rec_basis" >
    <v>       0.07616945       0.04397645       0.00000000 </v>
    <v>       0.00000000       0.08795290       0.00000000 </v>
    <v>       0.00000000       0.00000000       0.03727436 </v>
   </varray>
  </crystal>
  <varray name="positions" >
   <v>       0.09018817       0.15929680       0.45481941 </v>
   <v>       0.08123872       0.41828527       0.45581742 </v>
   <v>       0.08139754       0.66104893       0.45437914 </v>
   <v>       0.08321290       0.91531000       0.45273023 </v>
   <v>       0.33769758       0.17798252       0.45296187 </v>
   <v>       0.33160429       0.41555602       0.45174967 </v>
   <v>       0.33546893       0.66357881       0.44713050 </v>
   <v>       0.34191904       0.92118825       0.45286501 </v>
   <v>       0.57919197       0.16376065       0.45402375 </v>
   <v>       0.58920713       0.41937274       0.45580541 </v>
   <v>       0.58278682       0.66040639       0.45345619 </v>
   <v>       0.58493239       0.92299553       0.45204115 </v>
   <v>       0.83032533       0.16751535       0.44929373 </v>
   <v>       0.83740376       0.41692788       0.45618998 </v>
   <v>       0.83872213       0.67772831       0.44788141 </v>
   <v>       0.83705205       0.92179434       0.45102929 </v>
   <v>       0.17069987       0.08760002       0.55153788 </v>
   <v>       0.15978928       0.34287318       0.54830835 </v>
   <v>       0.18226641       0.59926568       0.54694673 </v>
   <v>       0.15454179       0.82825537       0.54543383 </v>
   <v>       0.40651055       0.07009491       0.54834021 </v>
   <v>       0.40878179       0.33475035       0.54591147 </v>
   <v>       0.41796411       0.58927153       0.54187725 </v>
   <v>       0.41574063       0.82933443       0.54534608 </v>
   <v>       0.65600643       0.07602041       0.54746447 </v>
   <v>       0.66500149       0.33893061       0.54506665 </v>
   <v>       0.67137732       0.59295763       0.54886457 </v>
   <v>       0.66587663       0.83287851       0.54398202 </v>
   <v>       0.91973213       0.08167830       0.54837314 </v>
   <v>       0.90113617       0.32382153       0.55027693 </v>
   <v>       0.91658304       0.57646233       0.55198027 </v>
   <v>       0.90408083       0.82783981       0.54367411 </v>
   <v>       0.08531694       0.16480128       0.59554205 </v>
   <v>       0.07586621       0.42156600       0.59500365 </v>
   <v>       0.08072891       0.66938435       0.58831504 </v>
   <v>       0.07746666       0.90859493       0.59005273 </v>
   <v>       0.33105466       0.15872784       0.59378682 </v>
   <v>       0.32759558       0.42587885       0.58661292 </v>
   <v>       0.33339386       0.65906320       0.58904644 </v>
   <v>       0.33078631       0.90333163       0.58619640 </v>
   <v>       0.57440204       0.15412850       0.59447979 </v>
   <v>       0.59153703       0.42696053       0.59040655 </v>
   <v>       0.58324695       0.66514399       0.58729488 </v>
   <v>       0.58779727       0.89593194       0.59240075 </v>
   <v>       0.82432484       0.14942739       0.59317991 </v>
   <v>       0.83458994       0.41660660       0.59218002 </v>
   <v>       0.83384003       0.67070054       0.58783889 </v>
   <v>       0.83909348       0.91337785       0.58993291 </v>
   <v>       0.16965655       0.08161041       0.41364471 </v>
   <v>       0.16611395       0.32734096       0.41607668 </v>
   <v>       0.16950926       0.57929333       0.41203183 </v>
   <v>       0.18014193       0.84209511       0.41238140 </v>
   <v>       0.40968954       0.07819060       0.41193504 </v>
   <v>       0.40648619       0.34487017       0.40628115 </v>
   <v>       0.42389177       0.58658998       0.40577101 </v>
   <v>       0.41873935       0.83393357       0.41107574 </v>
   <v>       0.66393845       0.07832221       0.40816748 </v>
   <v>       0.66659892       0.33344088       0.41428154 </v>
   <v>       0.67256783       0.58660526       0.41032719 </v>
   <v>       0.67367917       0.84267175       0.40851869 </v>
   <v>       0.92582790       0.09241373       0.40900249 </v>
   <v>       0.92152726       0.33076929       0.40540053 </v>
   <v>       0.91021689       0.58262730       0.40560160 </v>
   <v>       0.93317668       0.83544818       0.40669049 </v>
   <v>       0.01200059       0.00472957       0.50139098 </v>
   <v>       0.99808747       0.24852233       0.50196897 </v>
   <v>       0.00244132       0.50119061       0.50021701 </v>
   <v>       0.99379209       0.74616187       0.50071242 </v>
   <v>       0.25988594       0.00414212       0.49890732 </v>
   <v>       0.25288660       0.24761421       0.50226093 </v>
   <v>       0.24977926       0.50351842       0.50240254 </v>
   <v>       0.24903175       0.74463376       0.49616434 </v>
   <v>       0.50239370       0.99606885       0.50212626 </v>
   <v>       0.50120018       0.25994667       0.49861700 </v>
   <v>       0.50092258       0.49955874       0.49915933 </v>
   <v>       0.50400882       0.74962609       0.49796637 </v>
   <v>       0.76370487       0.00528096       0.50087539 </v>
   <v>       0.74869476       0.24886567       0.50006027 </v>
   <v>       0.75415230       0.50016439       0.50297078 </v>
   <v>       0.75165665       0.74815705       0.49586467 </v>
  </varray>
  <varray name="velocities" >
   <v>       0.00000000       0.00000000       0.00000000 </v>
   <v>       0.00000000       0.00000000       0.00000000 </v>
   <v>       0.00000000       0.00000000       0.00000000 </v>
   <v>       0.00000000       0.00000000       0.00000000 </v>
   <v>       0.00000000       0.00000000       0.00000000 </v>
   <v>       0.00000000       0.00000000       0.00000000 </v>
   <v>       0.00000000       0.00000000       0.00000000 </v>
   <v>       0.00000000       0.00000000       0.00000000 </v>
   <v>       0.00000000       0.00000000       0.00000000 </v>
   <v>       0.00000000       0.00000000       0.00000000 </v>
   <v>       0.00000000       0.00000000       0.00000000 </v>
   <v>       0.00000000       0.00000000       0.00000000 </v>
   <v>       0.00000000       0.00000000       0.00000000 </v>
   <v>       0.00000000       0.00000000       0.00000000 </v>
   <v>       0.00000000       0.00000000       0.00000000 </v>
   <v>       0.00000000       0.00000000       0.00000000 </v>
   <v>       0.00000000       0.00000000       0.00000000 </v>
   <v>       0.00000000       0.00000000       0.00000000 </v>
   <v>       0.00000000       0.00000000       0.00000000 </v>
   <v>       0.00000000       0.00000000       0.00000000 </v>
   <v>       0.00000000       0.00000000       0.00000000 </v>
   <v>       0.00000000       0.00000000       0.00000000 </v>
   <v>       0.00000000       0.00000000       0.00000000 </v>
   <v>       0.00000000       0.00000000       0.00000000 </v>
   <v>       0.00000000       0.00000000       0.00000000 </v>
   <v>       0.00000000       0.00000000       0.00000000 </v>
   <v>       0.00000000       0.00000000       0.00000000 </v>
   <v>       0.00000000       0.00000000       0.00000000 </v>
   <v>       0.00000000       0.00000000       0.00000000 </v>
   <v>       0.00000000       0.00000000       0.00000000 </v>
   <v>       0.00000000       0.00000000       0.00000000 </v>
   <v>       0.00000000       0.00000000       0.00000000 </v>
   <v>       0.00000000       0.00000000       0.00000000 </v>
   <v>       0.00000000       0.00000000       0.00000000 </v>
   <v>       0.00000000       0.00000000       0.00000000 </v>
   <v>       0.00000000       0.00000000       0.00000000 </v>
   <v>       0.00000000       0.00000000       0.00000000 </v>
   <v>       0.00000000       0.00000000       0.00000000 </v>
   <v>       0.00000000       0.00000000       0.00000000 </v>
   <v>       0.00000000       0.00000000       0.00000000 </v>
   <v>       0.00000000       0.00000000       0.00000000 </v>
   <v>       0.00000000       0.00000000       0.00000000 </v>
   <v>       0.00000000       0.00000000       0.00000000 </v>
   <v>       0.00000000       0.00000000       0.00000000 </v>
   <v>       0.00000000       0.00000000       0.00000000 </v>
   <v>       0.00000000       0.00000000       0.00000000 </v>
   <v>       0.00000000       0.00000000       0.00000000 </v>
   <v>       0.00000000       0.00000000       0.00000000 </v>
   <v>       0.00000000       0.00000000       0.00000000 </v>
   <v>       0.00000000       0.00000000       0.00000000 </v>
   <v>       0.00000000       0.00000000       0.00000000 </v>
   <v>       0.00000000       0.00000000       0.00000000 </v>
   <v>       0.00000000       0.00000000       0.00000000 </v>
   <v>       0.00000000       0.00000000       0.00000000 </v>
   <v>       0.00000000       0.00000000       0.00000000 </v>
   <v>       0.00000000       0.00000000       0.00000000 </v>
   <v>       0.00000000       0.00000000       0.00000000 </v>
   <v>       0.00000000       0.00000000       0.00000000 </v>
   <v>       0.00000000       0.00000000       0.00000000 </v>
   <v>       0.00000000       0.00000000       0.00000000 </v>
   <v>       0.00000000       0.00000000       0.00000000 </v>
   <v>       0.00000000       0.00000000       0.00000000 </v>
   <v>       0.00000000       0.00000000       0.00000000 </v>
   <v>       0.00000000       0.00000000       0.00000000 </v>
   <v>       0.00000000       0.00000000       0.00000000 </v>
   <v>       0.00000000       0.00000000       0.00000000 </v>
   <v>       0.00000000       0.00000000       0.00000000 </v>
   <v>       0.00000000       0.00000000       0.00000000 </v>
   <v>       0.00000000       0.00000000       0.00000000 </v>
   <v>       0.00000000       0.00000000       0.00000000 </v>
   <v>       0.00000000       0.00000000       0.00000000 </v>
   <v>       0.00000000       0.00000000       0.00000000 </v>
   <v>       0.00000000       0.00000000       0.00000000 </v>
   <v>       0.00000000       0.00000000       0.00000000 </v>
   <v>       0.00000000       0.00000000       0.00000000 </v>
   <v>       0.00000000       0.00000000       0.00000000 </v>
   <v>       0.00000000       0.00000000       0.00000000 </v>
   <v>       0.00000000       0.00000000       0.00000000 </v>
   <v>       0.00000000       0.00000000       0.00000000 </v>
   <v>       0.00000000       0.00000000       0.00000000 </v>
  </varray>
 </structure>
</modeling>
