 vasp.5.4.4.18Apr17-6-g9f103f2a35 (build Oct 31 2019 15:01:46) complex          
  
 executed on             LinuxIFC date 2024.04.30  23:39:09
 running on   52 total cores
 distrk:  each k-point on   52 cores,    1 groups
 distr:  one band on NCORES_PER_BAND=  13 cores,    4 groups


--------------------------------------------------------------------------------------------------------


 INCAR:
 POTCAR:    PAW_PBE Sc_sv 07Sep2000               
 POTCAR:    PAW_PBE Cl 06Sep2000                  
 POTCAR:    PAW_PBE C 08Apr2002                   
 POTCAR:    PAW_PBE Sc_sv 07Sep2000               
   VRHFIN =Sc: 3p4s3d                                                           
   LEXCH  = PE                                                                  
   EATOM  =  1273.2868 eV,   93.5839 Ry                                         
                                                                                
   TITEL  = PAW_PBE Sc_sv 07Sep2000                                             
   LULTRA =        F    use ultrasoft PP ?                                      
   IUNSCR =        1    unscreen: 0-lin 1-nonlin 2-no                           
   RPACOR =    2.200    partial core radius                                     
   POMASS =   44.956; ZVAL   =   11.000    mass and valenz                      
   RCORE  =    2.500    outmost cutoff radius                                   
   RWIGS  =    2.700; RWIGS  =    1.429    wigner-seitz radius (au A)           
   ENMAX  =  222.660; ENMIN  =  166.995 eV                                      
   RCLOC  =    1.805    cutoff for local pot                                    
   LCOR   =        T    correct aug charges                                     
   LPAW   =        T    paw PP                                                  
   EAUG   =  443.063                                                            
   RMAX   =    2.551    core radius for proj-oper                               
   RAUG   =    1.300    factor for augmentation sphere                          
   RDEP   =    2.650    radius for radial grids                                 
   RDEPT  =    2.038    core radius for aug-charge                              
                                                                                
   Atomic configuration                                                         
    8 entries                                                                   
     n  l   j            E        occ.                                          
     1  0  0.50     -4394.2533   2.0000                                         
     2  0  0.50      -471.0040   2.0000                                         
     2  1  1.50      -384.9788   6.0000                                         
     3  0  0.50       -52.1410   2.0000                                         
     4  0  0.50        -3.5584   1.0000                                         
     3  1  1.50       -30.8841   6.0000                                         
     3  2  2.50        -1.3655   2.0000                                         
     4  3  2.50        -1.3606   0.0000                                         
   Description                                                                  
     l       E           TYP  RCUT    TYP  RCUT                                 
     0    -52.1409870     23  1.800                                             
     0     -3.5583698     23  2.500                                             
     1    -30.8840697     23  2.300                                             
     1      4.0817478     23  2.300                                             
     2     -1.3655397     23  2.500                                             
     2      0.3564476     23  2.500                                             
  local pseudopotential read in
  partial core-charges read in
  partial kinetic energy density read in
  atomic valenz-charges read in
  non local Contribution for L=           0  read in
    real space projection operators read in
  non local Contribution for L=           0  read in
    real space projection operators read in
  non local Contribution for L=           1  read in
    real space projection operators read in
  non local Contribution for L=           1  read in
    real space projection operators read in
  non local Contribution for L=           2  read in
    real space projection operators read in
  non local Contribution for L=           2  read in
    real space projection operators read in
    PAW grid and wavefunctions read in
 
   number of l-projection  operators is LMAX  =           6
   number of lm-projection operators is LMMAX =          18
 
 POTCAR:    PAW_PBE Cl 06Sep2000                  
   VRHFIN =Cl: s2p5                                                             
   LEXCH  = PE                                                                  
   EATOM  =   409.7259 eV,   30.1140 Ry                                         
                                                                                
   TITEL  = PAW_PBE Cl 06Sep2000                                                
   LULTRA =        F    use ultrasoft PP ?                                      
   IUNSCR =        1    unscreen: 0-lin 1-nonlin 2-no                           
   RPACOR =    1.500    partial core radius                                     
   POMASS =   35.453; ZVAL   =    7.000    mass and valenz                      
   RCORE  =    1.900    outmost cutoff radius                                   
   RWIGS  =    2.100; RWIGS  =    1.111    wigner-seitz radius (au A)           
   ENMAX  =  262.472; ENMIN  =  196.854 eV                                      
   ICORE  =        2    local potential                                         
   LCOR   =        T    correct aug charges                                     
   LPAW   =        T    paw PP                                                  
   EAUG   =  356.192                                                            
   DEXC   =    0.000                                                            
   RMAX   =    1.945    core radius for proj-oper                               
   RAUG   =    1.300    factor for augmentation sphere                          
   RDEP   =    2.020    radius for radial grids                                 
   RDEPT  =    1.678    core radius for aug-charge                              
                                                                                
   Atomic configuration                                                         
    6 entries                                                                   
     n  l   j            E        occ.                                          
     1  0  0.50     -2751.1850   2.0000                                         
     2  0  0.50      -252.6861   2.0000                                         
     2  1  1.50      -191.6157   6.0000                                         
     3  0  0.50       -20.6916   2.0000                                         
     3  1  0.50        -8.5949   5.0000                                         
     3  2  1.50        -8.1635   0.0000                                         
   Description                                                                  
     l       E           TYP  RCUT    TYP  RCUT                                 
     0    -20.6915656     23  1.900                                             
     0    -22.0521482     23  1.900                                             
     1     -8.5948577     23  1.900                                             
     1     -5.3847331     23  1.900                                             
     2     -8.1634956     23  1.900                                             
  local pseudopotential read in
  partial core-charges read in
  partial kinetic energy density read in
  atomic valenz-charges read in
  non local Contribution for L=           0  read in
    real space projection operators read in
  non local Contribution for L=           0  read in
    real space projection operators read in
  non local Contribution for L=           1  read in
    real space projection operators read in
  non local Contribution for L=           1  read in
    real space projection operators read in
    PAW grid and wavefunctions read in
 
   number of l-projection  operators is LMAX  =           4
   number of lm-projection operators is LMMAX =           8
 
 POTCAR:    PAW_PBE C 08Apr2002                   
   VRHFIN =C: s2p2                                                              
   LEXCH  = PE                                                                  
   EATOM  =   147.1560 eV,   10.8157 Ry                                         
                                                                                
   TITEL  = PAW_PBE C 08Apr2002                                                 
   LULTRA =        F    use ultrasoft PP ?                                      
   IUNSCR =        1    unscreen: 0-lin 1-nonlin 2-no                           
   RPACOR =    1.200    partial core radius                                     
   POMASS =   12.011; ZVAL   =    4.000    mass and valenz                      
   RCORE  =    1.500    outmost cutoff radius                                   
   RWIGS  =    1.630; RWIGS  =    0.863    wigner-seitz radius (au A)           
   ENMAX  =  400.000; ENMIN  =  300.000 eV                                      
   ICORE  =        2    local potential                                         
   LCOR   =        T    correct aug charges                                     
   LPAW   =        T    paw PP                                                  
   EAUG   =  644.873                                                            
   DEXC   =    0.000                                                            
   RMAX   =    1.529    core radius for proj-oper                               
   RAUG   =    1.300    factor for augmentation sphere                          
   RDEP   =    1.501    radius for radial grids                                 
   RDEPT  =    1.300    core radius for aug-charge                              
                                                                                
   Atomic configuration                                                         
    4 entries                                                                   
     n  l   j            E        occ.                                          
     1  0  0.50      -273.3789   2.0000                                         
     2  0  0.50       -13.7508   2.0000                                         
     2  1  0.50        -5.2854   2.0000                                         
     3  2  1.50        -5.4423   0.0000                                         
   Description                                                                  
     l       E           TYP  RCUT    TYP  RCUT                                 
     0    -13.7508458     23  1.200                                             
     0     -8.2022199     23  1.200                                             
     1     -5.2854383     23  1.500                                             
     1     34.0145650     23  1.500                                             
     2     -5.4423304      7  1.500                                             
  local pseudopotential read in
  partial core-charges read in
  partial kinetic energy density read in
  atomic valenz-charges read in
  non local Contribution for L=           0  read in
    real space projection operators read in
  non local Contribution for L=           0  read in
    real space projection operators read in
  non local Contribution for L=           1  read in
    real space projection operators read in
  non local Contribution for L=           1  read in
    real space projection operators read in
    PAW grid and wavefunctions read in
 
   number of l-projection  operators is LMAX  =           4
   number of lm-projection operators is LMMAX =           8
 
 Optimization of the real space projectors (new method)

 maximal supplied QI-value         = 15.12
 optimisation between [QCUT,QGAM] = [ 12.55, 25.10] = [ 44.09,176.36] Ry 
 Optimized for a Real-space Cutoff    1.56 Angstroem

   l    n(q)    QCUT    max X(q) W(low)/X(q) W(high)/X(q)  e(spline) 
   0     12    12.548     2.962    0.12E-05    0.11E-06    0.46E-07
   0     12    12.548    26.414    0.30E-04    0.15E-05    0.76E-07
   1     11    12.548     3.969    0.45E-05    0.12E-05    0.60E-07
   1     11    12.548     5.137    0.15E-04    0.18E-04    0.36E-06
   2     11    12.548   143.970    0.20E-03    0.19E-03    0.76E-06
   2     11    12.548   121.201    0.20E-03    0.19E-03    0.76E-06
 Optimization of the real space projectors (new method)

 maximal supplied QI-value         = 19.84
 optimisation between [QCUT,QGAM] = [ 12.50, 25.00] = [ 43.76,175.03] Ry 
 Optimized for a Real-space Cutoff    1.20 Angstroem

   l    n(q)    QCUT    max X(q) W(low)/X(q) W(high)/X(q)  e(spline) 
   0      9    12.501   168.010    0.44E-04    0.61E-04    0.77E-07
   0      9    12.501   164.674    0.43E-04    0.60E-04    0.75E-07
   1      8    12.501    69.222    0.11E-03    0.13E-03    0.91E-07
   1      8    12.501    56.786    0.11E-03    0.13E-03    0.90E-07
 Optimization of the real space projectors (new method)

 maximal supplied QI-value         = 25.13
 optimisation between [QCUT,QGAM] = [ 12.32, 24.88] = [ 42.47,173.37] Ry 
 Optimized for a Real-space Cutoff    1.16 Angstroem

   l    n(q)    QCUT    max X(q) W(low)/X(q) W(high)/X(q)  e(spline) 
   0      9    12.315   115.676    0.19E-03    0.80E-05    0.34E-06
   0      9    12.315    87.132    0.19E-03    0.82E-05    0.34E-06
   1      8    12.315     4.429    0.18E-03    0.13E-03    0.22E-06
   1      8    12.315     2.733    0.14E-03    0.10E-03    0.18E-06
  PAW_PBE Sc_sv 07Sep2000               :
 energy of atom  1       EATOM=-1273.2868
 kinetic energy error for atom=    0.0014 (will be added to EATOM!!)
  PAW_PBE Cl 06Sep2000                  :
 energy of atom  2       EATOM= -409.7259
 kinetic energy error for atom=    0.0013 (will be added to EATOM!!)
  PAW_PBE C 08Apr2002                   :
 energy of atom  3       EATOM= -147.1560
 kinetic energy error for atom=    0.0057 (will be added to EATOM!!)
 
 
 POSCAR: Sc Cl  C                                
  positions in cartesian coordinates
  No initial velocities read in
 exchange correlation table for  LEXCH =        8
   RHO(1)=    0.500       N(1)  =     2000
   RHO(2)=  100.500       N(2)  =     4000
 


--------------------------------------------------------------------------------------------------------


 ion  position               nearest neighbor table
   1  0.084  0.157  0.544-  65 2.26  70 2.31  66 2.48  49 2.54  61 2.57  50 2.64  17 3.10   5 3.26
                             4 3.26  18 3.27  29 3.28  16 3.41
   2  0.078  0.404  0.552-  66 2.34  62 2.48  71 2.52  67 2.55  50 2.59  51 2.67  30 3.15  18 3.17
                            13 3.32  19 3.41
   3  0.082  0.664  0.541-  67 2.27  72 2.28  68 2.42  52 2.55  63 2.58  51 2.84  19 3.02  31 3.09
                            20 3.21
   4  0.087  0.922  0.539-  65 2.25  68 2.27  69 2.40  49 2.60  52 2.66  64 2.79  32 3.05  20 3.07
                            17 3.15   1 3.26   5 3.37   8 3.38
   5  0.327  0.170  0.543-  70 2.19  69 2.34  74 2.35  49 2.56  54 2.67  53 2.72  17 3.06  22 3.22
                            21 3.25   1 3.26   6 3.35   4 3.37   8 3.40  10 3.42
   6  0.347  0.422  0.546-  75 2.26  70 2.36  71 2.37  55 2.53  54 2.68  50 2.70  22 3.19  23 3.22
                            18 3.23  11 3.30  10 3.35   5 3.35
   7  0.332  0.664  0.547-  76 2.23  71 2.37  72 2.49  55 2.54  56 2.60  51 2.62  24 3.12  23 3.17
                            19 3.18  11 3.40  12 3.42
   8  0.335  0.928  0.542-  73 2.30  72 2.36  69 2.40  52 2.52  53 2.53  56 2.65  24 3.03  21 3.14
                            20 3.29   9 3.30   4 3.38   5 3.40
   9  0.581  0.160  0.543-  73 2.23  78 2.26  74 2.46  58 2.59  53 2.60  57 2.63  25 3.18  26 3.20
                            21 3.24   8 3.30  12 3.42  10 3.42
  10  0.583  0.410  0.543-  74 2.29  79 2.40  75 2.42  59 2.61  58 2.67  54 2.69  26 3.18  22 3.23
                            14 3.28  27 3.28   6 3.35   9 3.42   5 3.42
  11  0.580  0.666  0.541-  76 2.25  75 2.28  80 2.34  59 2.60  55 2.70  60 2.74  28 3.08  23 3.09
                            27 3.24   6 3.30  12 3.40   7 3.40
  12  0.580  0.912  0.546-  76 2.28  77 2.38  73 2.41  60 2.51  56 2.63  57 2.69  24 3.06  28 3.14
                            25 3.33  11 3.40   9 3.42   7 3.42
  13  0.838  0.163  0.546-  66 2.32  77 2.33  78 2.48  61 2.56  62 2.64  57 2.69  29 3.12  30 3.12
                            25 3.24   2 3.32  16 3.41
  14  0.825  0.418  0.544-  79 2.21  67 2.32  78 2.38  63 2.45  58 2.59  62 2.79  31 3.06  30 3.09
                            26 3.14  10 3.28  15 3.38
  15  0.833  0.667  0.545-  80 2.34  68 2.45  79 2.45  59 2.52  64 2.54  63 2.65  27 3.20  32 3.24
                            31 3.26  14 3.38  16 3.38
  16  0.833  0.913  0.543-  80 2.20  77 2.33  65 2.43  61 2.55  64 2.61  60 2.63  28 3.10  29 3.17
                            32 3.19  15 3.38  13 3.41   1 3.41
  17  0.177  0.097  0.454-  69 2.21  70 2.30  65 2.36  33 2.55  37 2.58  36 2.65   5 3.06   1 3.10
                             4 3.15  22 3.30  21 3.32
  18  0.169  0.343  0.458-  71 2.19  66 2.33  70 2.41  34 2.55  38 2.56  33 2.63   2 3.17   6 3.23
                             1 3.27  19 3.37  23 3.40  30 3.43
  19  0.166  0.586  0.457-  72 2.36  67 2.41  71 2.42  35 2.60  34 2.62  39 2.63   3 3.02   7 3.18
                            18 3.37  31 3.38   2 3.41  23 3.43
  20  0.156  0.834  0.452-  68 2.21  72 2.43  36 2.44  69 2.44  35 2.58  40 2.70   4 3.07  32 3.20
                             3 3.21   8 3.29
  21  0.413  0.088  0.452-  69 2.19  74 2.32  73 2.45  37 2.56  41 2.60  40 2.63   8 3.14   9 3.24
                             5 3.25  17 3.32  22 3.42  26 3.43
  22  0.415  0.337  0.452-  74 2.34  75 2.37  70 2.41  38 2.62  37 2.63  42 2.67   6 3.19   5 3.22
                            10 3.23  17 3.30  21 3.42
  23  0.416  0.589  0.455-  76 2.34  71 2.34  75 2.39  38 2.49  39 2.53  43 2.56  11 3.09   7 3.17
                             6 3.22  18 3.40  24 3.41  19 3.43
  24  0.415  0.835  0.462-  72 2.26  73 2.27  76 2.32  44 2.60  40 2.63  39 2.67   8 3.03  12 3.06
                             7 3.12  23 3.41
  25  0.674  0.089  0.453-  78 2.31  77 2.40  73 2.44  41 2.53  45 2.54  44 2.58   9 3.18  13 3.24
                            29 3.27  12 3.33  26 3.36  30 3.39
  26  0.668  0.330  0.454-  78 2.31  79 2.32  74 2.42  46 2.55  41 2.62  42 2.77  14 3.14  10 3.18
                             9 3.20  25 3.36  31 3.38  30 3.41  21 3.43
  27  0.675  0.585  0.453-  79 2.35  75 2.45  80 2.46  42 2.54  47 2.67  43 2.68  15 3.20  11 3.24
                            10 3.28  31 3.41
  28  0.667  0.836  0.458-  77 2.28  80 2.34  76 2.47  43 2.48  48 2.54  44 2.56  11 3.08  16 3.10
                            12 3.14  29 3.33
  29  0.906  0.079  0.455-  77 2.27  66 2.39  65 2.43  45 2.49  33 2.63  48 2.70  13 3.12  16 3.17
                            25 3.27   1 3.28  28 3.33
  30  0.917  0.336  0.462-  67 2.23  66 2.24  78 2.35  34 2.58  45 2.69  46 2.82  14 3.09  13 3.12
                             2 3.15  31 3.28  25 3.39  26 3.41  18 3.43
  31  0.915  0.572  0.456-  67 2.23  79 2.25  68 2.51  46 2.51  47 2.52  35 2.63  14 3.06   3 3.09
                            15 3.26  30 3.28  19 3.38  26 3.38  27 3.41
  32  0.925  0.836  0.454-  68 2.19  65 2.32  80 2.44  48 2.57  36 2.59  47 2.60   4 3.05  16 3.19
                            20 3.20  15 3.24
  33  0.083  0.172  0.399-  17 2.55  29 2.63  18 2.63
  34  0.076  0.413  0.399-  18 2.55  30 2.58  19 2.62
  35  0.082  0.663  0.395-  20 2.58  19 2.60  31 2.63
  36  0.091  0.924  0.395-  20 2.44  32 2.59  17 2.65
  37  0.334  0.170  0.391-  21 2.56  17 2.58  22 2.63
  38  0.330  0.430  0.398-  23 2.49  18 2.56  22 2.62
  39  0.335  0.670  0.397-  23 2.53  19 2.63  24 2.67
  40  0.338  0.914  0.394-  21 2.63  24 2.63  20 2.70
  41  0.584  0.160  0.394-  25 2.53  21 2.60  26 2.62
  42  0.586  0.428  0.391-  27 2.54  22 2.67  26 2.77
  43  0.584  0.681  0.399-  28 2.48  23 2.56  27 2.68
  44  0.577  0.913  0.400-  28 2.56  25 2.58  24 2.60
  45  0.840  0.171  0.396-  29 2.49  25 2.54  30 2.69
  46  0.828  0.421  0.393-  31 2.51  26 2.55  30 2.82
  47  0.854  0.667  0.396-  31 2.52  32 2.60  27 2.67
  48  0.823  0.900  0.396-  28 2.54  32 2.57  29 2.70
  49  0.166  0.079  0.604-   1 2.54   5 2.56   4 2.60
  50  0.171  0.323  0.607-   2 2.59   1 2.64   6 2.70
  51  0.171  0.580  0.611-   7 2.62   2 2.67   3 2.84
  52  0.171  0.831  0.598-   8 2.52   3 2.55   4 2.66
  53  0.416  0.082  0.604-   8 2.53   9 2.60   5 2.72
  54  0.420  0.329  0.610-   5 2.67   6 2.68  10 2.69
  55  0.412  0.581  0.606-   6 2.53   7 2.54  11 2.70
  56  0.407  0.835  0.604-   7 2.60  12 2.63   8 2.65
  57  0.666  0.085  0.608-   9 2.63  13 2.69  12 2.69
  58  0.663  0.320  0.606-   9 2.59  14 2.59  10 2.67
  59  0.666  0.583  0.600-  15 2.52  11 2.60  10 2.61
  60  0.667  0.841  0.605-  12 2.51  16 2.63  11 2.74
  61  0.918  0.074  0.603-  16 2.55  13 2.56   1 2.57
  62  0.917  0.331  0.608-   2 2.48  13 2.64  14 2.79
  63  0.919  0.574  0.601-  14 2.45   3 2.58  15 2.65
  64  0.912  0.828  0.605-  15 2.54  16 2.61   4 2.79
  65  0.006  0.003  0.497-   4 2.25   1 2.26  32 2.32  17 2.36  16 2.43  29 2.43
  66  0.999  0.251  0.499-  30 2.24  13 2.32  18 2.33   2 2.34  29 2.39   1 2.48
  67  0.993  0.497  0.502-  31 2.23  30 2.23   3 2.27  14 2.32  19 2.41   2 2.55
  68  0.003  0.759  0.497-  32 2.19  20 2.21   4 2.27   3 2.42  15 2.45  31 2.51
  69  0.256  0.015  0.492-  21 2.19  17 2.21   5 2.34   8 2.40   4 2.40  20 2.44
  70  0.251  0.253  0.503-   5 2.19  17 2.30   1 2.31   6 2.36  18 2.41  22 2.41
  71  0.252  0.496  0.501-  18 2.19  23 2.34   7 2.37   6 2.37  19 2.42   2 2.52
  72  0.248  0.757  0.500-  24 2.26   3 2.28   8 2.36  19 2.36  20 2.43   7 2.49
  73  0.500  0.003  0.499-   9 2.23  24 2.27   8 2.30  12 2.41  25 2.44  21 2.45
  74  0.493  0.250  0.498-  10 2.29  21 2.32  22 2.34   5 2.35  26 2.42   9 2.46
  75  0.501  0.502  0.499-   6 2.26  11 2.28  22 2.37  23 2.39  10 2.42  27 2.45
  76  0.492  0.747  0.505-   7 2.23  11 2.25  12 2.28  24 2.32  23 2.34  28 2.47
  77  0.749  0.998  0.501-  29 2.27  28 2.28  13 2.33  16 2.33  12 2.38  25 2.40
  78  0.743  0.246  0.501-   9 2.26  25 2.31  26 2.31  30 2.35  14 2.38  13 2.48
  79  0.753  0.496  0.497-  14 2.21  31 2.25  26 2.32  27 2.35  10 2.40  15 2.45
  80  0.753  0.756  0.502-  16 2.20  28 2.34  15 2.34  11 2.34  32 2.44  27 2.46
 
  LATTYP: Found a hexagonal cell.
 ALAT       =    13.7939866762
 C/A-ratio  =     2.0161119278
  
  Lattice vectors:
  
 A1 = (  13.7939866800,   0.0000000000,   0.0000000000)
 A2 = (  -6.8969933400,  11.9459428800,   0.0000000000)
 A3 = (   0.0000000000,   0.0000000000,  27.8102210700)


Analysis of symmetry for initial positions (statically):
=====================================================================
 Subroutine PRICEL returns:
 Original cell was already a primitive cell.
 

 Routine SETGRP: Setting up the symmetry group for a 
 hexagonal supercell.


 Subroutine GETGRP returns: Found  1 space group operations
 (whereof  1 operations were pure point group operations)
 out of a pool of 24 trial point group operations.


The static configuration has the point symmetry C_1 .


Analysis of symmetry for dynamics (positions and initial velocities):
=====================================================================
 Subroutine PRICEL returns:
 Original cell was already a primitive cell.
 

 Routine SETGRP: Setting up the symmetry group for a 
 hexagonal supercell.


 Subroutine GETGRP returns: Found  1 space group operations
 (whereof  1 operations were pure point group operations)
 out of a pool of 24 trial point group operations.


The dynamic configuration has the point symmetry C_1 .


 Subroutine INISYM returns: Found  1 space group operations
 (whereof  1 operations are pure point group operations),
 and found     1 'primitive' translations

 
 

Automatic generation of k-mesh.
 generate k-points for:    3    3    1
Space group operators:
 irot       det(A)        alpha          n_x          n_y          n_z        tau_x        tau_y        tau_z
    1     1.000000     0.000000     1.000000     0.000000     0.000000     0.000000     0.000000     0.000000
 
 Subroutine IBZKPT returns following result:
 ===========================================
 
 Found      5 irreducible k-points:
 
 Following reciprocal coordinates:
            Coordinates               Weight
  0.000000  0.000000  0.000000      1.000000
  0.333333 -0.000000  0.000000      2.000000
  0.000000  0.333333  0.000000      2.000000
  0.333333  0.333333  0.000000      2.000000
 -0.333333  0.333333  0.000000      2.000000
 
 Following cartesian coordinates:
            Coordinates               Weight
  0.000000  0.000000  0.000000      1.000000
  0.024165  0.013952  0.000000      2.000000
  0.000000  0.027903  0.000000      2.000000
  0.024165  0.041855  0.000000      2.000000
 -0.024165  0.013952  0.000000      2.000000
 


--------------------------------------------------------------------------------------------------------




 Dimension of arrays:
   k-points           NKPTS =      5   k-points in BZ     NKDIM =      5   number of bands    NBANDS=    384
   number of dos      NEDOS =    301   number of ions     NIONS =     80
   non local maximal  LDIM  =      6   non local SUM 2l+1 LMDIM =     18
   total plane-waves  NPLWV = ******
   max r-space proj   IRMAX =   9806   max aug-charges    IRDMAX= 216835
   dimension x,y,z NGX =   112 NGY =  112 NGZ =  224
   dimension x,y,z NGXF=   224 NGYF=  224 NGZF=  448
   support grid    NGXF=   448 NGYF=  448 NGZF=  896
   ions per type =              32  32  16
   NGX,Y,Z   is equivalent  to a cutoff of  13.50, 13.50, 13.39 a.u.
   NGXF,Y,Z  is equivalent  to a cutoff of  27.00, 27.00, 26.78 a.u.

 SYSTEM =  unknown system                          
 POSCAR =  Sc Cl  C                                

 Startparameter for this run:
   NWRITE =      2    write-flag & timer
   PREC   = anorma    normal or accurate (medium, high low for compatibility)
   ISTART =      0    job   : 0-new  1-cont  2-samecut
   ICHARG =      2    charge: 1-file 2-atom 10-const
   ISPIN  =      1    spin polarized calculation?
   LNONCOLLINEAR =      F non collinear calculations
   LSORBIT =      F    spin-orbit coupling
   INIWAV =      1    electr: 0-lowe 1-rand  2-diag
   LASPH  =      F    aspherical Exc in radial PAW
   METAGGA=      F    non-selfconsistent MetaGGA calc.

 Electronic Relaxation 1
   ENCUT  =  600.0 eV  44.10 Ry    6.64 a.u.  27.55 27.55 55.54*2*pi/ulx,y,z
   ENINI  =  600.0     initial cutoff
   ENAUG  =  644.9 eV  augmentation charge cutoff
   NELM   =     60;   NELMIN=  2; NELMDL= -5     # of ELM steps 
   EDIFF  = 0.1E-05   stopping-criterion for ELM
   LREAL  =      T    real-space projection
   NLSPLINE    = F    spline interpolate recip. space projectors
   LCOMPAT=      F    compatible to vasp.4.4
   GGA_COMPAT  = T    GGA compatible to vasp.4.4-vasp.4.6
   LMAXPAW     = -100 max onsite density
   LMAXMIX     =    2 max onsite mixed and CHGCAR
   VOSKOWN=      0    Vosko Wilk Nusair interpolation
   ROPT   =   -0.00025  -0.00025  -0.00025
 Ionic relaxation
   EDIFFG = -.1E-01   stopping-criterion for IOM
   NSW    =      1    number of steps for IOM
   NBLOCK =      1;   KBLOCK =      1    inner block; outer block 
   IBRION =     -1    ionic relax: 0-MD 1-quasi-New 2-CG
   NFREE  =      0    steps in history (QN), initial steepest desc. (CG)
   ISIF   =      2    stress and relaxation
   IWAVPR =     10    prediction:  0-non 1-charg 2-wave 3-comb
   ISYM   =      2    0-nonsym 1-usesym 2-fastsym
   LCORR  =      T    Harris-Foulkes like correction to forces

   POTIM  = 1.0000    time-step for ionic-motion
   TEIN   =    0.0    initial temperature
   TEBEG  =    0.0;   TEEND  =   0.0 temperature during run
   SMASS  =  -3.00    Nose mass-parameter (am)
   estimated Nose-frequenzy (Omega)   =  0.10E-29 period in steps =****** mass=  -0.435E-26a.u.
   SCALEE = 1.0000    scale energy and forces
   NPACO  =    256;   APACO  = 16.0  distance and # of slots for P.C.
   PSTRESS=    0.0 pullay stress

  Mass of Ions in am
   POMASS =  44.96 35.45 12.01
  Ionic Valenz
   ZVAL   =  11.00  7.00  4.00
  Atomic Wigner-Seitz radii
   RWIGS  =  -1.00 -1.00 -1.00
  virtual crystal weights 
   VCA    =   1.00  1.00  1.00
   NELECT =     640.0000    total number of electrons
   NUPDOWN=      -1.0000    fix difference up-down

 DOS related values:
   EMIN   =  10.00;   EMAX   =-10.00  energy-range for DOS
   EFERMI =   0.00
   ISMEAR =     0;   SIGMA  =   0.05  broadening in eV -4-tet -1-fermi 0-gaus

 Electronic relaxation 2 (details)
   IALGO  =     38    algorithm
   LDIAG  =      T    sub-space diagonalisation (order eigenvalues)
   LSUBROT=      F    optimize rotation matrix (better conditioning)
   TURBO    =      0    0=normal 1=particle mesh
   IRESTART =      0    0=no restart 2=restart with 2 vectors
   NREBOOT  =      0    no. of reboots
   NMIN     =      0    reboot dimension
   EREF     =   0.00    reference energy to select bands
   IMIX   =      4    mixing-type and parameters
     AMIX     =   0.40;   BMIX     =  1.00
     AMIX_MAG =   1.60;   BMIX_MAG =  1.00
     AMIN     =   0.10
     WC   =   100.;   INIMIX=   1;  MIXPRE=   1;  MAXMIX= -45

 Intra band minimization:
   WEIMIN = 0.0000     energy-eigenvalue tresh-hold
   EBREAK =  0.65E-09  absolut break condition
   DEPER  =   0.30     relativ break condition  

   TIME   =   0.40     timestep for ELM

  volume/ion in A,a.u.               =      57.28       386.56
  Fermi-wavevector in a.u.,A,eV,Ry     =   0.849369  1.605075  9.815628  0.721428
  Thomas-Fermi vector in A             =   1.965179
 
 Write flags
   LWAVE        =      F    write WAVECAR
   LDOWNSAMPLE  =      F    k-point downsampling of WAVECAR
   LCHARG       =      F    write CHGCAR
   LVTOT        =      F    write LOCPOT, total local potential
   LVHAR        =      F    write LOCPOT, Hartree potential only
   LELF         =      F    write electronic localiz. function (ELF)
   LORBIT       =      0    0 simple, 1 ext, 2 COOP (PROOUT), +10 PAW based schemes


 Dipole corrections
   LMONO  =      F    monopole corrections only (constant potential shift)
   LDIPOL =      F    correct potential (dipole corrections)
   IDIPOL =      0    1-x, 2-y, 3-z, 4-all directions 
   EPSILON=  1.0000000 bulk dielectric constant

 Exchange correlation treatment:
   GGA     =    --    GGA type
   LEXCH   =     8    internal setting for exchange type
   VOSKOWN=      0    Vosko Wilk Nusair interpolation
   LHFCALC =     F    Hartree Fock is set to
   LHFONE  =     F    Hartree Fock one center treatment
   AEXX    =    0.0000 exact exchange contribution

 Linear response parameters
   LEPSILON=     F    determine dielectric tensor
   LRPA    =     F    only Hartree local field effects (RPA)
   LNABLA  =     F    use nabla operator in PAW spheres
   LVEL    =     F    velocity operator in full k-point grid
   LINTERFAST=   F  fast interpolation
   KINTER  =     0    interpolate to denser k-point grid
   CSHIFT  =0.1000    complex shift for real part using Kramers Kronig
   OMEGAMAX=  -1.0    maximum frequency
   DEG_THRESHOLD= 0.2000000E-02 threshold for treating states as degnerate
   RTIME   =   -0.100 relaxation time in fs
  (WPLASMAI=    0.000 imaginary part of plasma frequency in eV, 0.658/RTIME)
   DFIELD  = 0.0000000 0.0000000 0.0000000 field for delta impulse in time
 
 Orbital magnetization related:
   ORBITALMAG=     F  switch on orbital magnetization
   LCHIMAG   =     F  perturbation theory with respect to B field
   DQ        =  0.001000  dq finite difference perturbation B field
   LLRAUG    =     F  two centre corrections for induced B field



--------------------------------------------------------------------------------------------------------


 Static calculation
 charge density and potential will be updated during run
 non-spin polarized calculation
 Variant of blocked Davidson
 Davidson routine will perform the subspace rotation
 perform sub-space diagonalisation
    after iterative eigenvector-optimisation
 modified Broyden-mixing scheme, WC =      100.0
 initial mixing is a Kerker type mixing with AMIX =  0.4000 and BMIX =      1.0000
 Hartree-type preconditioning will be used
 using additional bands           64
 real space projection scheme for non local part
 use partial core corrections
 calculate Harris-corrections to forces 
   (improved forces if not selfconsistent)
 use gradient corrections 
 use of overlap-Matrix (Vanderbilt PP)
 Gauss-broadening in eV      SIGMA  =   0.05


--------------------------------------------------------------------------------------------------------


  energy-cutoff  :      600.00
  volume of cell :     4582.63
      direct lattice vectors                 reciprocal lattice vectors
    13.793986680  0.000000000  0.000000000     0.072495358  0.041855214  0.000000000
    -6.896993340 11.945942880  0.000000000     0.000000000  0.083710429  0.000000000
     0.000000000  0.000000000 27.810221070     0.000000000  0.000000000  0.035958003

  length of vectors
    13.793986680 13.793986676 27.810221070     0.083710429  0.083710429  0.035958003


 
 k-points in units of 2pi/SCALE and weight: read from INCAR                         
   0.00000000  0.00000000  0.00000000       0.111
   0.02416512  0.01395174  0.00000000       0.222
   0.00000000  0.02790348  0.00000000       0.222
   0.02416512  0.04185521  0.00000000       0.222
  -0.02416512  0.01395174  0.00000000       0.222
 
 k-points in reciprocal lattice and weights: read from INCAR                         
   0.00000000  0.00000000  0.00000000       0.111
   0.33333333 -0.00000000  0.00000000       0.222
   0.00000000  0.33333333  0.00000000       0.222
   0.33333333  0.33333333  0.00000000       0.222
  -0.33333333  0.33333333  0.00000000       0.222
 
 position of ions in fractional coordinates (direct lattice) 
   0.08399733  0.15689432  0.54431125
   0.07789471  0.40377801  0.55170898
   0.08231579  0.66441689  0.54064317
   0.08716460  0.92219153  0.53887720
   0.32663056  0.17011829  0.54338368
   0.34653756  0.42219228  0.54602103
   0.33245114  0.66405794  0.54654026
   0.33481858  0.92820121  0.54152670
   0.58066687  0.16041813  0.54285169
   0.58266853  0.40956694  0.54333479
   0.57994456  0.66634047  0.54117872
   0.57967100  0.91235447  0.54587444
   0.83817099  0.16253810  0.54608005
   0.82483734  0.41849360  0.54410980
   0.83286591  0.66735685  0.54526736
   0.83320586  0.91283469  0.54302516
   0.17660857  0.09718568  0.45431711
   0.16926091  0.34299728  0.45841436
   0.16591374  0.58553492  0.45731465
   0.15572140  0.83403100  0.45150148
   0.41264074  0.08800741  0.45172044
   0.41506648  0.33684384  0.45246880
   0.41617369  0.58904826  0.45525239
   0.41453128  0.83508557  0.46169984
   0.67389437  0.08931793  0.45326127
   0.66751258  0.32960170  0.45376928
   0.67459324  0.58500725  0.45259625
   0.66700929  0.83615656  0.45764616
   0.90573144  0.07947859  0.45460155
   0.91714789  0.33557378  0.46218003
   0.91470326  0.57190358  0.45601800
   0.92518597  0.83626235  0.45426138
   0.08289701  0.17239392  0.39872980
   0.07592856  0.41270954  0.39929474
   0.08190870  0.66337324  0.39464121
   0.09117087  0.92426273  0.39467479
   0.33412314  0.17015693  0.39094183
   0.32983430  0.42966345  0.39769720
   0.33516901  0.67033616  0.39666559
   0.33822130  0.91360401  0.39433008
   0.58404014  0.15996137  0.39433557
   0.58647658  0.42828678  0.39093018
   0.58446905  0.68071899  0.39858184
   0.57709888  0.91282372  0.39979355
   0.83988132  0.17087449  0.39630705
   0.82825011  0.42061443  0.39340041
   0.85366525  0.66706369  0.39553072
   0.82326393  0.89982487  0.39603896
   0.16617099  0.07876583  0.60403823
   0.17088971  0.32279148  0.60704217
   0.17129460  0.57997414  0.61054805
   0.17085598  0.83080380  0.59785864
   0.41639110  0.08186539  0.60414228
   0.41975044  0.32917611  0.61032975
   0.41184523  0.58127079  0.60582041
   0.40727478  0.83468119  0.60435417
   0.66575484  0.08540068  0.60787097
   0.66320746  0.32038059  0.60584209
   0.66554494  0.58334008  0.60029249
   0.66736551  0.84134945  0.60498890
   0.91767267  0.07376295  0.60320608
   0.91691503  0.33063451  0.60786226
   0.91915861  0.57433444  0.60107173
   0.91178952  0.82765465  0.60518997
   0.00617985  0.00288417  0.49725005
   0.99890577  0.25064949  0.49919166
   0.99272174  0.49742193  0.50194666
   0.00330347  0.75947284  0.49659735
   0.25622030  0.01468583  0.49242724
   0.25132514  0.25250425  0.50321374
   0.25236181  0.49648747  0.50110561
   0.24750239  0.75657239  0.49966165
   0.50005263  0.00322844  0.49946397
   0.49282867  0.24990572  0.49800614
   0.50092037  0.50243768  0.49937883
   0.49222891  0.74667192  0.50507947
   0.74897281  0.99782552  0.50101709
   0.74276193  0.24647731  0.50116238
   0.75265879  0.49561978  0.49717876
   0.75332537  0.75566221  0.50171552
 
 position of ions in cartesian coordinates  (Angst):
   0.07655903  1.87425059 15.13741614
  -1.71037561  4.82350908 15.34314881
  -3.44701588  7.93708619 15.03540618
  -5.15800145 11.01644731 14.98629408
   3.33223289  2.03222339 15.11162016
   1.86827720  5.04348484 15.18496553
   0.00582334  7.93279824 15.19940538
  -1.78331458 11.08823864 15.05997729
   6.90330831  1.91634583 15.09682554
   5.21254154  4.89266328 15.11026059
   3.40400171  7.96006519 15.05029994
   1.70347134 10.89893442 15.18088879
  10.44069533  1.94167082 15.18660690
   8.49144765  4.99930065 15.13181389
   6.88578547  7.97220681 15.16400587
   5.19741574 10.90467103 15.10164969
   1.76584722  1.16097464 12.63465917
  -0.03086727  4.09742592 12.74860470
  -1.74981848  6.99476665 12.71802141
  -3.60428736  9.96328673 12.55635586
   5.08497443  1.05133145 12.56244543
   3.40221181  4.02391727 12.58325733
   1.67803244  7.03673681 12.66066958
  -0.04154073  9.97588454 12.83997462
   8.67966473  1.06698689 12.60529607
   6.93439888  3.93740304 12.61942407
   5.27053906  6.98846324 12.58680166
   3.43375105  9.98867846 12.72724097
  11.94548419  0.94944666 12.64256973
  10.33667560  4.00874526 12.85332891
   8.67298941  6.83192748 12.68196131
   6.99430712  9.98994229 12.63310930
  -0.04551940  2.05940788 11.08876391
  -1.79909735  4.93020456 11.10447491
  -3.44543329  7.92461883 10.97505935
  -5.11702417 11.04118978 10.97599305
   3.43531889  2.03268495 10.87217865
   1.58634404  5.13273499 11.06004699
   0.00001290  8.00779743 11.03135775
  -1.63570071 10.91386137 10.96640665
   6.95298938  1.91088933 10.96655928
   5.13595909  5.11628941 10.87185484
   3.36724390  8.13183020 11.08464916
   1.66475505 10.90454007 11.11834697
  10.40679151  2.04125694 11.02138659
   8.52389610  5.02463598 10.94055225
   7.17471330  7.96870472 10.99979671
   5.15000560 10.74925653 11.01393113
   1.74891308  0.94093211 16.79843660
   0.13095966  3.85604858 16.88197694
  -1.63724227  6.92833790 16.97947630
  -3.37326317  9.92473469 16.62658083
   5.17906830  0.97795927 16.80133032
   3.51970658  3.93231895 16.97340527
   1.67196692  6.94382760 16.84799944
  -0.13884765  9.97105379 16.80722307
   8.59440549  1.02019168 16.90502598
   6.93861199  3.82724826 16.84860246
   5.15722536  6.96854729 16.69426691
   3.40284940 10.05071251 16.82487512
  12.14962204  0.88116794 16.77529443
  10.36752969  3.94974101 16.90478396
   8.71768088  6.86096638 16.71593773
   6.86888387  9.88711517 16.83046698
   0.06535266  0.03445412 13.82863389
  12.05016501  2.99424449 13.88263036
  10.26287478  5.94217396 13.95924759
  -5.19251109  9.07261912 13.81048206
   3.43301133  0.17543607 13.69451035
   1.72525541  3.01640139 13.99448542
   0.05680466  5.93101091 13.93585775
  -1.80403010  9.03797055 13.89570108
   6.87545285  0.03856676 13.89020356
   5.07447399  2.98535942 13.84966074
   3.44437953  6.00209183 13.88783572
   1.64000781  8.91970015 14.04637171
   3.44932497 11.91996661 13.93339605
   8.54569580  2.94440385 13.93743662
   6.96387906  5.92064559 13.82665125
   5.17956284  9.02709763 13.95281949
 


--------------------------------------------------------------------------------------------------------


 k-point  1 :   0.0000 0.0000 0.0000  plane waves:  153003
 k-point  2 :   0.3333-0.0000 0.0000  plane waves:  152954
 k-point  3 :   0.0000 0.3333 0.0000  plane waves:  152954
 k-point  4 :   0.3333 0.3333 0.0000  plane waves:  152898
 k-point  5 :  -0.3333 0.3333 0.0000  plane waves:  152954

 maximum and minimum number of plane-waves per node :     11814    11730

 maximum number of plane-waves:    153003
 maximum index in each direction: 
   IXMAX=   27   IYMAX=   27   IZMAX=   55
   IXMIN=  -27   IYMIN=  -27   IZMIN=  -55


 real space projection operators:
  total allocation   :      55005.16 KBytes
  max/ min on nodes  :       4444.11       3890.66


 parallel 3D FFT for wavefunctions:
    minimum data exchange during FFTs selected (reduces bandwidth)
 parallel 3D FFT for charge:
    minimum data exchange during FFTs selected (reduces bandwidth)


 total amount of memory used by VASP MPI-rank0   253936. kBytes
=======================================================================

   base      :      30000. kBytes
   nonlr-proj:      18752. kBytes
   fftplans  :      72602. kBytes
   grid      :      41267. kBytes
   one-center:        108. kBytes
   wavefun   :      91207. kBytes
 
     INWAV:  cpu time    0.0000: real time    0.0000
 Broyden mixing: mesh for mixing (old mesh)
   NGX = 55   NGY = 55   NGZ =111
  (NGX  =224   NGY  =224   NGZ  =448)
  gives a total of 335775 points

 initial charge density was supplied:
 charge density of overlapping atoms calculated
 number of electron     640.0000000 magnetization 
 keeping initial charge density in first step


--------------------------------------------------------------------------------------------------------


 Maximum index for non-local projection operator          951
 Maximum index for augmentation-charges         5101 (set IRDMAX)


--------------------------------------------------------------------------------------------------------


 First call to EWALD:  gamma=   0.107
 Maximum number of real-space cells 4x 4x 2
 Maximum number of reciprocal cells 2x 2x 4

    FEWALD:  cpu time    0.0042: real time    0.0042


--------------------------------------- Iteration      1(   1)  ---------------------------------------


    POTLOK:  cpu time    1.1133: real time    1.1264
    SETDIJ:  cpu time    1.1885: real time    1.1949
     EDDAV:  cpu time  152.3875: real time  152.3932
       DOS:  cpu time    0.0016: real time    0.0016
    --------------------------------------------
      LOOP:  cpu time  154.6910: real time  154.7161

 eigenvalue-minimisations  :  4424
 total energy-change (2. order) : 0.1223023E+05  (-0.2678792E+05)
 number of electron     640.0000000 magnetization 
 augmentation part      640.0000000 magnetization 

 Free energy of the ion-electron system (eV)
  ---------------------------------------------------
  alpha Z        PSCENC =       784.57699423
  Ewald energy   TEWEN  =    253495.70705387
  -Hartree energ DENC   =   -301141.15930639
  -exchange      EXHF   =         0.00000000
  -V(xc)+E(xc)   XCENC  =      2503.56722679
  PAW double counting   =     43679.68029659   -43417.33247688
  entropy T*S    EENTRO =        -0.05936664
  eigenvalues    EBANDS =       114.52317330
  atomic energy  EATOM  =     56210.72393729
  Solvation  Ediel_sol  =         0.00000000
  ---------------------------------------------------
  free energy    TOTEN  =     12230.22753216 eV

  energy without entropy =    12230.28689880  energy(sigma->0) =    12230.25721548


--------------------------------------------------------------------------------------------------------




--------------------------------------- Iteration      1(   2)  ---------------------------------------


     EDDAV:  cpu time  180.1413: real time  180.1561
       DOS:  cpu time    0.0011: real time    0.0011
    --------------------------------------------
      LOOP:  cpu time  180.1425: real time  180.1572

 eigenvalue-minimisations  :  5240
 total energy-change (2. order) :-0.1051809E+05  (-0.1025724E+05)
 number of electron     640.0000000 magnetization 
 augmentation part      640.0000000 magnetization 

 Free energy of the ion-electron system (eV)
  ---------------------------------------------------
  alpha Z        PSCENC =       784.57699423
  Ewald energy   TEWEN  =    253495.70705387
  -Hartree energ DENC   =   -301141.15930639
  -exchange      EXHF   =         0.00000000
  -V(xc)+E(xc)   XCENC  =      2503.56722679
  PAW double counting   =     43679.68029659   -43417.33247688
  entropy T*S    EENTRO =        -0.04569646
  eigenvalues    EBANDS =    -10403.58262024
  atomic energy  EATOM  =     56210.72393729
  Solvation  Ediel_sol  =         0.00000000
  ---------------------------------------------------
  free energy    TOTEN  =      1712.13540879 eV

  energy without entropy =     1712.18110525  energy(sigma->0) =     1712.15825702


--------------------------------------------------------------------------------------------------------




--------------------------------------- Iteration      1(   3)  ---------------------------------------


     EDDAV:  cpu time  223.5961: real time  223.6104
       DOS:  cpu time    0.0007: real time    0.0007
    --------------------------------------------
      LOOP:  cpu time  223.5968: real time  223.6111

 eigenvalue-minimisations  :  6800
 total energy-change (2. order) :-0.2127083E+04  (-0.2042759E+04)
 number of electron     640.0000000 magnetization 
 augmentation part      640.0000000 magnetization 

 Free energy of the ion-electron system (eV)
  ---------------------------------------------------
  alpha Z        PSCENC =       784.57699423
  Ewald energy   TEWEN  =    253495.70705387
  -Hartree energ DENC   =   -301141.15930639
  -exchange      EXHF   =         0.00000000
  -V(xc)+E(xc)   XCENC  =      2503.56722679
  PAW double counting   =     43679.68029659   -43417.33247688
  entropy T*S    EENTRO =        -0.00000008
  eigenvalues    EBANDS =    -12530.71137891
  atomic energy  EATOM  =     56210.72393729
  Solvation  Ediel_sol  =         0.00000000
  ---------------------------------------------------
  free energy    TOTEN  =      -414.94765349 eV

  energy without entropy =     -414.94765341  energy(sigma->0) =     -414.94765345


--------------------------------------------------------------------------------------------------------




--------------------------------------- Iteration      1(   4)  ---------------------------------------


     EDDAV:  cpu time  203.6294: real time  203.6420
       DOS:  cpu time    0.0004: real time    0.0004
    --------------------------------------------
      LOOP:  cpu time  203.6299: real time  203.6424

 eigenvalue-minimisations  :  6088
 total energy-change (2. order) :-0.2305453E+03  (-0.2260921E+03)
 number of electron     640.0000000 magnetization 
 augmentation part      640.0000000 magnetization 

 Free energy of the ion-electron system (eV)
  ---------------------------------------------------
  alpha Z        PSCENC =       784.57699423
  Ewald energy   TEWEN  =    253495.70705387
  -Hartree energ DENC   =   -301141.15930639
  -exchange      EXHF   =         0.00000000
  -V(xc)+E(xc)   XCENC  =      2503.56722679
  PAW double counting   =     43679.68029659   -43417.33247688
  entropy T*S    EENTRO =        -0.00000000
  eigenvalues    EBANDS =    -12761.25668344
  atomic energy  EATOM  =     56210.72393729
  Solvation  Ediel_sol  =         0.00000000
  ---------------------------------------------------
  free energy    TOTEN  =      -645.49295795 eV

  energy without entropy =     -645.49295795  energy(sigma->0) =     -645.49295795


--------------------------------------------------------------------------------------------------------




--------------------------------------- Iteration      1(   5)  ---------------------------------------


     EDDAV:  cpu time  203.4880: real time  203.4981
       DOS:  cpu time    0.0007: real time    0.0006
    CHARGE:  cpu time   13.8481: real time   13.8482
    MIXING:  cpu time    0.2301: real time    0.2301
    --------------------------------------------
      LOOP:  cpu time  217.5669: real time  217.5772

 eigenvalue-minimisations  :  6080
 total energy-change (2. order) :-0.1007692E+02  (-0.1002631E+02)
 number of electron     640.0000003 magnetization 
 augmentation part       59.2502929 magnetization 

 Broyden mixing:
  rms(total) = 0.69546E+01    rms(broyden)= 0.69544E+01
  rms(prec ) = 0.73165E+01
  weight for this iteration     100.00

 Free energy of the ion-electron system (eV)
  ---------------------------------------------------
  alpha Z        PSCENC =       784.57699423
  Ewald energy   TEWEN  =    253495.70705387
  -Hartree energ DENC   =   -301141.15930639
  -exchange      EXHF   =         0.00000000
  -V(xc)+E(xc)   XCENC  =      2503.56722679
  PAW double counting   =     43679.68029659   -43417.33247688
  entropy T*S    EENTRO =        -0.00000000
  eigenvalues    EBANDS =    -12771.33360700
  atomic energy  EATOM  =     56210.72393729
  Solvation  Ediel_sol  =         0.00000000
  ---------------------------------------------------
  free energy    TOTEN  =      -655.56988150 eV

  energy without entropy =     -655.56988150  energy(sigma->0) =     -655.56988150


--------------------------------------------------------------------------------------------------------




--------------------------------------- Iteration      1(   6)  ---------------------------------------


    POTLOK:  cpu time    1.1141: real time    1.1231
    SETDIJ:  cpu time    1.2470: real time    1.2470
     EDDAV:  cpu time  195.5055: real time  195.5083
       DOS:  cpu time    0.0005: real time    0.0005
    CHARGE:  cpu time   14.3995: real time   14.4014
    MIXING:  cpu time    0.2299: real time    0.2301
    --------------------------------------------
      LOOP:  cpu time  212.4966: real time  212.5103

 eigenvalue-minimisations  :  5840
 total energy-change (2. order) : 0.1304422E+03  (-0.6979099E+02)
 number of electron     640.0000004 magnetization 
 augmentation part       70.0325729 magnetization 

 Broyden mixing:
  rms(total) = 0.29923E+01    rms(broyden)= 0.29921E+01
  rms(prec ) = 0.30247E+01
  weight for this iteration     100.00

 eigenvalues of (default mixing * dielectric matrix)
  average eigenvalue GAMMA=   0.9584
  0.9584

 Free energy of the ion-electron system (eV)
  ---------------------------------------------------
  alpha Z        PSCENC =       784.57699423
  Ewald energy   TEWEN  =    253495.70705387
  -Hartree energ DENC   =   -300954.09893181
  -exchange      EXHF   =         0.00000000
  -V(xc)+E(xc)   XCENC  =      2493.08864596
  PAW double counting   =     49246.26910045   -49038.55001414
  entropy T*S    EENTRO =        -0.00000000
  eigenvalues    EBANDS =    -12762.84449711
  atomic energy  EATOM  =     56210.72393729
  Solvation  Ediel_sol  =         0.00000000
  ---------------------------------------------------
  free energy    TOTEN  =      -525.12771127 eV

  energy without entropy =     -525.12771127  energy(sigma->0) =     -525.12771127


--------------------------------------------------------------------------------------------------------




--------------------------------------- Iteration      1(   7)  ---------------------------------------


    POTLOK:  cpu time    1.1146: real time    1.1284
    SETDIJ:  cpu time    1.2430: real time    1.2430
     EDDAV:  cpu time  195.9756: real time  195.9826
       DOS:  cpu time    0.0005: real time    0.0005
    CHARGE:  cpu time   14.3779: real time   14.3780
    MIXING:  cpu time    0.2305: real time    0.2304
    --------------------------------------------
      LOOP:  cpu time  212.9420: real time  212.9630

 eigenvalue-minimisations  :  5864
 total energy-change (2. order) :-0.4660338E+01  (-0.8467481E+01)
 number of electron     640.0000004 magnetization 
 augmentation part       69.5492588 magnetization 

 Broyden mixing:
  rms(total) = 0.15165E+01    rms(broyden)= 0.15165E+01
  rms(prec ) = 0.15516E+01
  weight for this iteration     100.00

 eigenvalues of (default mixing * dielectric matrix)
  average eigenvalue GAMMA=   1.0126
  1.0126  1.0126

 Free energy of the ion-electron system (eV)
  ---------------------------------------------------
  alpha Z        PSCENC =       784.57699423
  Ewald energy   TEWEN  =    253495.70705387
  -Hartree energ DENC   =   -301055.14633711
  -exchange      EXHF   =         0.00000000
  -V(xc)+E(xc)   XCENC  =      2489.11149568
  PAW double counting   =     54257.63188852   -54064.61796759
  entropy T*S    EENTRO =        -0.00000000
  eigenvalues    EBANDS =    -12647.77511455
  atomic energy  EATOM  =     56210.72393729
  Solvation  Ediel_sol  =         0.00000000
  ---------------------------------------------------
  free energy    TOTEN  =      -529.78804968 eV

  energy without entropy =     -529.78804968  energy(sigma->0) =     -529.78804968


--------------------------------------------------------------------------------------------------------




--------------------------------------- Iteration      1(   8)  ---------------------------------------


    POTLOK:  cpu time    1.1153: real time    1.1276
    SETDIJ:  cpu time    1.2450: real time    1.2451
     EDDAV:  cpu time  197.7351: real time  197.7437
       DOS:  cpu time    0.0005: real time    0.0005
    CHARGE:  cpu time   14.3891: real time   14.3893
    MIXING:  cpu time    0.2322: real time    0.2321
    --------------------------------------------
      LOOP:  cpu time  214.7171: real time  214.7383

 eigenvalue-minimisations  :  5928
 total energy-change (2. order) : 0.2188532E+01  (-0.9477451E+00)
 number of electron     640.0000004 magnetization 
 augmentation part       69.2721991 magnetization 

 Broyden mixing:
  rms(total) = 0.91573E+00    rms(broyden)= 0.91572E+00
  rms(prec ) = 0.93144E+00
  weight for this iteration     100.00

 eigenvalues of (default mixing * dielectric matrix)
  average eigenvalue GAMMA=   1.4393
  2.5711  0.8735  0.8735

 Free energy of the ion-electron system (eV)
  ---------------------------------------------------
  alpha Z        PSCENC =       784.57699423
  Ewald energy   TEWEN  =    253495.70705387
  -Hartree energ DENC   =   -301128.68298128
  -exchange      EXHF   =         0.00000000
  -V(xc)+E(xc)   XCENC  =      2489.16681232
  PAW double counting   =     56265.96500899   -56083.80239129
  entropy T*S    EENTRO =        -0.00000000
  eigenvalues    EBANDS =    -12561.25395136
  atomic energy  EATOM  =     56210.72393729
  Solvation  Ediel_sol  =         0.00000000
  ---------------------------------------------------
  free energy    TOTEN  =      -527.59951723 eV

  energy without entropy =     -527.59951723  energy(sigma->0) =     -527.59951723


--------------------------------------------------------------------------------------------------------




--------------------------------------- Iteration      1(   9)  ---------------------------------------


    POTLOK:  cpu time    1.1145: real time    1.1281
    SETDIJ:  cpu time    1.2434: real time    1.2434
     EDDAV:  cpu time  182.7339: real time  182.7458
       DOS:  cpu time    0.0005: real time    0.0005
    CHARGE:  cpu time   14.3164: real time   14.3166
    MIXING:  cpu time    0.2280: real time    0.2280
    --------------------------------------------
      LOOP:  cpu time  199.6367: real time  199.6623

 eigenvalue-minimisations  :  5384
 total energy-change (2. order) : 0.5192495E+00  (-0.3485164E+00)
 number of electron     640.0000004 magnetization 
 augmentation part       69.9954264 magnetization 

 Broyden mixing:
  rms(total) = 0.29889E+00    rms(broyden)= 0.29888E+00
  rms(prec ) = 0.31098E+00
  weight for this iteration     100.00

 eigenvalues of (default mixing * dielectric matrix)
  average eigenvalue GAMMA=   1.2328
  2.0963  0.8772  0.8772  1.0804

 Free energy of the ion-electron system (eV)
  ---------------------------------------------------
  alpha Z        PSCENC =       784.57699423
  Ewald energy   TEWEN  =    253495.70705387
  -Hartree energ DENC   =   -301259.79042928
  -exchange      EXHF   =         0.00000000
  -V(xc)+E(xc)   XCENC  =      2488.66397588
  PAW double counting   =     60072.89368714   -59907.85289543
  entropy T*S    EENTRO =        -0.00000000
  eigenvalues    EBANDS =    -12412.00259139
  atomic energy  EATOM  =     56210.72393729
  Solvation  Ediel_sol  =         0.00000000
  ---------------------------------------------------
  free energy    TOTEN  =      -527.08026770 eV

  energy without entropy =     -527.08026770  energy(sigma->0) =     -527.08026770


--------------------------------------------------------------------------------------------------------




--------------------------------------- Iteration      1(  10)  ---------------------------------------


    POTLOK:  cpu time    1.1210: real time    1.1296
    SETDIJ:  cpu time    1.2453: real time    1.2453
     EDDAV:  cpu time  191.4048: real time  191.4104
       DOS:  cpu time    0.0005: real time    0.0005
    CHARGE:  cpu time   14.3968: real time   14.4001
    MIXING:  cpu time    0.2355: real time    0.2355
    --------------------------------------------
      LOOP:  cpu time  208.4039: real time  208.4215

 eigenvalue-minimisations  :  5696
 total energy-change (2. order) : 0.1178558E+00  (-0.5955017E-01)
 number of electron     640.0000004 magnetization 
 augmentation part       69.7868652 magnetization 

 Broyden mixing:
  rms(total) = 0.17066E+00    rms(broyden)= 0.17065E+00
  rms(prec ) = 0.17699E+00
  weight for this iteration     100.00

 eigenvalues of (default mixing * dielectric matrix)
  average eigenvalue GAMMA=   1.2449
  1.8887  1.8887  0.9022  0.9022  0.6426

 Free energy of the ion-electron system (eV)
  ---------------------------------------------------
  alpha Z        PSCENC =       784.57699423
  Ewald energy   TEWEN  =    253495.70705387
  -Hartree energ DENC   =   -301286.25080660
  -exchange      EXHF   =         0.00000000
  -V(xc)+E(xc)   XCENC  =      2489.32358965
  PAW double counting   =     59425.05243364   -59257.19142657
  entropy T*S    EENTRO =        -0.00000000
  eigenvalues    EBANDS =    -12388.90418740
  atomic energy  EATOM  =     56210.72393729
  Solvation  Ediel_sol  =         0.00000000
  ---------------------------------------------------
  free energy    TOTEN  =      -526.96241190 eV

  energy without entropy =     -526.96241190  energy(sigma->0) =     -526.96241190


--------------------------------------------------------------------------------------------------------




--------------------------------------- Iteration      1(  11)  ---------------------------------------


    POTLOK:  cpu time    1.1172: real time    1.1355
    SETDIJ:  cpu time    1.2395: real time    1.2396
     EDDAV:  cpu time  192.2089: real time  192.2108
       DOS:  cpu time    0.0005: real time    0.0005
    CHARGE:  cpu time   14.1632: real time   14.1634
    MIXING:  cpu time    0.2302: real time    0.2302
    --------------------------------------------
      LOOP:  cpu time  208.9595: real time  208.9799

 eigenvalue-minimisations  :  5736
 total energy-change (2. order) : 0.1957521E-01  (-0.1732089E-01)
 number of electron     640.0000004 magnetization 
 augmentation part       69.7180348 magnetization 

 Broyden mixing:
  rms(total) = 0.77331E-01    rms(broyden)= 0.77330E-01
  rms(prec ) = 0.83258E-01
  weight for this iteration     100.00

 eigenvalues of (default mixing * dielectric matrix)
  average eigenvalue GAMMA=   1.2751
  2.4922  1.7221  0.8893  0.8893  0.8863  0.7715

 Free energy of the ion-electron system (eV)
  ---------------------------------------------------
  alpha Z        PSCENC =       784.57699423
  Ewald energy   TEWEN  =    253495.70705387
  -Hartree energ DENC   =   -301337.96427077
  -exchange      EXHF   =         0.00000000
  -V(xc)+E(xc)   XCENC  =      2489.93683406
  PAW double counting   =     59556.14275184   -59388.52936578
  entropy T*S    EENTRO =        -0.00000000
  eigenvalues    EBANDS =    -12337.53677143
  atomic energy  EATOM  =     56210.72393729
  Solvation  Ediel_sol  =         0.00000000
  ---------------------------------------------------
  free energy    TOTEN  =      -526.94283669 eV

  energy without entropy =     -526.94283669  energy(sigma->0) =     -526.94283669


--------------------------------------------------------------------------------------------------------




--------------------------------------- Iteration      1(  12)  ---------------------------------------


    POTLOK:  cpu time    1.1181: real time    1.1261
    SETDIJ:  cpu time    1.2387: real time    1.2387
     EDDAV:  cpu time  202.2870: real time  202.2882
       DOS:  cpu time    0.0005: real time    0.0005
    CHARGE:  cpu time   13.3110: real time   13.3111
    MIXING:  cpu time    0.2296: real time    0.2296
    --------------------------------------------
      LOOP:  cpu time  218.1849: real time  218.1943

 eigenvalue-minimisations  :  6104
 total energy-change (2. order) : 0.1445391E-01  (-0.3036107E-02)
 number of electron     640.0000004 magnetization 
 augmentation part       69.7369826 magnetization 

 Broyden mixing:
  rms(total) = 0.28281E-01    rms(broyden)= 0.28281E-01
  rms(prec ) = 0.35469E-01
  weight for this iteration     100.00

 eigenvalues of (default mixing * dielectric matrix)
  average eigenvalue GAMMA=   1.2879
  2.2623  2.2623  0.9419  0.9419  0.9483  0.9483  0.7104

 Free energy of the ion-electron system (eV)
  ---------------------------------------------------
  alpha Z        PSCENC =       784.57699423
  Ewald energy   TEWEN  =    253495.70705387
  -Hartree energ DENC   =   -301369.99987812
  -exchange      EXHF   =         0.00000000
  -V(xc)+E(xc)   XCENC  =      2490.25899373
  PAW double counting   =     59697.09277025   -59529.93778815
  entropy T*S    EENTRO =        -0.00000000
  eigenvalues    EBANDS =    -12305.35046587
  atomic energy  EATOM  =     56210.72393729
  Solvation  Ediel_sol  =         0.00000000
  ---------------------------------------------------
  free energy    TOTEN  =      -526.92838278 eV

  energy without entropy =     -526.92838278  energy(sigma->0) =     -526.92838278


--------------------------------------------------------------------------------------------------------




--------------------------------------- Iteration      1(  13)  ---------------------------------------


    POTLOK:  cpu time    1.1102: real time    1.1292
    SETDIJ:  cpu time    1.2392: real time    1.2392
     EDDAV:  cpu time  179.7629: real time  179.7773
       DOS:  cpu time    0.0005: real time    0.0005
    CHARGE:  cpu time   13.5211: real time   13.5211
    MIXING:  cpu time    0.2269: real time    0.2269
    --------------------------------------------
      LOOP:  cpu time  195.8608: real time  195.8943

 eigenvalue-minimisations  :  5288
 total energy-change (2. order) : 0.3028615E-02  (-0.8225570E-03)
 number of electron     640.0000004 magnetization 
 augmentation part       69.7451633 magnetization 

 Broyden mixing:
  rms(total) = 0.16799E-01    rms(broyden)= 0.16799E-01
  rms(prec ) = 0.23588E-01
  weight for this iteration     100.00

 eigenvalues of (default mixing * dielectric matrix)
  average eigenvalue GAMMA=   1.3394
  2.8068  2.0567  1.5629  0.9036  0.9036  0.9032  0.9032  0.6754

 Free energy of the ion-electron system (eV)
  ---------------------------------------------------
  alpha Z        PSCENC =       784.57699423
  Ewald energy   TEWEN  =    253495.70705387
  -Hartree energ DENC   =   -301393.05859106
  -exchange      EXHF   =         0.00000000
  -V(xc)+E(xc)   XCENC  =      2490.45561572
  PAW double counting   =     59658.15661178   -59490.83366032
  entropy T*S    EENTRO =        -0.00000000
  eigenvalues    EBANDS =    -12282.65331567
  atomic energy  EATOM  =     56210.72393729
  Solvation  Ediel_sol  =         0.00000000
  ---------------------------------------------------
  free energy    TOTEN  =      -526.92535417 eV

  energy without entropy =     -526.92535417  energy(sigma->0) =     -526.92535417


--------------------------------------------------------------------------------------------------------




--------------------------------------- Iteration      1(  14)  ---------------------------------------


    POTLOK:  cpu time    1.1171: real time    1.1254
    SETDIJ:  cpu time    1.2409: real time    1.2409
     EDDAV:  cpu time  179.5760: real time  179.5838
       DOS:  cpu time    0.0004: real time    0.0004
    CHARGE:  cpu time   13.8914: real time   13.8915
    MIXING:  cpu time    0.2271: real time    0.2272
    --------------------------------------------
      LOOP:  cpu time  196.0530: real time  196.0692

 eigenvalue-minimisations  :  5280
 total energy-change (2. order) : 0.1457400E-02  (-0.6379111E-03)
 number of electron     640.0000004 magnetization 
 augmentation part       69.7528153 magnetization 

 Broyden mixing:
  rms(total) = 0.16828E-01    rms(broyden)= 0.16828E-01
  rms(prec ) = 0.20196E-01
  weight for this iteration     100.00

 eigenvalues of (default mixing * dielectric matrix)
  average eigenvalue GAMMA=   1.3443
  2.7609  2.5228  1.7161  0.9439  0.9439  0.9189  0.9189  0.6868  0.6868

 Free energy of the ion-electron system (eV)
  ---------------------------------------------------
  alpha Z        PSCENC =       784.57699423
  Ewald energy   TEWEN  =    253495.70705387
  -Hartree energ DENC   =   -301420.26594424
  -exchange      EXHF   =         0.00000000
  -V(xc)+E(xc)   XCENC  =      2490.62425280
  PAW double counting   =     59660.61654310   -59493.31176435
  entropy T*S    EENTRO =        -0.00000000
  eigenvalues    EBANDS =    -12255.59496946
  atomic energy  EATOM  =     56210.72393729
  Solvation  Ediel_sol  =         0.00000000
  ---------------------------------------------------
  free energy    TOTEN  =      -526.92389677 eV

  energy without entropy =     -526.92389677  energy(sigma->0) =     -526.92389677


--------------------------------------------------------------------------------------------------------




--------------------------------------- Iteration      1(  15)  ---------------------------------------


    POTLOK:  cpu time    1.1141: real time    1.1228
    SETDIJ:  cpu time    1.2397: real time    1.2397
     EDDAV:  cpu time  185.1050: real time  185.1083
       DOS:  cpu time    0.0005: real time    0.0004
    CHARGE:  cpu time   13.5627: real time   13.5643
    MIXING:  cpu time    0.2307: real time    0.2307
    --------------------------------------------
      LOOP:  cpu time  201.2525: real time  201.2662

 eigenvalue-minimisations  :  5480
 total energy-change (2. order) :-0.1645392E-02  (-0.1809481E-03)
 number of electron     640.0000004 magnetization 
 augmentation part       69.7543351 magnetization 

 Broyden mixing:
  rms(total) = 0.10582E-01    rms(broyden)= 0.10582E-01
  rms(prec ) = 0.13275E-01
  weight for this iteration     100.00

 eigenvalues of (default mixing * dielectric matrix)
  average eigenvalue GAMMA=   1.3522
  2.8200  2.8200  1.3716  1.3716  0.9529  0.9529  0.8674  0.8674  0.8483  0.6498

 Free energy of the ion-electron system (eV)
  ---------------------------------------------------
  alpha Z        PSCENC =       784.57699423
  Ewald energy   TEWEN  =    253495.70705387
  -Hartree energ DENC   =   -301436.29664846
  -exchange      EXHF   =         0.00000000
  -V(xc)+E(xc)   XCENC  =      2490.69499910
  PAW double counting   =     59629.05246849   -59461.64781502
  entropy T*S    EENTRO =        -0.00000000
  eigenvalues    EBANDS =    -12239.73653166
  atomic energy  EATOM  =     56210.72393729
  Solvation  Ediel_sol  =         0.00000000
  ---------------------------------------------------
  free energy    TOTEN  =      -526.92554216 eV

  energy without entropy =     -526.92554216  energy(sigma->0) =     -526.92554216


--------------------------------------------------------------------------------------------------------




--------------------------------------- Iteration      1(  16)  ---------------------------------------


    POTLOK:  cpu time    1.1276: real time    1.1353
    SETDIJ:  cpu time    1.2377: real time    1.2377
     EDDAV:  cpu time  195.5357: real time  195.5395
       DOS:  cpu time    0.0007: real time    0.0007
    CHARGE:  cpu time   14.1015: real time   14.1015
    MIXING:  cpu time    0.2318: real time    0.2318
    --------------------------------------------
      LOOP:  cpu time  212.2350: real time  212.2466

 eigenvalue-minimisations  :  5960
 total energy-change (2. order) :-0.2311322E-02  (-0.9725357E-04)
 number of electron     640.0000004 magnetization 
 augmentation part       69.7532631 magnetization 

 Broyden mixing:
  rms(total) = 0.57587E-02    rms(broyden)= 0.57586E-02
  rms(prec ) = 0.79882E-02
  weight for this iteration     100.00

 eigenvalues of (default mixing * dielectric matrix)
  average eigenvalue GAMMA=   1.4321
  3.6466  2.4419  2.2396  1.3344  0.9812  0.9812  0.8804  0.8804  0.9885  0.6654
  0.7140

 Free energy of the ion-electron system (eV)
  ---------------------------------------------------
  alpha Z        PSCENC =       784.57699423
  Ewald energy   TEWEN  =    253495.70705387
  -Hartree energ DENC   =   -301448.26911317
  -exchange      EXHF   =         0.00000000
  -V(xc)+E(xc)   XCENC  =      2490.74541332
  PAW double counting   =     59615.58042970   -59448.16070294
  entropy T*S    EENTRO =        -0.00000000
  eigenvalues    EBANDS =    -12227.83186578
  atomic energy  EATOM  =     56210.72393729
  Solvation  Ediel_sol  =         0.00000000
  ---------------------------------------------------
  free energy    TOTEN  =      -526.92785348 eV

  energy without entropy =     -526.92785348  energy(sigma->0) =     -526.92785348


--------------------------------------------------------------------------------------------------------




--------------------------------------- Iteration      1(  17)  ---------------------------------------


    POTLOK:  cpu time    1.1173: real time    1.1255
    SETDIJ:  cpu time    1.2356: real time    1.2356
     EDDAV:  cpu time  169.7609: real time  169.7635
       DOS:  cpu time    0.0005: real time    0.0005
    CHARGE:  cpu time   14.3239: real time   14.3240
    MIXING:  cpu time    0.2298: real time    0.2298
    --------------------------------------------
      LOOP:  cpu time  186.6680: real time  186.6789

 eigenvalue-minimisations  :  5008
 total energy-change (2. order) :-0.3804232E-02  (-0.7845904E-04)
 number of electron     640.0000004 magnetization 
 augmentation part       69.7527668 magnetization 

 Broyden mixing:
  rms(total) = 0.32712E-02    rms(broyden)= 0.32711E-02
  rms(prec ) = 0.45523E-02
  weight for this iteration     100.00

 eigenvalues of (default mixing * dielectric matrix)
  average eigenvalue GAMMA=   1.4836
  4.4066  2.7196  2.3795  1.3623  1.0718  0.9509  0.9509  0.8849  0.8849  0.7719
  0.7719  0.6479

 Free energy of the ion-electron system (eV)
  ---------------------------------------------------
  alpha Z        PSCENC =       784.57699423
  Ewald energy   TEWEN  =    253495.70705387
  -Hartree energ DENC   =   -301462.46652616
  -exchange      EXHF   =         0.00000000
  -V(xc)+E(xc)   XCENC  =      2490.78859318
  PAW double counting   =     59614.42333335   -59447.05283636
  entropy T*S    EENTRO =        -0.00000000
  eigenvalues    EBANDS =    -12213.63220711
  atomic energy  EATOM  =     56210.72393729
  Solvation  Ediel_sol  =         0.00000000
  ---------------------------------------------------
  free energy    TOTEN  =      -526.93165772 eV

  energy without entropy =     -526.93165772  energy(sigma->0) =     -526.93165772


--------------------------------------------------------------------------------------------------------




--------------------------------------- Iteration      1(  18)  ---------------------------------------


    POTLOK:  cpu time    1.1201: real time    1.1287
    SETDIJ:  cpu time    1.2342: real time    1.2366
     EDDAV:  cpu time  168.2008: real time  168.2044
       DOS:  cpu time    0.0006: real time    0.0006
    CHARGE:  cpu time   14.3260: real time   14.3261
    MIXING:  cpu time    0.2303: real time    0.2303
    --------------------------------------------
      LOOP:  cpu time  185.1119: real time  185.1267

 eigenvalue-minimisations  :  4952
 total energy-change (2. order) :-0.1910068E-02  (-0.2551619E-04)
 number of electron     640.0000004 magnetization 
 augmentation part       69.7537334 magnetization 

 Broyden mixing:
  rms(total) = 0.22982E-02    rms(broyden)= 0.22981E-02
  rms(prec ) = 0.30313E-02
  weight for this iteration     100.00

 eigenvalues of (default mixing * dielectric matrix)
  average eigenvalue GAMMA=   1.5076
  4.8103  2.7704  2.2515  1.6744  1.1118  1.1118  0.9109  0.9109  0.9399  0.9399
  0.8128  0.6511  0.7029

 Free energy of the ion-electron system (eV)
  ---------------------------------------------------
  alpha Z        PSCENC =       784.57699423
  Ewald energy   TEWEN  =    253495.70705387
  -Hartree energ DENC   =   -301469.58060392
  -exchange      EXHF   =         0.00000000
  -V(xc)+E(xc)   XCENC  =      2490.80635331
  PAW double counting   =     59610.88842536   -59443.52703111
  entropy T*S    EENTRO =        -0.00000000
  eigenvalues    EBANDS =    -12206.52869680
  atomic energy  EATOM  =     56210.72393729
  Solvation  Ediel_sol  =         0.00000000
  ---------------------------------------------------
  free energy    TOTEN  =      -526.93356778 eV

  energy without entropy =     -526.93356778  energy(sigma->0) =     -526.93356778


--------------------------------------------------------------------------------------------------------




--------------------------------------- Iteration      1(  19)  ---------------------------------------


    POTLOK:  cpu time    1.1210: real time    1.1287
    SETDIJ:  cpu time    1.2346: real time    1.2346
     EDDAV:  cpu time  172.6591: real time  172.6608
       DOS:  cpu time    0.0006: real time    0.0006
    CHARGE:  cpu time   14.1211: real time   14.1224
    MIXING:  cpu time    0.2339: real time    0.2339
    --------------------------------------------
      LOOP:  cpu time  189.3703: real time  189.3809

 eigenvalue-minimisations  :  5112
 total energy-change (2. order) :-0.1170186E-02  (-0.1086756E-04)
 number of electron     640.0000004 magnetization 
 augmentation part       69.7532567 magnetization 

 Broyden mixing:
  rms(total) = 0.15970E-02    rms(broyden)= 0.15969E-02
  rms(prec ) = 0.21297E-02
  weight for this iteration     100.00

 eigenvalues of (default mixing * dielectric matrix)
  average eigenvalue GAMMA=   1.5754
  5.4364  2.9697  2.2261  2.2261  1.1913  1.1913  1.0077  1.0077  0.8889  0.8889
  0.8411  0.8411  0.7014  0.6376

 Free energy of the ion-electron system (eV)
  ---------------------------------------------------
  alpha Z        PSCENC =       784.57699423
  Ewald energy   TEWEN  =    253495.70705387
  -Hartree energ DENC   =   -301472.97316728
  -exchange      EXHF   =         0.00000000
  -V(xc)+E(xc)   XCENC  =      2490.81686569
  PAW double counting   =     59610.01411537   -59442.64873724
  entropy T*S    EENTRO =        -0.00000000
  eigenvalues    EBANDS =    -12203.15179988
  atomic energy  EATOM  =     56210.72393729
  Solvation  Ediel_sol  =         0.00000000
  ---------------------------------------------------
  free energy    TOTEN  =      -526.93473797 eV

  energy without entropy =     -526.93473797  energy(sigma->0) =     -526.93473797


--------------------------------------------------------------------------------------------------------




--------------------------------------- Iteration      1(  20)  ---------------------------------------


    POTLOK:  cpu time    1.1197: real time    1.1273
    SETDIJ:  cpu time    1.2370: real time    1.2371
     EDDAV:  cpu time  159.8690: real time  159.8726
       DOS:  cpu time    0.0006: real time    0.0006
    CHARGE:  cpu time   14.3550: real time   14.3566
    MIXING:  cpu time    0.2311: real time    0.2310
    --------------------------------------------
      LOOP:  cpu time  176.8124: real time  176.8251

 eigenvalue-minimisations  :  4640
 total energy-change (2. order) :-0.1168424E-02  (-0.3555094E-05)
 number of electron     640.0000004 magnetization 
 augmentation part       69.7529658 magnetization 

 Broyden mixing:
  rms(total) = 0.10268E-02    rms(broyden)= 0.10266E-02
  rms(prec ) = 0.13283E-02
  weight for this iteration     100.00

 eigenvalues of (default mixing * dielectric matrix)
  average eigenvalue GAMMA=   1.5950
  6.0852  3.0904  2.4540  2.0757  1.3465  1.0625  1.0625  1.0143  1.0143  0.8820
  0.8820  0.8528  0.7556  0.7166  0.6311

 Free energy of the ion-electron system (eV)
  ---------------------------------------------------
  alpha Z        PSCENC =       784.57699423
  Ewald energy   TEWEN  =    253495.70705387
  -Hartree energ DENC   =   -301475.73078496
  -exchange      EXHF   =         0.00000000
  -V(xc)+E(xc)   XCENC  =      2490.81982658
  PAW double counting   =     59610.83858462   -59443.47598083
  entropy T*S    EENTRO =        -0.00000000
  eigenvalues    EBANDS =    -12200.39553718
  atomic energy  EATOM  =     56210.72393729
  Solvation  Ediel_sol  =         0.00000000
  ---------------------------------------------------
  free energy    TOTEN  =      -526.93590639 eV

  energy without entropy =     -526.93590639  energy(sigma->0) =     -526.93590639


--------------------------------------------------------------------------------------------------------




--------------------------------------- Iteration      1(  21)  ---------------------------------------


    POTLOK:  cpu time    1.1004: real time    1.1271
    SETDIJ:  cpu time    1.2169: real time    1.2215
     EDDAV:  cpu time  143.8618: real time  143.8712
       DOS:  cpu time    0.0011: real time    0.0011
    CHARGE:  cpu time   14.2982: real time   14.2983
    MIXING:  cpu time    0.2330: real time    0.2329
    --------------------------------------------
      LOOP:  cpu time  160.7113: real time  160.7521

 eigenvalue-minimisations  :  4056
 total energy-change (2. order) :-0.4322413E-03  (-0.1151265E-05)
 number of electron     640.0000004 magnetization 
 augmentation part       69.7532418 magnetization 

 Broyden mixing:
  rms(total) = 0.75001E-03    rms(broyden)= 0.74983E-03
  rms(prec ) = 0.97436E-03
  weight for this iteration     100.00

 eigenvalues of (default mixing * dielectric matrix)
  average eigenvalue GAMMA=   1.5982
  6.4761  3.0295  2.4651  1.7161  1.7161  1.2409  1.2409  1.0269  1.0269  0.8822
  0.8822  0.9286  0.8114  0.8114  0.6865  0.6307

 Free energy of the ion-electron system (eV)
  ---------------------------------------------------
  alpha Z        PSCENC =       784.57699423
  Ewald energy   TEWEN  =    253495.70705387
  -Hartree energ DENC   =   -301476.86861008
  -exchange      EXHF   =         0.00000000
  -V(xc)+E(xc)   XCENC  =      2490.81956844
[...]
    -6.896993340 11.945942880  0.000000000     0.000000000  0.083710429  0.000000000
     0.000000000  0.000000000 27.810221070     0.000000000  0.000000000  0.035958003

  length of vectors
    13.793986680 13.793986676 27.810221070     0.083710429  0.083710429  0.035958003


 FORCES acting on ions
    electron-ion (+dipol)            ewald-force                    non-local-force                 convergence-correction
 -----------------------------------------------------------------------------------------------
   0.408E+02 -.308E+02 -.106E+04   -.407E+02 0.314E+02 0.106E+04   -.585E+00 0.292E+00 0.418E+01   0.700E-05 0.341E-05 0.274E-04
   -.115E+02 -.435E+02 -.121E+04   0.119E+02 0.437E+02 0.121E+04   0.982E-01 0.640E+00 0.321E+01   -.192E-04 -.635E-05 -.364E-04
   -.122E+02 -.954E+00 -.103E+04   0.127E+02 0.201E+01 0.103E+04   -.419E+00 -.366E+00 0.457E+01   -.181E-04 -.207E-04 0.351E-04
   -.797E+01 0.368E+02 -.102E+04   0.757E+01 -.370E+02 0.101E+04   0.436E+00 -.103E+00 0.497E+01   0.576E-04 0.220E-04 0.409E-04
   -.489E+02 -.111E+02 -.109E+04   0.497E+02 0.118E+02 0.108E+04   0.485E+00 -.541E+00 0.477E+01   -.227E-04 -.570E-04 0.196E-04
   0.802E+01 0.796E+01 -.111E+04   -.886E+01 -.843E+01 0.111E+04   -.807E-02 -.974E-01 0.437E+01   0.192E-04 0.151E-05 -.706E-05
   0.488E+02 0.142E+02 -.112E+04   -.486E+02 -.144E+02 0.112E+04   -.743E+00 0.154E+00 0.363E+01   0.345E-04 0.409E-04 0.520E-05
   0.119E+02 0.145E+02 -.101E+04   -.113E+02 -.151E+02 0.101E+04   -.541E+00 0.361E-01 0.374E+01   -.463E-04 0.185E-04 0.322E-04
   0.580E+01 -.104E+02 -.104E+04   -.533E+01 0.991E+01 0.103E+04   -.608E+00 0.643E+00 0.419E+01   -.472E-05 0.135E-05 0.223E-04
   0.423E+01 -.183E+02 -.105E+04   -.502E+01 0.178E+02 0.105E+04   0.280E+00 0.585E+00 0.444E+01   0.293E-05 0.237E-04 0.792E-05
   -.329E+02 0.769E+01 -.103E+04   0.331E+02 -.783E+01 0.103E+04   0.357E+00 0.157E+00 0.458E+01   -.450E-04 -.121E-04 0.592E-05
   0.498E+01 -.311E+02 -.111E+04   -.514E+01 0.312E+02 0.111E+04   -.164E+00 0.603E+00 0.356E+01   0.308E-05 -.338E-04 -.555E-06
   0.285E+02 -.418E+01 -.112E+04   -.291E+02 0.395E+01 0.112E+04   -.260E+00 0.200E+00 0.420E+01   0.131E-04 -.110E-04 -.108E-04
   -.109E+02 0.261E+02 -.110E+04   0.114E+02 -.266E+02 0.110E+04   0.286E+00 -.440E+00 0.451E+01   0.292E-05 0.282E-04 -.924E-05
   -.120E+02 0.773E+01 -.110E+04   0.113E+02 -.644E+01 0.109E+04   0.793E+00 -.907E+00 0.358E+01   0.179E-04 -.276E-04 0.179E-04
   -.111E+02 0.445E+01 -.105E+04   0.109E+02 -.500E+01 0.105E+04   0.247E+00 0.628E+00 0.408E+01   -.237E-04 0.368E-04 0.410E-04
   0.423E+02 -.124E+02 0.113E+04   -.426E+02 0.116E+02 -.113E+04   -.463E+00 0.214E+00 -.467E+01   0.409E-04 -.157E-04 0.250E-04
   0.439E+01 0.196E+02 0.101E+04   -.472E+01 -.197E+02 -.100E+04   0.324E+00 -.590E+00 -.446E+01   -.210E-04 -.280E-04 -.254E-04
   -.171E+02 0.117E+02 0.102E+04   0.175E+02 -.113E+02 -.102E+04   -.266E-02 -.546E+00 -.367E+01   -.231E-04 -.228E-04 -.250E-04
   -.639E+02 0.118E+02 0.115E+04   0.651E+02 -.119E+02 -.115E+04   0.619E+00 0.121E+00 -.379E+01   -.100E-04 0.361E-04 -.126E-04
   -.441E+02 -.305E+01 0.116E+04   0.437E+02 0.266E+01 -.116E+04   0.936E+00 0.135E+00 -.449E+01   -.379E-04 -.447E-04 0.314E-04
   -.139E+02 -.303E+02 0.115E+04   0.148E+02 0.306E+02 -.115E+04   -.444E+00 -.412E-01 -.484E+01   -.288E-04 0.141E-04 0.204E-04
   -.123E+02 0.552E+01 0.108E+04   0.119E+02 -.599E+01 -.107E+04   0.368E+00 0.178E+00 -.389E+01   0.409E-06 0.303E-04 0.443E-05
   0.621E+01 0.597E+01 0.956E+03   -.731E+01 -.549E+01 -.953E+03   0.788E+00 -.427E+00 -.438E+01   0.406E-04 -.157E-04 -.357E-04
   0.404E+01 0.138E+02 0.111E+04   -.520E+01 -.142E+02 -.110E+04   0.489E+00 -.254E+00 -.405E+01   0.160E-04 -.131E-04 -.723E-06
   0.402E+02 0.972E+01 0.112E+04   -.401E+02 -.972E+01 -.112E+04   -.578E+00 -.801E-01 -.448E+01   0.260E-04 0.170E-04 0.183E-04
   0.189E+02 -.943E+01 0.112E+04   -.192E+02 0.879E+01 -.112E+04   -.152E+00 0.704E+00 -.424E+01   -.236E-05 -.160E-04 0.307E-04
   0.344E+01 0.494E+01 0.102E+04   -.286E+01 -.450E+01 -.102E+04   -.566E+00 -.402E+00 -.365E+01   -.513E-04 0.150E-04 -.727E-06
   -.345E+02 0.403E+00 0.111E+04   0.357E+02 0.137E+00 -.111E+04   0.141E+00 -.329E+00 -.434E+01   -.195E-04 0.258E-04 0.950E-05
   0.358E+00 0.744E+01 0.948E+03   0.203E+00 -.745E+01 -.944E+03   -.500E+00 -.313E+00 -.491E+01   0.299E-04 0.224E-04 0.896E-06
   -.143E+01 -.262E+02 0.105E+04   0.976E+00 0.262E+02 -.104E+04   0.266E+00 0.829E+00 -.358E+01   0.274E-04 -.306E-04 0.137E-04
   0.544E+02 0.941E+01 0.111E+04   -.544E+02 -.920E+01 -.110E+04   -.779E+00 -.282E+00 -.451E+01   0.283E-04 0.847E-05 -.253E-04
   0.149E+02 -.296E+01 0.143E+04   -.149E+02 0.305E+01 -.143E+04   -.131E-01 -.149E+00 0.177E+01   -.384E-05 0.135E-04 0.106E-04
   0.283E+01 -.189E+00 0.143E+04   -.287E+01 0.485E-01 -.144E+04   0.137E-01 0.490E+00 0.197E+01   0.313E-06 0.135E-05 0.127E-04
   -.220E+02 0.734E+01 0.146E+04   0.219E+02 -.738E+01 -.147E+04   0.300E+00 0.147E-01 0.225E+01   0.105E-04 -.686E-05 0.181E-04
   0.206E+02 -.211E+02 0.148E+04   -.205E+02 0.211E+02 -.149E+04   -.613E+00 0.155E+00 0.137E+01   0.663E-05 0.417E-06 0.253E-04
   0.511E+00 -.168E+02 0.150E+04   -.535E+00 0.167E+02 -.150E+04   -.175E-01 0.479E+00 0.198E+01   -.771E-05 -.996E-05 0.158E-04
   -.262E+01 0.102E+02 0.145E+04   0.240E+01 -.101E+02 -.145E+04   0.587E+00 -.688E+00 0.154E+01   -.137E-04 0.331E-05 0.727E-05
   0.136E+02 -.508E+01 0.145E+04   -.136E+02 0.526E+01 -.145E+04   -.318E+00 -.207E+00 0.223E+01   -.423E-06 0.727E-05 0.978E-05
   -.927E+01 0.123E+02 0.145E+04   0.958E+01 -.124E+02 -.146E+04   -.657E+00 0.251E+00 0.234E+01   0.925E-05 -.951E-05 0.127E-04
   0.250E+01 -.327E+01 0.147E+04   -.247E+01 0.309E+01 -.147E+04   -.153E+00 0.647E+00 0.184E+01   0.100E-04 -.896E-05 0.651E-05
   0.735E+01 0.753E+01 0.147E+04   -.729E+01 -.739E+01 -.147E+04   -.112E+00 -.440E+00 0.248E+01   -.590E-06 -.207E-05 0.211E-04
   -.129E+02 0.197E+02 0.144E+04   0.127E+02 -.195E+02 -.144E+04   0.502E+00 -.105E+01 0.170E+01   -.201E-04 0.886E-05 0.127E-04
   0.378E+01 0.327E-01 0.143E+04   -.400E+01 -.280E+00 -.143E+04   0.440E+00 0.457E+00 0.188E+01   -.914E-05 -.107E-04 0.112E-04
   -.397E+01 -.172E+02 0.147E+04   0.413E+01 0.173E+02 -.147E+04   -.490E+00 -.135E+00 0.167E+01   0.172E-05 0.618E-05 0.991E-05
   -.205E+02 0.245E+02 0.148E+04   0.205E+02 -.243E+02 -.148E+04   0.475E+00 -.647E+00 0.217E+01   0.137E-04 -.286E-07 0.196E-04
   0.272E+02 -.711E+01 0.145E+04   -.269E+02 0.709E+01 -.146E+04   -.138E+01 0.152E+00 0.199E+01   0.127E-04 0.318E-05 0.220E-04
   -.484E+01 -.127E+02 0.146E+04   0.479E+01 0.124E+02 -.146E+04   0.133E+00 0.110E+01 0.195E+01   -.619E-05 0.101E-05 0.127E-04
   -.927E+01 0.257E+02 -.148E+04   0.933E+01 -.257E+02 0.148E+04   -.280E-01 -.188E+00 -.192E+01   0.124E-04 -.118E-04 -.135E-04
   -.556E+01 -.368E+01 -.146E+04   0.572E+01 0.362E+01 0.146E+04   -.468E+00 0.251E+00 -.242E+01   0.506E-05 -.104E-04 -.176E-04
   0.231E+02 -.112E+02 -.147E+04   -.231E+02 0.114E+02 0.147E+04   -.426E+00 -.277E+00 -.295E+01   -.703E-05 0.180E-04 -.128E-04
   0.217E+02 0.114E+02 -.141E+04   -.215E+02 -.114E+02 0.141E+04   -.836E+00 0.196E+00 -.169E+01   0.280E-06 0.108E-04 -.255E-05
   0.919E+01 -.552E+01 -.145E+04   -.910E+01 0.546E+01 0.146E+04   -.364E+00 0.169E+00 -.219E+01   -.500E-05 -.913E-05 -.926E-05
   -.128E+02 -.782E+01 -.148E+04   0.129E+02 0.770E+01 0.149E+04   -.530E-01 0.331E+00 -.297E+01   0.462E-05 -.107E-04 -.127E-04
   -.181E+02 -.100E+02 -.147E+04   0.180E+02 0.990E+01 0.147E+04   0.596E+00 0.267E+00 -.200E+01   0.259E-06 0.101E-04 -.191E-04
   0.714E+01 -.182E+01 -.145E+04   -.737E+01 0.184E+01 0.145E+04   0.635E+00 0.337E-01 -.233E+01   -.989E-05 0.250E-05 -.677E-05
   -.499E+01 0.171E+01 -.146E+04   0.484E+01 -.163E+01 0.147E+04   0.352E+00 -.271E+00 -.278E+01   -.129E-04 -.329E-05 -.175E-04
   0.628E+01 -.127E+02 -.146E+04   -.619E+01 0.124E+02 0.146E+04   -.353E+00 0.885E+00 -.238E+01   -.394E-05 -.776E-05 -.141E-04
   0.357E+01 0.388E+01 -.143E+04   -.365E+01 -.383E+01 0.143E+04   0.905E-01 -.230E+00 -.179E+01   0.538E-06 -.235E-05 -.124E-04
   -.111E+02 0.203E+02 -.146E+04   0.110E+02 -.202E+02 0.147E+04   0.232E+00 -.635E+00 -.220E+01   -.311E-06 0.297E-05 -.182E-04
   0.191E+01 0.531E+00 -.146E+04   -.189E+01 -.640E+00 0.146E+04   -.132E+00 0.439E+00 -.181E+01   0.546E-05 -.100E-04 -.203E-04
   0.250E+02 -.146E+01 -.147E+04   -.251E+02 0.156E+01 0.147E+04   -.480E-01 -.336E+00 -.220E+01   -.637E-05 0.372E-05 -.203E-04
   0.796E+00 -.259E+02 -.144E+04   -.571E+00 0.258E+02 0.145E+04   -.635E+00 0.795E+00 -.148E+01   0.660E-05 0.519E-05 -.990E-05
   -.238E+02 0.149E+01 -.146E+04   0.238E+02 -.146E+01 0.146E+04   0.383E+00 0.118E+00 -.238E+01   0.855E-05 0.941E-05 -.492E-05
   0.239E+02 -.200E+01 0.389E+02   -.237E+02 0.207E+01 -.390E+02   -.605E+00 -.237E+00 0.470E+00   0.480E-05 -.103E-05 0.555E-05
   -.190E+02 0.777E+01 0.929E+01   0.190E+02 -.760E+01 -.977E+01   -.272E+00 -.396E+00 0.165E+01   -.825E-06 0.190E-05 -.379E-05
   -.336E+02 0.345E+01 -.389E+02   0.333E+02 -.342E+01 0.389E+02   0.953E+00 0.908E-01 -.104E+00   0.319E-05 0.689E-06 -.208E-05
   0.324E+01 0.357E+02 0.178E+01   -.325E+01 -.354E+02 -.185E+01   0.219E+00 -.119E+01 0.713E+00   0.268E-05 0.467E-05 0.255E-05
   -.103E+02 0.243E+02 0.534E+02   0.105E+02 -.240E+02 -.538E+02   -.366E+00 -.133E+01 0.176E+01   -.370E-05 -.168E-05 0.621E-05
   0.162E+02 -.288E+02 -.210E+02   -.163E+02 0.288E+02 0.213E+02   0.892E-01 0.226E+00 -.118E+01   0.111E-05 -.361E-05 0.146E-05
   0.185E+02 -.568E+01 -.275E+02   -.182E+02 0.548E+01 0.274E+02   -.785E+00 0.916E+00 0.532E+00   -.276E-05 0.294E-05 -.514E-05
   0.185E+01 0.369E+01 -.307E+01   -.196E+01 -.343E+01 0.300E+01   0.301E+00 -.122E+01 -.687E-01   0.191E-05 -.509E-06 -.104E-05
   -.112E+02 -.694E+01 0.165E+02   0.111E+02 0.697E+01 -.165E+02   0.191E+00 -.289E+00 0.197E+00   0.272E-06 -.114E-05 0.165E-05
   -.110E+02 -.375E+01 0.150E+02   0.107E+02 0.372E+01 -.150E+02   0.756E+00 0.579E+00 -.270E+00   -.257E-06 -.398E-06 0.731E-05
   -.228E+02 0.132E+01 0.186E+02   0.226E+02 -.131E+01 -.185E+02   0.595E+00 -.126E+00 -.381E+00   0.309E-06 0.582E-07 0.151E-05
   -.498E+01 -.425E+01 -.353E+02   0.477E+01 0.410E+01 0.357E+02   0.677E+00 0.576E+00 -.107E+01   -.340E-05 0.136E-05 -.299E-05
   0.153E+02 -.539E+01 -.192E+02   -.152E+02 0.531E+01 0.193E+02   0.114E+00 0.397E+00 -.444E+00   -.341E-06 -.142E-05 0.212E-05
   -.122E+02 0.296E+01 -.240E+02   0.119E+02 -.305E+01 0.241E+02   0.864E+00 0.359E+00 -.646E+00   -.140E-05 -.141E-05 0.160E-05
   0.317E+02 -.128E+02 0.186E+02   -.315E+02 0.127E+02 -.189E+02   -.100E+01 0.393E+00 0.654E+00   0.157E-05 -.305E-05 0.210E-05
   -.817E+01 0.223E+02 -.441E+01   0.815E+01 -.220E+02 0.478E+01   0.153E+00 -.115E+01 -.932E+00   -.278E-05 0.339E-05 0.215E-05
 -----------------------------------------------------------------------------------------------
   0.375E+00 0.189E-01 0.480E+01   -.316E-12 -.355E-13 0.932E-11   -.374E+00 -.163E-01 -.481E+01   -.420E-05 -.146E-04 0.256E-03
 
 
 POSITION                                       TOTAL-FORCE (eV/Angst)
 -----------------------------------------------------------------------------------
      0.07656      1.87425     15.13742        -0.482321      0.834887     -0.263325
     -1.71038      4.82351     15.34315         0.509922      0.841283     -0.528732
     -3.44702      7.93709     15.03541         0.123476      0.693994      0.830897
     -5.15800     11.01645     14.98629         0.029907     -0.339133      0.679043
      3.33223      2.03222     15.11162         1.314451      0.162953      0.098775
      1.86828      5.04348     15.18497        -0.849115     -0.567874     -0.084689
      0.00582      7.93280     15.19941        -0.532148      0.022800      0.304227
     -1.78331     11.08824     15.05998         0.132735     -0.509965     -0.027597
      6.90331      1.91635     15.09683        -0.133230      0.198120      0.238092
      5.21254      4.89266     15.11026        -0.506704      0.062498     -0.135641
      3.40400      7.96007     15.05030         0.542745      0.017555      0.955030
      1.70347     10.89893     15.18089        -0.325425      0.697164      0.408712
     10.44070      1.94167     15.18661        -0.849044     -0.025342      0.181005
      8.49145      4.99930     15.13181         0.771317     -0.942840      0.387694
      6.88579      7.97221     15.16401         0.072734      0.387900     -0.613228
      5.19742     10.90467     15.10165         0.049013      0.074494      0.327007
      1.76585      1.16097     12.63466        -0.722116     -0.581314     -0.370417
     -0.03087      4.09743     12.74860        -0.004338     -0.719451      0.136597
     -1.74982      6.99477     12.71802         0.339625     -0.100480     -0.034746
     -3.60429      9.96329     12.55636         1.802810      0.033549      0.172194
      5.08497      1.05133     12.56245         0.563465     -0.258707      0.142002
      3.40221      4.02392     12.58326         0.478598      0.239819      0.658357
      1.67803      7.03674     12.66067        -0.074514     -0.294241      0.620320
     -0.04154      9.97588     12.83997        -0.313407      0.058720     -1.362518
      8.67966      1.06699     12.60530        -0.673077     -0.687345      0.982835
      6.93440      3.93740     12.61942        -0.454908     -0.079550      0.076233
      5.27054      6.98846     12.58680        -0.454236      0.067899      0.340607
      3.43375      9.98868     12.72724         0.017653      0.030837      0.024613
     11.94548      0.94945     12.64257         1.370690      0.210796      0.207828
     10.33668      4.00875     12.85333         0.059966     -0.324739     -0.974956
      8.67299      6.83193     12.68196        -0.188674      0.840967     -0.355408
      6.99431      9.98994     12.63311        -0.801239     -0.069960     -0.090833
     -0.04552      2.05941     11.08876        -0.011153     -0.052050     -0.359393
     -1.79910      4.93020     11.10447        -0.027667      0.349277     -0.124072
     -3.44543      7.92462     10.97506         0.259606     -0.027420      0.092724
     -5.11702     11.04119     10.97599        -0.494106      0.139484     -0.614527
      3.43532      2.03268     10.87218        -0.041443      0.353168     -0.080916
      1.58634      5.13273     11.06005         0.372521     -0.566775     -0.541264
      0.00001      8.00780     11.03136        -0.278422     -0.028418      0.139849
     -1.63570     10.91386     10.96641        -0.340816      0.100791      0.193166
      6.95299      1.91089     10.96656        -0.122981      0.471717     -0.251521
      5.13596      5.11629     10.87185        -0.057524     -0.300970      0.324058
      3.36724      8.13183     11.08465         0.343639     -0.778044     -0.419425
      1.66476     10.90454     11.11835         0.220639      0.209106     -0.232834
     10.40679      2.04126     11.02139        -0.327370      0.012207     -0.299064
      8.52390      5.02464     10.94055         0.432950     -0.494431      0.116854
      7.17471      7.96870     10.99980        -1.064812      0.133231     -0.136895
      5.15001     10.74926     11.01393         0.076449      0.795980     -0.170885
      1.74891      0.94093     16.79844         0.031481     -0.211494      0.092537
      0.13096      3.85605     16.88198        -0.302807      0.188971     -0.218080
     -1.63724      6.92834     16.97948        -0.361505     -0.098426     -0.726405
     -3.37326      9.92473     16.62658        -0.658293      0.168694      0.438661
      5.17907      0.97796     16.80133        -0.270182      0.101068     -0.122695
      3.51971      3.93232     16.97341         0.003794      0.216594     -0.769422
      1.67197      6.94383     16.84800         0.459002      0.174199      0.069456
     -0.13885      9.97105     16.80722         0.398184      0.053740     -0.115077
      8.59441      1.02019     16.90503         0.209478     -0.191675     -0.577569
      6.93861      3.82725     16.84860        -0.269462      0.633822     -0.260267
      5.15723      6.96855     16.69427         0.012079     -0.174244      0.363261
      3.40285     10.05071     16.82488         0.188071     -0.477499     -0.060473
     12.14962      0.88117     16.77529        -0.118107      0.329356      0.258011
     10.36753      3.94974     16.90478        -0.121581     -0.233766     -0.124351
      8.71768      6.86097     16.71594        -0.410226      0.648958      0.571420
      6.86888      9.88712     16.83047         0.344048      0.152732     -0.235720
      0.06535      0.03445     13.82863        -0.404962     -0.163278      0.351559
     12.05017      2.99424     13.88263        -0.258251     -0.227371      1.177684
     10.26287      5.94217     13.95925         0.632384      0.117545     -0.152416
     -5.19251      9.07262     13.81048         0.199502     -0.859676      0.643915
      3.43301      0.17544     13.69451        -0.215250     -0.992117      1.347121
      1.72526      3.01640     13.99449        -0.017055      0.199058     -0.838723
      0.05680      5.93101     13.93586        -0.516901      0.715364      0.378119
     -1.80403      9.03797     13.89570         0.184938     -0.960661     -0.145555
      6.87545      0.03857     13.89020         0.108642     -0.252610      0.196947
      5.07447      2.98536     13.84966         0.481742      0.547863     -0.178067
      3.44438      6.00209     13.88784         0.414044     -0.117940     -0.230365
      1.64001      8.91970     14.04637         0.468040      0.433381     -0.687012
      3.44932     11.91997     13.93340         0.136452      0.317292     -0.305839
      8.54570      2.94440     13.93744         0.577173      0.264177     -0.548825
      6.96388      5.92065     13.82665        -0.812714      0.284717      0.408758
      5.17956      9.02710     13.95282         0.134121     -0.878921     -0.566423
 -----------------------------------------------------------------------------------
    total drift:                                0.000988      0.002495     -0.000737


--------------------------------------------------------------------------------------------------------



  FREE ENERGIE OF THE ION-ELECTRON SYSTEM (eV)
  ---------------------------------------------------
  free  energy   TOTEN  =      -526.93760441 eV

  energy  without entropy=     -526.93760441  energy(sigma->0) =     -526.93760441
 


--------------------------------------------------------------------------------------------------------


    POTLOK:  cpu time    2.3462: real time    2.3490


--------------------------------------------------------------------------------------------------------


     LOOP+:  cpu time 5915.6267: real time 5916.2518
    4ORBIT:  cpu time    0.0000: real time    0.0000

 total amount of memory used by VASP MPI-rank0   253936. kBytes
=======================================================================

   base      :      30000. kBytes
   nonlr-proj:      18752. kBytes
   fftplans  :      72602. kBytes
   grid      :      41267. kBytes
   one-center:        108. kBytes
   wavefun   :      91207. kBytes
 
  
  
 General timing and accounting informations for this job:
 ========================================================
  
                  Total CPU time used (sec):     5966.733
                            User time (sec):     5887.646
                          System time (sec):       79.088
                         Elapsed time (sec):     5967.494
  
                   Maximum memory used (kb):      463104.
                   Average memory used (kb):           0.
  
                          Minor page faults:       176263
                          Major page faults:            0
                 Voluntary context switches:         2516
