<?xml version="1.0" encoding="ISO-8859-1"?>
<modeling>
 <generator>
  <i name="program" type="string">vasp </i>
  <i name="version" type="string">5.4.4.18Apr17-6-g9f103f2a35  </i>
  <i name="subversion" type="string">(build Oct 31 2019 15:01:46) complex            parallel </i>
  <i name="platform" type="string">LinuxIFC </i>
  <i name="date" type="string">2024 04 20 </i>
  <i name="time" type="string">09:39:42 </i>
 </generator>
 <incar>
  <i type="int" name="ISTART">     0</i>
  <i type="string" name="PREC">anormal</i>
  <i type="logical" name="ADDGRID"> T  </i>
  <i type="int" name="IBRION">    -1</i>
  <i name="EDIFF">      0.00000100</i>
  <i name="EDIFFG">     -0.01000000</i>
  <i type="int" name="NSW">     1</i>
  <i type="int" name="ISIF">     2</i>
  <i type="int" name="ISYM">     2</i>
  <i name="ENCUT">    600.00000000</i>
  <i name="POTIM">      1.00000000</i>
  <i type="string" name="LREAL"> Auto.</i>
  <i type="int" name="ISMEAR">     0</i>
  <i name="SIGMA">      0.05000000</i>
  <i name="KSPACING">      0.25000000</i>
  <i type="logical" name="LWAVE"> F  </i>
  <i type="logical" name="LCHARG"> F  </i>
  <i type="logical" name="LSCALAPACK"> F  </i>
  <v type="int" name="KPOINT_BSE">    -1     0     0     0</v>
 </incar>
 <structure name="primitive_cell" >
  <crystal>
   <varray name="basis" >
    <v>      13.12862340       0.00000000       0.00000000 </v>
    <v>      -6.56431170      11.36972138       0.00000000 </v>
    <v>       0.00000000       0.00000000      26.82809424 </v>
   </varray>
   <i name="volume">   4004.59716953 </i>
   <varray name="rec_basis" >
    <v>       0.07616945       0.04397645       0.00000000 </v>
    <v>       0.00000000       0.08795290       0.00000000 </v>
    <v>       0.00000000       0.00000000       0.03727436 </v>
   </varray>
  </crystal>
  <varray name="positions" >
   <v>       0.08711811       0.16591408       0.45218024 </v>
   <v>       0.15306222       0.32100385       0.41030175 </v>
   <v>       0.16260958       0.08055707       0.40947162 </v>
   <v>      -0.06912644       0.06898300       0.40657606 </v>
   <v>       0.25306426       0.25978422       0.49485887 </v>
   <v>      -0.00327676      -0.00899259      -0.49989967 </v>
   <v>      -0.00166680       0.24788328      -0.49514167 </v>
   <v>       0.16773392       0.33839191      -0.45813916 </v>
   <v>       0.32969867       0.16151276       0.45542894 </v>
   <v>       0.07960431      -0.08514567       0.45374124 </v>
   <v>       0.16875751       0.08001188      -0.44954763 </v>
   <v>       0.08091429       0.41325033       0.45489646 </v>
   <v>       0.33712667       0.42009166       0.44869041 </v>
   <v>      -0.08972749       0.08671738      -0.44927295 </v>
   <v>      -0.16261712      -0.09299298       0.45332312 </v>
   <v>      -0.17660987       0.15639906       0.44868283 </v>
   <v>       0.08237073       0.14908294      -0.40624638 </v>
   <v>      -0.08124144      -0.15286412       0.40575049 </v>
   <v>       0.41518678       0.32911874       0.40797583 </v>
   <v>       0.25282075       0.49358765       0.49869367 </v>
   <v>       0.25228370       0.00512515      -0.49503957 </v>
   <v>      -0.10669371       0.31351564       0.40797285 </v>
   <v>      -0.25578951       0.00018076       0.49920517 </v>
   <v>      -0.06680760      -0.15273156      -0.45226391 </v>
   <v>       0.40767790       0.34016684      -0.45226303 </v>
   <v>      -0.08744381       0.33194800      -0.45612346 </v>
   <v>       0.31298563       0.41291737      -0.40951693 </v>
   <v>       0.32716595       0.17148578      -0.40935550 </v>
   <v>       0.15611440      -0.44026445       0.41269702 </v>
   <v>       0.09607857      -0.06580544      -0.40511652 </v>
   <v>       0.39988814       0.07275789       0.41028878 </v>
   <v>       0.09313243       0.41665135      -0.40710027 </v>
   <v>       0.49236218       0.25673071       0.49740200 </v>
   <v>      -0.17343515      -0.09560142      -0.41136604 </v>
   <v>       0.41280575      -0.41973659       0.41273646 </v>
   <v>       0.00150919      -0.24946696       0.49930660 </v>
   <v>      -0.49220407      -0.49849893       0.49499661 </v>
   <v>      -0.24799321      -0.25409727       0.49932480 </v>
   <v>      -0.24268944       0.26121379       0.49856598 </v>
   <v>      -0.00352045       0.49750686      -0.49648910 </v>
   <v>      -0.33844368       0.07775011       0.40685927 </v>
   <v>      -0.17370905       0.17498439      -0.40100085 </v>
   <v>      -0.33274758      -0.18828440       0.40752651 </v>
   <v>       0.41324557       0.09329034      -0.45076904 </v>
   <v>       0.17544419      -0.19580854       0.40699662 </v>
   <v>       0.41533604      -0.41519774      -0.45759868 </v>
   <v>      -0.33130619       0.08574688      -0.45566124 </v>
   <v>      -0.41623068       0.41901011       0.45108349 </v>
   <v>       0.16617655      -0.17097995      -0.45047739 </v>
   <v>       0.32945591      -0.09002916       0.45535019 </v>
   <v>       0.17854234      -0.41495427      -0.44633780 </v>
   <v>      -0.16698238       0.41402519       0.44966525 </v>
   <v>      -0.41758016      -0.07270321       0.45206439 </v>
   <v>      -0.34455931      -0.16816547      -0.45171929 </v>
   <v>      -0.15668714      -0.34148386       0.45139540 </v>
   <v>       0.34959775      -0.32272710       0.45258579 </v>
   <v>      -0.41877233       0.17049657       0.45354614 </v>
   <v>       0.08426745      -0.34095191       0.45392753 </v>
   <v>      -0.41129514      -0.34180036       0.45269428 </v>
   <v>      -0.43159812       0.41974212      -0.40797476 </v>
   <v>      -0.40411540      -0.06547420      -0.40801129 </v>
   <v>       0.34981496      -0.07536785      -0.41129041 </v>
   <v>      -0.49864656       0.00972546      -0.49706148 </v>
   <v>      -0.15907713       0.43408116      -0.41368308 </v>
   <v>      -0.07822667      -0.42074348       0.40774615 </v>
   <v>      -0.33267993      -0.41245729       0.40816148 </v>
   <v>       0.24379961      -0.25647012      -0.49873615 </v>
   <v>      -0.17374695      -0.35140393      -0.41192771 </v>
   <v>      -0.32819968       0.34418669       0.40241694 </v>
   <v>      -0.49802181      -0.24770218       0.49946413 </v>
   <v>       0.33035449      -0.30995350      -0.40364845 </v>
   <v>      -0.34060606       0.33540804      -0.45526054 </v>
   <v>      -0.33081911      -0.40695354      -0.45333745 </v>
   <v>      -0.07528594      -0.40834082      -0.45098530 </v>
   <v>      -0.42850961      -0.34803076      -0.41041749 </v>
   <v>       0.08301671      -0.32022400      -0.40696470 </v>
   <v>       0.41801933      -0.15762310       0.41386162 </v>
   <v>      -0.41469228       0.15902083      -0.41019875 </v>
   <v>      -0.25423249       0.49149902       0.49856664 </v>
   <v>       0.42325773      -0.15817347      -0.45045709 </v>
  </varray>
 </structure>
 <varray name="primitive_index" >
  <v type="int" >        1 </v>
  <v type="int" >       50 </v>
  <v type="int" >       49 </v>
  <v type="int" >       61 </v>
  <v type="int" >       70 </v>
  <v type="int" >       65 </v>
  <v type="int" >       66 </v>
  <v type="int" >       18 </v>
  <v type="int" >        5 </v>
  <v type="int" >        4 </v>
  <v type="int" >       17 </v>
  <v type="int" >        2 </v>
  <v type="int" >        6 </v>
  <v type="int" >       29 </v>
  <v type="int" >       16 </v>
  <v type="int" >       13 </v>
  <v type="int" >       33 </v>
  <v type="int" >       64 </v>
  <v type="int" >       54 </v>
  <v type="int" >       71 </v>
  <v type="int" >       69 </v>
  <v type="int" >       62 </v>
  <v type="int" >       77 </v>
  <v type="int" >       32 </v>
  <v type="int" >       22 </v>
  <v type="int" >       30 </v>
  <v type="int" >       38 </v>
  <v type="int" >       37 </v>
  <v type="int" >       51 </v>
  <v type="int" >       36 </v>
  <v type="int" >       53 </v>
  <v type="int" >       34 </v>
  <v type="int" >       74 </v>
  <v type="int" >       48 </v>
  <v type="int" >       55 </v>
  <v type="int" >       68 </v>
  <v type="int" >       75 </v>
  <v type="int" >       80 </v>
  <v type="int" >       78 </v>
  <v type="int" >       67 </v>
  <v type="int" >       57 </v>
  <v type="int" >       45 </v>
  <v type="int" >       60 </v>
  <v type="int" >       21 </v>
  <v type="int" >       52 </v>
  <v type="int" >       23 </v>
  <v type="int" >       25 </v>
  <v type="int" >       10 </v>
  <v type="int" >       20 </v>
  <v type="int" >        8 </v>
  <v type="int" >       19 </v>
  <v type="int" >       14 </v>
  <v type="int" >       12 </v>
  <v type="int" >       28 </v>
  <v type="int" >       15 </v>
  <v type="int" >        7 </v>
  <v type="int" >        9 </v>
  <v type="int" >        3 </v>
  <v type="int" >       11 </v>
  <v type="int" >       42 </v>
  <v type="int" >       44 </v>
  <v type="int" >       40 </v>
  <v type="int" >       73 </v>
  <v type="int" >       46 </v>
  <v type="int" >       63 </v>
  <v type="int" >       59 </v>
  <v type="int" >       72 </v>
  <v type="int" >       47 </v>
  <v type="int" >       58 </v>
  <v type="int" >       76 </v>
  <v type="int" >       39 </v>
  <v type="int" >       26 </v>
  <v type="int" >       27 </v>
  <v type="int" >       31 </v>
  <v type="int" >       43 </v>
  <v type="int" >       35 </v>
  <v type="int" >       56 </v>
  <v type="int" >       41 </v>
  <v type="int" >       79 </v>
  <v type="int" >       24 </v>
 </varray>
 <kpoints>
  <generation param="Gamma">
   <v type="int" name="divisions">       3        3        1 </v>
   <v name="usershift">      0.00000000       0.00000000       0.00000000 </v>
   <v name="genvec1">      0.33333333       0.00000000       0.00000000 </v>
   <v name="genvec2">      0.00000000       0.33333333       0.00000000 </v>
   <v name="genvec3">      0.00000000       0.00000000       1.00000000 </v>
   <v name="shift">      0.00000000       0.00000000       0.00000000 </v>
  </generation>
  <varray name="kpointlist" >
   <v>       0.00000000       0.00000000       0.00000000 </v>
   <v>       0.33333333      -0.00000000       0.00000000 </v>
   <v>       0.00000000       0.33333333       0.00000000 </v>
   <v>       0.33333333       0.33333333       0.00000000 </v>
   <v>      -0.33333333       0.33333333       0.00000000 </v>
  </varray>
  <varray name="weights" >
   <v>       0.11111111 </v>
   <v>       0.22222222 </v>
   <v>       0.22222222 </v>
   <v>       0.22222222 </v>
   <v>       0.22222222 </v>
  </varray>
 </kpoints>
 <parameters>
  <separator name="general" >
   <i type="string" name="SYSTEM">unknown system</i>
   <i type="logical" name="LCOMPAT"> F  </i>
  </separator>
  <separator name="electronic" >
   <i type="string" name="PREC">anorma</i>
   <i name="ENMAX">    600.00000000</i>
   <i name="ENAUG">    644.87300000</i>
   <i name="EDIFF">      0.00000100</i>
   <i type="int" name="IALGO">    38</i>
   <i type="int" name="IWAVPR">    10</i>
   <i type="int" name="NBANDS">   384</i>
   <i name="NELECT">    640.00000000</i>
   <i type="int" name="TURBO">     0</i>
   <i type="int" name="IRESTART">     0</i>
   <i type="int" name="NREBOOT">     0</i>
   <i type="int" name="NMIN">     0</i>
   <i name="EREF">      0.00000000</i>
   <separator name="electronic smearing" >
    <i type="int" name="ISMEAR">     0</i>
    <i name="SIGMA">      0.05000000</i>
    <i name="KSPACING">      0.25000000</i>
    <i type="logical" name="KGAMMA"> T  </i>
   </separator>
   <separator name="electronic projectors" >
    <i type="logical" name="LREAL"> T  </i>
    <v name="ROPT">     -0.00025000     -0.00025000     -0.00025000</v>
    <i type="int" name="LMAXPAW">  -100</i>
    <i type="int" name="LMAXMIX">     2</i>
    <i type="logical" name="NLSPLINE"> F  </i>
   </separator>
   <separator name="electronic startup" >
    <i type="int" name="ISTART">     0</i>
    <i type="int" name="ICHARG">     2</i>
    <i type="int" name="INIWAV">     1</i>
   </separator>
   <separator name="electronic spin" >
    <i type="int" name="ISPIN">     1</i>
    <i type="logical" name="LNONCOLLINEAR"> F  </i>
    <v name="MAGMOM">      1.00000000      1.00000000      1.00000000      1.00000000      1.00000000      1.00000000      1.00000000      1.00000000      1.00000000      1.00000000      1.00000000      1.00000000      1.00000000      1.00000000      1.00000000      1.00000000      1.00000000      1.00000000      1.00000000      1.00000000
      1.00000000      1.00000000      1.00000000      1.00000000      1.00000000      1.00000000      1.00000000      1.00000000      1.00000000      1.00000000      1.00000000      1.00000000      1.00000000      1.00000000      1.00000000      1.00000000      1.00000000      1.00000000      1.00000000      1.00000000
      1.00000000      1.00000000      1.00000000      1.00000000      1.00000000      1.00000000      1.00000000      1.00000000      1.00000000      1.00000000      1.00000000      1.00000000      1.00000000      1.00000000      1.00000000      1.00000000      1.00000000      1.00000000      1.00000000      1.00000000
      1.00000000      1.00000000      1.00000000      1.00000000      1.00000000      1.00000000      1.00000000      1.00000000      1.00000000      1.00000000      1.00000000      1.00000000      1.00000000      1.00000000      1.00000000      1.00000000      1.00000000      1.00000000      1.00000000      1.00000000
</v>
    <i name="NUPDOWN">     -1.00000000</i>
    <i type="logical" name="LSORBIT"> F  </i>
    <v name="SAXIS">      0.00000000      0.00000000      1.00000000</v>
    <i type="logical" name="LSPIRAL"> F  </i>
    <v name="QSPIRAL">      0.00000000      0.00000000      0.00000000</v>
    <i type="logical" name="LZEROZ"> F  </i>
   </separator>
   <separator name="electronic exchange-correlation" >
    <i type="logical" name="LASPH"> F  </i>
    <i type="logical" name="LMETAGGA"> F  </i>
   </separator>
   <separator name="electronic convergence" >
    <i type="int" name="NELM">    60</i>
    <i type="int" name="NELMDL">    -5</i>
    <i type="int" name="NELMIN">     2</i>
    <i name="ENINI">    600.00000000</i>
    <separator name="electronic convergence detail" >
     <i type="logical" name="LDIAG"> T  </i>
     <i type="logical" name="LSUBROT"> F  </i>
     <i name="WEIMIN">      0.00000000</i>
     <i name="EBREAK">      0.00000000</i>
     <i name="DEPER">      0.30000000</i>
     <i type="int" name="NRMM">     4</i>
     <i name="TIME">      0.40000000</i>
    </separator>
   </separator>
   <separator name="electronic mixer" >
    <i name="AMIX">      0.40000000</i>
    <i name="BMIX">      1.00000000</i>
    <i name="AMIN">      0.10000000</i>
    <i name="AMIX_MAG">      1.60000000</i>
    <i name="BMIX_MAG">      1.00000000</i>
    <separator name="electronic mixer details" >
     <i type="int" name="IMIX">     4</i>
     <i type="logical" name="MIXFIRST"> F  </i>
     <i type="int" name="MAXMIX">   -45</i>
     <i name="WC">    100.00000000</i>
     <i type="int" name="INIMIX">     1</i>
     <i type="int" name="MIXPRE">     1</i>
     <i type="int" name="MREMOVE">     5</i>
    </separator>
   </separator>
   <separator name="electronic dipolcorrection" >
    <i type="logical" name="LDIPOL"> F  </i>
    <i type="logical" name="LMONO"> F  </i>
    <i type="int" name="IDIPOL">     0</i>
    <i name="EPSILON">      1.00000000</i>
    <v name="DIPOL">   -100.00000000   -100.00000000   -100.00000000</v>
    <i name="EFIELD">      0.00000000</i>
   </separator>
  </separator>
  <separator name="grids" >
   <i type="int" name="NGX">   108</i>
   <i type="int" name="NGY">   108</i>
   <i type="int" name="NGZ">   216</i>
   <i type="int" name="NGXF">   216</i>
   <i type="int" name="NGYF">   216</i>
   <i type="int" name="NGZF">   432</i>
   <i type="logical" name="ADDGRID"> T  </i>
  </separator>
  <separator name="ionic" >
   <i type="int" name="NSW">     1</i>
   <i type="int" name="IBRION">    -1</i>
   <i type="int" name="MDALGO">     0</i>
   <i type="int" name="ISIF">     2</i>
   <i name="PSTRESS">      0.00000000</i>
   <i name="EDIFFG">     -0.01000000</i>
   <i type="int" name="NFREE">     0</i>
   <i name="POTIM">      1.00000000</i>
   <i name="SMASS">     -3.00000000</i>
   <i name="SCALEE">      1.00000000</i>
  </separator>
  <separator name="ionic md" >
   <i name="TEBEG">      0.00010000</i>
   <i name="TEEND">      0.00010000</i>
   <i type="int" name="NBLOCK">     1</i>
   <i type="int" name="KBLOCK">     1</i>
   <i type="int" name="NPACO">   256</i>
   <i name="APACO">     16.00000000</i>
  </separator>
  <separator name="symmetry" >
   <i type="int" name="ISYM">     2</i>
   <i name="SYMPREC">      0.00001000</i>
  </separator>
  <separator name="dos" >
   <i type="int" name="LORBIT">     0</i>
   <v name="RWIGS">     -1.00000000     -1.00000000     -1.00000000</v>
   <i type="int" name="NEDOS">   301</i>
   <i name="EMIN">     10.00000000</i>
   <i name="EMAX">    -10.00000000</i>
   <i name="EFERMI">      0.00000000</i>
  </separator>
  <separator name="writing" >
   <i type="int" name="NWRITE">     2</i>
   <i type="logical" name="LWAVE"> F  </i>
   <i type="logical" name="LDOWNSAMPLE"> F  </i>
   <i type="logical" name="LCHARG"> F  </i>
   <i type="logical" name="LPARD"> F  </i>
   <i type="logical" name="LVTOT"> F  </i>
   <i type="logical" name="LVHAR"> F  </i>
   <i type="logical" name="LELF"> F  </i>
   <i type="logical" name="LOPTICS"> F  </i>
   <v name="STM">      0.00000000      0.00000000      0.00000000      0.00000000      0.00000000      0.00000000      0.00000000</v>
  </separator>
  <separator name="performance" >
   <i type="int" name="NPAR">     4</i>
   <i type="int" name="NSIM">     4</i>
   <i type="int" name="NBLK">    -1</i>
   <i type="logical" name="LPLANE"> T  </i>
   <i type="logical" name="LSCALAPACK"> F  </i>
   <i type="logical" name="LSCAAWARE"> F  </i>
   <i type="logical" name="LSCALU"> F  </i>
   <i type="logical" name="LASYNC"> F  </i>
   <i type="logical" name="LORBITALREAL"> F  </i>
  </separator>
  <separator name="miscellaneous" >
   <i type="int" name="IDIOT">     3</i>
   <i type="int" name="ISPECIAL">     0</i>
   <i type="logical" name="LMUSIC"> F  </i>
   <v name="POMASS">     44.95600000     18.99800000     12.01100000</v>
   <v name="DARWINR">      0.00000000      0.00000000      0.00000000</v>
   <v name="DARWINV">      1.00000000      1.00000000      1.00000000</v>
   <i type="logical" name="LCORR"> T  </i>
  </separator>
  <i type="logical" name="GGA_COMPAT"> T  </i>
  <i type="logical" name="LBERRY"> F  </i>
  <i type="int" name="ICORELEVEL">     0</i>
  <i type="logical" name="LDAU"> F  </i>
  <i type="int" name="I_CONSTRAINED_M">     0</i>
  <separator name="electronic exchange-correlation" >
   <i type="string" name="GGA">--</i>
   <i type="int" name="VOSKOWN">     0</i>
   <i type="logical" name="LHFCALC"> F  </i>
   <i type="string" name="PRECFOCK"></i>
   <i type="logical" name="LSYMGRAD"> F  </i>
   <i type="logical" name="LHFONE"> F  </i>
   <i type="logical" name="LRHFCALC"> F  </i>
   <i type="logical" name="LTHOMAS"> F  </i>
   <i type="logical" name="LMODELHF"> F  </i>
   <i name="ENCUT4O">     -1.00000000</i>
   <i type="int" name="EXXOEP">     0</i>
   <i type="int" name="FOURORBIT">     0</i>
   <i name="AEXX">      0.00000000</i>
   <i name="HFALPHA">      0.00000000</i>
   <i name="MCALPHA">      0.00000000</i>
   <i name="ALDAX">      1.00000000</i>
   <i name="AGGAX">      1.00000000</i>
   <i name="ALDAC">      1.00000000</i>
   <i name="AGGAC">      1.00000000</i>
   <i type="int" name="NKREDX">     1</i>
   <i type="int" name="NKREDY">     1</i>
   <i type="int" name="NKREDZ">     1</i>
   <i type="logical" name="SHIFTRED"> F  </i>
   <i type="logical" name="ODDONLY"> F  </i>
   <i type="logical" name="EVENONLY"> F  </i>
   <i type="int" name="LMAXFOCK">     0</i>
   <i type="int" name="NMAXFOCKAE">     0</i>
   <i type="logical" name="LFOCKAEDFT"> F  </i>
   <i name="HFSCREEN">      0.00000000</i>
   <i name="HFSCREENC">      0.00000000</i>
   <i type="int" name="NBANDSGWLOW">     0</i>
  </separator>
  <separator name="vdW DFT" >
   <i type="logical" name="LUSE_VDW"> F  </i>
   <i name="Zab_VDW">     -0.84910000</i>
   <i name="PARAM1">      0.12340000</i>
   <i name="PARAM2">      1.00000000</i>
   <i name="PARAM3">      0.00000000</i>
  </separator>
  <separator name="model GW" >
   <i type="int" name="MODEL_GW">     0</i>
   <i name="MODEL_EPS0">     30.03447877</i>
   <i name="MODEL_ALPHA">      1.00000000</i>
  </separator>
  <separator name="linear response parameters" >
   <i type="logical" name="LEPSILON"> F  </i>
   <i type="logical" name="LRPA"> F  </i>
   <i type="logical" name="LNABLA"> F  </i>
   <i type="logical" name="LVEL"> F  </i>
   <i type="int" name="KINTER">     0</i>
   <i name="CSHIFT">      0.10000000</i>
   <i name="OMEGAMAX">     -1.00000000</i>
   <i name="DEG_THRESHOLD">      0.00200000</i>
   <i name="RTIME">     -0.10000000</i>
   <i name="WPLASMAI">      0.00000000</i>
   <v name="DFIELD">      0.00000000      0.00000000      0.00000000</v>
   <v name="WPLASMA">      0.00000000      0.00000000      0.00000000      0.00000000      0.00000000      0.00000000      0.00000000      0.00000000      0.00000000</v>
  </separator>
  <separator name="orbital magnetization" >
   <i type="logical" name="NUCIND"> F  </i>
   <v name="MAGPOS">      0.00000000      0.00000000      0.00000000</v>
   <i type="logical" name="LNICSALL"> T  </i>
   <i type="logical" name="ORBITALMAG"> F  </i>
   <i type="logical" name="LMAGBLOCH"> F  </i>
   <i type="logical" name="LCHIMAG"> F  </i>
   <i type="logical" name="LGAUGE"> T  </i>
   <i type="int" name="MAGATOM">     0</i>
   <v name="MAGDIPOL">      0.00000000      0.00000000      0.00000000</v>
   <v name="AVECCONST">      0.00000000      0.00000000      0.00000000</v>
  </separator>
  <separator name="response functions" >
   <i type="logical" name="LADDER"> F  </i>
   <i type="logical" name="LRPAFORCE"> F  </i>
   <i type="logical" name="LFXC"> F  </i>
   <i type="logical" name="LHARTREE"> T  </i>
   <i type="int" name="IBSE">     0</i>
   <v type="int" name="KPOINT">    -1     0     0     0</v>
   <i type="logical" name="LTCTE"> F  </i>
   <i type="logical" name="LTETE"> F  </i>
   <i type="logical" name="LTRIPLET"> F  </i>
   <i type="logical" name="LFXCEPS"> F  </i>
   <i type="logical" name="LFXHEG"> F  </i>
   <i type="int" name="NATURALO">     2</i>
   <i type="logical" name="L2ORDER"> F  </i>
   <i type="logical" name="LMP2LT"> F  </i>
   <i type="logical" name="LUSEW"> F  </i>
   <i name="ENCUTGW">     -2.00000000</i>
   <i name="ENCUTGWSOFT">     -2.00000000</i>
   <i name="ENCUTLF">     -1.00000000</i>
   <i type="int" name="LMAXMP2">    -1</i>
   <i name="SCISSOR">      0.00000000</i>
   <i type="int" name="NOMEGA">     0</i>
   <i type="int" name="NOMEGAR">     0</i>
   <i type="int" name="NBANDSGW">    -1</i>
   <i type="int" name="NBANDSO">    -1</i>
   <i type="int" name="NBANDSV">    -1</i>
   <i type="int" name="NELM">     1</i>
   <i type="int" name="NELMHF">     1</i>
   <i type="int" name="DIM">     3</i>
   <i type="int" name="ANTIRES">     0</i>
   <i name="OMEGAMAX">    -30.00000000</i>
   <i name="OMEGAMIN">    -30.00000000</i>
   <i name="OMEGATL">   -200.00000000</i>
   <i type="int" name="OMEGAGRID">   140</i>
   <i name="CSHIFT">     -0.10000000</i>
   <i type="logical" name="SELFENERGY"> F  </i>
   <i type="logical" name="LSPECTRAL"> F  </i>
   <i type="logical" name="LSPECTRALGW"> F  </i>
   <i type="logical" name="LSINGLES"> F  </i>
   <i type="logical" name="LFERMIGW"> F  </i>
   <i type="logical" name="ODDONLYGW"> F  </i>
   <i type="logical" name="EVENONLYGW"> F  </i>
   <i type="int" name="NKREDLFX">     1</i>
   <i type="int" name="NKREDLFY">     1</i>
   <i type="int" name="NKREDLFZ">     1</i>
   <i type="int" name="MAXMEM">  2800</i>
   <i type="int" name="TELESCOPE">     0</i>
   <i type="int" name="TAUPAR">     1</i>
   <i type="int" name="OMEGAPAR">    -1</i>
   <i name="LAMBDA">      1.00000000</i>
  </separator>
  <separator name="External order field" >
   <i name="OFIELD_KAPPA">      0.00000000</i>
   <v name="OFIELD_K">      0.00000000      0.00000000      0.00000000</v>
   <i name="OFIELD_Q6_NEAR">      0.00000000</i>
   <i name="OFIELD_Q6_FAR">      0.00000000</i>
   <i name="OFIELD_A">      0.00000000</i>
  </separator>
 </parameters>
 <atominfo>
  <atoms>      80 </atoms>
  <types>       3 </types>
  <array name="atoms" >
   <dimension dim="1">ion</dimension>
   <field type="string">element</field>
   <field type="int">atomtype</field>
   <set>
    <rc><c>Sc</c><c>   1</c></rc>
    <rc><c>Sc</c><c>   1</c></rc>
    <rc><c>Sc</c><c>   1</c></rc>
    <rc><c>Sc</c><c>   1</c></rc>
    <rc><c>Sc</c><c>   1</c></rc>
    <rc><c>Sc</c><c>   1</c></rc>
    <rc><c>Sc</c><c>   1</c></rc>
    <rc><c>Sc</c><c>   1</c></rc>
    <rc><c>Sc</c><c>   1</c></rc>
    <rc><c>Sc</c><c>   1</c></rc>
    <rc><c>Sc</c><c>   1</c></rc>
    <rc><c>Sc</c><c>   1</c></rc>
    <rc><c>Sc</c><c>   1</c></rc>
    <rc><c>Sc</c><c>   1</c></rc>
    <rc><c>Sc</c><c>   1</c></rc>
    <rc><c>Sc</c><c>   1</c></rc>
    <rc><c>Sc</c><c>   1</c></rc>
    <rc><c>Sc</c><c>   1</c></rc>
    <rc><c>Sc</c><c>   1</c></rc>
    <rc><c>Sc</c><c>   1</c></rc>
    <rc><c>Sc</c><c>   1</c></rc>
    <rc><c>Sc</c><c>   1</c></rc>
    <rc><c>Sc</c><c>   1</c></rc>
    <rc><c>Sc</c><c>   1</c></rc>
    <rc><c>Sc</c><c>   1</c></rc>
    <rc><c>Sc</c><c>   1</c></rc>
    <rc><c>Sc</c><c>   1</c></rc>
    <rc><c>Sc</c><c>   1</c></rc>
    <rc><c>Sc</c><c>   1</c></rc>
    <rc><c>Sc</c><c>   1</c></rc>
    <rc><c>Sc</c><c>   1</c></rc>
    <rc><c>Sc</c><c>   1</c></rc>
    <rc><c>F </c><c>   2</c></rc>
    <rc><c>F </c><c>   2</c></rc>
    <rc><c>F </c><c>   2</c></rc>
    <rc><c>F </c><c>   2</c></rc>
    <rc><c>F </c><c>   2</c></rc>
    <rc><c>F </c><c>   2</c></rc>
    <rc><c>F </c><c>   2</c></rc>
    <rc><c>F </c><c>   2</c></rc>
    <rc><c>F </c><c>   2</c></rc>
    <rc><c>F </c><c>   2</c></rc>
    <rc><c>F </c><c>   2</c></rc>
    <rc><c>F </c><c>   2</c></rc>
    <rc><c>F </c><c>   2</c></rc>
    <rc><c>F </c><c>   2</c></rc>
    <rc><c>F </c><c>   2</c></rc>
    <rc><c>F </c><c>   2</c></rc>
    <rc><c>F </c><c>   2</c></rc>
    <rc><c>F </c><c>   2</c></rc>
    <rc><c>F </c><c>   2</c></rc>
    <rc><c>F </c><c>   2</c></rc>
    <rc><c>F </c><c>   2</c></rc>
    <rc><c>F </c><c>   2</c></rc>
    <rc><c>F </c><c>   2</c></rc>
    <rc><c>F </c><c>   2</c></rc>
    <rc><c>F </c><c>   2</c></rc>
    <rc><c>F </c><c>   2</c></rc>
    <rc><c>F </c><c>   2</c></rc>
    <rc><c>F </c><c>   2</c></rc>
    <rc><c>F </c><c>   2</c></rc>
    <rc><c>F </c><c>   2</c></rc>
    <rc><c>F </c><c>   2</c></rc>
    <rc><c>F </c><c>   2</c></rc>
    <rc><c>C </c><c>   3</c></rc>
    <rc><c>C </c><c>   3</c></rc>
    <rc><c>C </c><c>   3</c></rc>
    <rc><c>C </c><c>   3</c></rc>
    <rc><c>C </c><c>   3</c></rc>
    <rc><c>C </c><c>   3</c></rc>
    <rc><c>C </c><c>   3</c></rc>
    <rc><c>C </c><c>   3</c></rc>
    <rc><c>C </c><c>   3</c></rc>
    <rc><c>C </c><c>   3</c></rc>
    <rc><c>C </c><c>   3</c></rc>
    <rc><c>C </c><c>   3</c></rc>
    <rc><c>C </c><c>   3</c></rc>
    <rc><c>C </c><c>   3</c></rc>
    <rc><c>C </c><c>   3</c></rc>
    <rc><c>C </c><c>   3</c></rc>
   </set>
  </array>
  <array name="atomtypes" >
   <dimension dim="1">type</dimension>
   <field type="int">atomspertype</field>
   <field type="string">element</field>
   <field>mass</field>
   <field>valence</field>
   <field type="string">pseudopotential</field>
   <set>
    <rc><c>  32</c><c>Sc</c><c>     44.95600000</c><c>     11.00000000</c><c>  PAW_PBE Sc_sv 07Sep2000               </c></rc>
    <rc><c>  32</c><c>F </c><c>     18.99800000</c><c>      7.00000000</c><c>  PAW_PBE F 08Apr2002                   </c></rc>
    <rc><c>  16</c><c>C </c><c>     12.01100000</c><c>      4.00000000</c><c>  PAW_PBE C 08Apr2002                   </c></rc>
   </set>
  </array>
 </atominfo>
 <structure name="initialpos" >
  <crystal>
   <varray name="basis" >
    <v>      13.12862340       0.00000000       0.00000000 </v>
    <v>      -6.56431170      11.36972138       0.00000000 </v>
    <v>       0.00000000       0.00000000      26.82809424 </v>
   </varray>
   <i name="volume">   4004.59716953 </i>
   <varray name="rec_basis" >
    <v>       0.07616945       0.04397645       0.00000000 </v>
    <v>       0.00000000       0.08795290       0.00000000 </v>
    <v>       0.00000000       0.00000000       0.03727436 </v>
   </varray>
  </crystal>
  <varray name="positions" >
   <v>       0.08711811       0.16591408       0.45218024 </v>
   <v>       0.08091429       0.41325033       0.45489646 </v>
   <v>       0.08426745       0.65904809       0.45392753 </v>
   <v>       0.07960431       0.91485433       0.45374124 </v>
   <v>       0.32969867       0.16151276       0.45542894 </v>
   <v>       0.33712667       0.42009166       0.44869041 </v>
   <v>       0.34959775       0.67727290       0.45258579 </v>
   <v>       0.32945591       0.90997084       0.45535019 </v>
   <v>       0.58122767       0.17049657       0.45354614 </v>
   <v>       0.58376932       0.41901011       0.45108349 </v>
   <v>       0.58870486       0.65819964       0.45269428 </v>
   <v>       0.58241984       0.92729679       0.45206439 </v>
   <v>       0.82339013       0.15639906       0.44868283 </v>
   <v>       0.83301762       0.41402519       0.44966525 </v>
   <v>       0.84331286       0.65851614       0.45139540 </v>
   <v>       0.83738288       0.90700702       0.45332312 </v>
   <v>       0.16875751       0.08001188       0.55045237 </v>
   <v>       0.16773392       0.33839191       0.54186084 </v>
   <v>       0.17854234       0.58504573       0.55366220 </v>
   <v>       0.16617655       0.82902005       0.54952261 </v>
   <v>       0.41324557       0.09329034       0.54923096 </v>
   <v>       0.40767790       0.34016684       0.54773697 </v>
   <v>       0.41533604       0.58480226       0.54240132 </v>
   <v>       0.42325773       0.84182653       0.54954291 </v>
   <v>       0.66869381       0.08574688       0.54433876 </v>
   <v>       0.65939394       0.33540804       0.54473946 </v>
   <v>       0.66918089       0.59304646       0.54666255 </v>
   <v>       0.65544069       0.83183453       0.54828071 </v>
   <v>       0.91027251       0.08671738       0.55072705 </v>
   <v>       0.91255619       0.33194800       0.54387654 </v>
   <v>       0.92471406       0.59165918       0.54901470 </v>
   <v>       0.93319240       0.84726844       0.54773609 </v>
   <v>       0.08237073       0.14908294       0.59375362 </v>
   <v>       0.09313243       0.41665135       0.59289973 </v>
   <v>       0.08301671       0.67977600       0.59303530 </v>
   <v>       0.09607857       0.93419456       0.59488348 </v>
   <v>       0.32716595       0.17148578       0.59064450 </v>
   <v>       0.31298563       0.41291737       0.59048307 </v>
   <v>       0.33035449       0.69004650       0.59635155 </v>
   <v>       0.34981496       0.92463215       0.58870959 </v>
   <v>       0.58530772       0.15902083       0.58980125 </v>
   <v>       0.56840188       0.41974212       0.59202524 </v>
   <v>       0.57149039       0.65196924       0.58958251 </v>
   <v>       0.59588460       0.93452580       0.59198871 </v>
   <v>       0.82629095       0.17498439       0.59899915 </v>
   <v>       0.84092287       0.43408116       0.58631692 </v>
   <v>       0.82625305       0.64859607       0.58807229 </v>
   <v>       0.82656485       0.90439858       0.58863396 </v>
   <v>       0.16260958       0.08055707       0.40947162 </v>
   <v>       0.15306222       0.32100385       0.41030175 </v>
   <v>       0.15611440       0.55973555       0.41269702 </v>
   <v>       0.17544419       0.80419146       0.40699662 </v>
   <v>       0.39988814       0.07275789       0.41028878 </v>
   <v>       0.41518678       0.32911874       0.40797583 </v>
   <v>       0.41280575       0.58026341       0.41273646 </v>
   <v>       0.41801933       0.84237690       0.41386162 </v>
   <v>       0.66155632       0.07775011       0.40685927 </v>
   <v>       0.67180032       0.34418669       0.40241694 </v>
   <v>       0.66732007       0.58754271       0.40816148 </v>
   <v>       0.66725242       0.81171560       0.40752651 </v>
   <v>       0.93087356       0.06898300       0.40657606 </v>
   <v>       0.89330629       0.31351564       0.40797285 </v>
   <v>       0.92177333       0.57925652       0.40774615 </v>
   <v>       0.91875856       0.84713588       0.40575049 </v>
   <v>       0.99672324       0.99100741       0.50010033 </v>
   <v>       0.99833320       0.24788328       0.50485833 </v>
   <v>       0.99647955       0.49750686       0.50351090 </v>
   <v>       0.00150919       0.75053304       0.49930660 </v>
   <v>       0.25228370       0.00512515       0.50496043 </v>
   <v>       0.25306426       0.25978422       0.49485887 </v>
   <v>       0.25282075       0.49358765       0.49869367 </v>
   <v>       0.24379961       0.74352988       0.50126385 </v>
   <v>       0.50135344       0.00972546       0.50293852 </v>
   <v>       0.49236218       0.25673071       0.49740200 </v>
   <v>       0.50779593       0.50150107       0.49499661 </v>
   <v>       0.50197819       0.75229782       0.49946413 </v>
   <v>       0.74421049       0.00018076       0.49920517 </v>
   <v>       0.75731056       0.26121379       0.49856598 </v>
   <v>       0.74576751       0.49149902       0.49856664 </v>
   <v>       0.75200679       0.74590273       0.49932480 </v>
  </varray>
  <varray name="velocities" >
   <v>       0.00000000       0.00000000       0.00000000 </v>
   <v>       0.00000000       0.00000000       0.00000000 </v>
   <v>       0.00000000       0.00000000       0.00000000 </v>
   <v>       0.00000000       0.00000000       0.00000000 </v>
   <v>       0.00000000       0.00000000       0.00000000 </v>
   <v>       0.00000000       0.00000000       0.00000000 </v>
   <v>       0.00000000       0.00000000       0.00000000 </v>
   <v>       0.00000000       0.00000000       0.00000000 </v>
   <v>       0.00000000       0.00000000       0.00000000 </v>
   <v>       0.00000000       0.00000000       0.00000000 </v>
   <v>       0.00000000       0.00000000       0.00000000 </v>
   <v>       0.00000000       0.00000000       0.00000000 </v>
   <v>       0.00000000       0.00000000       0.00000000 </v>
   <v>       0.00000000       0.00000000       0.00000000 </v>
   <v>       0.00000000       0.00000000       0.00000000 </v>
   <v>       0.00000000       0.00000000       0.00000000 </v>
   <v>       0.00000000       0.00000000       0.00000000 </v>
   <v>       0.00000000       0.00000000       0.00000000 </v>
   <v>       0.00000000       0.00000000       0.00000000 </v>
   <v>       0.00000000       0.00000000       0.00000000 </v>
   <v>       0.00000000       0.00000000       0.00000000 </v>
   <v>       0.00000000       0.00000000       0.00000000 </v>
   <v>       0.00000000       0.00000000       0.00000000 </v>
   <v>       0.00000000       0.00000000       0.00000000 </v>
   <v>       0.00000000       0.00000000       0.00000000 </v>
   <v>       0.00000000       0.00000000       0.00000000 </v>
   <v>       0.00000000       0.00000000       0.00000000 </v>
   <v>       0.00000000       0.00000000       0.00000000 </v>
   <v>       0.00000000       0.00000000       0.00000000 </v>
   <v>       0.00000000       0.00000000       0.00000000 </v>
   <v>       0.00000000       0.00000000       0.00000000 </v>
   <v>       0.00000000       0.00000000       0.00000000 </v>
   <v>       0.00000000       0.00000000       0.00000000 </v>
   <v>       0.00000000       0.00000000       0.00000000 </v>
   <v>       0.00000000       0.00000000       0.00000000 </v>
   <v>       0.00000000       0.00000000       0.00000000 </v>
   <v>       0.00000000       0.00000000       0.00000000 </v>
   <v>       0.00000000       0.00000000       0.00000000 </v>
   <v>       0.00000000       0.00000000       0.00000000 </v>
   <v>       0.00000000       0.00000000       0.00000000 </v>
   <v>       0.00000000       0.00000000       0.00000000 </v>
   <v>       0.00000000       0.00000000       0.00000000 </v>
   <v>       0.00000000       0.00000000       0.00000000 </v>
   <v>       0.00000000       0.00000000       0.00000000 </v>
   <v>       0.00000000       0.00000000       0.00000000 </v>
   <v>       0.00000000       0.00000000       0.00000000 </v>
   <v>       0.00000000       0.00000000       0.00000000 </v>
   <v>       0.00000000       0.00000000       0.00000000 </v>
   <v>       0.00000000       0.00000000       0.00000000 </v>
   <v>       0.00000000       0.00000000       0.00000000 </v>
   <v>       0.00000000       0.00000000       0.00000000 </v>
   <v>       0.00000000       0.00000000       0.00000000 </v>
   <v>       0.00000000       0.00000000       0.00000000 </v>
   <v>       0.00000000       0.00000000       0.00000000 </v>
   <v>       0.00000000       0.00000000       0.00000000 </v>
   <v>       0.00000000       0.00000000       0.00000000 </v>
   <v>       0.00000000       0.00000000       0.00000000 </v>
   <v>       0.00000000       0.00000000       0.00000000 </v>
   <v>       0.00000000       0.00000000       0.00000000 </v>
   <v>       0.00000000       0.00000000       0.00000000 </v>
   <v>       0.00000000       0.00000000       0.00000000 </v>
   <v>       0.00000000       0.00000000       0.00000000 </v>
   <v>       0.00000000       0.00000000       0.00000000 </v>
   <v>       0.00000000       0.00000000       0.00000000 </v>
   <v>       0.00000000       0.00000000       0.00000000 </v>
   <v>       0.00000000       0.00000000       0.00000000 </v>
   <v>       0.00000000       0.00000000       0.00000000 </v>
   <v>       0.00000000       0.00000000       0.00000000 </v>
   <v>       0.00000000       0.00000000       0.00000000 </v>
   <v>       0.00000000       0.00000000       0.00000000 </v>
   <v>       0.00000000       0.00000000       0.00000000 </v>
   <v>       0.00000000       0.00000000       0.00000000 </v>
   <v>       0.00000000       0.00000000       0.00000000 </v>
   <v>       0.00000000       0.00000000       0.00000000 </v>
   <v>       0.00000000       0.00000000       0.00000000 </v>
   <v>       0.00000000       0.00000000       0.00000000 </v>
   <v>       0.00000000       0.00000000       0.00000000 </v>
   <v>       0.00000000       0.00000000       0.00000000 </v>
   <v>       0.00000000       0.00000000       0.00000000 </v>
   <v>       0.00000000       0.00000000       0.00000000 </v>
  </varray>
 </structure>
 <calculation>
  <scstep>
   <time name="dav">   46.55   46.55</time>
   <time name="total">   47.40   47.41</time>
   <energy>
    <i name="alphaZ">    871.83850952 </i>
    <i name="ewald"> 285794.04519868 </i>
    <i name="hartreedc">-340148.53050727 </i>
    <i name="XCdc">   3042.91082504 </i>
    <i name="pawpsdc">  50525.51240023 </i>
    <i name="pawaedc"> -50422.77561733 </i>
    <i name="eentropy">     -0.07142605 </i>
    <i name="bandstr">   -232.33182473 </i>
    <i name="atom">  64207.43592568 </i>
    <i name="e_fr_energy">  13638.03348377 </i>
    <i name="e_wo_entrp">  13638.10490982 </i>
    <i name="e_0_energy">  13638.06919679 </i>
   </energy>
  </scstep>
  <scstep>
   <time name="dav">   49.94   49.97</time>
   <time name="total">   49.94   49.97</time>
   <energy>
    <i name="e_fr_energy">   2477.91935882 </i>
    <i name="e_wo_entrp">   2477.97355213 </i>
    <i name="e_0_energy">   2477.94645548 </i>
   </energy>
  </scstep>
  <scstep>
   <time name="dav">   68.20   68.20</time>
   <time name="total">   68.20   68.20</time>
   <energy>
    <i name="e_fr_energy">   -378.12975435 </i>
    <i name="e_wo_entrp">   -378.12975435 </i>
    <i name="e_0_energy">   -378.12975435 </i>
   </energy>
  </scstep>
  <scstep>
   <time name="dav">   61.94   61.95</time>
   <time name="total">   61.95   61.95</time>
   <energy>
    <i name="e_fr_energy">   -737.78135684 </i>
    <i name="e_wo_entrp">   -737.78135684 </i>
    <i name="e_0_energy">   -737.78135684 </i>
   </energy>
  </scstep>
  <scstep>
   <time name="dav">   62.13   62.14</time>
   <time name="total">   65.70   65.71</time>
   <energy>
    <i name="e_fr_energy">   -752.33320852 </i>
    <i name="e_wo_entrp">   -752.33320852 </i>
    <i name="e_0_energy">   -752.33320852 </i>
   </energy>
  </scstep>
  <scstep>
   <time name="dav">   59.22   59.21</time>
   <time name="total">   63.55   63.56</time>
   <energy>
    <i name="e_fr_energy">   -596.49329406 </i>
    <i name="e_wo_entrp">   -596.49329406 </i>
    <i name="e_0_energy">   -596.49329406 </i>
   </energy>
  </scstep>
  <scstep>
   <time name="dav">   61.15   61.16</time>
   <time name="total">   65.54   65.56</time>
   <energy>
    <i name="e_fr_energy">   -596.64293651 </i>
    <i name="e_wo_entrp">   -596.64293651 </i>
    <i name="e_0_energy">   -596.64293651 </i>
   </energy>
  </scstep>
  <scstep>
   <time name="dav">   57.81   57.82</time>
   <time name="total">   62.23   62.24</time>
   <energy>
    <i name="e_fr_energy">   -595.16493325 </i>
    <i name="e_wo_entrp">   -595.16493325 </i>
    <i name="e_0_energy">   -595.16493325 </i>
   </energy>
  </scstep>
  <scstep>
   <time name="dav">   57.76   57.76</time>
   <time name="total">   62.13   62.15</time>
   <energy>
    <i name="e_fr_energy">   -594.65209202 </i>
    <i name="e_wo_entrp">   -594.65209202 </i>
    <i name="e_0_energy">   -594.65209202 </i>
   </energy>
  </scstep>
  <scstep>
   <time name="dav">   60.88   60.88</time>
   <time name="total">   65.24   65.25</time>
   <energy>
    <i name="e_fr_energy">   -594.61817831 </i>
    <i name="e_wo_entrp">   -594.61817831 </i>
    <i name="e_0_energy">   -594.61817831 </i>
   </energy>
  </scstep>
  <scstep>
   <time name="dav">   58.46   58.46</time>
   <time name="total">   62.83   62.84</time>
   <energy>
    <i name="e_fr_energy">   -594.50585898 </i>
    <i name="e_wo_entrp">   -594.50585898 </i>
    <i name="e_0_energy">   -594.50585898 </i>
   </energy>
  </scstep>
  <scstep>
   <time name="dav">   61.59   61.59</time>
   <time name="total">   65.98   65.99</time>
   <energy>
    <i name="e_fr_energy">   -594.47810374 </i>
    <i name="e_wo_entrp">   -594.47810374 </i>
    <i name="e_0_energy">   -594.47810374 </i>
   </energy>
  </scstep>
  <scstep>
   <time name="dav">   59.19   59.20</time>
   <time name="total">   63.59   63.61</time>
   <energy>
    <i name="e_fr_energy">   -594.47067007 </i>
    <i name="e_wo_entrp">   -594.47067007 </i>
    <i name="e_0_energy">   -594.47067007 </i>
   </energy>
  </scstep>
  <scstep>
   <time name="dav">   57.61   57.61</time>
   <time name="total">   61.99   62.01</time>
   <energy>
    <i name="e_fr_energy">   -594.46801440 </i>
    <i name="e_wo_entrp">   -594.46801440 </i>
    <i name="e_0_energy">   -594.46801440 </i>
   </energy>
  </scstep>
  <scstep>
   <time name="dav">   58.75   58.75</time>
   <time name="total">   63.22   63.24</time>
   <energy>
    <i name="e_fr_energy">   -594.47316719 </i>
    <i name="e_wo_entrp">   -594.47316719 </i>
    <i name="e_0_energy">   -594.47316719 </i>
   </energy>
  </scstep>
  <scstep>
   <time name="dav">   60.06   60.07</time>
   <time name="total">   64.44   64.47</time>
   <energy>
    <i name="e_fr_energy">   -594.47677991 </i>
    <i name="e_wo_entrp">   -594.47677991 </i>
    <i name="e_0_energy">   -594.47677991 </i>
   </energy>
  </scstep>
  <scstep>
   <time name="dav">   60.09   60.09</time>
   <time name="total">   64.48   64.50</time>
   <energy>
    <i name="e_fr_energy">   -594.48279747 </i>
    <i name="e_wo_entrp">   -594.48279747 </i>
    <i name="e_0_energy">   -594.48279747 </i>
   </energy>
  </scstep>
  <scstep>
   <time name="dav">   56.78   56.78</time>
   <time name="total">   61.18   61.19</time>
   <energy>
    <i name="e_fr_energy">   -594.48515211 </i>
    <i name="e_wo_entrp">   -594.48515211 </i>
    <i name="e_0_energy">   -594.48515211 </i>
   </energy>
  </scstep>
  <scstep>
   <time name="dav">   58.72   58.72</time>
   <time name="total">   63.12   63.13</time>
   <energy>
    <i name="e_fr_energy">   -594.48693130 </i>
    <i name="e_wo_entrp">   -594.48693130 </i>
    <i name="e_0_energy">   -594.48693130 </i>
   </energy>
  </scstep>
  <scstep>
   <time name="dav">   55.29   55.30</time>
   <time name="total">   59.66   59.68</time>
   <energy>
    <i name="e_fr_energy">   -594.48951662 </i>
    <i name="e_wo_entrp">   -594.48951662 </i>
    <i name="e_0_energy">   -594.48951662 </i>
   </energy>
  </scstep>
  <scstep>
   <time name="dav">   44.85   44.85</time>
   <time name="total">   49.22   49.23</time>
   <energy>
    <i name="e_fr_energy">   -594.49171885 </i>
    <i name="e_wo_entrp">   -594.49171885 </i>
    <i name="e_0_energy">   -594.49171885 </i>
   </energy>
  </scstep>
  <scstep>
   <time name="dav">   51.89   51.90</time>
   <time name="total">   56.29   56.30</time>
   <energy>
    <i name="e_fr_energy">   -594.49276927 </i>
    <i name="e_wo_entrp">   -594.49276927 </i>
    <i name="e_0_energy">   -594.49276927 </i>
   </energy>
  </scstep>
  <scstep>
   <time name="dav">   51.51   51.52</time>
   <time name="total">   55.89   55.90</time>
   <energy>
    <i name="e_fr_energy">   -594.49315737 </i>
    <i name="e_wo_entrp">   -594.49315737 </i>
    <i name="e_0_energy">   -594.49315737 </i>
   </energy>
  </scstep>
  <scstep>
   <time name="dav">   48.99   48.99</time>
   <time name="total">   53.41   53.42</time>
   <energy>
    <i name="e_fr_energy">   -594.49348033 </i>
    <i name="e_wo_entrp">   -594.49348033 </i>
    <i name="e_0_energy">   -594.49348033 </i>
   </energy>
  </scstep>
  <scstep>
   <time name="dav">   45.82   45.82</time>
   <time name="total">   50.31   50.32</time>
   <energy>
    <i name="e_fr_energy">   -594.49371889 </i>
    <i name="e_wo_entrp">   -594.49371889 </i>
    <i name="e_0_energy">   -594.49371889 </i>
   </energy>
  </scstep>
  <scstep>
   <time name="dav">   36.35   36.35</time>
   <time name="total">   40.83   40.84</time>
   <energy>
    <i name="e_fr_energy">   -594.49379342 </i>
    <i name="e_wo_entrp">   -594.49379342 </i>
    <i name="e_0_energy">   -594.49379342 </i>
   </energy>
  </scstep>
  <scstep>
   <time name="dav">   33.22   33.23</time>
   <time name="total">   37.63   37.64</time>
   <energy>
    <i name="e_fr_energy">   -594.49382159 </i>
    <i name="e_wo_entrp">   -594.49382159 </i>
    <i name="e_0_energy">   -594.49382159 </i>
   </energy>
  </scstep>
  <scstep>
   <time name="dav">   35.78   35.78</time>
   <time name="total">   40.19   40.21</time>
   <energy>
    <i name="e_fr_energy">   -594.49384723 </i>
    <i name="e_wo_entrp">   -594.49384723 </i>
    <i name="e_0_energy">   -594.49384723 </i>
   </energy>
  </scstep>
  <scstep>
   <time name="dav">   33.08   33.09</time>
   <time name="total">   37.51   37.52</time>
   <energy>
    <i name="e_fr_energy">   -594.49385612 </i>
    <i name="e_wo_entrp">   -594.49385612 </i>
    <i name="e_0_energy">   -594.49385612 </i>
   </energy>
  </scstep>
  <scstep>
   <time name="dav">   32.29   32.30</time>
   <time name="total">   36.72   36.74</time>
   <energy>
    <i name="e_fr_energy">   -594.49385898 </i>
    <i name="e_wo_entrp">   -594.49385898 </i>
    <i name="e_0_energy">   -594.49385898 </i>
   </energy>
  </scstep>
  <scstep>
   <time name="dav">   33.17   33.17</time>
   <time name="total">   37.60   37.61</time>
   <energy>
    <i name="e_fr_energy">   -594.49386188 </i>
    <i name="e_wo_entrp">   -594.49386188 </i>
    <i name="e_0_energy">   -594.49386188 </i>
   </energy>
  </scstep>
  <scstep>
   <time name="dav">   32.20   32.22</time>
   <time name="total">   33.09   33.13</time>
   <energy>
    <i name="alphaZ">    871.83850952 </i>
    <i name="ewald"> 285794.04519868 </i>
    <i name="hartreedc">-341309.09047860 </i>
    <i name="XCdc">   3054.18518178 </i>
    <i name="pawpsdc">  66447.31772068 </i>
    <i name="pawaedc"> -66440.59258328 </i>
    <i name="eentropy">     -0.00000000 </i>
    <i name="bandstr"> -13219.63333722 </i>
    <i name="atom">  64207.43592568 </i>
    <i name="e_fr_energy">   -594.49386276 </i>
    <i name="e_wo_entrp">   -594.49386276 </i>
    <i name="e_0_energy">   -594.49386276 </i>
   </energy>
  </scstep>
  <structure>
   <crystal>
    <varray name="basis" >
     <v>      13.12862340       0.00000000       0.00000000 </v>
     <v>      -6.56431170      11.36972138       0.00000000 </v>
     <v>       0.00000000       0.00000000      26.82809424 </v>
    </varray>
    <i name="volume">   4004.59716953 </i>
    <varray name="rec_basis" >
     <v>       0.07616945       0.04397645       0.00000000 </v>
     <v>       0.00000000       0.08795290       0.00000000 </v>
     <v>       0.00000000       0.00000000       0.03727436 </v>
    </varray>
   </crystal>
   <varray name="positions" >
    <v>       0.08711811       0.16591408       0.45218024 </v>
    <v>       0.08091429       0.41325033       0.45489646 </v>
    <v>       0.08426745       0.65904809       0.45392753 </v>
    <v>       0.07960431       0.91485433       0.45374124 </v>
    <v>       0.32969867       0.16151276       0.45542894 </v>
    <v>       0.33712667       0.42009166       0.44869041 </v>
    <v>       0.34959775       0.67727290       0.45258579 </v>
    <v>       0.32945591       0.90997084       0.45535019 </v>
    <v>       0.58122767       0.17049657       0.45354614 </v>
    <v>       0.58376932       0.41901011       0.45108349 </v>
    <v>       0.58870486       0.65819964       0.45269428 </v>
    <v>       0.58241984       0.92729679       0.45206439 </v>
    <v>       0.82339013       0.15639906       0.44868283 </v>
    <v>       0.83301762       0.41402519       0.44966525 </v>
    <v>       0.84331286       0.65851614       0.45139540 </v>
    <v>       0.83738288       0.90700702       0.45332312 </v>
    <v>       0.16875751       0.08001188       0.55045237 </v>
    <v>       0.16773392       0.33839191       0.54186084 </v>
    <v>       0.17854234       0.58504573       0.55366220 </v>
    <v>       0.16617655       0.82902005       0.54952261 </v>
    <v>       0.41324557       0.09329034       0.54923096 </v>
    <v>       0.40767790       0.34016684       0.54773697 </v>
    <v>       0.41533604       0.58480226       0.54240132 </v>
    <v>       0.42325773       0.84182653       0.54954291 </v>
    <v>       0.66869381       0.08574688       0.54433876 </v>
    <v>       0.65939394       0.33540804       0.54473946 </v>
    <v>       0.66918089       0.59304646       0.54666255 </v>
    <v>       0.65544069       0.83183453       0.54828071 </v>
    <v>       0.91027251       0.08671738       0.55072705 </v>
    <v>       0.91255619       0.33194800       0.54387654 </v>
    <v>       0.92471406       0.59165918       0.54901470 </v>
    <v>       0.93319240       0.84726844       0.54773609 </v>
    <v>       0.08237073       0.14908294       0.59375362 </v>
    <v>       0.09313243       0.41665135       0.59289973 </v>
    <v>       0.08301671       0.67977600       0.59303530 </v>
    <v>       0.09607857       0.93419456       0.59488348 </v>
    <v>       0.32716595       0.17148578       0.59064450 </v>
    <v>       0.31298563       0.41291737       0.59048307 </v>
    <v>       0.33035449       0.69004650       0.59635155 </v>
    <v>       0.34981496       0.92463215       0.58870959 </v>
    <v>       0.58530772       0.15902083       0.58980125 </v>
    <v>       0.56840188       0.41974212       0.59202524 </v>
    <v>       0.57149039       0.65196924       0.58958251 </v>
    <v>       0.59588460       0.93452580       0.59198871 </v>
    <v>       0.82629095       0.17498439       0.59899915 </v>
    <v>       0.84092287       0.43408116       0.58631692 </v>
    <v>       0.82625305       0.64859607       0.58807229 </v>
    <v>       0.82656485       0.90439858       0.58863396 </v>
    <v>       0.16260958       0.08055707       0.40947162 </v>
    <v>       0.15306222       0.32100385       0.41030175 </v>
    <v>       0.15611440       0.55973555       0.41269702 </v>
    <v>       0.17544419       0.80419146       0.40699662 </v>
    <v>       0.39988814       0.07275789       0.41028878 </v>
    <v>       0.41518678       0.32911874       0.40797583 </v>
    <v>       0.41280575       0.58026341       0.41273646 </v>
    <v>       0.41801933       0.84237690       0.41386162 </v>
    <v>       0.66155632       0.07775011       0.40685927 </v>
    <v>       0.67180032       0.34418669       0.40241694 </v>
    <v>       0.66732007       0.58754271       0.40816148 </v>
    <v>       0.66725242       0.81171560       0.40752651 </v>
    <v>       0.93087356       0.06898300       0.40657606 </v>
    <v>       0.89330629       0.31351564       0.40797285 </v>
    <v>       0.92177333       0.57925652       0.40774615 </v>
    <v>       0.91875856       0.84713588       0.40575049 </v>
    <v>       0.99672324       0.99100741       0.50010033 </v>
    <v>       0.99833320       0.24788328       0.50485833 </v>
    <v>       0.99647955       0.49750686       0.50351090 </v>
    <v>       0.00150919       0.75053304       0.49930660 </v>
    <v>       0.25228370       0.00512515       0.50496043 </v>
    <v>       0.25306426       0.25978422       0.49485887 </v>
    <v>       0.25282075       0.49358765       0.49869367 </v>
    <v>       0.24379961       0.74352988       0.50126385 </v>
    <v>       0.50135344       0.00972546       0.50293852 </v>
    <v>       0.49236218       0.25673071       0.49740200 </v>
    <v>       0.50779593       0.50150107       0.49499661 </v>
    <v>       0.50197819       0.75229782       0.49946413 </v>
    <v>       0.74421049       0.00018076       0.49920517 </v>
    <v>       0.75731056       0.26121379       0.49856598 </v>
    <v>       0.74576751       0.49149902       0.49856664 </v>
    <v>       0.75200679       0.74590273       0.49932480 </v>
   </varray>
  </structure>
  <varray name="forces" >
   <v>      -0.43915877      -0.38825545       0.01666326 </v>
   <v>      -0.15625831      -0.29989005      -0.13763634 </v>
   <v>       0.43868804      -0.15807389       0.19631633 </v>
   <v>       0.27854527       0.41001466      -0.37913355 </v>
   <v>      -0.44890690       0.79790459      -1.24320247 </v>
   <v>       0.18187075      -1.19652521       0.07703162 </v>
   <v>      -1.37676121      -1.17594920       0.12759018 </v>
   <v>      -0.73994808       0.73046430       0.08670511 </v>
   <v>      -0.53328335       0.22564025      -0.41820092 </v>
   <v>       0.33556852      -0.26787460      -0.67639428 </v>
   <v>      -0.00853783       1.67028050      -0.84943254 </v>
   <v>       0.77464412      -0.89076132       0.53023833 </v>
   <v>       0.84769371       0.75047849       0.77753421 </v>
   <v>      -0.47664128       0.04895627       0.40686255 </v>
   <v>      -1.68049579       0.28899785       0.38842702 </v>
   <v>      -1.29436627       0.27239573      -0.52504586 </v>
   <v>      -1.05413844       1.08982377      -0.52604974 </v>
   <v>       0.14923633      -0.95741916       1.73481808 </v>
   <v>      -1.21448330      -0.53673276      -1.04547091 </v>
   <v>       0.50516681       0.89502562      -0.57812772 </v>
   <v>       1.23454009      -0.44317210       0.11591817 </v>
   <v>       0.77943108       0.04679444      -0.46059403 </v>
   <v>       0.80205278      -0.52698447       0.65033516 </v>
   <v>      -0.43349088       0.00259044      -0.27348489 </v>
   <v>      -0.47038259       1.00678549       1.24095579 </v>
   <v>       0.67449186       0.59327697       0.73114268 </v>
   <v>       0.80346411      -1.24401686       0.12251726 </v>
   <v>       1.74203655       0.38620257      -0.33623044 </v>
   <v>       0.81765069      -0.05731894      -0.06587682 </v>
   <v>       0.01739265       0.48021691       1.89679434 </v>
   <v>      -0.27854633      -1.44728637      -0.39438775 </v>
   <v>      -1.55893549      -1.77715160       0.46331157 </v>
   <v>      -0.57857491       0.22821717      -0.48250937 </v>
   <v>      -0.21748235       0.35094004      -0.41584556 </v>
   <v>       0.25683372      -0.45010209       0.22830272 </v>
   <v>      -0.06087164      -1.13284470      -0.07777115 </v>
   <v>       0.35000424       0.28088379       0.16697679 </v>
   <v>       0.94891212       0.39565554      -0.21328925 </v>
   <v>       0.51824684      -0.50357996      -0.30551961 </v>
   <v>      -0.80910367      -0.05281907       0.47635048 </v>
   <v>      -0.58819969       0.63128483      -0.15579696 </v>
   <v>       0.34983199      -0.18775595      -0.52112387 </v>
   <v>      -0.22894504       0.58312116      -0.09928310 </v>
   <v>      -0.07790337      -0.89597851      -0.26475337 </v>
   <v>       0.42007304      -0.37472131      -1.42758921 </v>
   <v>      -0.18234965      -0.98848633       0.54375705 </v>
   <v>      -0.22341956       0.78313712       0.49701143 </v>
   <v>      -0.10859587       0.41451549       0.12883054 </v>
   <v>       0.28548799      -0.19590996       0.34321822 </v>
   <v>      -0.05910731       0.55633309      -0.22882837 </v>
   <v>      -0.01521583       1.04912530      -0.46046539 </v>
   <v>      -0.34012462       0.86729444       0.15014859 </v>
   <v>       0.43460289       0.09162528       0.27629822 </v>
   <v>      -0.07270410       0.15342054       0.04476648 </v>
   <v>       0.06645300       0.72295253      -0.93401798 </v>
   <v>       0.25497227      -0.36530171      -0.62517777 </v>
   <v>      -0.13699920       0.28757926       0.08490956 </v>
   <v>       0.04145647      -0.45430083       0.79972621 </v>
   <v>       0.53898235      -0.33736429      -0.10958278 </v>
   <v>      -0.31785373       0.78087780       0.28007076 </v>
   <v>      -0.88058075       0.41426847       0.54694818 </v>
   <v>       0.64764138       0.50153352      -0.18238044 </v>
   <v>      -0.04479086       0.18868543       0.09701767 </v>
   <v>       0.88514247      -0.66268976       0.36346223 </v>
   <v>       0.38516086       1.04911489       0.24854657 </v>
   <v>      -0.37820409      -0.89323477      -1.39788055 </v>
   <v>       1.06779181       0.41135766      -1.02398028 </v>
   <v>       0.48619371       0.30962675       0.07468057 </v>
   <v>      -0.06694653      -1.14172889      -0.84680230 </v>
   <v>       0.10165119      -1.05061447       1.18734526 </v>
   <v>      -0.73146852       1.72113302       0.16777953 </v>
   <v>       0.96127345       0.76135089       0.58114170 </v>
   <v>       0.31152600      -0.68918830      -1.38311512 </v>
   <v>       1.29873358      -0.75076192       1.03453199 </v>
   <v>      -1.70636072      -0.29635792       1.51734318 </v>
   <v>      -0.55330266       0.12326196       0.48527790 </v>
   <v>       0.49373027      -0.21141535      -0.11038714 </v>
   <v>      -0.96837199      -1.94037744      -0.51929350 </v>
   <v>       0.05774765       1.19493587      -0.54587890 </v>
   <v>      -0.03311117       0.39486483       0.35293675 </v>
  </varray>
  <varray name="stress" >
   <v>       3.55960922      -0.37741641       2.02827583 </v>
   <v>      -0.37741642       4.61278400      -6.09907714 </v>
   <v>       2.02827585      -6.09907711      -1.92592637 </v>
  </varray>
  <energy>
   <i name="e_fr_energy">   -594.49386276 </i>
   <i name="e_wo_entrp">   -594.49386276 </i>
   <i name="e_0_energy">     -0.00000000 </i>
  </energy>
  <time name="totalsc"> 1835.93 1836.40</time>
  <eigenvalues>
   <array>
    <dimension dim="1">band</dimension>
    <dimension dim="2">kpoint</dimension>
    <dimension dim="3">spin</dimension>
    <field>eigene</field>
    <field>occ</field>
    <set>
     <set comment="spin 1">
      <set comment="kpoint 1">
       <r>  -52.1046    1.0000 </r>
       <r>  -51.9746    1.0000 </r>
       <r>  -51.9499    1.0000 </r>
       <r>  -51.9446    1.0000 </r>
       <r>  -51.8720    1.0000 </r>
       <r>  -51.8397    1.0000 </r>
       <r>  -51.8246    1.0000 </r>
       <r>  -51.8187    1.0000 </r>
       <r>  -51.8030    1.0000 </r>
       <r>  -51.7536    1.0000 </r>
       <r>  -51.6857    1.0000 </r>
       <r>  -51.6745    1.0000 </r>
       <r>  -51.6594    1.0000 </r>
       <r>  -51.6547    1.0000 </r>
       <r>  -51.6280    1.0000 </r>
       <r>  -51.6151    1.0000 </r>
       <r>  -51.6031    1.0000 </r>
       <r>  -51.5446    1.0000 </r>
       <r>  -51.4747    1.0000 </r>
       <r>  -51.4656    1.0000 </r>
       <r>  -51.4623    1.0000 </r>
       <r>  -51.4334    1.0000 </r>
       <r>  -51.4270    1.0000 </r>
       <r>  -51.3630    1.0000 </r>
       <r>  -51.3611    1.0000 </r>
       <r>  -51.3143    1.0000 </r>
       <r>  -51.2787    1.0000 </r>
       <r>  -51.1775    1.0000 </r>
       <r>  -51.1674    1.0000 </r>
       <r>  -51.1198    1.0000 </r>
       <r>  -50.9160    1.0000 </r>
       <r>  -50.8904    1.0000 </r>
       <r>  -31.0703    1.0000 </r>
       <r>  -30.9889    1.0000 </r>
       <r>  -30.9591    1.0000 </r>
       <r>  -30.9207    1.0000 </r>
       <r>  -30.9052    1.0000 </r>
       <r>  -30.8298    1.0000 </r>
       <r>  -30.8041    1.0000 </r>
       <r>  -30.7906    1.0000 </r>
       <r>  -30.7637    1.0000 </r>
       <r>  -30.7416    1.0000 </r>
       <r>  -30.7255    1.0000 </r>
       <r>  -30.7147    1.0000 </r>
       <r>  -30.7031    1.0000 </r>
       <r>  -30.6873    1.0000 </r>
       <r>  -30.6709    1.0000 </r>
       <r>  -30.6612    1.0000 </r>
       <r>  -30.6578    1.0000 </r>
       <r>  -30.6349    1.0000 </r>
       <r>  -30.6248    1.0000 </r>
       <r>  -30.6197    1.0000 </r>
       <r>  -30.6056    1.0000 </r>
       <r>  -30.5893    1.0000 </r>
       <r>  -30.5747    1.0000 </r>
       <r>  -30.5648    1.0000 </r>
       <r>  -30.5531    1.0000 </r>
       <r>  -30.5413    1.0000 </r>
       <r>  -30.5348    1.0000 </r>
       <r>  -30.5303    1.0000 </r>
       <r>  -30.5299    1.0000 </r>
       <r>  -30.5114    1.0000 </r>
       <r>  -30.4914    1.0000 </r>
       <r>  -30.4810    1.0000 </r>
       <r>  -30.4765    1.0000 </r>
       <r>  -30.4606    1.0000 </r>
       <r>  -30.4583    1.0000 </r>
       <r>  -30.4473    1.0000 </r>
       <r>  -30.4324    1.0000 </r>
       <r>  -30.4256    1.0000 </r>
       <r>  -30.4222    1.0000 </r>
       <r>  -30.4123    1.0000 </r>
       <r>  -30.4098    1.0000 </r>
       <r>  -30.4039    1.0000 </r>
       <r>  -30.3828    1.0000 </r>
       <r>  -30.3698    1.0000 </r>
       <r>  -30.3525    1.0000 </r>
       <r>  -30.3446    1.0000 </r>
       <r>  -30.3368    1.0000 </r>
       <r>  -30.3317    1.0000 </r>
       <r>  -30.3295    1.0000 </r>
       <r>  -30.3253    1.0000 </r>
       <r>  -30.3069    1.0000 </r>
       <r>  -30.2952    1.0000 </r>
       <r>  -30.2754    1.0000 </r>
       <r>  -30.2538    1.0000 </r>
       <r>  -30.2475    1.0000 </r>
       <r>  -30.2348    1.0000 </r>
       <r>  -30.2334    1.0000 </r>
       <r>  -30.2151    1.0000 </r>
       <r>  -30.2113    1.0000 </r>
       <r>  -30.2035    1.0000 </r>
       <r>  -30.1927    1.0000 </r>
       <r>  -30.1696    1.0000 </r>
       <r>  -30.1611    1.0000 </r>
       <r>  -30.1522    1.0000 </r>
       <r>  -30.1454    1.0000 </r>
       <r>  -30.1403    1.0000 </r>
       <r>  -30.1262    1.0000 </r>
       <r>  -30.1145    1.0000 </r>
       <r>  -30.1007    1.0000 </r>
       <r>  -30.0926    1.0000 </r>
       <r>  -30.0830    1.0000 </r>
       <r>  -30.0755    1.0000 </r>
       <r>  -30.0682    1.0000 </r>
       <r>  -30.0645    1.0000 </r>
       <r>  -30.0504    1.0000 </r>
       <r>  -30.0478    1.0000 </r>
       <r>  -30.0340    1.0000 </r>
       <r>  -30.0111    1.0000 </r>
       <r>  -29.9917    1.0000 </r>
       <r>  -29.9872    1.0000 </r>
       <r>  -29.9844    1.0000 </r>
       <r>  -29.9468    1.0000 </r>
       <r>  -29.9122    1.0000 </r>
       <r>  -29.8942    1.0000 </r>
       <r>  -29.8656    1.0000 </r>
       <r>  -29.8562    1.0000 </r>
       <r>  -29.8259    1.0000 </r>
       <r>  -29.8169    1.0000 </r>
       <r>  -29.7663    1.0000 </r>
       <r>  -29.7604    1.0000 </r>
       <r>  -29.7461    1.0000 </r>
       <r>  -29.6814    1.0000 </r>
       <r>  -29.6570    1.0000 </r>
       <r>  -29.6087    1.0000 </r>
       <r>  -29.5929    1.0000 </r>
       <r>  -29.5455    1.0000 </r>
       <r>  -27.4322    1.0000 </r>
       <r>  -27.2037    1.0000 </r>
       <r>  -27.0745    1.0000 </r>
       <r>  -27.0620    1.0000 </r>
       <r>  -27.0295    1.0000 </r>
       <r>  -26.9396    1.0000 </r>
       <r>  -26.9352    1.0000 </r>
       <r>  -26.9063    1.0000 </r>
       <r>  -26.8520    1.0000 </r>
       <r>  -26.8432    1.0000 </r>
       <r>  -26.8191    1.0000 </r>
       <r>  -26.6721    1.0000 </r>
       <r>  -26.6437    1.0000 </r>
       <r>  -26.6075    1.0000 </r>
       <r>  -26.5805    1.0000 </r>
       <r>  -26.5570    1.0000 </r>
       <r>  -26.5474    1.0000 </r>
       <r>  -26.5031    1.0000 </r>
       <r>  -26.4941    1.0000 </r>
       <r>  -26.4815    1.0000 </r>
       <r>  -26.4322    1.0000 </r>
       <r>  -26.3199    1.0000 </r>
       <r>  -26.2672    1.0000 </r>
       <r>  -26.2177    1.0000 </r>
       <r>  -26.2099    1.0000 </r>
       <r>  -26.1991    1.0000 </r>
       <r>  -26.1538    1.0000 </r>
       <r>  -26.1418    1.0000 </r>
       <r>  -26.1151    1.0000 </r>
       <r>  -26.0430    1.0000 </r>
       <r>  -25.9424    1.0000 </r>
       <r>  -25.8963    1.0000 </r>
       <r>  -12.1963    1.0000 </r>
       <r>  -11.8630    1.0000 </r>
       <r>  -11.7756    1.0000 </r>
       <r>  -11.7624    1.0000 </r>
       <r>  -11.7272    1.0000 </r>
       <r>  -11.6513    1.0000 </r>
       <r>  -11.6253    1.0000 </r>
       <r>  -11.2757    1.0000 </r>
       <r>  -11.2432    1.0000 </r>
       <r>  -11.2038    1.0000 </r>
       <r>  -11.1557    1.0000 </r>
       <r>  -11.1160    1.0000 </r>
       <r>  -11.0271    1.0000 </r>
       <r>  -11.0024    1.0000 </r>
       <r>  -10.9692    1.0000 </r>
       <r>  -10.8730    1.0000 </r>
       <r>   -9.7520    1.0000 </r>
       <r>   -9.7139    1.0000 </r>
       <r>   -9.4550    1.0000 </r>
       <r>   -9.4069    1.0000 </r>
       <r>   -9.3875    1.0000 </r>
       <r>   -9.3650    1.0000 </r>
       <r>   -9.3344    1.0000 </r>
       <r>   -9.3074    1.0000 </r>
       <r>   -9.2992    1.0000 </r>
       <r>   -9.2544    1.0000 </r>
       <r>   -9.2320    1.0000 </r>
       <r>   -9.1921    1.0000 </r>
       <r>   -9.1520    1.0000 </r>
       <r>   -9.1292    1.0000 </r>
       <r>   -9.0900    1.0000 </r>
       <r>   -9.0673    1.0000 </r>
       <r>   -9.0652    1.0000 </r>
       <r>   -9.0572    1.0000 </r>
       <r>   -9.0306    1.0000 </r>
       <r>   -9.0045    1.0000 </r>
       <r>   -8.9925    1.0000 </r>
       <r>   -8.9633    1.0000 </r>
       <r>   -8.9579    1.0000 </r>
       <r>   -8.9300    1.0000 </r>
       <r>   -8.9120    1.0000 </r>
       <r>   -8.8970    1.0000 </r>
       <r>   -8.8689    1.0000 </r>
       <r>   -8.8566    1.0000 </r>
       <r>   -8.8467    1.0000 </r>
       <r>   -8.8292    1.0000 </r>
       <r>   -8.8074    1.0000 </r>
       <r>   -8.7843    1.0000 </r>
       <r>   -8.7687    1.0000 </r>
       <r>   -8.7374    1.0000 </r>
       <r>   -8.7270    1.0000 </r>
       <r>   -8.7103    1.0000 </r>
       <r>   -8.6853    1.0000 </r>
       <r>   -8.6782    1.0000 </r>
       <r>   -8.6639    1.0000 </r>
       <r>   -8.6524    1.0000 </r>
       <r>   -8.6378    1.0000 </r>
       <r>   -8.6101    1.0000 </r>
       <r>   -8.5955    1.0000 </r>
       <r>   -8.5764    1.0000 </r>
       <r>   -8.5707    1.0000 </r>
       <r>   -8.5565    1.0000 </r>
       <r>   -8.5544    1.0000 </r>
       <r>   -8.5297    1.0000 </r>
       <r>   -8.5163    1.0000 </r>
       <r>   -8.5087    1.0000 </r>
       <r>   -8.4817    1.0000 </r>
       <r>   -8.4597    1.0000 </r>
       <r>   -8.4408    1.0000 </r>
       <r>   -8.4162    1.0000 </r>
       <r>   -8.3984    1.0000 </r>
       <r>   -8.3812    1.0000 </r>
       <r>   -8.3731    1.0000 </r>
       <r>   -8.3609    1.0000 </r>
       <r>   -8.3467    1.0000 </r>
       <r>   -8.3206    1.0000 </r>
       <r>   -8.3083    1.0000 </r>
       <r>   -8.2949    1.0000 </r>
       <r>   -8.2915    1.0000 </r>
       <r>   -8.2649    1.0000 </r>
       <r>   -8.2470    1.0000 </r>
       <r>   -8.2414    1.0000 </r>
       <r>   -8.2058    1.0000 </r>
       <r>   -8.1623    1.0000 </r>
       <r>   -8.1421    1.0000 </r>
       <r>   -8.1256    1.0000 </r>
       <r>   -8.1086    1.0000 </r>
       <r>   -8.0840    1.0000 </r>
       <r>   -8.0768    1.0000 </r>
       <r>   -8.0568    1.0000 </r>
       <r>   -8.0386    1.0000 </r>
       <r>   -8.0335    1.0000 </r>
       <r>   -8.0128    1.0000 </r>
       <r>   -7.9765    1.0000 </r>
       <r>   -7.9640    1.0000 </r>
       <r>   -7.9407    1.0000 </r>
       <r>   -7.9329    1.0000 </r>
       <r>   -7.9257    1.0000 </r>
       <r>   -7.9048    1.0000 </r>
       <r>   -7.8925    1.0000 </r>
       <r>   -7.8706    1.0000 </r>
       <r>   -7.8521    1.0000 </r>
       <r>   -7.8302    1.0000 </r>
       <r>   -7.8043    1.0000 </r>
       <r>   -7.7788    1.0000 </r>
       <r>   -7.7592    1.0000 </r>
       <r>   -7.7256    1.0000 </r>
       <r>   -7.7096    1.0000 </r>
       <r>   -7.7026    1.0000 </r>
       <r>   -7.6803    1.0000 </r>
       <r>   -7.6173    1.0000 </r>
       <r>   -7.5827    1.0000 </r>
       <r>   -5.3193    1.0000 </r>
       <r>   -5.2934    1.0000 </r>
       <r>   -5.2358    1.0000 </r>
       <r>   -5.0739    1.0000 </r>
       <r>   -5.0159    1.0000 </r>
       <r>   -4.9744    1.0000 </r>
       <r>   -4.9354    1.0000 </r>
       <r>   -4.8733    1.0000 </r>
       <r>   -4.8609    1.0000 </r>
       <r>   -4.6631    1.0000 </r>
       <r>   -4.5432    1.0000 </r>
       <r>   -4.5100    1.0000 </r>
       <r>   -4.4831    1.0000 </r>
       <r>   -4.4765    1.0000 </r>
       <r>   -4.4342    1.0000 </r>
       <r>   -4.4125    1.0000 </r>
       <r>   -4.3617    1.0000 </r>
       <r>   -4.3486    1.0000 </r>
       <r>   -4.3385    1.0000 </r>
       <r>   -4.3225    1.0000 </r>
       <r>   -4.3109    1.0000 </r>
       <r>   -4.2641    1.0000 </r>
       <r>   -4.2393    1.0000 </r>
       <r>   -4.2207    1.0000 </r>
       <r>   -4.2039    1.0000 </r>
       <r>   -4.1604    1.0000 </r>
       <r>   -4.1276    1.0000 </r>
       <r>   -4.1044    1.0000 </r>
       <r>   -4.0804    1.0000 </r>
       <r>   -4.0394    1.0000 </r>
       <r>   -4.0208    1.0000 </r>
       <r>   -3.9828    1.0000 </r>
       <r>   -3.9316    1.0000 </r>
       <r>   -3.8595    1.0000 </r>
       <r>   -3.8405    1.0000 </r>
       <r>   -3.7980    1.0000 </r>
       <r>   -3.6941    1.0000 </r>
       <r>   -3.4777    1.0000 </r>
       <r>   -3.4141    1.0000 </r>
       <r>   -3.3783    1.0000 </r>
       <r>   -3.3514    1.0000 </r>
       <r>   -3.3352    1.0000 </r>
       <r>   -3.2348    1.0000 </r>
       <r>   -3.1953    1.0000 </r>
       <r>   -3.1494    1.0000 </r>
       <r>   -3.1239    1.0000 </r>
       <r>   -2.9897    1.0000 </r>
       <r>   -2.8997    1.0000 </r>
       <r>   -2.0364    0.0000 </r>
       <r>   -1.9779    0.0000 </r>
       <r>   -1.9673    0.0000 </r>
       <r>   -1.4770    0.0000 </r>
       <r>   -1.4227    0.0000 </r>
       <r>   -1.3554    0.0000 </r>
       <r>   -1.2949    0.0000 </r>
       <r>   -1.2798    0.0000 </r>
       <r>   -1.2042    0.0000 </r>
       <r>   -0.7811    0.0000 </r>
       <r>   -0.6110    0.0000 </r>
       <r>   -0.5954    0.0000 </r>
       <r>   -0.5487    0.0000 </r>
       <r>   -0.5275    0.0000 </r>
       <r>   -0.5184    0.0000 </r>
       <r>   -0.4639    0.0000 </r>
       <r>   -0.3811    0.0000 </r>
       <r>   -0.3583    0.0000 </r>
       <r>   -0.3372    0.0000 </r>
       <r>   -0.3059    0.0000 </r>
       <r>   -0.2533    0.0000 </r>
       <r>   -0.2014    0.0000 </r>
       <r>   -0.1235    0.0000 </r>
       <r>   -0.0743    0.0000 </r>
       <r>    0.1283    0.0000 </r>
       <r>    0.1797    0.0000 </r>
       <r>    0.2076    0.0000 </r>
       <r>    0.2225    0.0000 </r>
       <r>    0.2608    0.0000 </r>
       <r>    0.2732    0.0000 </r>
       <r>    0.3057    0.0000 </r>
       <r>    0.3177    0.0000 </r>
       <r>    0.3318    0.0000 </r>
       <r>    0.3856    0.0000 </r>
       <r>    0.4034    0.0000 </r>
       <r>    0.4396    0.0000 </r>
       <r>    0.4730    0.0000 </r>
       <r>    0.4937    0.0000 </r>
       <r>    0.5224    0.0000 </r>
       <r>    0.5527    0.0000 </r>
       <r>    0.5721    0.0000 </r>
       <r>    0.5903    0.0000 </r>
       <r>    0.6031    0.0000 </r>
       <r>    0.6304    0.0000 </r>
       <r>    0.6643    0.0000 </r>
       <r>    0.6954    0.0000 </r>
       <r>    0.7287    0.0000 </r>
       <r>    0.7588    0.0000 </r>
       <r>    0.7850    0.0000 </r>
       <r>    0.8100    0.0000 </r>
       <r>    0.8329    0.0000 </r>
       <r>    0.8380    0.0000 </r>
       <r>    0.8450    0.0000 </r>
       <r>    0.8718    0.0000 </r>
       <r>    0.8977    0.0000 </r>
       <r>    0.9017    0.0000 </r>
       <r>    0.9379    0.0000 </r>
       <r>    0.9648    0.0000 </r>
       <r>    0.9804    0.0000 </r>
       <r>    1.0107    0.0000 </r>
       <r>    1.0146    0.0000 </r>
       <r>    1.0357    0.0000 </r>
       <r>    1.0506    0.0000 </r>
       <r>    1.0845    0.0000 </r>
      </set>
      <set comment="kpoint 2">
       <r>  -52.1046    1.0000 </r>
       <r>  -51.9746    1.0000 </r>
       <r>  -51.9499    1.0000 </r>
       <r>  -51.9446    1.0000 </r>
       <r>  -51.8720    1.0000 </r>
       <r>  -51.8397    1.0000 </r>
       <r>  -51.8246    1.0000 </r>
       <r>  -51.8187    1.0000 </r>
       <r>  -51.8030    1.0000 </r>
       <r>  -51.7536    1.0000 </r>
       <r>  -51.6856    1.0000 </r>
       <r>  -51.6746    1.0000 </r>
       <r>  -51.6593    1.0000 </r>
       <r>  -51.6548    1.0000 </r>
       <r>  -51.6280    1.0000 </r>
       <r>  -51.6151    1.0000 </r>
       <r>  -51.6031    1.0000 </r>
       <r>  -51.5446    1.0000 </r>
       <r>  -51.4747    1.0000 </r>
       <r>  -51.4656    1.0000 </r>
       <r>  -51.4623    1.0000 </r>
       <r>  -51.4334    1.0000 </r>
       <r>  -51.4270    1.0000 </r>
       <r>  -51.3630    1.0000 </r>
       <r>  -51.3611    1.0000 </r>
       <r>  -51.3143    1.0000 </r>
       <r>  -51.2787    1.0000 </r>
       <r>  -51.1775    1.0000 </r>
       <r>  -51.1674    1.0000 </r>
       <r>  -51.1198    1.0000 </r>
       <r>  -50.9160    1.0000 </r>
       <r>  -50.8904    1.0000 </r>
       <r>  -31.0685    1.0000 </r>
       <r>  -30.9882    1.0000 </r>
       <r>  -30.9587    1.0000 </r>
       <r>  -30.9211    1.0000 </r>
       <r>  -30.9033    1.0000 </r>
       <r>  -30.8266    1.0000 </r>
       <r>  -30.8055    1.0000 </r>
       <r>  -30.7898    1.0000 </r>
       <r>  -30.7666    1.0000 </r>
       <r>  -30.7406    1.0000 </r>
       <r>  -30.7244    1.0000 </r>
       <r>  -30.7196    1.0000 </r>
       <r>  -30.7035    1.0000 </r>
       <r>  -30.6882    1.0000 </r>
       <r>  -30.6774    1.0000 </r>
       <r>  -30.6653    1.0000 </r>
       <r>  -30.6521    1.0000 </r>
       <r>  -30.6309    1.0000 </r>
       <r>  -30.6291    1.0000 </r>
       <r>  -30.6182    1.0000 </r>
       <r>  -30.6024    1.0000 </r>
       <r>  -30.5890    1.0000 </r>
       <r>  -30.5812    1.0000 </r>
       <r>  -30.5669    1.0000 </r>
       <r>  -30.5515    1.0000 </r>
       <r>  -30.5441    1.0000 </r>
       <r>  -30.5356    1.0000 </r>
       <r>  -30.5317    1.0000 </r>
       <r>  -30.5273    1.0000 </r>
       <r>  -30.5090    1.0000 </r>
       <r>  -30.4924    1.0000 </r>
       <r>  -30.4811    1.0000 </r>
       <r>  -30.4780    1.0000 </r>
       <r>  -30.4625    1.0000 </r>
       <r>  -30.4594    1.0000 </r>
       <r>  -30.4469    1.0000 </r>
       <r>  -30.4408    1.0000 </r>
       <r>  -30.4288    1.0000 </r>
       <r>  -30.4197    1.0000 </r>
       <r>  -30.4112    1.0000 </r>
       <r>  -30.4060    1.0000 </r>
       <r>  -30.3988    1.0000 </r>
       <r>  -30.3869    1.0000 </r>
       <r>  -30.3672    1.0000 </r>
       <r>  -30.3499    1.0000 </r>
       <r>  -30.3487    1.0000 </r>
       <r>  -30.3367    1.0000 </r>
       <r>  -30.3323    1.0000 </r>
       <r>  -30.3262    1.0000 </r>
       <r>  -30.3132    1.0000 </r>
       <r>  -30.3060    1.0000 </r>
       <r>  -30.2885    1.0000 </r>
       <r>  -30.2778    1.0000 </r>
       <r>  -30.2520    1.0000 </r>
       <r>  -30.2452    1.0000 </r>
       <r>  -30.2406    1.0000 </r>
       <r>  -30.2365    1.0000 </r>
       <r>  -30.2232    1.0000 </r>
       <r>  -30.2174    1.0000 </r>
       <r>  -30.1937    1.0000 </r>
       <r>  -30.1874    1.0000 </r>
       <r>  -30.1681    1.0000 </r>
       <r>  -30.1607    1.0000 </r>
       <r>  -30.1536    1.0000 </r>
       <r>  -30.1453    1.0000 </r>
       <r>  -30.1377    1.0000 </r>
       <r>  -30.1301    1.0000 </r>
       <r>  -30.1117    1.0000 </r>
       <r>  -30.0973    1.0000 </r>
       <r>  -30.0922    1.0000 </r>
       <r>  -30.0808    1.0000 </r>
       <r>  -30.0763    1.0000 </r>
       <r>  -30.0691    1.0000 </r>
       <r>  -30.0656    1.0000 </r>
       <r>  -30.0505    1.0000 </r>
       <r>  -30.0424    1.0000 </r>
       <r>  -30.0339    1.0000 </r>
       <r>  -30.0145    1.0000 </r>
       <r>  -29.9900    1.0000 </r>
       <r>  -29.9881    1.0000 </r>
       <r>  -29.9860    1.0000 </r>
       <r>  -29.9477    1.0000 </r>
       <r>  -29.9121    1.0000 </r>
       <r>  -29.8936    1.0000 </r>
       <r>  -29.8685    1.0000 </r>
       <r>  -29.8574    1.0000 </r>
       <r>  -29.8274    1.0000 </r>
       <r>  -29.8166    1.0000 </r>
       <r>  -29.7680    1.0000 </r>
       <r>  -29.7618    1.0000 </r>
       <r>  -29.7450    1.0000 </r>
       <r>  -29.6804    1.0000 </r>
       <r>  -29.6570    1.0000 </r>
       <r>  -29.6086    1.0000 </r>
       <r>  -29.5930    1.0000 </r>
       <r>  -29.5470    1.0000 </r>
       <r>  -27.4321    1.0000 </r>
       <r>  -27.2037    1.0000 </r>
       <r>  -27.0741    1.0000 </r>
       <r>  -27.0620    1.0000 </r>
       <r>  -27.0294    1.0000 </r>
       <r>  -26.9397    1.0000 </r>
       <r>  -26.9352    1.0000 </r>
       <r>  -26.9066    1.0000 </r>
       <r>  -26.8514    1.0000 </r>
       <r>  -26.8436    1.0000 </r>
       <r>  -26.8193    1.0000 </r>
       <r>  -26.6719    1.0000 </r>
       <r>  -26.6439    1.0000 </r>
       <r>  -26.6074    1.0000 </r>
       <r>  -26.5804    1.0000 </r>
       <r>  -26.5570    1.0000 </r>
       <r>  -26.5474    1.0000 </r>
       <r>  -26.5031    1.0000 </r>
       <r>  -26.4942    1.0000 </r>
       <r>  -26.4815    1.0000 </r>
       <r>  -26.4322    1.0000 </r>
       <r>  -26.3199    1.0000 </r>
       <r>  -26.2672    1.0000 </r>
       <r>  -26.2176    1.0000 </r>
       <r>  -26.2099    1.0000 </r>
       <r>  -26.1992    1.0000 </r>
       <r>  -26.1538    1.0000 </r>
       <r>  -26.1418    1.0000 </r>
       <r>  -26.1151    1.0000 </r>
       <r>  -26.0431    1.0000 </r>
       <r>  -25.9424    1.0000 </r>
       <r>  -25.8963    1.0000 </r>
       <r>  -12.1497    1.0000 </r>
       <r>  -11.9827    1.0000 </r>
       <r>  -11.8425    1.0000 </r>
       <r>  -11.8130    1.0000 </r>
       <r>  -11.5885    1.0000 </r>
[...]
       <r>   -32.5181     0.0000    64.0000 </r>
       <r>   -32.3230     0.0000    64.0000 </r>
       <r>   -32.1278     0.0000    64.0000 </r>
       <r>   -31.9327     0.0000    64.0000 </r>
       <r>   -31.7375     0.0000    64.0000 </r>
       <r>   -31.5423     0.0000    64.0000 </r>
       <r>   -31.3472     0.0000    64.0000 </r>
       <r>   -31.1520     0.0967    64.0189 </r>
       <r>   -30.9569    25.9829    69.0896 </r>
       <r>   -30.7617    64.2215    81.6227 </r>
       <r>   -30.5666   154.0430   111.6850 </r>
       <r>   -30.3714   200.8782   150.8874 </r>
       <r>   -30.1763   184.6581   186.9244 </r>
       <r>   -29.9811   186.2147   223.2652 </r>
       <r>   -29.7859    89.0845   240.6504 </r>
       <r>   -29.5908    61.1261   252.5795 </r>
       <r>   -29.3956    17.5269   256.0000 </r>
       <r>   -29.2005     0.0001   256.0000 </r>
       <r>   -29.0053     0.0000   256.0000 </r>
       <r>   -28.8102     0.0000   256.0000 </r>
       <r>   -28.6150     0.0000   256.0000 </r>
       <r>   -28.4199     0.0000   256.0000 </r>
       <r>   -28.2247     0.0000   256.0000 </r>
       <r>   -28.0296     0.0000   256.0000 </r>
       <r>   -27.8344     0.0000   256.0000 </r>
       <r>   -27.6392     0.0000   256.0000 </r>
       <r>   -27.4441     3.7639   256.7346 </r>
       <r>   -27.2489     7.5143   258.2010 </r>
       <r>   -27.0538    25.1683   263.1127 </r>
       <r>   -26.8586    53.4766   273.5490 </r>
       <r>   -26.6635    32.5422   279.8997 </r>
       <r>   -26.4683    76.1950   294.7696 </r>
       <r>   -26.2732    31.4445   300.9061 </r>
       <r>   -26.0780    66.7103   313.9250 </r>
       <r>   -25.8828    27.0525   319.2044 </r>
       <r>   -25.6877     4.0766   320.0000 </r>
       <r>   -25.4925     0.0000   320.0000 </r>
       <r>   -25.2974     0.0000   320.0000 </r>
       <r>   -25.1022     0.0000   320.0000 </r>
       <r>   -24.9071     0.0000   320.0000 </r>
       <r>   -24.7119     0.0000   320.0000 </r>
       <r>   -24.5168     0.0000   320.0000 </r>
       <r>   -24.3216     0.0000   320.0000 </r>
       <r>   -24.1265     0.0000   320.0000 </r>
       <r>   -23.9313     0.0000   320.0000 </r>
       <r>   -23.7361     0.0000   320.0000 </r>
       <r>   -23.5410     0.0000   320.0000 </r>
       <r>   -23.3458     0.0000   320.0000 </r>
       <r>   -23.1507     0.0000   320.0000 </r>
       <r>   -22.9555     0.0000   320.0000 </r>
       <r>   -22.7604     0.0000   320.0000 </r>
       <r>   -22.5652     0.0000   320.0000 </r>
       <r>   -22.3701     0.0000   320.0000 </r>
       <r>   -22.1749     0.0000   320.0000 </r>
       <r>   -21.9797     0.0000   320.0000 </r>
       <r>   -21.7846     0.0000   320.0000 </r>
       <r>   -21.5894     0.0000   320.0000 </r>
       <r>   -21.3943     0.0000   320.0000 </r>
       <r>   -21.1991     0.0000   320.0000 </r>
       <r>   -21.0040     0.0000   320.0000 </r>
       <r>   -20.8088     0.0000   320.0000 </r>
       <r>   -20.6137     0.0000   320.0000 </r>
       <r>   -20.4185     0.0000   320.0000 </r>
       <r>   -20.2233     0.0000   320.0000 </r>
       <r>   -20.0282     0.0000   320.0000 </r>
       <r>   -19.8330     0.0000   320.0000 </r>
       <r>   -19.6379     0.0000   320.0000 </r>
       <r>   -19.4427     0.0000   320.0000 </r>
       <r>   -19.2476     0.0000   320.0000 </r>
       <r>   -19.0524     0.0000   320.0000 </r>
       <r>   -18.8573     0.0000   320.0000 </r>
       <r>   -18.6621     0.0000   320.0000 </r>
       <r>   -18.4670     0.0000   320.0000 </r>
       <r>   -18.2718     0.0000   320.0000 </r>
       <r>   -18.0766     0.0000   320.0000 </r>
       <r>   -17.8815     0.0000   320.0000 </r>
       <r>   -17.6863     0.0000   320.0000 </r>
       <r>   -17.4912     0.0000   320.0000 </r>
       <r>   -17.2960     0.0000   320.0000 </r>
       <r>   -17.1009     0.0000   320.0000 </r>
       <r>   -16.9057     0.0000   320.0000 </r>
       <r>   -16.7106     0.0000   320.0000 </r>
       <r>   -16.5154     0.0000   320.0000 </r>
       <r>   -16.3202     0.0000   320.0000 </r>
       <r>   -16.1251     0.0000   320.0000 </r>
       <r>   -15.9299     0.0000   320.0000 </r>
       <r>   -15.7348     0.0000   320.0000 </r>
       <r>   -15.5396     0.0000   320.0000 </r>
       <r>   -15.3445     0.0000   320.0000 </r>
       <r>   -15.1493     0.0000   320.0000 </r>
       <r>   -14.9542     0.0000   320.0000 </r>
       <r>   -14.7590     0.0000   320.0000 </r>
       <r>   -14.5638     0.0000   320.0000 </r>
       <r>   -14.3687     0.0000   320.0000 </r>
       <r>   -14.1735     0.0000   320.0000 </r>
       <r>   -13.9784     0.0000   320.0000 </r>
       <r>   -13.7832     0.0000   320.0000 </r>
       <r>   -13.5881     0.0000   320.0000 </r>
       <r>   -13.3929     0.0000   320.0000 </r>
       <r>   -13.1978     0.0000   320.0000 </r>
       <r>   -13.0026     0.0000   320.0000 </r>
       <r>   -12.8075     0.0000   320.0000 </r>
       <r>   -12.6123     0.0000   320.0000 </r>
       <r>   -12.4171     0.0000   320.0000 </r>
       <r>   -12.2220     0.4036   320.0788 </r>
       <r>   -12.0268    11.5698   322.3367 </r>
       <r>   -11.8317    16.8753   325.6300 </r>
       <r>   -11.6365    15.6138   328.6771 </r>
       <r>   -11.4414    23.9920   333.3593 </r>
       <r>   -11.2462    27.0929   338.6466 </r>
       <r>   -11.0511    32.2142   344.9333 </r>
       <r>   -10.8559    29.5445   350.6991 </r>
       <r>   -10.6607     6.6660   352.0000 </r>
       <r>   -10.4656     0.0000   352.0000 </r>
       <r>   -10.2704     0.0000   352.0000 </r>
       <r>   -10.0753     0.0000   352.0000 </r>
       <r>    -9.8801     0.0008   352.0002 </r>
       <r>    -9.6850    17.5938   355.4337 </r>
       <r>    -9.4898     3.9491   356.2044 </r>
       <r>    -9.2947    61.3262   368.1725 </r>
       <r>    -9.0995    68.2281   381.4876 </r>
       <r>    -8.9043   103.0331   401.5950 </r>
       <r>    -8.7092   112.1555   423.4827 </r>
       <r>    -8.5140   131.9486   449.2332 </r>
       <r>    -8.3189   115.2419   471.7232 </r>
       <r>    -8.1237   102.9912   491.8225 </r>
       <r>    -7.9286   112.9152   513.8585 </r>
       <r>    -7.7334    97.0975   532.8076 </r>
       <r>    -7.5383    55.9800   543.7324 </r>
       <r>    -7.3431     1.3714   544.0000 </r>
       <r>    -7.1480     0.0000   544.0000 </r>
       <r>    -6.9528     0.0000   544.0000 </r>
       <r>    -6.7576     0.0000   544.0000 </r>
       <r>    -6.5625     0.0000   544.0000 </r>
       <r>    -6.3673     0.0000   544.0000 </r>
       <r>    -6.1722     0.0000   544.0000 </r>
       <r>    -5.9770     0.0000   544.0000 </r>
       <r>    -5.7819     0.0000   544.0000 </r>
       <r>    -5.5867     0.0000   544.0000 </r>
       <r>    -5.3916     0.0303   544.0059 </r>
       <r>    -5.1964    21.8012   548.2605 </r>
       <r>    -5.0012    36.1293   555.3113 </r>
       <r>    -4.8061    35.6596   562.2705 </r>
       <r>    -4.6109    26.0115   567.3468 </r>
       <r>    -4.4158    45.3812   576.2031 </r>
       <r>    -4.2206    41.9681   584.3934 </r>
       <r>    -4.0255    74.5923   598.9505 </r>
       <r>    -3.8303    59.5612   610.5742 </r>
       <r>    -3.6352    42.0986   618.7899 </r>
       <r>    -3.4400    36.1985   625.8543 </r>
       <r>    -3.2448    34.1951   632.5276 </r>
       <r>    -3.0497    27.1296   637.8221 </r>
       <r>    -2.8545    11.0109   639.9709 </r>
       <r>    -2.6594     0.1491   640.0000 </r>
       <r>    -2.4642     0.0000   640.0000 </r>
       <r>    -2.2691     0.0000   640.0000 </r>
       <r>    -2.0739     0.1710   640.0334 </r>
       <r>    -1.8788     9.3673   641.8615 </r>
       <r>    -1.6836    16.9180   645.1631 </r>
       <r>    -1.4885    15.7488   648.2365 </r>
       <r>    -1.2933    17.0881   651.5714 </r>
       <r>    -1.0981    20.5009   655.5722 </r>
       <r>    -0.9030    24.2866   660.3119 </r>
       <r>    -0.7078    27.2574   665.6313 </r>
       <r>    -0.5127    27.6966   671.0365 </r>
       <r>    -0.3175    34.7990   677.8276 </r>
       <r>    -0.1224    29.8290   683.6489 </r>
       <r>     0.0728    28.3252   689.1767 </r>
       <r>     0.2679    32.0961   695.4404 </r>
       <r>     0.4631    61.4042   707.4238 </r>
       <r>     0.6583    94.9765   725.9589 </r>
       <r>     0.8534    90.3275   743.5868 </r>
       <r>     1.0486   101.1891   763.3344 </r>
       <r>     1.2437    23.9063   767.9998 </r>
       <r>     1.4389     0.0008   768.0000 </r>
       <r>     1.6340     0.0000   768.0000 </r>
       <r>     1.8292     0.0000   768.0000 </r>
       <r>     2.0243     0.0000   768.0000 </r>
       <r>     2.2195     0.0000   768.0000 </r>
       <r>     2.4147     0.0000   768.0000 </r>
       <r>     2.6098     0.0000   768.0000 </r>
       <r>     2.8050     0.0000   768.0000 </r>
       <r>     3.0001     0.0000   768.0000 </r>
       <r>     3.1953     0.0000   768.0000 </r>
       <r>     3.3904     0.0000   768.0000 </r>
       <r>     3.5856     0.0000   768.0000 </r>
       <r>     3.7807     0.0000   768.0000 </r>
      </set>
     </set>
    </array>
   </total>
  </dos>
 </calculation>
 <structure name="finalpos" >
  <crystal>
   <varray name="basis" >
    <v>      13.12862340       0.00000000       0.00000000 </v>
    <v>      -6.56431170      11.36972138       0.00000000 </v>
    <v>       0.00000000       0.00000000      26.82809424 </v>
   </varray>
   <i name="volume">   4004.59716953 </i>
   <varray name="rec_basis" >
    <v>       0.07616945       0.04397645       0.00000000 </v>
    <v>       0.00000000       0.08795290       0.00000000 </v>
    <v>       0.00000000       0.00000000       0.03727436 </v>
   </varray>
  </crystal>
  <varray name="positions" >
   <v>       0.08711811       0.16591408       0.45218024 </v>
   <v>       0.08091429       0.41325033       0.45489646 </v>
   <v>       0.08426745       0.65904809       0.45392753 </v>
   <v>       0.07960431       0.91485433       0.45374124 </v>
   <v>       0.32969867       0.16151276       0.45542894 </v>
   <v>       0.33712667       0.42009166       0.44869041 </v>
   <v>       0.34959775       0.67727290       0.45258579 </v>
   <v>       0.32945591       0.90997084       0.45535019 </v>
   <v>       0.58122767       0.17049657       0.45354614 </v>
   <v>       0.58376932       0.41901011       0.45108349 </v>
   <v>       0.58870486       0.65819964       0.45269428 </v>
   <v>       0.58241984       0.92729679       0.45206439 </v>
   <v>       0.82339013       0.15639906       0.44868283 </v>
   <v>       0.83301762       0.41402519       0.44966525 </v>
   <v>       0.84331286       0.65851614       0.45139540 </v>
   <v>       0.83738288       0.90700702       0.45332312 </v>
   <v>       0.16875751       0.08001188       0.55045237 </v>
   <v>       0.16773392       0.33839191       0.54186084 </v>
   <v>       0.17854234       0.58504573       0.55366220 </v>
   <v>       0.16617655       0.82902005       0.54952261 </v>
   <v>       0.41324557       0.09329034       0.54923096 </v>
   <v>       0.40767790       0.34016684       0.54773697 </v>
   <v>       0.41533604       0.58480226       0.54240132 </v>
   <v>       0.42325773       0.84182653       0.54954291 </v>
   <v>       0.66869381       0.08574688       0.54433876 </v>
   <v>       0.65939394       0.33540804       0.54473946 </v>
   <v>       0.66918089       0.59304646       0.54666255 </v>
   <v>       0.65544069       0.83183453       0.54828071 </v>
   <v>       0.91027251       0.08671738       0.55072705 </v>
   <v>       0.91255619       0.33194800       0.54387654 </v>
   <v>       0.92471406       0.59165918       0.54901470 </v>
   <v>       0.93319240       0.84726844       0.54773609 </v>
   <v>       0.08237073       0.14908294       0.59375362 </v>
   <v>       0.09313243       0.41665135       0.59289973 </v>
   <v>       0.08301671       0.67977600       0.59303530 </v>
   <v>       0.09607857       0.93419456       0.59488348 </v>
   <v>       0.32716595       0.17148578       0.59064450 </v>
   <v>       0.31298563       0.41291737       0.59048307 </v>
   <v>       0.33035449       0.69004650       0.59635155 </v>
   <v>       0.34981496       0.92463215       0.58870959 </v>
   <v>       0.58530772       0.15902083       0.58980125 </v>
   <v>       0.56840188       0.41974212       0.59202524 </v>
   <v>       0.57149039       0.65196924       0.58958251 </v>
   <v>       0.59588460       0.93452580       0.59198871 </v>
   <v>       0.82629095       0.17498439       0.59899915 </v>
   <v>       0.84092287       0.43408116       0.58631692 </v>
   <v>       0.82625305       0.64859607       0.58807229 </v>
   <v>       0.82656485       0.90439858       0.58863396 </v>
   <v>       0.16260958       0.08055707       0.40947162 </v>
   <v>       0.15306222       0.32100385       0.41030175 </v>
   <v>       0.15611440       0.55973555       0.41269702 </v>
   <v>       0.17544419       0.80419146       0.40699662 </v>
   <v>       0.39988814       0.07275789       0.41028878 </v>
   <v>       0.41518678       0.32911874       0.40797583 </v>
   <v>       0.41280575       0.58026341       0.41273646 </v>
   <v>       0.41801933       0.84237690       0.41386162 </v>
   <v>       0.66155632       0.07775011       0.40685927 </v>
   <v>       0.67180032       0.34418669       0.40241694 </v>
   <v>       0.66732007       0.58754271       0.40816148 </v>
   <v>       0.66725242       0.81171560       0.40752651 </v>
   <v>       0.93087356       0.06898300       0.40657606 </v>
   <v>       0.89330629       0.31351564       0.40797285 </v>
   <v>       0.92177333       0.57925652       0.40774615 </v>
   <v>       0.91875856       0.84713588       0.40575049 </v>
   <v>       0.99672324       0.99100741       0.50010033 </v>
   <v>       0.99833320       0.24788328       0.50485833 </v>
   <v>       0.99647955       0.49750686       0.50351090 </v>
   <v>       0.00150919       0.75053304       0.49930660 </v>
   <v>       0.25228370       0.00512515       0.50496043 </v>
   <v>       0.25306426       0.25978422       0.49485887 </v>
   <v>       0.25282075       0.49358765       0.49869367 </v>
   <v>       0.24379961       0.74352988       0.50126385 </v>
   <v>       0.50135344       0.00972546       0.50293852 </v>
   <v>       0.49236218       0.25673071       0.49740200 </v>
   <v>       0.50779593       0.50150107       0.49499661 </v>
   <v>       0.50197819       0.75229782       0.49946413 </v>
   <v>       0.74421049       0.00018076       0.49920517 </v>
   <v>       0.75731056       0.26121379       0.49856598 </v>
   <v>       0.74576751       0.49149902       0.49856664 </v>
   <v>       0.75200679       0.74590273       0.49932480 </v>
  </varray>
  <varray name="velocities" >
   <v>       0.00000000       0.00000000       0.00000000 </v>
   <v>       0.00000000       0.00000000       0.00000000 </v>
   <v>       0.00000000       0.00000000       0.00000000 </v>
   <v>       0.00000000       0.00000000       0.00000000 </v>
   <v>       0.00000000       0.00000000       0.00000000 </v>
   <v>       0.00000000       0.00000000       0.00000000 </v>
   <v>       0.00000000       0.00000000       0.00000000 </v>
   <v>       0.00000000       0.00000000       0.00000000 </v>
   <v>       0.00000000       0.00000000       0.00000000 </v>
   <v>       0.00000000       0.00000000       0.00000000 </v>
   <v>       0.00000000       0.00000000       0.00000000 </v>
   <v>       0.00000000       0.00000000       0.00000000 </v>
   <v>       0.00000000       0.00000000       0.00000000 </v>
   <v>       0.00000000       0.00000000       0.00000000 </v>
   <v>       0.00000000       0.00000000       0.00000000 </v>
   <v>       0.00000000       0.00000000       0.00000000 </v>
   <v>       0.00000000       0.00000000       0.00000000 </v>
   <v>       0.00000000       0.00000000       0.00000000 </v>
   <v>       0.00000000       0.00000000       0.00000000 </v>
   <v>       0.00000000       0.00000000       0.00000000 </v>
   <v>       0.00000000       0.00000000       0.00000000 </v>
   <v>       0.00000000       0.00000000       0.00000000 </v>
   <v>       0.00000000       0.00000000       0.00000000 </v>
   <v>       0.00000000       0.00000000       0.00000000 </v>
   <v>       0.00000000       0.00000000       0.00000000 </v>
   <v>       0.00000000       0.00000000       0.00000000 </v>
   <v>       0.00000000       0.00000000       0.00000000 </v>
   <v>       0.00000000       0.00000000       0.00000000 </v>
   <v>       0.00000000       0.00000000       0.00000000 </v>
   <v>       0.00000000       0.00000000       0.00000000 </v>
   <v>       0.00000000       0.00000000       0.00000000 </v>
   <v>       0.00000000       0.00000000       0.00000000 </v>
   <v>       0.00000000       0.00000000       0.00000000 </v>
   <v>       0.00000000       0.00000000       0.00000000 </v>
   <v>       0.00000000       0.00000000       0.00000000 </v>
   <v>       0.00000000       0.00000000       0.00000000 </v>
   <v>       0.00000000       0.00000000       0.00000000 </v>
   <v>       0.00000000       0.00000000       0.00000000 </v>
   <v>       0.00000000       0.00000000       0.00000000 </v>
   <v>       0.00000000       0.00000000       0.00000000 </v>
   <v>       0.00000000       0.00000000       0.00000000 </v>
   <v>       0.00000000       0.00000000       0.00000000 </v>
   <v>       0.00000000       0.00000000       0.00000000 </v>
   <v>       0.00000000       0.00000000       0.00000000 </v>
   <v>       0.00000000       0.00000000       0.00000000 </v>
   <v>       0.00000000       0.00000000       0.00000000 </v>
   <v>       0.00000000       0.00000000       0.00000000 </v>
   <v>       0.00000000       0.00000000       0.00000000 </v>
   <v>       0.00000000       0.00000000       0.00000000 </v>
   <v>       0.00000000       0.00000000       0.00000000 </v>
   <v>       0.00000000       0.00000000       0.00000000 </v>
   <v>       0.00000000       0.00000000       0.00000000 </v>
   <v>       0.00000000       0.00000000       0.00000000 </v>
   <v>       0.00000000       0.00000000       0.00000000 </v>
   <v>       0.00000000       0.00000000       0.00000000 </v>
   <v>       0.00000000       0.00000000       0.00000000 </v>
   <v>       0.00000000       0.00000000       0.00000000 </v>
   <v>       0.00000000       0.00000000       0.00000000 </v>
   <v>       0.00000000       0.00000000       0.00000000 </v>
   <v>       0.00000000       0.00000000       0.00000000 </v>
   <v>       0.00000000       0.00000000       0.00000000 </v>
   <v>       0.00000000       0.00000000       0.00000000 </v>
   <v>       0.00000000       0.00000000       0.00000000 </v>
   <v>       0.00000000       0.00000000       0.00000000 </v>
   <v>       0.00000000       0.00000000       0.00000000 </v>
   <v>       0.00000000       0.00000000       0.00000000 </v>
   <v>       0.00000000       0.00000000       0.00000000 </v>
   <v>       0.00000000       0.00000000       0.00000000 </v>
   <v>       0.00000000       0.00000000       0.00000000 </v>
   <v>       0.00000000       0.00000000       0.00000000 </v>
   <v>       0.00000000       0.00000000       0.00000000 </v>
   <v>       0.00000000       0.00000000       0.00000000 </v>
   <v>       0.00000000       0.00000000       0.00000000 </v>
   <v>       0.00000000       0.00000000       0.00000000 </v>
   <v>       0.00000000       0.00000000       0.00000000 </v>
   <v>       0.00000000       0.00000000       0.00000000 </v>
   <v>       0.00000000       0.00000000       0.00000000 </v>
   <v>       0.00000000       0.00000000       0.00000000 </v>
   <v>       0.00000000       0.00000000       0.00000000 </v>
   <v>       0.00000000       0.00000000       0.00000000 </v>
  </varray>
 </structure>
</modeling>
