80
Time=50000.00000004 pbc="T T F" Lattice="13.12862340 0.00000000 0.00000000 -6.56431170 11.36972138 0.00000000 0.00000000 0.00000000 26.82809424" energy=-597.29382181 virial="9.28358057 -0.07805028 5.54920197 -0.07805028 8.01670284 3.12078936 5.54920197 3.12078936 -3.67399295" stress="0.00300683 -0.00001949 0.00138571 -0.00001949 0.00269047 0.00077930 0.00138571 0.00077930 -0.00022885" Properties=species:S:1:pos:R:3
Sc -0.05304769 1.81440486 12.20147428
Sc -1.58675398 4.74339530 12.11224455
Sc -3.27564668 7.63125627 12.12167912
Sc -4.86462369 10.32725554 12.19528692
Sc 3.29091751 1.95867834 11.96036634
Sc 1.54099433 4.73516148 12.23604813
Sc -0.02510617 7.49941962 12.19289685
Sc -1.58278636 10.42365624 11.94472990
Sc 6.61888405 1.89718551 12.20717570
Sc 4.95580073 4.81149801 12.07560624
Sc 3.30842171 7.60466125 12.09899745
Sc 1.73734848 10.33756882 12.12516769
Sc 9.72802964 1.81327768 12.15080350
Sc 8.27535852 4.77106738 12.16465844
Sc 6.54305025 7.63749256 12.10465920
Sc 4.94661869 10.38968951 12.17132003
Sc 1.61993697 0.89830489 14.63411432
Sc 0.05304772 3.75771628 14.66015516
Sc -1.70329737 6.42191292 14.73791066
Sc -3.23998395 9.50234596 14.84696592
Sc 4.84711827 1.06921861 14.62616502
Sc 3.22021179 3.86646583 14.64838908
Sc 1.68416776 6.64897988 14.77476985
Sc -0.15178146 9.50068566 14.81115136
Sc 8.10962512 0.95481459 14.63844242
Sc 6.48291642 3.75843523 14.62514256
Sc 4.92214685 6.68258179 14.62775151
Sc 3.26705671 9.52414796 14.72987559
Sc 11.48626951 0.95481118 14.76303443
Sc 9.88349687 3.76865965 14.66880779
Sc 8.25684804 6.59965886 14.69351114
Sc 6.59048690 9.40981332 14.71429933
F -0.02536220 1.90035042 15.86991509
F -1.50261227 4.68466286 15.94241440
F -3.27477952 7.58498634 15.80848773
F -4.94785652 10.44575042 15.86138637
F 3.22065910 1.89008674 15.82118376
F 1.66176643 4.69535714 15.76307833
F -0.11257404 7.59387589 15.96554403
F -1.69181684 10.43651085 15.84634150
F 6.53453195 1.77564725 15.82596836
F 5.01278197 4.81027908 15.70822692
F 3.30953366 7.51514331 15.81049353
F 1.57493048 10.42241296 15.82007502
F 9.78760752 1.88508328 15.75769649
F 8.13823855 4.82799786 15.74853869
F 6.57002707 7.54715582 15.85630663
F 4.90735915 10.37918144 16.00688079
F 1.70597599 0.98426974 11.01188485
F 0.06560656 3.77391999 11.07650152
F -1.59827349 6.58766485 11.02001474
F -3.24051197 9.51981564 10.91090383
F 4.94735346 0.98244218 10.85985678
F 3.32815714 3.73561436 10.96990012
F 1.62833296 6.79756152 11.02335817
F 0.07360560 9.37519248 11.07035573
F 8.18716916 0.90146848 10.99836342
F 6.65599057 4.07087915 10.95038805
F 4.94098913 6.83701782 10.87196664
F 3.24696314 9.50678960 11.01585232
F 11.39266739 1.00713635 11.03659087
F 9.85433028 3.88613122 11.09764748
F 8.38942551 6.65551184 11.01120440
F 6.71953664 9.41950068 10.97322165
C 13.03979256 0.03706475 13.45567610
C 11.44450534 2.80953093 13.45427548
C 9.85224232 5.63259510 13.46825744
C -4.87257839 8.48765426 13.32377284
C 3.30617993 0.09389285 13.35785273
C 1.65724320 2.79230593 13.43272898
C -0.03250383 5.64629732 13.39391892
C -1.67375603 8.51454647 13.46349281
C 6.57171215 0.03676414 13.35869699
C 4.93169934 2.84928894 13.30308173
C 3.19612222 5.73831521 13.36327895
C 1.58910614 8.43864794 13.45159496
C 3.36131824 11.34438000 13.42919705
C 8.22497361 2.85348492 13.37597671
C 6.53755126 5.70468998 13.41663127
C 4.92866229 8.53983308 13.42697818
80
Time=99999.99999996 pbc="T T F" Lattice="13.12862340 0.00000000 0.00000000 -6.56431170 11.36972138 0.00000000 0.00000000 0.00000000 26.82809424" energy=-596.25389338 virial="11.52037821 -0.09002139 2.62463088 -0.09002139 10.94414040 1.28020811 2.62463088 1.28020811 4.07934946" stress="0.00356538 -0.00002248 0.00065540 -0.00002248 0.00342149 0.00031968 0.00065540 0.00031968 0.00170726" Properties=species:S:1:pos:R:3
Sc 0.00569741 1.96781242 12.36004047
Sc -1.61416368 4.82065794 12.21135991
Sc -3.39650093 7.60772181 12.01079802
Sc -4.89865587 10.45116346 12.16191414
Sc 3.22536672 1.87963868 12.16738066
Sc 1.78703011 4.82930057 12.20950746
Sc -0.09417519 7.47748784 12.01774139
Sc -1.59883157 10.48876063 11.94993627
Sc 6.63727670 1.84994503 12.23051867
Sc 5.02436495 4.70465515 12.19357651
Sc 3.28608701 7.65374784 12.11224995
Sc 1.61226140 10.30580406 12.12856946
Sc 9.90625866 1.85259363 12.13570389
Sc 8.17371394 4.74110435 12.25104722
Sc 6.53081624 7.54115277 12.13704646
Sc 5.10486793 10.49948641 12.02781231
Sc 1.68459985 0.98775135 14.77717095
Sc 0.04681083 3.70548885 14.79015163
Sc -1.62219662 6.56596665 14.66727471
Sc -3.33556431 9.47558462 14.55740772
Sc 4.87908571 0.97771420 14.62543889
Sc 3.27322743 3.81388500 14.67409772
Sc 1.64616093 6.57776349 14.62008093
Sc -0.05525550 9.52704376 14.55931464
Sc 8.11445806 0.87006972 14.76250477
Sc 6.60072829 3.83066924 14.78861345
Sc 4.98693548 6.71881785 14.72383999
Sc 3.33442033 9.45119829 14.71859483
Sc 11.36151737 1.03159373 14.82513993
Sc 9.78816645 3.79449943 14.63045616
Sc 8.24246761 6.74223850 14.68701680
Sc 6.55332031 9.48504529 14.64934569
F -0.12641195 1.84463207 15.98564956
F -1.81925755 4.80502803 15.79791651
F -3.47416515 7.76677700 15.90383477
F -4.85185903 10.43055648 15.73190021
F 3.39352270 1.85077104 15.81284785
F 1.72923377 4.61903815 15.86879353
F -0.01797118 7.50183815 15.74679548
F -1.73165505 10.22163209 15.68789211
F 6.61928933 1.89715421 15.89121334
F 4.86273311 4.70154516 15.79404921
F 3.32381331 7.56934290 15.72592023
F 1.50862801 10.50375708 15.70286500
F 9.68357558 1.82784798 15.80999351
F 8.25345880 4.51407016 15.99940192
F 6.66545676 7.61070432 15.77227279
F 4.97011237 10.34012395 15.93379852
F 1.50123627 1.06930931 10.86694418
F -0.06875268 3.71481642 10.99900613
F -1.68233687 6.50068970 10.99088846
F -3.35161533 9.50116585 10.93538392
F 4.86071327 0.92968376 10.94905056
F 3.09953536 3.74302404 11.04190398
F 1.72919644 6.55913156 10.98876940
F -0.08027836 9.47880723 10.84379135
F 8.33714782 0.98160092 11.11009387
F 6.74139793 3.79493598 11.04017582
F 4.99383479 6.73537306 10.92648102
F 3.33036350 9.53983609 10.94484166
F 11.42651657 1.04962732 11.03139879
F 9.83692248 3.76628099 11.16609287
F 8.24288073 6.55730677 10.96472222
F 6.61906490 9.31914120 10.94249846
C 0.00283707 0.04747868 13.54394820
C -1.66628907 2.95479352 13.54975004
C -3.27709054 5.78440663 13.41998817
C 8.13463862 8.58324749 13.37688895
C -3.27125220 11.35808415 13.39403373
C 1.70886315 2.88679877 13.49376954
C 0.06220765 5.68709035 13.43601430
C -1.65514713 8.43411738 13.24939286
C -0.06269034 11.28657191 13.35555592
C 4.96283195 2.82451620 13.43394762
C 3.37580519 5.71844834 13.45869866
C 1.69761115 8.50449702 13.24858241
C 3.33019296 11.26184084 13.41473662
C 8.14605951 2.87277529 13.56691042
C 6.58113674 5.58802521 13.51082169
C 4.94631383 8.43119422 13.29339342
80
Time=149999.99999957 pbc="T T F" Lattice="13.12862340 0.00000000 0.00000000 -6.56431170 11.36972138 0.00000000 0.00000000 0.00000000 26.82809424" energy=-596.20368242 virial="11.80540954 -1.44349088 6.68708734 -1.44349088 13.53420979 2.65455147 6.68708734 2.65455147 9.01945872" stress="0.00363656 -0.00036046 0.00166985 -0.00036046 0.00406826 0.00066288 0.00166985 0.00066288 0.00294087" Properties=species:S:1:pos:R:3
Sc -0.02771740 1.91676112 12.18033343
Sc -1.56664217 4.86401332 12.01542915
Sc -3.30293065 7.54731321 12.09683981
Sc -4.85233945 10.50834390 12.07329678
Sc 3.21972708 1.91388795 12.14463672
Sc 1.80392589 4.71025827 12.17883854
Sc 0.02147056 7.59847707 12.29590011
Sc -1.61802036 10.45949636 12.14795408
Sc 6.61186440 1.91650689 12.15263602
Sc 4.90285679 4.62094053 12.02676441
Sc 3.24961537 7.49667702 12.20245139
Sc 1.73073855 10.46756358 12.20538892
Sc 9.78671078 1.91902190 12.12561570
Sc 8.21766200 4.69035093 12.15393715
Sc 6.66006951 7.48292058 12.15223030
Sc 4.98718245 10.36925621 12.21595550
Sc 1.67072088 0.85399832 14.73206530
Sc 0.15774647 3.77859874 14.47554344
Sc -1.72494719 6.70866461 14.61881736
Sc -3.37442856 9.47512507 14.76192375
Sc 4.86511119 0.91193545 14.61145309
Sc 3.33570182 3.77721477 14.75892225
Sc 1.56947646 6.60611709 14.83605953
Sc -0.13247611 9.59261119 14.70358599
Sc 8.12793303 0.98748200 14.67846221
Sc 6.55064370 3.80979945 14.61195787
Sc 4.91906655 6.44657481 14.65575444
Sc 3.23113325 9.34837767 14.81529151
Sc 11.53350612 0.99782773 14.70179668
Sc 9.89004058 3.82888186 14.65792692
Sc 8.16699985 6.62309975 14.66680381
Sc 6.58976031 9.39849188 14.62882616
F 0.08321123 1.97937058 15.73308229
F -1.61066052 4.94473335 15.75400806
F -3.38056484 7.53929217 15.83101431
F -5.10658968 10.24073991 15.93227841
F 3.44897936 1.63512761 15.80525960
F 1.69813740 4.43521610 15.85684201
F -0.09353002 7.63345103 15.76525234
F -1.71599530 10.52540604 15.83086405
F 6.53430817 1.98359996 15.80781464
F 4.81437164 4.72438315 15.87606869
F 3.08700932 7.52479533 16.00599047
F 1.54463037 10.62841158 15.81765101
F 9.91486385 2.12577372 15.95065584
F 8.19507116 4.72381076 15.75284922
F 6.48607515 7.48032481 15.77747407
F 4.63174857 10.60977162 15.74899466
F 1.60017212 1.18822017 10.90579434
F 0.08318094 3.84965126 10.91629792
F -1.64688835 6.74423145 11.08697035
F -3.24186563 9.53063499 10.86751774
F 5.08595464 0.88431503 11.02732252
F 3.26007918 3.80692692 10.95902333
F 1.60998745 6.67438964 10.99439669
F 0.03916680 9.45864788 11.15374545
F 8.26787425 1.23173420 10.80758014
F 6.55368479 3.74297310 11.01798945
F 4.85274189 6.50032019 11.04823814
F 3.34837718 9.33858664 11.17394513
F 11.68185391 0.92220936 10.89502787
F 9.78343456 3.86665928 11.09326434
F 8.08292407 6.64809377 10.99728543
F 6.66136543 9.49031857 11.07797379
C -6.50444149 11.32434363 13.40406549
C 11.42553688 2.93632323 13.36286945
C -3.25003390 5.72093884 13.37427324
C 8.13411234 8.53751865 13.38083611
C -3.31081958 11.28251351 13.39106359
C 1.71526681 2.79404196 13.47300781
C 0.14564824 5.74211614 13.39607439
C -1.69683326 8.58076301 13.38228846
C 6.61178000 0.06972054 13.33878155
C 4.85674365 2.79501797 13.33994962
C 3.29256628 5.56908419 13.49222811
C 1.58033555 8.53568195 13.58742171
C 9.90437806 0.09969148 13.36881580
C 8.17478447 2.87395754 13.39489944
C 6.63152468 5.66188445 13.42590350
C 4.91596852 8.41388153 13.35538519
80
Time=199999.99999918 pbc="T T F" Lattice="13.12862340 0.00000000 0.00000000 -6.56431170 11.36972138 0.00000000 0.00000000 0.00000000 26.82809424" energy=-597.08346605 virial="5.18487653 -0.84792454 0.53015965 -0.84792454 6.41807937 -0.37899595 0.53015965 -0.37899595 -9.67601048" stress="0.00198333 -0.00021174 0.00013239 -0.00021174 0.00229127 -0.00009464 0.00013239 -0.00009464 -0.00172763" Properties=species:S:1:pos:R:3
Sc -0.03852057 1.84760684 12.10287343
Sc -1.59969335 4.84803616 12.10939601
Sc -3.22051112 7.55745587 12.28522958
Sc -4.91393257 10.29567560 12.10355034
Sc 3.27261737 1.79494569 12.12042958
Sc 1.71341363 4.69394048 12.19245237
Sc 0.07805880 7.68515783 12.05787079
Sc -1.61656692 10.37232476 12.12426833
Sc 6.48357561 2.02349333 12.18879804
Sc 4.96172169 4.71828260 12.14678874
Sc 3.30442655 7.61900494 12.18363905
Sc 1.65112465 10.40670215 12.17403528
Sc 9.77076359 1.89627504 12.06637153
Sc 8.16231894 4.79926444 12.12918343
Sc 6.61395916 7.48976057 12.16896045
Sc 5.01171268 10.35504775 12.03055005
Sc 1.70043519 0.89304424 14.77302374
Sc -0.02532937 3.81358716 14.67664367
Sc -1.70081802 6.71299211 14.77006316
Sc -3.25384752 9.49363682 14.71747437
Sc 4.87307391 0.96503645 14.61000001
Sc 3.27626050 3.82446422 14.62998614
Sc 1.70434945 6.57244063 14.66400073
Sc 0.01725424 9.54864569 14.69283710
Sc 8.15621851 0.99772856 14.75084157
Sc 6.64424033 3.74945865 14.81433706
Sc 4.92411448 6.55243175 14.68076456
Sc 3.19555184 9.50433138 14.72788579
Sc 11.52938976 0.95020569 14.64323932
Sc 9.86590128 3.84863049 14.60236500
Sc 8.18557065 6.54205715 14.77035413
Sc 6.51342684 9.44198252 14.62768609
F -0.11266895 1.76304138 15.82902239
F -1.48842021 4.64082651 15.88743103
F -3.30461057 7.55185356 15.97963614
F -4.94463229 10.35773487 15.68499002
F 3.21944399 1.68584089 15.83409266
F 1.70044958 4.69504907 15.75768725
F -0.01975238 7.51838575 15.84692016
F -1.54604658 10.64654377 15.89092460
F 6.54963465 1.94923467 15.86799955
F 4.75819916 4.81128858 15.87741057
F 3.19456080 7.51133287 15.94300262
F 1.69822085 10.58698522 15.87893094
F 9.97949949 1.99158361 15.74642815
F 8.05756792 4.81595057 15.94321724
F 6.52687623 7.50357004 15.80227892
F 4.93892889 10.46185319 15.79106543
F 1.65078741 0.79224960 10.89174026
F -0.04326273 3.84124186 10.89542077
F -1.55059960 6.70137458 11.12760433
F -3.36317701 9.57037326 10.93216323
F 4.94485386 1.00257753 10.95997931
F 3.27154101 3.79618565 10.99266101
F 1.75559031 6.71553760 11.10862739
F 0.08337049 9.47979507 10.84010216
F 8.08731941 1.14220727 11.06011401
F 6.46363298 3.73575817 10.97409653
F 4.84101035 6.60058325 10.89156397
F 3.20726455 9.49691994 10.91535283
F 11.47196347 0.95438585 10.82545536
F 9.71292894 3.82326485 10.93059707
F 8.34756544 6.61586482 10.99815548
F 6.50844962 9.38347422 10.92749229
C 6.52384400 11.35969680 13.33034288
C 11.47268252 2.83005089 13.33949666
C 9.81229066 5.64446090 13.49402613
C 8.16938033 8.43247259 13.50472659
C -3.26958487 11.33529345 13.39783210
C 1.74044576 2.77836687 13.45711710
C 0.01622795 5.64694011 13.38303527
C -1.58040073 8.64603881 13.44951585
C 0.03345322 11.33397753 13.48604770
C 4.86124185 2.87268953 13.52138138
C 3.24348529 5.66856904 13.40667673
C 1.60875006 8.59668068 13.50083122
C 9.80512846 0.07897042 13.33229797
C 8.12088490 2.92560718 13.45944981
C 6.56779034 5.74204389 13.46503185
C 4.97513191 8.45744125 13.43367931
80
Time=249999.99999879 pbc="T T F" Lattice="13.12862340 0.00000000 0.00000000 -6.56431170 11.36972138 0.00000000 0.00000000 0.00000000 26.82809424" energy=-595.77840710 virial="14.09522745 0.14484593 2.04828327 0.14484593 13.53468122 -7.26474644 2.04828327 -7.26474644 4.89310486" stress="0.00420836 0.00003617 0.00051148 0.00003617 0.00406838 -0.00181410 0.00051148 -0.00181410 0.00191047" Properties=species:S:1:pos:R:3
Sc 0.01879070 1.92512192 12.19093613
Sc -1.66793744 4.55294279 12.13045080
Sc -3.35231616 7.50256771 12.02314258
Sc -4.93079120 10.42794323 12.09152148
Sc 3.30975924 1.86309848 12.13362472
Sc 1.67216651 4.74361479 12.07440951
Sc -0.09471143 7.51336300 12.13608199
Sc -1.64572806 10.32552738 12.13827301
Sc 6.50775218 1.81909845 12.16742661
Sc 4.99771981 4.79148991 12.18940980
Sc 3.34224465 7.56132971 12.28785872
Sc 1.65967597 10.34775843 12.20513625
Sc 9.81534008 1.90505423 12.11845136
Sc 8.10763211 4.76212616 12.08350288
Sc 6.52775907 7.72026041 12.22340278
Sc 4.84584023 10.48783283 12.17206387
Sc 1.49618102 1.01495471 14.70129132
Sc 0.00073142 3.94013517 14.69233324
Sc -1.58904331 6.66448584 14.67258004
Sc -3.31945907 9.48771412 14.52226608
Sc 4.94008221 0.97818076 14.66488447
Sc 3.30604179 3.65148418 14.64560246
Sc 1.58406127 6.66884826 14.70067498
Sc -0.06404173 9.45979073 14.68938398
Sc 8.19449223 0.96508674 14.65248199
Sc 6.54690959 3.75234198 14.62960787
Sc 5.09358876 6.47369908 14.89877442
Sc 3.33917453 9.51117301 14.78528338
Sc 11.49776703 1.06949059 14.69560304
Sc 9.78945664 3.85111755 14.67962436
Sc 8.28786047 6.58619172 14.69536766
Sc 6.49690129 9.59603529 14.67575422
F -0.08760827 2.02303783 15.77784069
F -1.76467316 4.74932762 15.77653184
F -3.09370337 7.46849502 15.65284973
F -5.12518175 10.47452782 15.74745414
F 3.17090214 1.89262651 15.92996593
F 1.51385511 4.80562314 15.82446406
F 0.02593297 7.66252636 15.79988042
F -1.66046988 10.26549750 15.92240892
F 6.57856331 1.85778958 15.81775936
F 5.09160684 4.72469122 15.94854169
F 3.19005479 7.58176265 15.78055199
F 1.78889133 10.66226407 15.98376955
F 9.90653470 2.03000818 15.84455336
F 8.12483245 4.82978203 15.82873418
F 6.70651863 7.63393353 15.81458096
F 5.05994569 10.34523641 15.93786307
F 1.68600015 0.98087249 11.03000270
F -0.13079311 3.90187967 11.01688772
F -1.75645755 6.60938860 10.99617538
F -3.34240029 9.45255746 10.98491626
F 4.90017722 0.81082003 11.04249805
F 3.36547389 3.63493849 10.82652423
F 1.74767069 6.58815399 11.11336677
F 0.26074115 9.37846409 10.99445162
F 8.16257716 1.12742834 10.91560942
F 6.72653719 3.69076024 10.91367221
F 4.88671989 6.61900863 11.02863684
F 3.53207999 9.41326556 11.11898196
F 11.54843986 0.92402799 10.99510321
F 9.98916139 3.75246781 10.94388448
F 8.23419686 6.65879109 10.75583151
F 6.60916416 9.30102286 10.92541633
C -0.01718234 0.04008831 13.40383636
C -1.59457419 2.89198522 13.41252019
C 9.79841064 5.76531585 13.24971936
C -4.81098801 8.55890364 13.40099433
C -3.35405883 11.34386774 13.44412289
C 1.70067221 2.91345490 13.33754054
C -0.04764706 5.70056667 13.54211290
C -1.64873536 8.58710734 13.41203845
C 6.55353550 0.03882885 13.37697366
C 4.88895802 2.70396123 13.45428370
C 3.32011763 5.61617645 13.37124725
C 1.61389243 8.49818607 13.38971248
C 9.88551822 0.03428852 13.39235342
C 8.14005947 2.98345493 13.45329258
C 6.49155119 5.59166356 13.44684874
C 4.91879304 8.40616815 13.50751790
80
Time=299999.99999840 pbc="T T F" Lattice="13.12862340 0.00000000 0.00000000 -6.56431170 11.36972138 0.00000000 0.00000000 0.00000000 26.82809424" energy=-596.81443501 virial="6.55234206 0.25103257 3.63386083 0.25103257 8.01673223 -1.15537517 3.63386083 -1.15537517 -1.39014368" stress="0.00232480 0.00006269 0.00090742 0.00006269 0.00269048 -0.00028851 0.00090742 -0.00028851 0.00034146" Properties=species:S:1:pos:R:3
Sc 0.02620902 1.92407942 12.19191095
Sc -1.78409910 4.67964113 12.14035429
Sc -3.24292713 7.58025145 12.04158109
Sc -4.93598745 10.55137152 12.12557397
Sc 3.33698397 2.05188029 12.26573443
Sc 1.53699943 4.68154788 12.07576190
Sc 0.04876628 7.53128398 11.95467426
Sc -1.76073055 10.48082263 12.11009489
Sc 6.55639798 1.90414901 12.24587529
Sc 4.88941753 4.73904740 12.19078804
Sc 3.35491990 7.56106637 12.11439328
Sc 1.69484592 10.38180004 12.20872848
Sc 9.89498976 1.86103600 12.18055619
Sc 8.12087096 4.71150108 12.15740928
Sc 6.64140464 7.62749806 11.99845201
Sc 5.01532898 10.41406292 12.17223342
Sc 1.67822069 1.02017978 14.68220459
Sc -0.00830474 3.80736084 14.62615674
Sc -1.68218218 6.76637812 14.60257565
Sc -3.31429198 9.56030725 14.66782024
Sc 4.97539770 0.87470609 14.65048739
Sc 3.31213865 3.85849525 14.84055040
Sc 1.68570923 6.60245628 14.63010743
Sc -0.11710794 9.43868191 14.59325807
Sc 8.27254954 0.92985410 14.90722876
Sc 6.46221457 3.73772122 14.74489178
Sc 4.95753929 6.57880254 14.60145963
Sc 3.29818981 9.40120452 14.69523948
Sc 11.48404113 0.86363801 14.70146596
Sc 9.76918894 3.78619927 14.72636416
Sc 8.14349684 6.63032891 14.62000283
Sc 6.56730385 9.42716441 14.70453520
F 0.07747418 2.05642765 15.85799206
F -1.60232232 4.69391999 15.75372706
F -3.25883917 7.55681880 15.71787549
F -5.01254437 10.50993553 15.87862910
F 3.08905476 1.85903781 15.99749151
F 1.65925351 4.74382152 15.87910560
F 0.09472286 7.47793825 15.66571150
F -1.58933964 10.41581593 15.82726157
F 6.46586580 1.85025291 15.98000204
F 4.95681073 4.86465781 15.95859384
F 3.36576604 7.55612746 15.75349069
F 1.72408812 10.48401920 16.08024582
F 10.05107022 1.85711959 15.93103092
F 7.99427455 4.82692583 15.91011287
F 6.49320583 7.60902389 15.74038968
F 4.85294932 10.29878307 15.76508931
F 1.63431316 1.03883412 11.03007881
F -0.12864940 3.54625680 10.96852360
F -1.57936968 6.47475450 10.84468646
F -3.25084547 9.73057836 10.88365351
F 5.02576463 1.14223754 11.07431740
F 3.33430512 3.72180977 11.05962972
F 1.61660997 6.55097958 10.90534179
F -0.03194017 9.53796990 11.04101289
F 8.20019691 1.10668555 11.04473367
F 6.44293255 3.68039037 11.10167842
F 4.97266915 6.64523668 10.91250236
F 3.57814781 9.37637742 10.95370263
F 11.55933018 0.86250599 11.14701919
F 9.68097733 3.59731483 11.00218531
F 8.28509935 6.52342119 10.93256571
F 6.69214744 9.55660231 11.02890862
C 6.53996330 11.35953827 13.51282911
C 11.46202888 2.80368988 13.36272642
C -3.32171320 5.78150325 13.32820539
C -4.81798387 8.50949693 13.39713559
C 3.23061816 0.01742781 13.33214079
C 1.69916079 2.94362963 13.48869567
C -0.09703395 5.62337874 13.24587108
C -1.61585111 8.68183363 13.26422571
C -0.00943277 11.32120558 13.48534062
C 4.93213493 2.78826534 13.51528187
C 3.31794104 5.67655752 13.40049160
C 1.59002020 8.44371293 13.32171372
C 3.34373451 11.36641966 13.46519508
C 8.16036436 2.93250686 13.53433537
C 6.49771442 5.67198356 13.28772459
C 5.02947143 8.48079748 13.38855645
80
Time=349999.99999862 pbc="T T F" Lattice="13.12862340 0.00000000 0.00000000 -6.56431170 11.36972138 0.00000000 0.00000000 0.00000000 26.82809424" energy=-596.51984644 virial="8.55189083 -1.30874440 -6.14248696 -1.30874440 4.93219586 2.37644438 -6.14248696 2.37644438 -2.13460264" stress="0.00282411 -0.00032681 -0.00153386 -0.00032681 0.00192023 0.00059343 -0.00153386 0.00059343 0.00015556" Properties=species:S:1:pos:R:3
Sc 0.07517063 1.92376696 12.13432731
Sc -1.64393574 4.73814487 12.09467086
Sc -3.23406340 7.42375201 12.17499901
Sc -4.89299895 10.34665439 12.03618886
Sc 3.40256400 1.85190904 12.11411756
Sc 1.65117020 4.70201505 12.05992323
Sc 0.02904343 7.58847235 12.26553078
Sc -1.62838949 10.29839110 12.17013304
Sc 6.57225261 1.92657730 12.12750369
Sc 4.83417051 4.75821341 12.16667014
Sc 3.38607971 7.58340153 12.14422522
Sc 1.58967610 10.46862839 12.10130038
Sc 9.79438257 1.88852390 12.18882057
Sc 8.15829357 4.79872612 12.20196854
Sc 6.57424278 7.62239845 12.20559099
Sc 4.91855899 10.44090939 12.12229241
Sc 1.63373992 0.97178703 14.57433379
Sc -0.13397838 3.76751230 14.72084821
Sc -1.56304453 6.61349341 14.74671250
Sc -3.20318222 9.49060361 14.73480001
Sc 4.98602708 1.00504003 14.66831098
Sc 3.37727113 3.77129289 14.62843703
Sc 1.59303366 6.57691291 14.75797063
Sc 0.04223253 9.66133660 14.61917675
Sc 8.16972531 0.99146854 14.66368532
Sc 6.50441125 3.87957670 14.69218926
Sc 4.84985954 6.65441153 14.77652206
Sc 3.31151374 9.54158548 14.66629984
Sc 11.47070241 0.89325335 14.69715802
Sc 9.82113718 3.65562476 14.64155650
Sc 8.29343533 6.57980322 14.64371789
Sc 6.57371458 9.48735156 14.66171217
F -0.19229372 1.89351232 15.93630827
F -1.79924966 4.75224713 15.83115716
F -3.38263098 7.58532884 15.93532823
F -4.73846315 10.42499270 15.85064911
F 3.44668162 1.83030353 15.67252588
F 1.65952731 4.55385182 15.76628372
F 0.10774876 7.51151662 16.02343914
F -1.54743099 10.26050001 15.85777480
F 6.55039981 1.89538285 15.84635335
F 5.10142254 4.78255061 15.86413299
F 3.12095047 7.57113856 15.89762615
F 1.64310865 10.39453077 15.74119766
F 9.68557498 1.81106491 15.99645012
F 7.99136738 4.87576739 15.81459714
F 6.72850323 7.60664693 15.90726539
F 5.11719675 10.51029682 15.89174545
F 1.62514038 0.78408426 11.01373847
F -0.02555764 4.02449776 10.89986222
F -1.56938714 6.59643826 10.96921304
F -3.41618842 9.30379234 10.89705883
F 4.76809993 0.91598000 10.92193443
F 3.33970725 3.87885403 10.89609109
F 1.75698422 6.63810851 10.92884475
F -0.00882187 9.46585829 11.10216619
F 8.17381291 0.89151125 10.97276325
F 6.37677827 3.71076293 11.02108321
F 4.81358510 6.76392868 10.87431121
F 3.27633426 9.49460909 10.96199435
F 11.45052187 1.09771901 11.14308818
F 9.70788582 3.81923614 10.96439924
F 8.16403940 6.73433266 11.10809286
F 6.46878593 9.56568463 10.89415678
C -6.48178390 11.33317424 13.38603516
C 11.44063791 2.82387949 13.44268799
C 9.81554019 5.61889925 13.38387322
C -4.80675497 8.52754425 13.33323150
C -3.23522003 11.34774141 13.41322734
C 1.61305633 2.96833652 13.29459038
C -0.02047719 5.70331435 13.55295565
C -1.55906076 8.51662357 13.45828248
C 6.58371041 0.03473242 13.29935619
C 4.89968889 2.77756783 13.39867615
C 3.28850451 5.67877205 13.47786981
C 1.69492665 8.51074983 13.33181240
C 9.74082462 0.01694172 13.44922655
C 8.17370969 2.85352531 13.46303921
C 6.39870300 5.71726381 13.43515849
C 4.91031856 8.53447813 13.44302675
80
Time=400000.00000008 pbc="T T F" Lattice="13.12862340 0.00000000 0.00000000 -6.56431170 11.36972138 0.00000000 0.00000000 0.00000000 26.82809424" energy=-596.26134300 virial="10.83779003 1.59173359 -0.60982849 1.59173359 12.80470767 -6.73925310 -0.60982849 -6.73925310 2.58004098" stress="0.00339493 0.00039748 -0.00015228 0.00039748 0.00388610 -0.00168288 -0.00015228 -0.00168288 0.00133287" Properties=species:S:1:pos:R:3
Sc 0.04684408 1.95558076 12.20506018
Sc -1.72254516 4.80188245 12.24014560
Sc -3.33606762 7.58980509 12.10142997
Sc -4.92278993 10.42812669 12.03802792
Sc 3.10452542 1.94105599 12.25754277
Sc 1.60645140 4.64135686 12.16653588
Sc -0.03496010 7.63264389 12.10745112
Sc -1.66809874 10.34115262 12.10159268
Sc 6.50667558 1.79993777 12.05044849
Sc 4.98019712 4.72989383 12.15170284
Sc 3.26917729 7.55534074 12.09097534
Sc 1.59281667 10.41802354 12.07568126
Sc 9.97323856 1.90428340 12.22092617
Sc 8.24891422 4.74566131 12.05496833
Sc 6.56526921 7.59799129 12.11481415
Sc 4.92253769 10.50039132 12.29899098
Sc 1.61462322 1.01120192 14.83353621
Sc -0.12833369 3.89469593 14.82396948
Sc -1.68439865 6.71764787 14.71654833
Sc -3.28816111 9.53604101 14.59068777
Sc 5.01456274 0.97246665 14.63275568
Sc 3.40812183 3.86128946 14.75801730
Sc 1.69552813 6.58636025 14.59021531
Sc 0.01397452 9.33491674 14.57023222
Sc 8.28853253 0.99982082 14.62651472
Sc 6.66651245 3.73886830 14.70405180
Sc 4.99139658 6.62984771 14.63610324
Sc 3.28532885 9.42148054 14.66014144
Sc 11.45583408 0.95644850 14.74510860
Sc 9.79089721 3.83230005 14.64447035
Sc 8.17395691 6.62370718 14.79292638
Sc 6.61297535 9.46044521 14.77232495
F 0.27451676 2.18164320 15.94697327
F -1.88223367 4.94774915 15.80854982
F -3.21117453 7.52884790 15.85876363
F -4.78392106 10.49377740 15.80721231
F 3.15601615 1.77614014 15.89153236
F 1.58230187 4.63100558 15.92301550
F 0.00176107 7.39303887 15.86972811
F -1.63675320 10.32609387 15.65605783
F 6.68289080 1.85496818 15.78529300
F 5.02635461 5.00625781 15.87203036
F 3.00909690 7.69289990 15.67881457
F 1.64202953 10.55531020 15.74091315
F 9.77173630 1.90537730 15.85045092
F 8.21303134 4.67984218 15.81129604
F 6.56038127 7.60465608 15.85799221
F 4.84566315 10.36159134 15.87036005
F 1.50923595 1.21636530 10.92957408
F -0.05034070 3.85989326 11.04164380
F -1.70900036 6.54827292 10.97468098
F -3.33317352 9.45312713 10.96110965
F 5.28247148 0.78182982 10.76271406
F 3.31220809 3.56916918 11.00636864
F 1.71153557 6.59352422 11.06515287
F -0.09775984 9.37878315 10.96785045
F 8.13106709 0.74957430 10.93794216
F 6.56532928 3.74709666 11.11618167
F 4.90735930 6.63665024 10.97766124
F 3.30144836 9.47987118 11.04295309
F 11.62164876 0.78285946 10.90472999
F 9.94400617 3.66509016 11.00733881
F 8.27154129 6.58528085 10.97540327
F 6.48587110 9.44758290 10.98615084
C 6.58208477 11.30175572 13.43446733
C 11.49399935 2.79168038 13.50950416
C 9.77395406 5.68172581 13.39851659
C 8.16670807 8.49660059 13.43743723
C 3.19945253 0.05191517 13.30935015
C 1.62117979 2.81299471 13.56447536
C -0.08334747 5.65458807 13.47300252
C -1.65991738 8.55648654 13.39205767
C 6.52533056 0.02358644 13.31987139
C 4.91026615 2.88463369 13.49864032
C 3.32889174 5.63379822 13.40192378
C 1.66978684 8.45632003 13.34640121
C 9.90839086 0.03759011 13.53585571
C 8.20560793 2.88544488 13.37762196
C 6.61102011 5.65275319 13.27499478
C 4.90771549 8.51011501 13.45929628
80
Time=450000.00000155 pbc="T T F" Lattice="13.12862340 0.00000000 0.00000000 -6.56431170 11.36972138 0.00000000 0.00000000 0.00000000 26.82809424" energy=-597.00652313 virial="10.64766936 -0.73969503 -8.02417184 -0.73969503 7.59483110 1.65971188 -8.02417184 1.65971188 -5.73765611" stress="0.00334746 -0.00018471 -0.00200374 -0.00018471 0.00258512 0.00041445 -0.00200374 0.00041445 -0.00074417" Properties=species:S:1:pos:R:3
Sc 0.02393059 1.96575276 12.10238239
Sc -1.56890695 4.83257798 12.23232902
Sc -3.32134607 7.54150565 12.06485870
Sc -5.02854647 10.38780725 12.03004894
Sc 3.20766162 1.86660308 12.00863124
Sc 1.61988156 4.72449156 12.19195400
Sc -0.03369259 7.53622653 12.07486202
Sc -1.82682776 10.44886780 12.09328054
Sc 6.69027583 1.87790452 12.09567118
Sc 4.94882537 4.74613079 12.13820349
Sc 3.20952597 7.52931844 12.10821510
Sc 1.70418606 10.38591383 12.09368372
Sc 9.89474041 1.87551974 12.29588328
Sc 8.13010312 4.73704219 12.14851832
Sc 6.44236856 7.61061005 12.16636262
Sc 4.81329543 10.48290729 12.18660323
Sc 1.64130467 0.90133447 14.56582318
Sc 0.07068437 3.79251621 14.67325111
Sc -1.60321242 6.74041834 14.70106390
Sc -3.38576844 9.45889030 14.68695738
Sc 5.00200601 1.02269789 14.57303692
Sc 3.32634970 3.78035825 14.77215918
Sc 1.72068175 6.62846143 14.63116501
Sc -0.03194668 9.46310870 14.68001347
Sc 8.13792407 0.98961071 14.74040899
Sc 6.54569912 3.80436063 14.68631540
Sc 4.93708351 6.63100686 14.73030854
Sc 3.17661140 9.57327525 14.69044475
Sc 11.62844355 0.94936223 14.73341596
Sc 9.90194747 3.80756632 14.84184235
Sc 8.30885401 6.51684387 14.75358001
Sc 6.52994927 9.50186884 14.71979412
F 0.26737534 1.77387542 15.78349501
F -1.59957943 4.93186946 15.84727994
F -3.32436354 7.48189026 15.82208554
F -4.93743573 10.38739273 15.89298054
F 3.42664168 1.93362997 15.91922323
F 1.63037979 4.57768975 15.91041642
F 0.12542727 7.68086449 15.74041198
F -1.82801264 10.34849108 15.83678501
F 6.56625801 1.86941361 15.87390231
F 4.79159903 4.79077710 15.82674349
F 3.33151366 7.55659963 15.84188165
F 1.64942898 10.45843807 15.76563526
F 10.06541442 1.95890671 15.99166314
F 8.25921065 4.56244550 15.87814456
F 6.54491881 7.65526082 15.92913215
F 4.93120771 10.45032176 15.74783818
F 1.71822071 0.96408441 10.88146012
F -0.05658589 3.88754974 11.00646207
F -1.60813051 6.51390885 11.04120705
F -3.36628720 9.48356273 10.96138307
F 4.97339051 0.93168172 10.95178690
F 3.20498432 3.89478942 10.96732337
F 1.51638447 6.62731541 10.87487879
F 0.01620073 9.33690604 10.94184882
F 8.16360796 0.93789787 11.01716903
F 6.60939127 3.78545051 11.08263418
F 4.86207944 6.68463745 10.99741927
F 3.19945105 9.47933752 11.00268597
F 11.50028914 0.95894832 11.02886687
F 9.87045108 3.93199545 11.18705985
F 8.20705612 6.64314063 11.11723745
F 6.63971613 9.34095473 10.77595969
C 6.59156444 11.29677075 13.33524542
C -1.59320957 2.77818857 13.44828335
C -3.24472792 5.71935852 13.45782662
C 8.21702964 8.50112947 13.35095103
C -3.37965437 11.36895354 13.33214945
C 1.62398118 2.76920036 13.33151401