 vasp.5.4.4.18Apr17-6-g9f103f2a35 (build Oct 31 2019 15:01:46) complex          
  
 executed on             LinuxIFC date 2024.04.29  12:53:23
 running on   52 total cores
 distrk:  each k-point on   52 cores,    1 groups
 distr:  one band on NCORES_PER_BAND=  13 cores,    4 groups


--------------------------------------------------------------------------------------------------------


 INCAR:
 POTCAR:    PAW_PBE Ca_sv 06Sep2000               
 POTCAR:    PAW_PBE Si 05Jan2001                  
 POTCAR:    PAW_PBE O 08Apr2002                   
 POTCAR:    PAW_PBE Ca_sv 06Sep2000               
   SHA256 =  a47365830e737f14e0e6c5cf1ed81b94e081eecf0a33df105380881bc9da05d5 Ca
   COPYR  = (c) Copyright 06Sep2000 Georg Kresse                                
   COPYR  = This file is part of the software VASP. Any use, copying, and all ot
   COPYR  = If you do not have a valid VASP license, you may not use, copy or di
   VRHFIN =Ca: 3s3p4s                                                           
   LEXCH  = PE                                                                  
   EATOM  =  1006.0909 eV,   73.9456 Ry                                         
                                                                                
   TITEL  = PAW_PBE Ca_sv 06Sep2000                                             
   LULTRA =        F    use ultrasoft PP ?                                      
   IUNSCR =        1    unscreen: 0-lin 1-nonlin 2-no                           
   RPACOR =    2.000    partial core radius                                     
   POMASS =   40.078; ZVAL   =   10.000    mass and valenz                      
   RCORE  =    2.300    outmost cutoff radius                                   
   RWIGS  =    2.500; RWIGS  =    1.323    wigner-seitz radius (au A)           
   ENMAX  =  266.622; ENMIN  =  199.967 eV                                      
   RCLOC  =    1.808    cutoff for local pot                                    
   LCOR   =        T    correct aug charges                                     
   LPAW   =        T    paw PP                                                  
   EAUG   =  420.852                                                            
   RMAX   =    2.359    core radius for proj-oper                               
   RAUG   =    1.300    factor for augmentation sphere                          
   RDEP   =    2.392    radius for radial grids                                 
   RDEPT  =    1.987    core radius for aug-charge                              
                                                                                
   Atomic configuration                                                         
    7 entries                                                                   
     n  l   j            E        occ.                                          
     1  0  0.50     -3949.1705   2.0000                                         
     2  0  0.50      -414.3434   2.0000                                         
     2  1  1.50      -334.7047   6.0000                                         
     3  0  0.50       -47.0896   2.0000                                         
     4  0  0.50        -3.7663   2.0000                                         
     3  1  1.50       -28.0061   6.0000                                         
     3  2  1.50        -4.0817   0.0000                                         
   Description                                                                  
     l       E           TYP  RCUT    TYP  RCUT                                 
     0    -47.0896403     23  2.300                                             
     0     -3.7663320     23  2.300                                             
     1    -28.0060855     23  2.300                                             
     1      6.8029130     23  2.300                                             
     2     -4.0817478     23  2.300                                             
     2      0.4464412     23  2.300                                             
  local pseudopotential read in
  partial core-charges read in
  partial kinetic energy density read in
  atomic valenz-charges read in
  non local Contribution for L=           0  read in
    real space projection operators read in
  non local Contribution for L=           0  read in
    real space projection operators read in
  non local Contribution for L=           1  read in
    real space projection operators read in
  non local Contribution for L=           1  read in
    real space projection operators read in
  non local Contribution for L=           2  read in
    real space projection operators read in
  non local Contribution for L=           2  read in
    real space projection operators read in
    PAW grid and wavefunctions read in
 
   number of l-projection  operators is LMAX  =           6
   number of lm-projection operators is LMMAX =          18
 
 POTCAR:    PAW_PBE Si 05Jan2001                  
   SHA256 =  79d9987ad8750f624c4d6acb2a16d13abf6a777132adc04dc6c8399be72b42bb Si
   COPYR  = (c) Copyright 05Jan2001 Georg Kresse                                
   COPYR  = This file is part of the software VASP. Any use, copying, and all ot
   COPYR  = If you do not have a valid VASP license, you may not use, copy or di
   VRHFIN =Si: s2p2                                                             
   LEXCH  = PE                                                                  
   EATOM  =   103.0669 eV,    7.5752 Ry                                         
                                                                                
   TITEL  = PAW_PBE Si 05Jan2001                                                
   LULTRA =        F    use ultrasoft PP ?                                      
   IUNSCR =        1    unscreen: 0-lin 1-nonlin 2-no                           
   RPACOR =    1.500    partial core radius                                     
   POMASS =   28.085; ZVAL   =    4.000    mass and valenz                      
   RCORE  =    1.900    outmost cutoff radius                                   
   RWIGS  =    2.480; RWIGS  =    1.312    wigner-seitz radius (au A)           
   ENMAX  =  245.345; ENMIN  =  184.009 eV                                      
   ICORE  =        2    local potential                                         
   LCOR   =        T    correct aug charges                                     
   LPAW   =        T    paw PP                                                  
   EAUG   =  322.069                                                            
   DEXC   =    0.000                                                            
   RMAX   =    1.950    core radius for proj-oper                               
   RAUG   =    1.300    factor for augmentation sphere                          
   RDEP   =    1.993    radius for radial grids                                 
   RDEPT  =    1.837    core radius for aug-charge                              
                                                                                
   Atomic configuration                                                         
    6 entries                                                                   
     n  l   j            E        occ.                                          
     1  0  0.50     -1785.8828   2.0000                                         
     2  0  0.50      -139.4969   2.0000                                         
     2  1  1.50       -95.5546   6.0000                                         
     3  0  0.50       -10.8127   2.0000                                         
     3  1  0.50        -4.0811   2.0000                                         
     3  2  1.50        -4.0817   0.0000                                         
   Description                                                                  
     l       E           TYP  RCUT    TYP  RCUT                                 
     0    -10.8127223     23  1.900                                             
     0     -7.6451159     23  1.900                                             
     1     -4.0811372     23  1.900                                             
     1      2.4879257     23  1.900                                             
     2     -4.0817478      7  1.900                                             
  local pseudopotential read in
  partial core-charges read in
  partial kinetic energy density read in
  atomic valenz-charges read in
  non local Contribution for L=           0  read in
    real space projection operators read in
  non local Contribution for L=           0  read in
    real space projection operators read in
  non local Contribution for L=           1  read in
    real space projection operators read in
  non local Contribution for L=           1  read in
    real space projection operators read in
    PAW grid and wavefunctions read in
 
   number of l-projection  operators is LMAX  =           4
   number of lm-projection operators is LMMAX =           8
 
 POTCAR:    PAW_PBE O 08Apr2002                   
   SHA256 =  818f92134a0a090dccd8ba1447fa70422a3b330e708bb4f08108d8ae51209ddf O/
   COPYR  = (c) Copyright 08Apr2002 Georg Kresse                                
   COPYR  = This file is part of the software VASP. Any use, copying, and all ot
   COPYR  = If you do not have a valid VASP license, you may not use, copy or di
   VRHFIN =O: s2p4                                                              
   LEXCH  = PE                                                                  
   EATOM  =   432.3788 eV,   31.7789 Ry                                         
                                                                                
   TITEL  = PAW_PBE O 08Apr2002                                                 
   LULTRA =        F    use ultrasoft PP ?                                      
   IUNSCR =        1    unscreen: 0-lin 1-nonlin 2-no                           
   RPACOR =    1.200    partial core radius                                     
   POMASS =   16.000; ZVAL   =    6.000    mass and valenz                      
   RCORE  =    1.520    outmost cutoff radius                                   
   RWIGS  =    1.550; RWIGS  =    0.820    wigner-seitz radius (au A)           
   ENMAX  =  400.000; ENMIN  =  300.000 eV                                      
   ICORE  =        2    local potential                                         
   LCOR   =        T    correct aug charges                                     
   LPAW   =        T    paw PP                                                  
   EAUG   =  605.392                                                            
   DEXC   =    0.000                                                            
   RMAX   =    1.553    core radius for proj-oper                               
   RAUG   =    1.300    factor for augmentation sphere                          
   RDEP   =    1.550    radius for radial grids                                 
   RDEPT  =    1.329    core radius for aug-charge                              
                                                                                
   Atomic configuration                                                         
    4 entries                                                                   
     n  l   j            E        occ.                                          
     1  0  0.50      -514.6923   2.0000                                         
     2  0  0.50       -23.9615   2.0000                                         
     2  1  0.50        -9.0305   4.0000                                         
     3  2  1.50        -9.5241   0.0000                                         
   Description                                                                  
     l       E           TYP  RCUT    TYP  RCUT                                 
     0    -23.9615318     23  1.200                                             
     0     -9.5240782     23  1.200                                             
     1     -9.0304911     23  1.520                                             
     1      8.1634956     23  1.520                                             
     2     -9.5240782      7  1.500                                             
  local pseudopotential read in
  partial core-charges read in
  partial kinetic energy density read in
  kinetic energy density of atom read in
  atomic valenz-charges read in
  non local Contribution for L=           0  read in
    real space projection operators read in
  non local Contribution for L=           0  read in
    real space projection operators read in
  non local Contribution for L=           1  read in
    real space projection operators read in
  non local Contribution for L=           1  read in
    real space projection operators read in
    PAW grid and wavefunctions read in
 
   number of l-projection  operators is LMAX  =           4
   number of lm-projection operators is LMMAX =           8
 
 Optimization of the real space projectors (new method)

 maximal supplied QI-value         = 16.25
 optimisation between [QCUT,QGAM] = [ 12.51, 25.03] = [ 43.85,175.40] Ry 
 Optimized for a Real-space Cutoff    1.47 Angstroem

   l    n(q)    QCUT    max X(q) W(low)/X(q) W(high)/X(q)  e(spline) 
   0     11    12.514    11.817    0.25E-04    0.32E-05    0.87E-07
   0     11    12.514     8.461    0.39E-04    0.59E-05    0.18E-06
   1     11    12.514     3.957    0.97E-05    0.57E-05    0.28E-07
   1     11    12.514     4.314    0.42E-04    0.14E-04    0.23E-06
   2     10    12.514    14.565    0.79E-04    0.50E-03    0.16E-05
   2     10    12.514    14.552    0.75E-04    0.48E-03    0.15E-05
 Optimization of the real space projectors (new method)

 maximal supplied QI-value         = 19.84
 optimisation between [QCUT,QGAM] = [ 12.50, 25.00] = [ 43.76,175.03] Ry 
 Optimized for a Real-space Cutoff    1.16 Angstroem

   l    n(q)    QCUT    max X(q) W(low)/X(q) W(high)/X(q)  e(spline) 
   0      9    12.501   159.560    0.10E-03    0.83E-04    0.71E-07
   0      9    12.501   115.863    0.99E-04    0.81E-04    0.70E-07
   1      8    12.501    88.339    0.20E-03    0.25E-03    0.76E-07
   1      8    12.501    48.592    0.20E-03    0.24E-03    0.75E-07
 Optimization of the real space projectors (new method)

 maximal supplied QI-value         = 24.76
 optimisation between [QCUT,QGAM] = [ 12.38, 25.00] = [ 42.90,175.06] Ry 
 Optimized for a Real-space Cutoff    1.16 Angstroem

   l    n(q)    QCUT    max X(q) W(low)/X(q) W(high)/X(q)  e(spline) 
   0      9    12.378    20.381    0.16E-03    0.67E-05    0.31E-06
   0      9    12.378    15.268    0.17E-03    0.81E-05    0.33E-06
   1      8    12.378     5.964    0.20E-03    0.16E-03    0.30E-06
   1      8    12.378     5.382    0.18E-03    0.14E-03    0.26E-06
  PAW_PBE Ca_sv 06Sep2000               :
 energy of atom  1       EATOM=-1006.0909
 kinetic energy error for atom=    0.0012 (will be added to EATOM!!)
  PAW_PBE Si 05Jan2001                  :
 energy of atom  2       EATOM= -103.0669
 kinetic energy error for atom=    0.0003 (will be added to EATOM!!)
  PAW_PBE O 08Apr2002                   :
 energy of atom  3       EATOM= -432.3788
 kinetic energy error for atom=    0.0168 (will be added to EATOM!!)
 
 
 POSCAR: Ca Si  O                                
  positions in direct lattice
  No initial velocities read in
 exchange correlation table for  LEXCH =        8
   RHO(1)=    0.500       N(1)  =     2000
   RHO(2)=  100.500       N(2)  =     4000
 


--------------------------------------------------------------------------------------------------------


 ion  position               nearest neighbor table
   1  0.701  0.591  0.034-  92 2.11  84 2.43  57 2.47
   2  0.179  0.051  0.833-  98 1.99  88 2.29  64 2.43 128 2.43 115 2.44  46 2.78  36 3.07
   3  0.121  0.043  0.110- 102 2.03 131 2.34 109 2.37
   4  0.825  0.310  0.926- 101 2.37 130 2.39  68 2.52
   5  0.210  0.058  0.550-  74 2.00  64 2.06  56 2.38  77 2.51  48 2.99  41 3.02  42 3.04
   6  0.869  0.792  0.726-  94 2.05 120 2.11 125 2.15  55 2.51  35 2.98  49 3.12  29 3.14
   7  0.626  0.724  0.569- 127 2.18  69 2.25
   8  0.500  0.027  0.504-  87 1.91  89 2.07  76 2.18  85 2.46
   9  0.745  0.124  0.702- 114 1.94  81 2.05  70 2.16 107 2.53  76 2.56  44 2.71  31 3.02
  10  0.859  0.247  0.201- 110 2.24  95 2.57  53 3.09
  11  0.214  0.338  0.061-  93 1.96  59 2.18  83 2.30  88 2.49  67 2.52  25 2.72  46 2.79
  12  0.534  0.483  0.384-  91 2.14 134 2.29  72 2.30 121 2.45  37 3.14
  13  0.238  0.553  0.417-  75 2.28 113 2.38 111 2.44  37 2.89
  14  0.995  0.445  0.810- 124 2.32 104 2.41 118 2.43
  15  0.423  0.929  0.136-  78 1.87 102 2.45  40 2.65  27 3.15
  16  0.286  0.389  0.711- 126 2.12 100 2.27
  17  0.394  0.656  0.215-  72 2.30  66 2.39  78 2.56
  18  0.967  0.846  0.032- 131 2.01 128 2.36  55 2.49 133 2.54  30 2.61  39 3.04
  19  0.848  0.612  0.308-  92 2.45  33 3.08
  20  0.430  0.904  0.796-  97 2.28 132 2.47  49 2.91
  21  0.449  0.676  0.890- 132 1.96  79 2.18  57 2.28
  22  0.772  0.473  0.656- 107 2.14 123 2.21  68 2.29  44 3.08  45 3.09
  23  0.551  0.289  0.641- 119 2.02 117 2.30
  24  0.636  0.080  0.939-  73 2.06  86 2.17 101 2.29  53 2.74  38 3.13
  25  0.231  0.526  0.969-  83 2.01  93 2.31  11 2.72
  26  0.105  0.305  0.332-  95 1.90  59 2.24 113 2.33  37 3.05
  27  0.492  0.144  0.225-  82 2.09  85 2.17  80 2.35  40 3.14  15 3.15
  28  0.755  0.383  0.417- 123 1.51  91 1.54  61 1.88 103 1.89
  29  0.076  0.696  0.810- 125 1.43 118 1.57 122 1.65  99 2.03  35 3.14   6 3.14
  30  0.906  0.986  0.900-  55 1.47 128 1.73  81 1.80 133 1.80  18 2.61  53 3.10
  31  0.759  0.135  0.469-  61 1.57  76 1.65  70 1.71  71 1.77  43 2.96   9 3.02
  32  0.992  0.490  0.487- 108 1.42 113 1.46 103 1.68  60 1.89  35 2.54
  33  0.634  0.700  0.253- 121 1.49  66 1.63  92 1.69  96 2.31  19 3.08
  34  0.282  0.865  0.340- 106 1.43  78 1.74  63 1.81  65 1.88  41 2.92
  35  0.996  0.661  0.584-  99 1.63  94 1.70 108 1.75  60 1.81  32 2.54   6 2.98  29 3.14
  36  0.378  0.146  0.745-  64 1.56 126 1.58 117 1.76 115 2.29   2 3.07
  37  0.328  0.379  0.310-  59 1.63  72 1.71 111 1.73  80 1.92  48 2.71  13 2.89  26 3.05  12 3.14

  38  0.498  0.273  0.986-  86 1.68  82 1.75 105 1.84 135 1.98  51 2.56  40 3.07  24 3.13
  39  0.029  0.859  0.259- 131 1.67  90 1.69  63 1.75  58 1.80  42 2.55  50 2.89  18 3.04
  40  0.354  0.091  0.032- 105 1.60 115 1.68 102 1.75  88 2.49  15 2.65  38 3.07  27 3.14
  41  0.306  0.846  0.563-  65 1.63 112 1.69  89 1.70  77 2.10  34 2.92   5 3.02
  42  0.048  0.925  0.444-  56 1.60  90 1.67  77 1.89  63 2.16  39 2.55   5 3.04
  43  0.688  0.995  0.302-  96 1.61  71 1.73  85 1.80 110 2.07  31 2.96  53 3.03
  44  0.885  0.264  0.635-  70 1.54 124 1.71 107 1.74   9 2.71  22 3.08
  45  0.610  0.478  0.832- 119 1.76  57 1.77 135 1.77  68 1.78  51 3.06  22 3.09
  46  0.106  0.242  0.900-  98 1.56  88 1.63  93 1.82 130 2.11   2 2.78  11 2.79
  47  0.394  0.611  0.608- 134 1.55 100 1.60  69 1.65 112 1.80
  48  0.340  0.220  0.447-  74 1.46  80 1.62  87 1.62 111 2.08  37 2.71   5 2.99
  49  0.654  0.878  0.792- 120 1.64  97 1.71 114 1.71 127 1.99  20 2.91   6 3.12
  50  0.105  0.657  0.201-  62 1.55  75 1.86 116 1.91  58 1.93  39 2.89
  51  0.484  0.466  0.031- 129 1.45  79 1.57 135 1.69  83 1.87  38 2.56  45 3.06
  52  0.251  0.800  0.978- 132 1.47 109 1.64 122 1.90 116 2.18
  53  0.778  0.050  0.093- 133 1.47  73 1.66 110 1.69 101 1.75  24 2.74  43 3.03  10 3.09  30 3.10

  54  0.961  0.453  0.096- 104 1.47  67 1.64  84 1.89  62 2.37
  55  0.844  0.891  0.891-  30 1.47  18 2.49   6 2.51
  56  0.061  0.048  0.444-  42 1.60   5 2.38
  57  0.611  0.610  0.867-  45 1.77  21 2.28   1 2.47
  58  0.981  0.741  0.202-  39 1.80  50 1.93
  59  0.238  0.343  0.228-  37 1.63  11 2.18  26 2.24
  60  0.033  0.627  0.453-  35 1.81  32 1.89
  61  0.759  0.238  0.405-  31 1.57  28 1.88
  62  0.074  0.541  0.210-  50 1.55  54 2.37
  63  0.148  0.896  0.312-  39 1.75  34 1.81  42 2.16
  64  0.287  0.094  0.685-  36 1.56   5 2.06   2 2.43
  65  0.319  0.784  0.454-  41 1.63  34 1.88
  66  0.544  0.760  0.188-  33 1.63  17 2.39
  67  0.025  0.344  0.109-  54 1.64  11 2.52
  68  0.747  0.461  0.830-  45 1.78  22 2.29   4 2.52
  69  0.515  0.614  0.646-  47 1.65   7 2.25
  70  0.831  0.180  0.570-  44 1.54  31 1.71   9 2.16
  71  0.791  0.049  0.368-  43 1.73  31 1.77
  72  0.393  0.488  0.275-  37 1.71  12 2.30  17 2.30
  73  0.653  0.024  0.087-  53 1.66  24 2.06
  74  0.241  0.201  0.498-  48 1.46   5 2.00
  75  0.208  0.679  0.298-  50 1.86  13 2.28
  76  0.657  0.085  0.529-  31 1.65   8 2.18   9 2.56
  77  0.148  0.875  0.538-  42 1.89  41 2.10   5 2.51
  78  0.339  0.846  0.220-  34 1.74  15 1.87  17 2.56
  79  0.451  0.582  0.031-  51 1.57  21 2.18
  80  0.389  0.246  0.334-  48 1.62  37 1.92  27 2.35
  81  0.854  0.075  0.807-  30 1.80   9 2.05
  82  0.553  0.198  0.085-  38 1.75  27 2.09
  83  0.350  0.428  0.991-  51 1.87  25 2.01  11 2.30
  84  0.823  0.486  0.131-  54 1.89   1 2.43
  85  0.591  0.084  0.347-  43 1.80  27 2.17   8 2.46
  86  0.568  0.225  0.888-  38 1.68  24 2.17
  87  0.425  0.154  0.512-  48 1.62   8 1.91
  88  0.201  0.179  0.954-  46 1.63   2 2.29  11 2.49  40 2.49
  89  0.386  0.948  0.582-  41 1.70   8 2.07
  90  0.956  0.881  0.365-  42 1.67  39 1.69
  91  0.676  0.414  0.334-  28 1.54  12 2.14
  92  0.732  0.673  0.171-  33 1.69   1 2.11  19 2.45
  93  0.152  0.372  0.927-  46 1.82  11 1.96  25 2.31
  94  0.874  0.709  0.590-  35 1.70   6 2.05
  95  0.007  0.195  0.323-  26 1.90  10 2.57
  96  0.668  0.872  0.286-  43 1.61  33 2.31
  97  0.570  0.856  0.892-  49 1.71  20 2.28
  98  0.110  0.184  0.795-  46 1.56   2 1.99
  99  0.074  0.728  0.657-  35 1.63  29 2.03
 100  0.311  0.561  0.684-  47 1.60  16 2.27
 101  0.770  0.163  0.020-  53 1.75  24 2.29   4 2.37
 102  0.276  0.049  0.133-  40 1.75   3 2.03  15 2.45
 103  0.894  0.424  0.433-  32 1.68  28 1.89
 104  0.972  0.492  0.989-  54 1.47  14 2.41
 105  0.372  0.210  0.003-  40 1.60  38 1.84
 106  0.326  0.958  0.381-  34 1.43
 107  0.782  0.316  0.706-  44 1.74  22 2.14   9 2.53
 108  0.991  0.526  0.590-  32 1.42  35 1.75
 109  0.198  0.910  0.011-  52 1.64   3 2.37
 110  0.774  0.097  0.215-  53 1.69  43 2.07  10 2.24
 111  0.296  0.375  0.439-  37 1.73  48 2.08  13 2.44
 112  0.344  0.740  0.630-  41 1.69  47 1.80
 113  0.084  0.453  0.432-  32 1.46  26 2.33  13 2.38
 114  0.698  0.983  0.725-  49 1.71   9 1.94
 115  0.354  0.070  0.903-  40 1.68  36 2.29   2 2.44
 116  0.160  0.691  0.068-  50 1.91  52 2.18
 117  0.501  0.126  0.691-  36 1.76  23 2.30
 118  0.122  0.584  0.810-  29 1.57  14 2.43
 119  0.543  0.416  0.731-  45 1.76  23 2.02
 120  0.737  0.787  0.821-  49 1.64   6 2.11
 121  0.587  0.662  0.351-  33 1.49  12 2.45
 122  0.142  0.779  0.881-  29 1.65  52 1.90
 123  0.698  0.406  0.517-  28 1.51  22 2.21
 124  0.996  0.317  0.685-  44 1.71  14 2.32
 125  0.969  0.710  0.831-  29 1.43   6 2.15
 126  0.372  0.265  0.774-  36 1.58  16 2.12
 127  0.597  0.869  0.649-  49 1.99   7 2.18
 128  0.035  0.985  0.934-  30 1.73  18 2.36   2 2.43
 129  0.549  0.454  0.122-  51 1.45
 130  0.969  0.208  0.981-  46 2.11   4 2.39
 131  0.987  0.932  0.160-  39 1.67  18 2.01   3 2.34
 132  0.345  0.783  0.917-  52 1.47  21 1.96  20 2.47
 133  0.867  0.015  0.031-  53 1.47  30 1.80  18 2.54
 134  0.435  0.569  0.504-  47 1.55  12 2.29
 135  0.550  0.408  0.934-  51 1.69  45 1.77  38 1.98
 

IMPORTANT INFORMATION: All symmetrisations will be switched off!
NOSYMM: (Re-)initialisation of all symmetry stuff for point group C_1.

 
 

Automatic generation of k-mesh.
 generate k-points for:    2    2    2
Space group operators:
 irot       det(A)        alpha          n_x          n_y          n_z        tau_x        tau_y        tau_z
    1     1.000000     0.000000     1.000000     0.000000     0.000000     0.000000     0.000000     0.000000
 
 Subroutine IBZKPT returns following result:
 ===========================================
 
 Found      8 irreducible k-points:
 
 Following reciprocal coordinates:
            Coordinates               Weight
  0.000000  0.000000  0.000000      1.000000
  0.500000  0.000000  0.000000      1.000000
  0.000000  0.500000  0.000000      1.000000
  0.500000  0.500000  0.000000      1.000000
  0.000000  0.000000  0.500000      1.000000
  0.500000  0.000000  0.500000      1.000000
  0.000000  0.500000  0.500000      1.000000
  0.500000  0.500000  0.500000      1.000000
 
 Following cartesian coordinates:
            Coordinates               Weight
  0.000000  0.000000  0.000000      1.000000
  0.038669  0.000000  0.000000      1.000000
  0.000000  0.038669  0.000000      1.000000
  0.038669  0.038669  0.000000      1.000000
  0.000000  0.000000  0.038669      1.000000
  0.038669  0.000000  0.038669      1.000000
  0.000000  0.038669  0.038669      1.000000
  0.038669  0.038669  0.038669      1.000000
 


--------------------------------------------------------------------------------------------------------




 Dimension of arrays:
   k-points           NKPTS =      8   k-points in BZ     NKDIM =      8   number of bands    NBANDS=    520
   number of dos      NEDOS =    301   number of ions     NIONS =    135
   non local maximal  LDIM  =      6   non local SUM 2l+1 LMDIM =     18
   total plane-waves  NPLWV = ******
   max r-space proj   IRMAX =   7814   max aug-charges    IRDMAX= 222580
   dimension x,y,z NGX =   108 NGY =  108 NGZ =  108
   dimension x,y,z NGXF=   216 NGYF=  216 NGZF=  216
   support grid    NGXF=   432 NGYF=  432 NGZF=  432
   ions per type =              27  27  81
   NGX,Y,Z   is equivalent  to a cutoff of  13.89, 13.89, 13.89 a.u.
   NGXF,Y,Z  is equivalent  to a cutoff of  27.77, 27.77, 27.77 a.u.

 SYSTEM =  unknown system                          
 POSCAR =  Ca Si  O                                

 Startparameter for this run:
   NWRITE =      2    write-flag & timer
   PREC   = a         normal or accurate (medium, high low for compatibility)
   ISTART =      0    job   : 0-new  1-cont  2-samecut
   ICHARG =      2    charge: 1-file 2-atom 10-const
   ISPIN  =      1    spin polarized calculation?
   LNONCOLLINEAR =      F non collinear calculations
   LSORBIT =      F    spin-orbit coupling
   INIWAV =      1    electr: 0-lowe 1-rand  2-diag
   LASPH  =      F    aspherical Exc in radial PAW
   METAGGA=      F    non-selfconsistent MetaGGA calc.

 Electronic Relaxation 1
   ENCUT  =  600.0 eV  44.10 Ry    6.64 a.u.  25.83 25.83 25.83*2*pi/ulx,y,z
   ENINI  =  600.0     initial cutoff
   ENAUG  =  605.4 eV  augmentation charge cutoff
   NELM   =     60;   NELMIN=  2; NELMDL= -5     # of ELM steps 
   EDIFF  = 0.1E-05   stopping-criterion for ELM
   LREAL  =      T    real-space projection
   NLSPLINE    = F    spline interpolate recip. space projectors
   LCOMPAT=      F    compatible to vasp.4.4
   GGA_COMPAT  = T    GGA compatible to vasp.4.4-vasp.4.6
   LMAXPAW     = -100 max onsite density
   LMAXMIX     =    2 max onsite mixed and CHGCAR
   VOSKOWN=      0    Vosko Wilk Nusair interpolation
   ROPT   =   -0.00025  -0.00025  -0.00025
 Ionic relaxation
   EDIFFG = -.1E-01   stopping-criterion for IOM
   NSW    =      1    number of steps for IOM
   NBLOCK =      1;   KBLOCK =      1    inner block; outer block 
   IBRION =     -1    ionic relax: 0-MD 1-quasi-New 2-CG
   NFREE  =      0    steps in history (QN), initial steepest desc. (CG)
   ISIF   =      2    stress and relaxation
   IWAVPR =     10    prediction:  0-non 1-charg 2-wave 3-comb
   ISYM   =      0    0-nonsym 1-usesym 2-fastsym
   LCORR  =      T    Harris-Foulkes like correction to forces

   POTIM  = 1.0000    time-step for ionic-motion
   TEIN   =    0.0    initial temperature
   TEBEG  =    0.0;   TEEND  =   0.0 temperature during run
   SMASS  =  -3.00    Nose mass-parameter (am)
   estimated Nose-frequenzy (Omega)   =  0.10E-29 period in steps =****** mass=  -0.382E-26a.u.
   SCALEE = 1.0000    scale energy and forces
   NPACO  =    256;   APACO  = 16.0  distance and # of slots for P.C.
   PSTRESS=    0.0 pullay stress

  Mass of Ions in am
   POMASS =  40.08 28.09 16.00
  Ionic Valenz
   ZVAL   =  10.00  4.00  6.00
  Atomic Wigner-Seitz radii
   RWIGS  =  -1.00 -1.00 -1.00
  virtual crystal weights 
   VCA    =   1.00  1.00  1.00
   NELECT =     864.0000    total number of electrons
   NUPDOWN=      -1.0000    fix difference up-down

 DOS related values:
   EMIN   =  10.00;   EMAX   =-10.00  energy-range for DOS
   EFERMI =   0.00
   ISMEAR =     0;   SIGMA  =   0.05  broadening in eV -4-tet -1-fermi 0-gaus

 Electronic relaxation 2 (details)
   IALGO  =     38    algorithm
   LDIAG  =      T    sub-space diagonalisation (order eigenvalues)
   LSUBROT=      F    optimize rotation matrix (better conditioning)
   TURBO    =      0    0=normal 1=particle mesh
   IRESTART =      0    0=no restart 2=restart with 2 vectors
   NREBOOT  =      0    no. of reboots
   NMIN     =      0    reboot dimension
   EREF     =   0.00    reference energy to select bands
   IMIX   =      4    mixing-type and parameters
     AMIX     =   0.40;   BMIX     =  1.00
     AMIX_MAG =   1.60;   BMIX_MAG =  1.00
     AMIN     =   0.10
     WC   =   100.;   INIMIX=   1;  MIXPRE=   1;  MAXMIX= -45

 Intra band minimization:
   WEIMIN = 0.0000     energy-eigenvalue tresh-hold
   EBREAK =  0.48E-09  absolut break condition
   DEPER  =   0.30     relativ break condition  

   TIME   =   0.40     timestep for ELM

  volume/ion in A,a.u.               =      16.01       108.07
  Fermi-wavevector in a.u.,A,eV,Ry     =   1.205870  2.278763 19.784524  1.454122
  Thomas-Fermi vector in A             =   2.341553
 
 Write flags
   LWAVE        =      F    write WAVECAR
   LDOWNSAMPLE  =      F    k-point downsampling of WAVECAR
   LCHARG       =      F    write CHGCAR
   LVTOT        =      F    write LOCPOT, total local potential
   LVHAR        =      F    write LOCPOT, Hartree potential only
   LELF         =      F    write electronic localiz. function (ELF)
   LORBIT       =      0    0 simple, 1 ext, 2 COOP (PROOUT), +10 PAW based schemes


 Dipole corrections
   LMONO  =      F    monopole corrections only (constant potential shift)
   LDIPOL =      F    correct potential (dipole corrections)
   IDIPOL =      0    1-x, 2-y, 3-z, 4-all directions 
   EPSILON=  1.0000000 bulk dielectric constant

 Exchange correlation treatment:
   GGA     =    --    GGA type
   LEXCH   =     8    internal setting for exchange type
   VOSKOWN=      0    Vosko Wilk Nusair interpolation
   LHFCALC =     F    Hartree Fock is set to
   LHFONE  =     F    Hartree Fock one center treatment
   AEXX    =    0.0000 exact exchange contribution

 Linear response parameters
   LEPSILON=     F    determine dielectric tensor
   LRPA    =     F    only Hartree local field effects (RPA)
   LNABLA  =     F    use nabla operator in PAW spheres
   LVEL    =     F    velocity operator in full k-point grid
   LINTERFAST=   F  fast interpolation
   KINTER  =     0    interpolate to denser k-point grid
   CSHIFT  =0.1000    complex shift for real part using Kramers Kronig
   OMEGAMAX=  -1.0    maximum frequency
   DEG_THRESHOLD= 0.2000000E-02 threshold for treating states as degnerate
   RTIME   =   -0.100 relaxation time in fs
  (WPLASMAI=    0.000 imaginary part of plasma frequency in eV, 0.658/RTIME)
   DFIELD  = 0.0000000 0.0000000 0.0000000 field for delta impulse in time
 
 Orbital magnetization related:
   ORBITALMAG=     F  switch on orbital magnetization
   LCHIMAG   =     F  perturbation theory with respect to B field
   DQ        =  0.001000  dq finite difference perturbation B field
   LLRAUG    =     F  two centre corrections for induced B field



--------------------------------------------------------------------------------------------------------


 Static calculation
 charge density and potential will be updated during run
 non-spin polarized calculation
 Variant of blocked Davidson
 Davidson routine will perform the subspace rotation
 perform sub-space diagonalisation
    after iterative eigenvector-optimisation
 modified Broyden-mixing scheme, WC =      100.0
 initial mixing is a Kerker type mixing with AMIX =  0.4000 and BMIX =      1.0000
 Hartree-type preconditioning will be used
 using additional bands           88
 real space projection scheme for non local part
 use partial core corrections
 calculate Harris-corrections to forces 
   (improved forces if not selfconsistent)
 use gradient corrections 
 use of overlap-Matrix (Vanderbilt PP)
 Gauss-broadening in eV      SIGMA  =   0.05


--------------------------------------------------------------------------------------------------------


  energy-cutoff  :      600.00
  volume of cell :     2161.91
      direct lattice vectors                 reciprocal lattice vectors
    12.930412990  0.000000000  0.000000000     0.077337050  0.000000000  0.000000000
     0.000000000 12.930412990  0.000000000     0.000000000  0.077337050  0.000000000
     0.000000000  0.000000000 12.930412990     0.000000000  0.000000000  0.077337050

  length of vectors
    12.930412990 12.930412990 12.930412990     0.077337050  0.077337050  0.077337050


 
 k-points in units of 2pi/SCALE and weight: read from INCAR                         
   0.00000000  0.00000000  0.00000000       0.125
   0.03866853  0.00000000  0.00000000       0.125
   0.00000000  0.03866853  0.00000000       0.125
   0.03866853  0.03866853  0.00000000       0.125
   0.00000000  0.00000000  0.03866853       0.125
   0.03866853  0.00000000  0.03866853       0.125
   0.00000000  0.03866853  0.03866853       0.125
   0.03866853  0.03866853  0.03866853       0.125
 
 k-points in reciprocal lattice and weights: read from INCAR                         
   0.00000000  0.00000000  0.00000000       0.125
   0.50000000  0.00000000  0.00000000       0.125
   0.00000000  0.50000000  0.00000000       0.125
   0.50000000  0.50000000  0.00000000       0.125
   0.00000000  0.00000000  0.50000000       0.125
   0.50000000  0.00000000  0.50000000       0.125
   0.00000000  0.50000000  0.50000000       0.125
   0.50000000  0.50000000  0.50000000       0.125
 
 position of ions in fractional coordinates (direct lattice) 
   0.70096388  0.59050518  0.03374387
   0.17916379  0.05114634  0.83340144
   0.12057228  0.04296272  0.11047807
   0.82457409  0.31027490  0.92580969
   0.21039561  0.05848359  0.54991212
   0.86934364  0.79216010  0.72552624
   0.62560067  0.72419330  0.56882610
   0.50027366  0.02746426  0.50404717
   0.74474754  0.12387807  0.70177437
   0.85943986  0.24727093  0.20080215
   0.21388739  0.33796817  0.06125326
   0.53363627  0.48332771  0.38374570
   0.23797290  0.55268560  0.41676830
   0.99468953  0.44531517  0.81030086
   0.42269633  0.92853198  0.13569652
   0.28607136  0.38886821  0.71061841
   0.39376054  0.65597741  0.21513872
   0.96716819  0.84589512  0.03202400
   0.84818334  0.61194748  0.30780705
   0.43004945  0.90374315  0.79588487
   0.44920429  0.67620598  0.89017505
   0.77169676  0.47309337  0.65555774
   0.55112116  0.28882756  0.64071754
   0.63618217  0.08035702  0.93926746
   0.23146343  0.52595209  0.96926392
   0.10499216  0.30482991  0.33166107
   0.49211790  0.14427301  0.22464126
   0.75467698  0.38315228  0.41727748
   0.07602256  0.69597053  0.81025321
   0.90599896  0.98624913  0.89998413
   0.75862389  0.13457780  0.46915321
   0.99209576  0.48996328  0.48665061
   0.63433692  0.70040412  0.25297652
   0.28175151  0.86543836  0.33997122
   0.99591364  0.66090191  0.58407430
   0.37794953  0.14594071  0.74467594
   0.32768705  0.37857640  0.30967138
   0.49835507  0.27348025  0.98616701
   0.02861929  0.85893454  0.25859093
   0.35419241  0.09086095  0.03159702
   0.30597411  0.84555393  0.56325625
   0.04847010  0.92503112  0.44357983
   0.68784962  0.99458241  0.30221176
   0.88516008  0.26440203  0.63536396
   0.61044765  0.47757563  0.83225657
   0.10616066  0.24183869  0.90049172
   0.39395649  0.61117417  0.60804213
   0.34001371  0.22032567  0.44678915
   0.65368289  0.87784327  0.79206217
   0.10480320  0.65656105  0.20076928
   0.48369976  0.46556290  0.03137021
   0.25097355  0.79986308  0.97784598
   0.77830376  0.04960862  0.09298757
   0.96107690  0.45277336  0.09590615
   0.84433829  0.89123909  0.89056375
   0.06088640  0.04829662  0.44356091
   0.61085175  0.61034556  0.86667628
   0.98145858  0.74083391  0.20204389
   0.23846737  0.34344547  0.22834328
   0.03298180  0.62662981  0.45339098
   0.75921094  0.23814783  0.40513855
   0.07357679  0.54148076  0.20971394
   0.14767891  0.89556787  0.31214228
   0.28680456  0.09430448  0.68549051
   0.31885603  0.78389324  0.45409513
   0.54426464  0.76048940  0.18843623
   0.02513232  0.34415334  0.10894715
   0.74720396  0.46131346  0.83029923
   0.51528902  0.61380296  0.64645524
   0.83124361  0.17986737  0.57043664
   0.79095814  0.04930771  0.36755863
   0.39313426  0.48843579  0.27537046
   0.65271221  0.02388957  0.08739828
   0.24118424  0.20133108  0.49825691
   0.20824514  0.67896291  0.29775619
   0.65671685  0.08521780  0.52862804
   0.14805848  0.87465938  0.53751653
   0.33889487  0.84596120  0.22009476
   0.45084287  0.58240508  0.03066273
   0.38857230  0.24571377  0.33382380
   0.85362961  0.07455585  0.80650012
   0.55284709  0.19811213  0.08464100
   0.35016188  0.42815288  0.99075961
   0.82290196  0.48552969  0.13062057
   0.59085556  0.08438747  0.34672669
   0.56813958  0.22457923  0.88791432
   0.42488980  0.15436103  0.51180050
   0.20110741  0.17867912  0.95439491
   0.38604735  0.94768666  0.58243937
   0.95596620  0.88058657  0.36519310
   0.67550164  0.41448169  0.33351148
   0.73202155  0.67333779  0.17095040
   0.15172528  0.37220194  0.92701871
   0.87350301  0.70892021  0.59041900
   0.00720937  0.19516760  0.32254036
   0.66799622  0.87247495  0.28614545
   0.56956335  0.85621155  0.89199466
   0.11031774  0.18361556  0.79487821
   0.07373060  0.72783556  0.65668148
   0.31067748  0.56093074  0.68399638
   0.77008049  0.16305666  0.01995015
   0.27609383  0.04885311  0.13338424
   0.89385255  0.42440868  0.43304922
   0.97160431  0.49197901  0.98943067
   0.37228011  0.21015449  0.00287486
   0.32592147  0.95819997  0.38082925
   0.78206625  0.31558008  0.70559554
   0.99079781  0.52606634  0.59041395
   0.19800451  0.91021833  0.01050825
   0.77393776  0.09747657  0.21486127
   0.29612987  0.37482191  0.43925117
   0.34444012  0.73982495  0.62992931
   0.08397928  0.45302812  0.43210515
   0.69784944  0.98305686  0.72460978
   0.35376991  0.07010604  0.90310791
   0.15962202  0.69094969  0.06793246
   0.50084670  0.12570092  0.69061159
   0.12214739  0.58390206  0.80955267
   0.54276439  0.41598729  0.73142238
   0.73691253  0.78659367  0.82106369
   0.58692123  0.66242449  0.35098682
   0.14204857  0.77932012  0.88093067
   0.69838810  0.40634791  0.51662452
   0.99571561  0.31734726  0.68466769
   0.96850370  0.70996608  0.83126899
   0.37236616  0.26468688  0.77442158
   0.59737257  0.86937205  0.64914845
   0.03517303  0.98461363  0.93437208
   0.54868029  0.45369123  0.12196947
   0.96851602  0.20805179  0.98065276
   0.98708913  0.93199101  0.16031245
   0.34532213  0.78320230  0.91707424
   0.86713876  0.01470790  0.03069591
   0.43458945  0.56858322  0.50381869
   0.54961174  0.40842881  0.93395688
 
 position of ions in cartesian coordinates  (Angst):
   9.06375246  7.63547583  0.43632215
   2.31666182  0.66134336 10.77622482
   1.55904939  0.55552576  1.42852706
  10.66208349  4.01198266 11.97110161
   2.72050208  0.75621697  7.11059078
  11.24097236 10.24295730  9.38135389
   8.08927503  9.36411840  7.35515637
   6.46874502  0.35512426  6.51753813
   9.62989321  1.60179466  9.07423242
  11.11291239  3.19731520  2.59645470
   2.76565223  4.37006805  0.79202998
   6.90013732  6.24962684  4.96199034
   3.07708789  7.14645312  5.38898629
  12.86174643  5.75810911 10.47752476
   5.46563817 12.00630197  1.75461201
   3.69902085  5.02822651  9.18858947
   5.09148645  8.48205888  2.78183246
  12.50588415 10.93777320  0.41408358
  10.96736090  7.91273364  3.98007231
   5.56071700 11.68577215 10.29112012
   5.80839693  8.74362253 11.51033098
   9.97835777  6.11729261  8.47663226
   7.12622427  3.73465968  8.28474246
   8.22609817  1.03904940 12.14511619
   2.99291768  6.80077768 12.53298275
   1.35759202  3.94157660  4.28851463
   6.36328769  1.86550963  2.90470423
   9.75828498  4.95431724  5.39557011
   0.98300307  8.99918635 10.47690864
  11.71494067 12.75260852 11.63716645
   9.80932021  1.74014654  6.06634475
  12.82820786  6.33542750  6.29259338
   8.20223841  9.05651455  3.27109090
   3.64316341 11.19047546  4.39596832
  12.87757472  8.54573463  7.55232195
   4.88704349  1.88707370  9.62896745
   4.23712889  4.89514923  4.00417885
   6.44393684  3.53621264 12.75154675
   0.37005919 11.10637828  3.34368754
   4.57985412  1.17486964  0.40856251
   3.95637163 10.93336146  7.28313596
   0.62673840 11.96103446  5.73567045
   8.89417964 12.86036133  3.90772281
  11.44548534  3.41882738  8.21551836
   7.89334017  6.17525012 10.76142120
   1.37270118  3.12707418 11.64372982
   5.09402009  7.90273437  7.86223580
   4.39651772  2.84890189  5.77716826
   8.45238974 11.35087596 10.24169101
   1.35514865  8.48960547  2.59602977
   6.25443761  6.01992052  0.40562975
   3.24519159 10.34256001 12.64395236
  10.06378902  0.64145992  1.20236774
  12.42712124  5.85454660  1.24010612
  10.91764282 11.52408952 11.51535710
   0.78728636  0.62449523  5.73542581
   7.89856539  7.89202015 11.20648218
  12.69066471  9.57928844  2.61251099
   3.08348157  4.44089179  2.95257287
   0.42646835  8.10258227  5.86253258
   9.81691102  3.07934974  5.23860871
   0.95137832  7.00156986  2.71168780
   1.90954931 11.58006241  4.03612855
   3.70850135  1.21939585  8.86367539
   4.12294018 10.13606328  5.87163759
   7.03756660  9.83344204  2.43655828
   0.32497127  4.45004488  1.40873170
   9.66165582  5.96497350 10.73611200
   6.66289986  7.93672580  8.35893317
  10.74832319  2.32575940  7.37598139
  10.22741540  0.63756904  4.75268483
   5.08338835  6.31567652  3.56065382
   8.43983845  0.30890205  1.13009586
   3.11861181  2.60329400  6.44266765
   2.69269571  8.77927079  3.85011055
   8.49162005  1.10190130  6.83537885
   1.91445726 11.30970698  6.95031072
   4.38205063 10.93862770  2.84591608
   5.82958453  7.53073826  0.39648171
   5.02440028  3.17718053  4.31647957
  11.03778340  0.96403789 10.42837965
   7.14854120  2.56167167  1.09444310
   4.52773778  5.53619350 12.81093087
  10.64046224  6.27809938  1.68897789
   7.64000643  1.09116484  4.48331935
   7.34627936  2.90390222 11.48109885
   5.49400065  1.99595189  6.61779181
   2.60040192  2.31039482 12.34072032
   4.99175167 12.25397987  7.53118166
  12.36103773 11.38634796  4.72209756
   8.73451522  5.35941948  4.31244112
   9.46534094  8.70653577  2.21045924
   1.96187054  4.81272480 11.98673472
  11.29475471  9.16663104  7.63436156
   0.09322010  2.52359764  4.17058004
   8.63746699 11.28146140  3.69997881
   7.36468939 11.07116897 11.53385935
   1.42645396  2.37422500 10.27810347
   0.95336710  9.41121441  8.49116278
   4.01718811  7.25306617  8.84435565
   9.95745872  2.10839000  0.25796374
   3.57000720  0.63169085  1.72471326
  11.55788268  5.48777945  5.59950523
  12.56324498  6.36149183 12.79374713
   4.81373551  2.71738435  0.03717317
   4.21429923 12.38992139  4.92427951
  10.11243954  4.08058078  9.12364172
  12.81142484  6.80225508  7.63429618
   2.56028003 11.76949892  0.13587598
  10.00733492  1.26041233  2.77824493
   3.82908152  4.84660208  5.67969909
   4.45375303  9.56624208  8.14524610
   1.08588678  5.85784075  5.58729810
   9.02348151 12.71133121  9.36950368
   4.57439108  0.90650000 11.67755821
   2.06397869  8.93426484  0.87839473
   6.47615469  1.62536481  8.92989310
   1.57941619  7.55009472 10.46785041
   7.01816773  5.37888743  9.45759347
   9.52858329 10.17098099 10.61669260
   7.58913396  8.56542225  4.53840449
   1.83674668 10.07693103 11.39079742
   9.03044652  5.25424624  6.68016834
  12.87501408  4.10343115  8.85303603
  12.52315288  9.18015464 10.74865139
   4.81484827  3.42251064 10.01359080
   7.72427409 11.24133966  8.39375761
   0.45480178 12.73146093 12.08181682
   7.09466273  5.86641501  1.57711559
  12.52331218  2.69019553 12.68024524
  12.76347017 12.05102863  2.07290625
   4.46515777 10.12712923 11.85814865
  11.21246224  0.19017926  0.39691084
   5.61942101  7.35201585  6.51458373
   7.10670674  5.28115320 12.07644811
 


--------------------------------------------------------------------------------------------------------


 k-point  1 :   0.0000 0.0000 0.0000  plane waves:   72359
 k-point  2 :   0.5000 0.0000 0.0000  plane waves:   72020
 k-point  3 :   0.0000 0.5000 0.0000  plane waves:   72020
 k-point  4 :   0.5000 0.5000 0.0000  plane waves:   72184
 k-point  5 :   0.0000 0.0000 0.5000  plane waves:   72020
 k-point  6 :   0.5000 0.0000 0.5000  plane waves:   72184
 k-point  7 :   0.0000 0.5000 0.5000  plane waves:   72184
 k-point  8 :   0.5000 0.5000 0.5000  plane waves:   72264

 maximum and minimum number of plane-waves per node :      5618     5466

 maximum number of plane-waves:     72359
 maximum index in each direction: 
   IXMAX=   25   IYMAX=   25   IZMAX=   25
   IXMIN=  -26   IYMIN=  -26   IZMIN=  -26


 real space projection operators:
  total allocation   :      53640.19 KBytes
  max/ min on nodes  :       4409.70       3985.53


 parallel 3D FFT for wavefunctions:
    minimum data exchange during FFTs selected (reduces bandwidth)
 parallel 3D FFT for charge:
    minimum data exchange during FFTs selected (reduces bandwidth)


 total amount of memory used by VASP MPI-rank0   200742. kBytes
=======================================================================

   base      :      30000. kBytes
   nonlr-proj:      23369. kBytes
   fftplans  :      33572. kBytes
   grid      :      19248. kBytes
   one-center:        171. kBytes
   wavefun   :      94382. kBytes
 
     INWAV:  cpu time    0.0001: real time    0.0003
 Broyden mixing: mesh for mixing (old mesh)
   NGX = 51   NGY = 51   NGZ = 51
  (NGX  =216   NGY  =216   NGZ  =216)
  gives a total of 132651 points

 initial charge density was supplied:
 charge density of overlapping atoms calculated
 number of electron     864.0000000 magnetization 
 keeping initial charge density in first step


--------------------------------------------------------------------------------------------------------


 Maximum index for non-local projection operator          890
 Maximum index for augmentation-charges         8096 (set IRDMAX)


--------------------------------------------------------------------------------------------------------


 First call to EWALD:  gamma=   0.137
 Maximum number of real-space cells 3x 3x 3
 Maximum number of reciprocal cells 3x 3x 3

    FEWALD:  cpu time    0.0052: real time    0.0052


--------------------------------------- Iteration      1(   1)  ---------------------------------------


    POTLOK:  cpu time    0.2145: real time    0.2250
    SETDIJ:  cpu time    0.4194: real time    0.4216
     EDDAV:  cpu time   47.1100: real time   47.1101
       DOS:  cpu time    0.0024: real time    0.0024
    --------------------------------------------
      LOOP:  cpu time   47.7462: real time   47.7590

 eigenvalue-minimisations  :  8320
 total energy-change (2. order) : 0.9305215E+04  (-0.4671407E+05)
 number of electron     864.0000000 magnetization 
 augmentation part      864.0000000 magnetization 

 Free energy of the ion-electron system (eV)
  ---------------------------------------------------
  alpha Z        PSCENC =      2210.34415451
  Ewald energy   TEWEN  =    -39581.55766028
  -Hartree energ DENC   =    -21903.65324657
  -exchange      EXHF   =         0.00000000
  -V(xc)+E(xc)   XCENC  =      3135.37908053
  PAW double counting   =     50594.51003143   -49994.65612350
  entropy T*S    EENTRO =        -0.03498864
  eigenvalues    EBANDS =      -123.65619835
  atomic energy  EATOM  =     64968.54023382
  Solvation  Ediel_sol  =         0.00000000
  ---------------------------------------------------
  free energy    TOTEN  =      9305.21528296 eV

  energy without entropy =     9305.25027159  energy(sigma->0) =     9305.23277727


--------------------------------------------------------------------------------------------------------




--------------------------------------- Iteration      1(   2)  ---------------------------------------


     EDDAV:  cpu time   55.1506: real time   55.1714
       DOS:  cpu time    0.0009: real time    0.0009
    --------------------------------------------
      LOOP:  cpu time   55.1515: real time   55.1723

 eigenvalue-minimisations  : 10112
 total energy-change (2. order) :-0.9280848E+04  (-0.8997837E+04)
 number of electron     864.0000000 magnetization 
 augmentation part      864.0000000 magnetization 

 Free energy of the ion-electron system (eV)
  ---------------------------------------------------
  alpha Z        PSCENC =      2210.34415451
  Ewald energy   TEWEN  =    -39581.55766028
  -Hartree energ DENC   =    -21903.65324657
  -exchange      EXHF   =         0.00000000
  -V(xc)+E(xc)   XCENC  =      3135.37908053
  PAW double counting   =     50594.51003143   -49994.65612350
  entropy T*S    EENTRO =        -0.00000000
  eigenvalues    EBANDS =     -9404.53884208
  atomic energy  EATOM  =     64968.54023382
  Solvation  Ediel_sol  =         0.00000000
  ---------------------------------------------------
  free energy    TOTEN  =        24.36762786 eV

  energy without entropy =       24.36762786  energy(sigma->0) =       24.36762786


--------------------------------------------------------------------------------------------------------




--------------------------------------- Iteration      1(   3)  ---------------------------------------


     EDDAV:  cpu time   55.5137: real time   55.5252
       DOS:  cpu time    0.0009: real time    0.0009
    --------------------------------------------
      LOOP:  cpu time   55.5146: real time   55.5261

 eigenvalue-minimisations  : 10264
 total energy-change (2. order) :-0.1030563E+04  (-0.1022707E+04)
 number of electron     864.0000000 magnetization 
 augmentation part      864.0000000 magnetization 

 Free energy of the ion-electron system (eV)
  ---------------------------------------------------
  alpha Z        PSCENC =      2210.34415451
  Ewald energy   TEWEN  =    -39581.55766028
  -Hartree energ DENC   =    -21903.65324657
  -exchange      EXHF   =         0.00000000
  -V(xc)+E(xc)   XCENC  =      3135.37908053
  PAW double counting   =     50594.51003143   -49994.65612350
  entropy T*S    EENTRO =        -0.00000000
  eigenvalues    EBANDS =    -10435.10206486
  atomic energy  EATOM  =     64968.54023382
  Solvation  Ediel_sol  =         0.00000000
  ---------------------------------------------------
  free energy    TOTEN  =     -1006.19559492 eV

  energy without entropy =    -1006.19559492  energy(sigma->0) =    -1006.19559492


--------------------------------------------------------------------------------------------------------




--------------------------------------- Iteration      1(   4)  ---------------------------------------


     EDDAV:  cpu time   59.5730: real time   59.5892
       DOS:  cpu time    0.0009: real time    0.0009
    --------------------------------------------
      LOOP:  cpu time   59.5740: real time   59.5901

 eigenvalue-minimisations  : 11232
 total energy-change (2. order) :-0.4875997E+02  (-0.4857764E+02)
 number of electron     864.0000000 magnetization 
 augmentation part      864.0000000 magnetization 

 Free energy of the ion-electron system (eV)
  ---------------------------------------------------
  alpha Z        PSCENC =      2210.34415451
  Ewald energy   TEWEN  =    -39581.55766028
  -Hartree energ DENC   =    -21903.65324657
  -exchange      EXHF   =         0.00000000
  -V(xc)+E(xc)   XCENC  =      3135.37908053
  PAW double counting   =     50594.51003143   -49994.65612350
  entropy T*S    EENTRO =        -0.00000000
  eigenvalues    EBANDS =    -10483.86203179
  atomic energy  EATOM  =     64968.54023382
  Solvation  Ediel_sol  =         0.00000000
  ---------------------------------------------------
  free energy    TOTEN  =     -1054.95556184 eV

  energy without entropy =    -1054.95556184  energy(sigma->0) =    -1054.95556184


--------------------------------------------------------------------------------------------------------




--------------------------------------- Iteration      1(   5)  ---------------------------------------


     EDDAV:  cpu time   74.9876: real time   75.0007
       DOS:  cpu time    0.0009: real time    0.0009
    CHARGE:  cpu time    2.1642: real time    2.1642
    MIXING:  cpu time    0.0119: real time    0.0121
    --------------------------------------------
      LOOP:  cpu time   77.1647: real time   77.1780

 eigenvalue-minimisations  : 14912
 total energy-change (2. order) :-0.6167416E+01  (-0.6164242E+01)
 number of electron     864.0000007 magnetization 
 augmentation part      133.8814887 magnetization 

 Broyden mixing:
  rms(total) = 0.86647E+01    rms(broyden)= 0.86638E+01
  rms(prec ) = 0.10256E+02
  weight for this iteration     100.00

 Free energy of the ion-electron system (eV)
  ---------------------------------------------------
  alpha Z        PSCENC =      2210.34415451
  Ewald energy   TEWEN  =    -39581.55766028
  -Hartree energ DENC   =    -21903.65324657
  -exchange      EXHF   =         0.00000000
  -V(xc)+E(xc)   XCENC  =      3135.37908053
  PAW double counting   =     50594.51003143   -49994.65612350
  entropy T*S    EENTRO =        -0.00000000
  eigenvalues    EBANDS =    -10490.02944731
  atomic energy  EATOM  =     64968.54023382
  Solvation  Ediel_sol  =         0.00000000
  ---------------------------------------------------
  free energy    TOTEN  =     -1061.12297736 eV

  energy without entropy =    -1061.12297736  energy(sigma->0) =    -1061.12297736


--------------------------------------------------------------------------------------------------------




--------------------------------------- Iteration      1(   6)  ---------------------------------------


    POTLOK:  cpu time    0.1950: real time    0.2108
    SETDIJ:  cpu time    0.4216: real time    0.4216
     EDDAV:  cpu time   54.3098: real time   54.3095
       DOS:  cpu time    0.0023: real time    0.0022
    CHARGE:  cpu time    2.2055: real time    2.2056
    MIXING:  cpu time    0.0117: real time    0.0119
    --------------------------------------------
      LOOP:  cpu time   57.1459: real time   57.1616

 eigenvalue-minimisations  : 10056
 total energy-change (2. order) : 0.1668383E+03  (-0.8069180E+02)
 number of electron     864.0000006 magnetization 
 augmentation part      118.3604007 magnetization 

 Broyden mixing:
  rms(total) = 0.40053E+01    rms(broyden)= 0.40035E+01
  rms(prec ) = 0.44298E+01
  weight for this iteration     100.00

 eigenvalues of (default mixing * dielectric matrix)
  average eigenvalue GAMMA=   0.9153
  0.9153

 Free energy of the ion-electron system (eV)
  ---------------------------------------------------
  alpha Z        PSCENC =      2210.34415451
  Ewald energy   TEWEN  =    -39581.55766028
  -Hartree energ DENC   =    -23501.93057561
  -exchange      EXHF   =         0.00000000
  -V(xc)+E(xc)   XCENC  =      3236.05971174
  PAW double counting   =     64579.44094943   -64122.23376663
  entropy T*S    EENTRO =        -0.00355172
  eigenvalues    EBANDS =     -8682.94412328
  atomic energy  EATOM  =     64968.54023382
  Solvation  Ediel_sol  =         0.00000000
  ---------------------------------------------------
  free energy    TOTEN  =      -894.28462801 eV

  energy without entropy =     -894.28107629  energy(sigma->0) =     -894.28285215


--------------------------------------------------------------------------------------------------------




--------------------------------------- Iteration      1(   7)  ---------------------------------------


    POTLOK:  cpu time    0.2047: real time    0.2164
    SETDIJ:  cpu time    0.4204: real time    0.4226
     EDDAV:  cpu time   56.3126: real time   56.3137
       DOS:  cpu time    0.0015: real time    0.0015
    CHARGE:  cpu time    2.1784: real time    2.1784
    MIXING:  cpu time    0.0108: real time    0.0108
    --------------------------------------------
      LOOP:  cpu time   59.1285: real time   59.1434

 eigenvalue-minimisations  : 10520
 total energy-change (2. order) :-0.2781899E+01  (-0.1020506E+02)
 number of electron     864.0000006 magnetization 
 augmentation part      118.2309004 magnetization 

 Broyden mixing:
  rms(total) = 0.24304E+01    rms(broyden)= 0.24299E+01
  rms(prec ) = 0.28753E+01
  weight for this iteration     100.00

 eigenvalues of (default mixing * dielectric matrix)
  average eigenvalue GAMMA=   0.9203
  0.9203  0.9203

 Free energy of the ion-electron system (eV)
  ---------------------------------------------------
  alpha Z        PSCENC =      2210.34415451
  Ewald energy   TEWEN  =    -39581.55766028
  -Hartree energ DENC   =    -23539.27497597
  -exchange      EXHF   =         0.00000000
  -V(xc)+E(xc)   XCENC  =      3234.66046278
  PAW double counting   =     74908.25522790   -74499.36403485
  entropy T*S    EENTRO =        -0.00000001
  eigenvalues    EBANDS =     -8598.66993492
  atomic energy  EATOM  =     64968.54023382
  Solvation  Ediel_sol  =         0.00000000
  ---------------------------------------------------
  free energy    TOTEN  =      -897.06652702 eV

  energy without entropy =     -897.06652701  energy(sigma->0) =     -897.06652701


--------------------------------------------------------------------------------------------------------




--------------------------------------- Iteration      1(   8)  ---------------------------------------


    POTLOK:  cpu time    0.1953: real time    0.2165
    SETDIJ:  cpu time    0.4248: real time    0.4289
     EDDAV:  cpu time   62.2779: real time   62.2810
       DOS:  cpu time    0.0014: real time    0.0014
    CHARGE:  cpu time    2.1637: real time    2.1637
    MIXING:  cpu time    0.0107: real time    0.0107
    --------------------------------------------
      LOOP:  cpu time   65.0738: real time   65.1021

 eigenvalue-minimisations  : 11960
 total energy-change (2. order) : 0.4611158E+01  (-0.2963217E+01)
 number of electron     864.0000006 magnetization 
 augmentation part      118.3409335 magnetization 

 Broyden mixing:
  rms(total) = 0.15750E+01    rms(broyden)= 0.15746E+01
  rms(prec ) = 0.19065E+01
  weight for this iteration     100.00

 eigenvalues of (default mixing * dielectric matrix)
  average eigenvalue GAMMA=   0.9369
  1.2739  0.9392  0.5976

 Free energy of the ion-electron system (eV)
  ---------------------------------------------------
  alpha Z        PSCENC =      2210.34415451
  Ewald energy   TEWEN  =    -39581.55766028
  -Hartree energ DENC   =    -23560.76413183
  -exchange      EXHF   =         0.00000000
  -V(xc)+E(xc)   XCENC  =      3234.31536338
  PAW double counting   =     79184.81470336   -78801.68992387
  entropy T*S    EENTRO =        -0.00000001
  eigenvalues    EBANDS =     -8546.45810821
  atomic energy  EATOM  =     64968.54023382
  Solvation  Ediel_sol  =         0.00000000
  ---------------------------------------------------
  free energy    TOTEN  =      -892.45536913 eV

  energy without entropy =     -892.45536912  energy(sigma->0) =     -892.45536912


--------------------------------------------------------------------------------------------------------




--------------------------------------- Iteration      1(   9)  ---------------------------------------


    POTLOK:  cpu time    0.2067: real time    0.2217
    SETDIJ:  cpu time    0.4234: real time    0.4234
     EDDAV:  cpu time   59.9343: real time   59.9358
       DOS:  cpu time    0.0021: real time    0.0021
    CHARGE:  cpu time    2.1806: real time    2.1806
    MIXING:  cpu time    0.0138: real time    0.0138
    --------------------------------------------
      LOOP:  cpu time   62.7609: real time   62.7774

 eigenvalue-minimisations  : 11408
 total energy-change (2. order) : 0.7273573E+00  (-0.1933116E+01)
 number of electron     864.0000006 magnetization 
 augmentation part      117.6063971 magnetization 

 Broyden mixing:
  rms(total) = 0.20833E+01    rms(broyden)= 0.20830E+01
  rms(prec ) = 0.28272E+01
  weight for this iteration     100.00

 eigenvalues of (default mixing * dielectric matrix)
  average eigenvalue GAMMA=   0.8950
  1.5589  1.0927  0.4641  0.4641

 Free energy of the ion-electron system (eV)
  ---------------------------------------------------
  alpha Z        PSCENC =      2210.34415451
  Ewald energy   TEWEN  =    -39581.55766028
  -Hartree energ DENC   =    -23621.67898588
  -exchange      EXHF   =         0.00000000
  -V(xc)+E(xc)   XCENC  =      3236.83254442
  PAW double counting   =     83550.96972508   -83188.19478200
  entropy T*S    EENTRO =        -0.00721755
  eigenvalues    EBANDS =     -8466.97602398
  atomic energy  EATOM  =     64968.54023382
  Solvation  Ediel_sol  =         0.00000000
  ---------------------------------------------------
  free energy    TOTEN  =      -891.72801186 eV

  energy without entropy =     -891.72079431  energy(sigma->0) =     -891.72440308


--------------------------------------------------------------------------------------------------------




--------------------------------------- Iteration      1(  10)  ---------------------------------------


    POTLOK:  cpu time    0.1947: real time    0.2114
    SETDIJ:  cpu time    0.4515: real time    0.4540
     EDDAV:  cpu time   53.9028: real time   53.9030
       DOS:  cpu time    0.0024: real time    0.0024
    CHARGE:  cpu time    2.1966: real time    2.1966
    MIXING:  cpu time    0.0119: real time    0.0119
    --------------------------------------------
      LOOP:  cpu time   56.7599: real time   56.7794

 eigenvalue-minimisations  :  9896
 total energy-change (2. order) : 0.4888911E+00  (-0.1067838E+01)
 number of electron     864.0000006 magnetization 
 augmentation part      118.1591733 magnetization 

 Broyden mixing:
  rms(total) = 0.83334E+00    rms(broyden)= 0.83263E+00
  rms(prec ) = 0.11504E+01
  weight for this iteration     100.00

 eigenvalues of (default mixing * dielectric matrix)
  average eigenvalue GAMMA=   0.9500
  2.1154  0.9124  0.8383  0.4419  0.4419

 Free energy of the ion-electron system (eV)
  ---------------------------------------------------
  alpha Z        PSCENC =      2210.34415451
  Ewald energy   TEWEN  =    -39581.55766028
  -Hartree energ DENC   =    -23643.07301008
  -exchange      EXHF   =         0.00000000
  -V(xc)+E(xc)   XCENC  =      3236.99134443
  PAW double counting   =     86082.96815110   -85732.98874042
  entropy T*S    EENTRO =        -0.01479404
  eigenvalues    EBANDS =     -8432.44879977
  atomic energy  EATOM  =     64968.54023382
  Solvation  Ediel_sol  =         0.00000000
  ---------------------------------------------------
  free energy    TOTEN  =      -891.23912072 eV

  energy without entropy =     -891.22432668  energy(sigma->0) =     -891.23172370


--------------------------------------------------------------------------------------------------------




--------------------------------------- Iteration      1(  11)  ---------------------------------------


    POTLOK:  cpu time    0.1879: real time    0.1983
    SETDIJ:  cpu time    0.4109: real time    0.4109
     EDDAV:  cpu time   57.4448: real time   57.4477
       DOS:  cpu time    0.0023: real time    0.0023
    CHARGE:  cpu time    2.1763: real time    2.1764
    MIXING:  cpu time    0.0118: real time    0.0118
    --------------------------------------------
      LOOP:  cpu time   60.2340: real time   60.2473

 eigenvalue-minimisations  : 10784
 total energy-change (2. order) : 0.3694628E+00  (-0.3539395E+00)
 number of electron     864.0000006 magnetization 
 augmentation part      117.7538120 magnetization 

 Broyden mixing:
  rms(total) = 0.87414E+00    rms(broyden)= 0.87378E+00
  rms(prec ) = 0.12394E+01
  weight for this iteration     100.00

 eigenvalues of (default mixing * dielectric matrix)
  average eigenvalue GAMMA=   0.8822
  2.2505  0.9254  0.9254  0.4375  0.4375  0.3171

 Free energy of the ion-electron system (eV)
  ---------------------------------------------------
  alpha Z        PSCENC =      2210.34415451
  Ewald energy   TEWEN  =    -39581.55766028
  -Hartree energ DENC   =    -23697.03843580
  -exchange      EXHF   =         0.00000000
  -V(xc)+E(xc)   XCENC  =      3239.55134116
  PAW double counting   =     88653.70807118   -88314.43333523
  entropy T*S    EENTRO =        -0.02979325
  eigenvalues    EBANDS =     -8369.95423397
  atomic energy  EATOM  =     64968.54023382
  Solvation  Ediel_sol  =         0.00000000
  ---------------------------------------------------
  free energy    TOTEN  =      -890.86965787 eV

  energy without entropy =     -890.83986462  energy(sigma->0) =     -890.85476125


--------------------------------------------------------------------------------------------------------




--------------------------------------- Iteration      1(  12)  ---------------------------------------


    POTLOK:  cpu time    0.2122: real time    0.2324
    SETDIJ:  cpu time    0.4471: real time    0.4473
     EDDAV:  cpu time   60.1430: real time   60.1446
       DOS:  cpu time    0.0024: real time    0.0024
    CHARGE:  cpu time    2.1998: real time    2.1998
    MIXING:  cpu time    0.0128: real time    0.0128
    --------------------------------------------
      LOOP:  cpu time   63.0173: real time   63.0393

 eigenvalue-minimisations  : 11416
 total energy-change (2. order) : 0.6587419E+00  (-0.1901264E+00)
 number of electron     864.0000006 magnetization 
 augmentation part      117.8824876 magnetization 

 Broyden mixing:
  rms(total) = 0.56004E+00    rms(broyden)= 0.55980E+00
  rms(prec ) = 0.81240E+00
  weight for this iteration     100.00

 eigenvalues of (default mixing * dielectric matrix)
  average eigenvalue GAMMA=   0.8438
  2.3307  0.9551  0.9551  0.5431  0.4407  0.4407  0.2411

 Free energy of the ion-electron system (eV)
  ---------------------------------------------------
  alpha Z        PSCENC =      2210.34415451
  Ewald energy   TEWEN  =    -39581.55766028
  -Hartree energ DENC   =    -23710.52459765
  -exchange      EXHF   =         0.00000000
  -V(xc)+E(xc)   XCENC  =      3240.23030293
  PAW double counting   =     89209.74553744   -88872.11512865
  entropy T*S    EENTRO =        -0.02125960
  eigenvalues    EBANDS =     -8354.85249848
  atomic energy  EATOM  =     64968.54023382
  Solvation  Ediel_sol  =         0.00000000
  ---------------------------------------------------
  free energy    TOTEN  =      -890.21091597 eV

  energy without entropy =     -890.18965636  energy(sigma->0) =     -890.20028616


--------------------------------------------------------------------------------------------------------




--------------------------------------- Iteration      1(  13)  ---------------------------------------


    POTLOK:  cpu time    0.1839: real time    0.2030
    SETDIJ:  cpu time    0.4182: real time    0.4205
     EDDAV:  cpu time   56.3231: real time   56.3395
       DOS:  cpu time    0.0025: real time    0.0025
    CHARGE:  cpu time    2.1832: real time    2.1832
    MIXING:  cpu time    0.0118: real time    0.0118
    --------------------------------------------
      LOOP:  cpu time   59.1228: real time   59.1605

 eigenvalue-minimisations  : 10520
 total energy-change (2. order) : 0.2398633E+00  (-0.6763092E-01)
 number of electron     864.0000006 magnetization 
 augmentation part      117.5829570 magnetization 

 Broyden mixing:
  rms(total) = 0.67588E+00    rms(broyden)= 0.67567E+00
  rms(prec ) = 0.95940E+00
  weight for this iteration     100.00

 eigenvalues of (default mixing * dielectric matrix)
  average eigenvalue GAMMA=   0.7830
  2.3736  0.9651  0.9651  0.5027  0.5027  0.5238  0.2156  0.2156

 Free energy of the ion-electron system (eV)
  ---------------------------------------------------
  alpha Z        PSCENC =      2210.34415451
  Ewald energy   TEWEN  =    -39581.55766028
  -Hartree energ DENC   =    -23722.19579954
  -exchange      EXHF   =         0.00000000
  -V(xc)+E(xc)   XCENC  =      3240.83744805
  PAW double counting   =     89492.80866595   -89155.79055395
  entropy T*S    EENTRO =        -0.01796812
  eigenvalues    EBANDS =     -8342.93957312
  atomic energy  EATOM  =     64968.54023382
  Solvation  Ediel_sol  =         0.00000000
  ---------------------------------------------------
  free energy    TOTEN  =      -889.97105268 eV

  energy without entropy =     -889.95308456  energy(sigma->0) =     -889.96206862


--------------------------------------------------------------------------------------------------------




--------------------------------------- Iteration      1(  14)  ---------------------------------------


    POTLOK:  cpu time    0.1630: real time    0.1785
    SETDIJ:  cpu time    0.4105: real time    0.4147
     EDDAV:  cpu time   57.8740: real time   57.8755
       DOS:  cpu time    0.0025: real time    0.0025
    CHARGE:  cpu time    2.1600: real time    2.1601
    MIXING:  cpu time    0.0129: real time    0.0129
    --------------------------------------------
      LOOP:  cpu time   60.6229: real time   60.6441

 eigenvalue-minimisations  : 10896
 total energy-change (2. order) : 0.4617831E+00  (-0.4545348E-01)
 number of electron     864.0000006 magnetization 
 augmentation part      117.7426851 magnetization 

 Broyden mixing:
  rms(total) = 0.32789E+00    rms(broyden)= 0.32761E+00
  rms(prec ) = 0.50921E+00
  weight for this iteration     100.00

 eigenvalues of (default mixing * dielectric matrix)
  average eigenvalue GAMMA=   0.7846
  2.3690  1.1425  0.8504  0.8504  0.5044  0.5044  0.3390  0.3390  0.1619

 Free energy of the ion-electron system (eV)
  ---------------------------------------------------
  alpha Z        PSCENC =      2210.34415451
  Ewald energy   TEWEN  =    -39581.55766028
  -Hartree energ DENC   =    -23725.51575184
  -exchange      EXHF   =         0.00000000
  -V(xc)+E(xc)   XCENC  =      3240.99191259
  PAW double counting   =     89568.70967118   -89231.54463152
  entropy T*S    EENTRO =        -0.03122883
  eigenvalues    EBANDS =     -8339.44596920
  atomic energy  EATOM  =     64968.54023382
  Solvation  Ediel_sol  =         0.00000000
  ---------------------------------------------------
  free energy    TOTEN  =      -889.50926956 eV

  energy without entropy =     -889.47804073  energy(sigma->0) =     -889.49365515


--------------------------------------------------------------------------------------------------------




--------------------------------------- Iteration      1(  15)  ---------------------------------------


    POTLOK:  cpu time    0.1871: real time    0.2053
    SETDIJ:  cpu time    0.4159: real time    0.4193
     EDDAV:  cpu time   57.4873: real time   57.4887
       DOS:  cpu time    0.0023: real time    0.0023
    CHARGE:  cpu time    2.1901: real time    2.1901
    MIXING:  cpu time    0.0127: real time    0.0127
    --------------------------------------------
      LOOP:  cpu time   60.2955: real time   60.3184

 eigenvalue-minimisations  : 10800
 total energy-change (2. order) : 0.1213416E+00  (-0.2428700E-01)
 number of electron     864.0000006 magnetization 
 augmentation part      117.6227257 magnetization 

 Broyden mixing:
  rms(total) = 0.45905E+00    rms(broyden)= 0.45889E+00
  rms(prec ) = 0.66429E+00
  weight for this iteration     100.00

 eigenvalues of (default mixing * dielectric matrix)
  average eigenvalue GAMMA=   0.7401
  2.3703  0.9955  0.9955  0.7486  0.7486  0.4518  0.4518  0.2457  0.2457  0.1474

 Free energy of the ion-electron system (eV)
  ---------------------------------------------------
  alpha Z        PSCENC =      2210.34415451
  Ewald energy   TEWEN  =    -39581.55766028
  -Hartree energ DENC   =    -23728.68360680
  -exchange      EXHF   =         0.00000000
  -V(xc)+E(xc)   XCENC  =      3241.12019718
  PAW double counting   =     89505.26553464   -89167.45891955
  entropy T*S    EENTRO =        -0.03874097
  eigenvalues    EBANDS =     -8336.91912050
  atomic energy  EATOM  =     64968.54023382
  Solvation  Ediel_sol  =         0.00000000
  ---------------------------------------------------
  free energy    TOTEN  =      -889.38792794 eV

  energy without entropy =     -889.34918698  energy(sigma->0) =     -889.36855746


--------------------------------------------------------------------------------------------------------




--------------------------------------- Iteration      1(  16)  ---------------------------------------


    POTLOK:  cpu time    0.1975: real time    0.2376
    SETDIJ:  cpu time    0.4529: real time    0.4539
     EDDAV:  cpu time   61.9678: real time   61.9709
       DOS:  cpu time    0.0023: real time    0.0023
    CHARGE:  cpu time    2.1433: real time    2.1433
    MIXING:  cpu time    0.0109: real time    0.0109
    --------------------------------------------
      LOOP:  cpu time   64.7747: real time   64.8188

 eigenvalue-minimisations  : 11880
 total energy-change (2. order) : 0.1094570E+00  (-0.4945317E-02)
 number of electron     864.0000006 magnetization 
 augmentation part      117.6712481 magnetization 

 Broyden mixing:
  rms(total) = 0.24870E+00    rms(broyden)= 0.24861E+00
  rms(prec ) = 0.37885E+00
  weight for this iteration     100.00

 eigenvalues of (default mixing * dielectric matrix)
  average eigenvalue GAMMA=   0.8038
  2.2259  1.7686  0.9095  0.9095  0.7782  0.7782  0.4285  0.4285  0.2308  0.2308
  0.1530

 Free energy of the ion-electron system (eV)
  ---------------------------------------------------
  alpha Z        PSCENC =      2210.34415451
  Ewald energy   TEWEN  =    -39581.55766028
  -Hartree energ DENC   =    -23729.54652531
  -exchange      EXHF   =         0.00000000
  -V(xc)+E(xc)   XCENC  =      3241.15060114
  PAW double counting   =     89502.15136347   -89164.25510491
  entropy T*S    EENTRO =        -0.04355939
  eigenvalues    EBANDS =     -8336.06197397
  atomic energy  EATOM  =     64968.54023382
  Solvation  Ediel_sol  =         0.00000000
  ---------------------------------------------------
  free energy    TOTEN  =      -889.27847093 eV

  energy without entropy =     -889.23491154  energy(sigma->0) =     -889.25669123


--------------------------------------------------------------------------------------------------------




--------------------------------------- Iteration      1(  17)  ---------------------------------------


    POTLOK:  cpu time    0.2063: real time    0.2250
    SETDIJ:  cpu time    0.4237: real time    0.4237
     EDDAV:  cpu time   56.1976: real time   56.1995
       DOS:  cpu time    0.0021: real time    0.0021
    CHARGE:  cpu time    2.1959: real time    2.1958
    MIXING:  cpu time    0.0131: real time    0.0131
    --------------------------------------------
      LOOP:  cpu time   59.0386: real time   59.0592

 eigenvalue-minimisations  : 10496
 total energy-change (2. order) :-0.5590332E-01  (-0.3450658E-01)
 number of electron     864.0000006 magnetization 
 augmentation part      117.5554980 magnetization 

 Broyden mixing:
  rms(total) = 0.73691E+00    rms(broyden)= 0.73671E+00
  rms(prec ) = 0.10576E+01
  weight for this iteration     100.00

 eigenvalues of (default mixing * dielectric matrix)
  average eigenvalue GAMMA=   0.8401
  2.1184  2.1184  1.1531  1.0329  1.0329  0.5661  0.5661  0.4502  0.4502  0.2246
  0.2186  0.1491

 Free energy of the ion-electron system (eV)
  ---------------------------------------------------
  alpha Z        PSCENC =      2210.34415451
  Ewald energy   TEWEN  =    -39581.55766028
  -Hartree energ DENC   =    -23735.02219209
  -exchange      EXHF   =         0.00000000
  -V(xc)+E(xc)   XCENC  =      3241.36079724
  PAW double counting   =     89339.34380143   -89000.46688045
  entropy T*S    EENTRO =        -0.00268846
  eigenvalues    EBANDS =     -8331.87393996
  atomic energy  EATOM  =     64968.54023382
  Solvation  Ediel_sol  =         0.00000000
  ---------------------------------------------------
  free energy    TOTEN  =      -889.33437424 eV

  energy without entropy =     -889.33168578  energy(sigma->0) =     -889.33303001


--------------------------------------------------------------------------------------------------------




--------------------------------------- Iteration      1(  18)  ---------------------------------------


    POTLOK:  cpu time    0.1624: real time    0.1734
    SETDIJ:  cpu time    0.4105: real time    0.4105
     EDDAV:  cpu time   57.1837: real time   57.1855
       DOS:  cpu time    0.0019: real time    0.0019
    CHARGE:  cpu time    2.2099: real time    2.2099
    MIXING:  cpu time    0.0127: real time    0.0127
    --------------------------------------------
      LOOP:  cpu time   59.9811: real time   59.9939

 eigenvalue-minimisations  : 10752
 total energy-change (2. order) :-0.2318309E+00  (-0.2729654E-01)
 number of electron     864.0000006 magnetization 
 augmentation part      117.5643883 magnetization 

 Broyden mixing:
  rms(total) = 0.11969E+01    rms(broyden)= 0.11960E+01
  rms(prec ) = 0.16406E+01
  weight for this iteration     100.00

 eigenvalues of (default mixing * dielectric matrix)
  average eigenvalue GAMMA=   0.7614
  2.0255  2.0255  1.0760  1.0760  0.9103  0.6234  0.6234  0.4354  0.4354  0.2207
  0.2207  0.1494  0.0768

 Free energy of the ion-electron system (eV)
  ---------------------------------------------------
  alpha Z        PSCENC =      2210.34415451
  Ewald energy   TEWEN  =    -39581.55766028
  -Hartree energ DENC   =    -23740.42174611
  -exchange      EXHF   =         0.00000000
  -V(xc)+E(xc)   XCENC  =      3241.59368994
  PAW double counting   =     89304.74238567   -88965.62420864
  entropy T*S    EENTRO =        -0.00003968
  eigenvalues    EBANDS =     -8327.18301438
  atomic energy  EATOM  =     64968.54023382
  Solvation  Ediel_sol  =         0.00000000
  ---------------------------------------------------
  free energy    TOTEN  =      -889.56620514 eV

  energy without entropy =     -889.56616546  energy(sigma->0) =     -889.56618530


--------------------------------------------------------------------------------------------------------




--------------------------------------- Iteration      1(  19)  ---------------------------------------


    POTLOK:  cpu time    0.2101: real time    0.2301
    SETDIJ:  cpu time    0.4554: real time    0.4554
     EDDAV:  cpu time   52.5214: real time   52.5223
       DOS:  cpu time    0.0020: real time    0.0020
    CHARGE:  cpu time    2.2221: real time    2.2221
    MIXING:  cpu time    0.0129: real time    0.0129
    --------------------------------------------
      LOOP:  cpu time   55.4239: real time   55.4449

 eigenvalue-minimisations  :  9600
 total energy-change (2. order) : 0.2561916E+00  (-0.6038398E-02)
 number of electron     864.0000006 magnetization 
 augmentation part      117.5639072 magnetization 

 Broyden mixing:
  rms(total) = 0.11527E+01    rms(broyden)= 0.11527E+01
  rms(prec ) = 0.15794E+01
  weight for this iteration     100.00

 eigenvalues of (default mixing * dielectric matrix)
  average eigenvalue GAMMA=   0.7314
  2.0778  2.0778  1.0451  1.0451  0.9040  0.6441  0.6441  0.4318  0.4318  0.2250
  0.2250  0.1990  0.1487  0.1407

[...]
   0.170E+02 0.827E+01 -.584E+02   0.557E+01 -.181E+02 0.659E+02   -.241E+02 0.957E+01 -.481E+01   -.408E-02 0.243E-02 0.208E-02
   0.742E+00 0.116E+03 -.453E+02   0.132E+02 -.993E+02 0.500E+02   -.183E+02 -.210E+02 -.283E+01   -.484E-02 0.139E-02 -.319E-02
   0.224E+03 0.451E+02 -.134E+03   -.262E+03 -.461E+02 0.137E+03   0.383E+02 -.152E+00 -.280E+01   0.271E-02 0.737E-02 -.359E-03
   -.288E+02 -.817E+01 0.157E+03   0.874E+01 0.123E+02 -.185E+03   0.210E+02 -.305E+01 0.246E+02   0.371E-02 -.214E-02 0.116E-03
   -.932E+02 -.110E+03 -.132E+02   0.111E+03 0.112E+03 -.236E+01   -.180E+02 -.103E+01 0.197E+02   0.182E-02 -.123E-02 0.176E-02
   0.799E+02 -.717E+02 0.168E+03   -.775E+02 0.847E+02 -.170E+03   -.526E+01 -.136E+02 -.307E+01   -.113E-02 0.777E-03 0.176E-02
   0.130E+03 -.553E+02 0.178E+03   -.151E+03 0.636E+02 -.183E+03   0.219E+02 -.111E+02 0.261E+01   0.321E-02 -.131E-02 -.309E-02
   0.807E+02 0.136E+03 -.679E+02   -.846E+02 -.146E+03 0.719E+02   0.151E+01 0.955E+01 -.569E+01   -.270E-02 -.304E-02 0.233E-02
   -.784E+02 0.104E+03 -.708E+02   0.714E+02 -.127E+03 0.655E+02   0.791E+01 0.243E+02 0.613E+01   0.305E-02 0.994E-03 0.778E-03
   -.460E+02 0.584E+02 -.155E+03   0.405E+02 -.664E+02 0.178E+03   0.452E+01 0.100E+02 -.257E+02   -.168E-02 -.209E-02 0.295E-02
   0.152E+03 -.431E+02 0.273E+03   -.155E+03 0.333E+02 -.304E+03   0.114E+01 0.119E+02 0.278E+02   -.229E-03 0.119E-02 -.306E-02
   -.727E+02 -.104E+03 0.482E+02   0.946E+02 0.125E+03 -.444E+02   -.227E+02 -.222E+02 -.273E+01   0.517E-03 -.232E-03 -.243E-02
   0.988E+02 -.157E+02 -.311E+02   -.120E+03 0.127E+02 0.501E+02   0.213E+02 0.608E+00 -.189E+02   -.203E-02 -.123E-02 -.148E-02
   -.133E+02 -.132E+03 -.349E+02   0.140E+02 0.145E+03 0.269E+02   -.923E+00 -.114E+02 0.805E+01   0.333E-02 0.211E-02 0.596E-02
   -.298E+02 -.373E+02 -.180E+03   0.224E+02 0.307E+02 0.198E+03   0.116E+02 0.828E+01 -.187E+02   -.110E-01 0.218E-02 0.798E-02
   0.269E+02 0.180E+02 0.569E+02   -.253E+02 -.316E+02 -.673E+02   -.456E+01 0.141E+02 0.102E+02   0.550E-02 -.805E-02 -.501E-02
   0.795E+02 -.168E+03 0.323E+02   -.754E+02 0.185E+03 -.654E+02   -.371E+01 -.139E+02 0.264E+02   0.895E-03 -.126E-02 0.284E-02
   -.380E+02 -.784E+02 -.675E+02   0.241E+02 0.960E+02 0.573E+02   0.164E+02 -.125E+02 0.116E+02   -.388E-02 0.654E-02 0.443E-03
   -.577E+02 -.106E+03 0.260E+02   0.763E+02 0.142E+03 -.108E+02   -.153E+02 -.266E+02 -.120E+02   -.493E-02 0.214E-02 0.103E-02
   -.161E+02 0.124E+02 -.252E+02   -.930E+00 -.601E+01 0.395E+02   0.195E+02 -.864E+01 -.157E+02   0.190E-02 0.121E-02 -.321E-02
   0.187E+01 0.248E+02 -.129E+03   0.113E+01 -.298E+02 0.170E+03   -.509E+01 0.776E+01 -.270E+02   0.111E-02 -.266E-02 -.339E-02
   -.244E+02 0.594E+02 -.608E+01   0.114E+02 -.378E+02 0.981E+01   0.153E+02 -.233E+02 -.325E+01   -.404E-02 -.125E-02 0.164E-02
   -.261E+02 0.290E+02 -.909E+02   0.271E+02 -.166E+02 0.111E+03   -.988E+00 -.141E+02 -.224E+02   0.106E-01 0.386E-02 0.737E-02
   0.978E+01 -.280E+02 -.160E+03   -.188E+02 0.316E+02 0.184E+03   0.103E+02 -.311E+01 -.258E+02   -.621E-02 -.267E-02 -.279E-02
   0.475E+02 -.231E+01 -.743E+02   -.463E+02 -.284E+01 0.906E+02   -.138E+01 0.668E+01 -.158E+02   -.357E-02 -.842E-03 -.191E-02
   -.174E+02 0.671E+02 -.298E+02   0.469E+02 -.781E+02 0.113E+02   -.234E+02 0.710E+01 0.158E+02   -.172E-02 -.946E-02 -.523E-02
   -.594E+02 0.116E+03 0.901E+02   0.640E+02 -.108E+03 -.105E+03   -.564E+01 -.113E+02 0.189E+02   0.393E-02 0.408E-02 -.132E-02
   -.875E+02 0.121E+03 0.517E+02   0.880E+02 -.121E+03 -.655E+02   0.352E-01 -.335E+01 0.113E+02   -.477E-02 0.186E-02 -.516E-02
   0.282E+02 0.166E+02 -.119E+02   -.327E+02 -.172E+02 -.952E+00   0.530E+01 0.236E+00 0.145E+02   -.133E-02 -.142E-02 0.190E-02
   -.716E+02 0.685E+02 -.294E+02   0.903E+02 -.756E+02 0.201E+02   -.211E+02 0.667E+01 0.116E+02   -.217E-02 0.331E-02 -.316E-02
   -.514E+02 0.247E+02 0.858E+02   0.657E+02 -.491E+02 -.891E+02   -.136E+02 0.214E+02 0.377E+01   -.352E-03 -.974E-03 -.568E-03
   0.472E+02 -.122E+03 0.457E+02   -.608E+02 0.119E+03 -.564E+02   0.162E+02 0.647E+01 0.134E+02   -.229E-03 -.259E-03 -.134E-02
   0.233E+02 0.172E+03 -.515E+02   -.971E+01 -.192E+03 0.667E+02   -.160E+02 0.188E+02 -.177E+02   0.233E-02 -.450E-02 0.215E-02
   -.803E+02 -.659E+02 -.130E+03   0.611E+02 0.596E+02 0.162E+03   0.191E+02 0.317E+01 -.260E+02   0.503E-03 -.138E-02 -.793E-03
   -.447E+01 -.239E+02 0.105E+03   0.281E+01 0.432E+02 -.989E+02   0.376E+01 -.196E+02 -.605E+01   -.718E-03 -.109E-02 -.743E-04
   0.682E+02 -.768E+02 0.560E+01   -.881E+02 0.810E+02 0.195E+02   0.181E+02 -.280E+01 -.195E+02   0.283E-02 -.182E-02 -.279E-02
   -.114E+03 0.573E+02 0.121E+03   0.138E+03 -.535E+02 -.114E+03   -.275E+02 -.502E+01 -.875E+01   0.136E-02 -.340E-03 -.545E-02
   0.126E+03 0.599E+02 -.754E+02   -.166E+03 -.566E+02 0.892E+02   0.305E+02 -.263E+01 -.119E+02   0.227E-02 -.177E-02 -.455E-04
   0.133E+02 -.942E+02 -.129E+00   -.956E+01 0.119E+03 0.139E+02   -.422E+01 -.237E+02 -.142E+02   -.180E-02 0.209E-02 -.264E-02
   -.340E+02 0.535E+02 0.121E+03   0.309E+02 -.457E+02 -.131E+03   0.223E+01 -.978E+01 0.120E+02   -.313E-02 -.293E-02 -.419E-02
   -.884E+01 0.153E+02 0.135E+03   0.299E+02 -.144E+02 -.130E+03   -.233E+02 -.103E+01 -.642E+01   0.110E-02 0.209E-03 0.242E-02
   -.154E+03 0.508E+02 -.185E+03   0.179E+03 -.566E+02 0.222E+03   -.201E+02 0.395E+01 -.304E+02   0.476E-03 0.210E-03 0.209E-02
   0.769E+01 0.133E+02 -.168E+02   -.155E+02 -.215E+02 0.246E+02   0.104E+02 0.103E+02 -.107E+02   0.212E-02 0.188E-02 0.732E-02
   0.115E+03 -.464E+02 -.170E+03   -.129E+03 0.654E+02 0.158E+03   0.163E+02 -.190E+02 0.167E+02   0.494E-03 0.565E-02 0.686E-02
   0.712E+01 -.191E+02 0.263E+02   0.176E+02 0.180E+02 -.456E+02   -.210E+02 0.232E+01 0.173E+02   -.222E-02 -.245E-02 0.257E-04
   -.438E+01 0.600E+02 -.769E+02   0.305E+02 -.631E+02 0.714E+02   -.207E+02 -.953E+00 0.234E+01   0.363E-02 0.112E-02 0.743E-02
   -.232E+02 0.168E+01 0.473E+02   0.376E+02 -.994E+01 -.688E+02   -.167E+02 0.643E+01 0.160E+02   -.196E-02 -.187E-02 -.186E-02
   -.762E+02 -.501E+01 0.687E+01   0.830E+02 -.732E+01 -.138E+02   -.705E+01 0.132E+02 0.717E+01   0.315E-03 0.114E-02 0.400E-03
 -----------------------------------------------------------------------------------------------
   0.168E+02 0.136E+02 -.152E+01   -.213E-12 -.488E-13 0.111E-11   -.168E+02 -.136E+02 0.149E+01   -.455E-01 -.203E-01 0.272E-01
 
 
 POSITION                                       TOTAL-FORCE (eV/Angst)
 -----------------------------------------------------------------------------------
      9.06375      7.63548      0.43632        -0.009927     -0.770012     -0.894793
      2.31666      0.66134     10.77622         0.244305     -2.150862      1.273189
      1.55905      0.55553      1.42853        -2.238707      0.290046     -1.337227
     10.66208      4.01198     11.97110        -0.530247     -2.286292      0.889453
      2.72050      0.75622      7.11059        -0.919661     -2.084188     -1.056105
     11.24097     10.24296      9.38135        -0.136331      2.266658      2.500360
      8.08928      9.36412      7.35516        -1.298798      0.216470      0.773754
      6.46875      0.35512      6.51754         3.017064     -2.658684     -0.625424
      9.62989      1.60179      9.07423        -2.125232      0.495258      0.632359
     11.11291      3.19732      2.59645         0.759688     -1.195123      0.535662
      2.76565      4.37007      0.79203         1.573793     -3.419977      2.818126
      6.90014      6.24963      4.96199        -0.265076      1.081536      0.533897
      3.07709      7.14645      5.38899        -0.598920      0.819855      0.762594
     12.86175      5.75811     10.47752         1.709592      1.644384      1.148213
      5.46564     12.00630      1.75461         3.049671     -0.424336     -1.039956
      3.69902      5.02823      9.18859        -0.241846      0.556469      0.253544
      5.09149      8.48206      2.78183         0.404212      1.103663     -0.567162
     12.50588     10.93777      0.41408         0.096074     -1.953650     -2.479773
     10.96736      7.91273      3.98007         0.659612     -0.248603     -1.861586
      5.56072     11.68577     10.29112         0.096265      0.892182     -1.076919
      5.80840      8.74362     11.51033         4.218490     -2.800784     -1.543586
      9.97836      6.11729      8.47663        -0.808391      0.769096      0.410589
      7.12622      3.73466      8.28474        -0.243537     -1.830651     -0.144232
      8.22610      1.03905     12.14512        -0.459570      0.695436     -0.765922
      2.99292      6.80078     12.53298        -2.307959      2.713384     -1.523697
      1.35759      3.94158      4.28851         0.695613      1.220544      0.847139
      6.36329      1.86551      2.90470         0.391611      0.653441      0.771095
      9.75828      4.95432      5.39557         2.894983     -4.976314     -1.511583
      0.98300      8.99919     10.47691         8.909188      0.216014     -2.334992
     11.71494     12.75261     11.63717         3.112023      9.491547      0.025998
      9.80932      1.74015      6.06634        -2.246187     -4.234712     -2.561330
     12.82821      6.33543      6.29259        -2.128250     -0.430013     -9.958878
      8.20224      9.05651      3.27109         0.131257      6.417993     -7.513581
      3.64316     11.19048      4.39597        -1.965371     -7.654561     -3.447831
     12.87757      8.54573      7.55232        -0.328856      1.336834     -2.249938
      4.88704      1.88707      9.62897         4.931615      0.801291     -0.308920
      4.23713      4.89515      4.00418         0.596255     -1.273129     -0.185967
      6.44394      3.53621     12.75155         1.895145     -5.814761     -0.823432
      0.37006     11.10638      3.34369        -1.898150      1.120552     -1.662612
      4.57985      1.17487      0.40856        -1.938746      0.587614     -1.385490
      3.95637     10.93336      7.28314         1.615044     -1.218168     -1.124059
      0.62674     11.96103      5.73567         3.731810      1.879366      1.080247
      8.89418     12.86036      3.90772         0.661696      3.945887      1.115392
     11.44549      3.41883      8.21552         2.342135      4.524834      4.651234
      7.89334      6.17525     10.76142         0.327177      0.865292     -1.643666
      1.37270      3.12707     11.64373        -1.764228      0.019794      3.547023
      5.09402      7.90273      7.86224         1.764720      2.526721      3.552651
      4.39652      2.84890      5.77717         5.681663      1.367426     -0.369348
      8.45239     11.35088     10.24169         1.141021     -2.089397     -2.667511
      1.35515      8.48961      2.59603         3.546451      3.250019     -0.641488
      6.25444      6.01992      0.40563        -6.563562      0.885719     -4.937283
      3.24519     10.34256     12.64395       -12.917828      2.442525      2.235862
     10.06379      0.64146      1.20237        -7.070110      6.276664      3.381550
     12.42712      5.85455      1.24011        -1.859194     -1.647804      5.280764
     10.91764     11.52409     11.51536        -0.554633     -4.877480      0.139551
      0.78729      0.62450      5.73543        -0.539052     -1.676556      1.176769
      7.89857      7.89202     11.20648        -0.699912     -4.028139      0.062040
     12.69066      9.57929      2.61251         3.631091     -0.714106      1.775895
      3.08348      4.44089      2.95257         1.372822      0.955512      1.120089
      0.42647      8.10258      5.86253        -2.507598      1.378061      1.347773
      9.81691      3.07935      5.23861         0.428658      5.593121     -1.368904
      0.95138      7.00157      2.71169        -2.135914     -2.250523     -0.978714
      1.90955     11.58006      4.03613        -1.677798     -1.529301     -0.270862
      3.70850      1.21940      8.86368        -1.070430     -1.049259      2.251632
      4.12294     10.13606      5.87164        -1.359611      0.032163     -3.996357
      7.03757      9.83344      2.43656        -0.959304     -1.781227     -0.652886
      0.32497      4.45004      1.40873        -1.296317      1.340222      2.308171
      9.66166      5.96497     10.73611        -2.117361     -0.049611      0.656367
      6.66290      7.93673      8.35893         1.426068      2.188486      2.150160
     10.74832      2.32576      7.37598         1.804413     -1.811621     -1.909284
     10.22742      0.63757      4.75268        -0.390013     -0.881893      5.141049
      5.08339      6.31568      3.56065        -1.690807     -2.216680      1.370948
      8.43984      0.30890      1.13010         0.207863     -2.779035      0.991776
      3.11861      2.60329      6.44267        -6.473061      0.758323      0.890026
      2.69270      8.77927      3.85011        -2.180030     -0.418125     -2.851406
      8.49162      1.10190      6.83538         3.252650      2.243263      1.021307
      1.91446     11.30971      6.95031        -0.302489      1.116870     -1.020411
      4.38205     10.93863      2.84592        -3.115055     -3.502437      3.707596
      5.82958      7.53074      0.39648        -1.382252      4.162278     -0.520231
      5.02440      3.17718      4.31648         0.080309      1.992116     -1.982151
     11.03778      0.96404     10.42838         2.408998     -0.941959      2.487328
      7.14854      2.56167      1.09444        -0.985812      2.786425     -1.474686
      4.52774      5.53619     12.81093         3.410725     -1.434853      1.283820
     10.64046      6.27810      1.68898         3.956643     -1.392350      0.445496
      7.64001      1.09116      4.48332         0.922783     -3.275379     -2.507619
      7.34628      2.90390     11.48110        -1.232080      0.783322      0.611596
      5.49400      1.99595      6.61779        -1.812630      5.313180     -1.112225
      2.60040      2.31039     12.34072        -1.539565     -0.261560      2.697816
      4.99175     12.25398      7.53118        -4.451250     -3.796987      1.823364
     12.36104     11.38635      4.72210         1.307025     -1.193184      0.494223
      8.73452      5.35942      4.31244         0.991527      1.112539     -2.993727
      9.46534      8.70654      2.21046        -0.364405      0.236496      4.126521
      1.96187      4.81272     11.98673        -2.836050     -0.563211     -4.816301
     11.29475      9.16663      7.63436         1.184438     -2.750808     -2.005642
      0.09322      2.52360      4.17058        -2.386193     -0.711104     -1.722310
      8.63747     11.28146      3.69998         0.920731      0.894368      0.796969
      7.36469     11.07117     11.53386        -1.025219      2.077223     -2.259316
      1.42645      2.37423     10.27810        -1.767124      2.056023     -2.943378
      0.95337      9.41121      8.49116        -0.748861     -1.439232      1.053268
      4.01719      7.25307      8.84436        -0.468694     -2.463826      0.072897
      9.95746      2.10839      0.25796        -0.213355      1.914799      0.082183
      3.57001      0.63169      1.72471         4.213964      1.711636     -1.250316
     11.55788      5.48778      5.59951        -3.011164      0.596116     -0.271862
     12.56324      6.36149     12.79375         0.337893      2.383153     -6.717691
      4.81374      2.71738      0.03717         2.500656      5.085954      1.502910
      4.21430     12.38992      4.92428         3.265486      9.246660      3.220974
     10.11244      4.08058      9.12364         2.488157     -2.223974     -1.375786
     12.81142      6.80226      7.63430        -2.090081      2.806911     13.876926
      2.56028     11.76950      0.13588         2.227653     -1.743854      0.482979
     10.00733      1.26041      2.77824         0.043874     -1.767979     -2.804928
      3.82908      4.84660      5.67970         1.251916      0.475697     -1.965269
      4.45375      9.56624      8.14525        -0.151051      1.534993      0.494642
      1.08589      5.85784      5.58730         6.155488     -3.878954     -2.769610
      9.02348     12.71133      9.36950        -1.105836     -3.160977      3.835309
      4.57439      0.90650     11.67756         0.590491     -3.384633     -2.462834
      2.06398      8.93426      0.87839         0.804336     -0.338591      1.639528
      6.47615      1.62536      8.92989        -2.458147     -0.417808      2.256044
      1.57942      7.55009     10.46785         0.701931     -3.059509      0.531145
      7.01817      5.37889      9.45759         2.534750      2.820306      2.679311
      9.52858     10.17098     10.61669        -2.434172     -0.823636     -2.457023
      7.58913      8.56542      4.53840        -0.076091     -3.209254      5.240740
      1.83675     10.07693     11.39080         2.090466     -0.296758      0.247716
      9.03045      5.25425      6.68017        -1.864906      1.401807      5.516104
     12.87501      4.10343      8.85304        -3.252603     -1.213079     -2.173502
     12.52315      9.18015     10.74865        -9.655852      0.661842      1.966590
      4.81485      3.42251     10.01359        -0.527551      0.911438     -0.443589
      7.72427     11.24134      8.39376        -0.905198     -1.953111      2.100998
      0.45480     12.73146     12.08182        -2.269133     -0.075524     -1.497688
      7.09466      5.86642      1.57712         4.632013     -1.812805      6.445570
     12.52331      2.69020     12.68025         2.594229      2.095844     -2.827295
     12.76347     12.05103      2.07291         2.524622      0.017653      3.963407
      4.46516     10.12713     11.85815         3.753208      1.245051     -2.046186
     11.21246      0.19018      0.39691         5.347707     -4.022475     -3.179087
      5.61942      7.35202      6.51458        -2.350200     -1.827348     -5.444513
      7.10671      5.28115     12.07645        -0.264211      0.858366      0.209664
 -----------------------------------------------------------------------------------
    total drift:                                0.016961     -0.007436     -0.003240


--------------------------------------------------------------------------------------------------------



  FREE ENERGIE OF THE ION-ELECTRON SYSTEM (eV)
  ---------------------------------------------------
  free  energy   TOTEN  =      -889.04925624 eV

  energy  without entropy=     -888.99233626  energy(sigma->0) =     -889.02079625
 


--------------------------------------------------------------------------------------------------------


    POTLOK:  cpu time    0.5717: real time    0.5718


--------------------------------------------------------------------------------------------------------


     LOOP+:  cpu time 3195.1547: real time 3196.3309
    4ORBIT:  cpu time    0.0000: real time    0.0000

 total amount of memory used by VASP MPI-rank0   200742. kBytes
=======================================================================

   base      :      30000. kBytes
   nonlr-proj:      23369. kBytes
   fftplans  :      33572. kBytes
   grid      :      19248. kBytes
   one-center:        171. kBytes
   wavefun   :      94382. kBytes
 
  
  
 General timing and accounting informations for this job:
 ========================================================
  
                  Total CPU time used (sec):     3224.330
                            User time (sec):     3208.373
                          System time (sec):       15.957
                         Elapsed time (sec):     3225.790
  
                   Maximum memory used (kb):      363344.
                   Average memory used (kb):           0.
  
                          Minor page faults:       290032
                          Major page faults:            0
                 Voluntary context switches:         5101
