 vasp.5.4.4.18Apr17-6-g9f103f2a35 (build Mar 16 2023 09:39:13) complex          
  
 executed on             LinuxIFC date 2024.04.29  20:15:39
 running on   48 total cores
 distrk:  each k-point on   48 cores,    1 groups
 distr:  one band on NCORES_PER_BAND=  12 cores,    4 groups


--------------------------------------------------------------------------------------------------------


 INCAR:
 POTCAR:    PAW_PBE Ca_sv 06Sep2000               
 POTCAR:    PAW_PBE Si 05Jan2001                  
 POTCAR:    PAW_PBE O 08Apr2002                   
 POTCAR:    PAW_PBE Ca_sv 06Sep2000               
   SHA256 =  a47365830e737f14e0e6c5cf1ed81b94e081eecf0a33df105380881bc9da05d5 Ca
   COPYR  = (c) Copyright 06Sep2000 Georg Kresse                                
   COPYR  = This file is part of the software VASP. Any use, copying, and all ot
   COPYR  = If you do not have a valid VASP license, you may not use, copy or di
   VRHFIN =Ca: 3s3p4s                                                           
   LEXCH  = PE                                                                  
   EATOM  =  1006.0909 eV,   73.9456 Ry                                         
                                                                                
   TITEL  = PAW_PBE Ca_sv 06Sep2000                                             
   LULTRA =        F    use ultrasoft PP ?                                      
   IUNSCR =        1    unscreen: 0-lin 1-nonlin 2-no                           
   RPACOR =    2.000    partial core radius                                     
   POMASS =   40.078; ZVAL   =   10.000    mass and valenz                      
   RCORE  =    2.300    outmost cutoff radius                                   
   RWIGS  =    2.500; RWIGS  =    1.323    wigner-seitz radius (au A)           
   ENMAX  =  266.622; ENMIN  =  199.967 eV                                      
   RCLOC  =    1.808    cutoff for local pot                                    
   LCOR   =        T    correct aug charges                                     
   LPAW   =        T    paw PP                                                  
   EAUG   =  420.852                                                            
   RMAX   =    2.359    core radius for proj-oper                               
   RAUG   =    1.300    factor for augmentation sphere                          
   RDEP   =    2.392    radius for radial grids                                 
   RDEPT  =    1.987    core radius for aug-charge                              
                                                                                
   Atomic configuration                                                         
    7 entries                                                                   
     n  l   j            E        occ.                                          
     1  0  0.50     -3949.1705   2.0000                                         
     2  0  0.50      -414.3434   2.0000                                         
     2  1  1.50      -334.7047   6.0000                                         
     3  0  0.50       -47.0896   2.0000                                         
     4  0  0.50        -3.7663   2.0000                                         
     3  1  1.50       -28.0061   6.0000                                         
     3  2  1.50        -4.0817   0.0000                                         
   Description                                                                  
     l       E           TYP  RCUT    TYP  RCUT                                 
     0    -47.0896403     23  2.300                                             
     0     -3.7663320     23  2.300                                             
     1    -28.0060855     23  2.300                                             
     1      6.8029130     23  2.300                                             
     2     -4.0817478     23  2.300                                             
     2      0.4464412     23  2.300                                             
  local pseudopotential read in
  partial core-charges read in
  partial kinetic energy density read in
  atomic valenz-charges read in
  non local Contribution for L=           0  read in
    real space projection operators read in
  non local Contribution for L=           0  read in
    real space projection operators read in
  non local Contribution for L=           1  read in
    real space projection operators read in
  non local Contribution for L=           1  read in
    real space projection operators read in
  non local Contribution for L=           2  read in
    real space projection operators read in
  non local Contribution for L=           2  read in
    real space projection operators read in
    PAW grid and wavefunctions read in
 
   number of l-projection  operators is LMAX  =           6
   number of lm-projection operators is LMMAX =          18
 
 POTCAR:    PAW_PBE Si 05Jan2001                  
   SHA256 =  79d9987ad8750f624c4d6acb2a16d13abf6a777132adc04dc6c8399be72b42bb Si
   COPYR  = (c) Copyright 05Jan2001 Georg Kresse                                
   COPYR  = This file is part of the software VASP. Any use, copying, and all ot
   COPYR  = If you do not have a valid VASP license, you may not use, copy or di
   VRHFIN =Si: s2p2                                                             
   LEXCH  = PE                                                                  
   EATOM  =   103.0669 eV,    7.5752 Ry                                         
                                                                                
   TITEL  = PAW_PBE Si 05Jan2001                                                
   LULTRA =        F    use ultrasoft PP ?                                      
   IUNSCR =        1    unscreen: 0-lin 1-nonlin 2-no                           
   RPACOR =    1.500    partial core radius                                     
   POMASS =   28.085; ZVAL   =    4.000    mass and valenz                      
   RCORE  =    1.900    outmost cutoff radius                                   
   RWIGS  =    2.480; RWIGS  =    1.312    wigner-seitz radius (au A)           
   ENMAX  =  245.345; ENMIN  =  184.009 eV                                      
   ICORE  =        2    local potential                                         
   LCOR   =        T    correct aug charges                                     
   LPAW   =        T    paw PP                                                  
   EAUG   =  322.069                                                            
   DEXC   =    0.000                                                            
   RMAX   =    1.950    core radius for proj-oper                               
   RAUG   =    1.300    factor for augmentation sphere                          
   RDEP   =    1.993    radius for radial grids                                 
   RDEPT  =    1.837    core radius for aug-charge                              
                                                                                
   Atomic configuration                                                         
    6 entries                                                                   
     n  l   j            E        occ.                                          
     1  0  0.50     -1785.8828   2.0000                                         
     2  0  0.50      -139.4969   2.0000                                         
     2  1  1.50       -95.5546   6.0000                                         
     3  0  0.50       -10.8127   2.0000                                         
     3  1  0.50        -4.0811   2.0000                                         
     3  2  1.50        -4.0817   0.0000                                         
   Description                                                                  
     l       E           TYP  RCUT    TYP  RCUT                                 
     0    -10.8127223     23  1.900                                             
     0     -7.6451159     23  1.900                                             
     1     -4.0811372     23  1.900                                             
     1      2.4879257     23  1.900                                             
     2     -4.0817478      7  1.900                                             
  local pseudopotential read in
  partial core-charges read in
  partial kinetic energy density read in
  atomic valenz-charges read in
  non local Contribution for L=           0  read in
    real space projection operators read in
  non local Contribution for L=           0  read in
    real space projection operators read in
  non local Contribution for L=           1  read in
    real space projection operators read in
  non local Contribution for L=           1  read in
    real space projection operators read in
    PAW grid and wavefunctions read in
 
   number of l-projection  operators is LMAX  =           4
   number of lm-projection operators is LMMAX =           8
 
 POTCAR:    PAW_PBE O 08Apr2002                   
   SHA256 =  818f92134a0a090dccd8ba1447fa70422a3b330e708bb4f08108d8ae51209ddf O/
   COPYR  = (c) Copyright 08Apr2002 Georg Kresse                                
   COPYR  = This file is part of the software VASP. Any use, copying, and all ot
   COPYR  = If you do not have a valid VASP license, you may not use, copy or di
   VRHFIN =O: s2p4                                                              
   LEXCH  = PE                                                                  
   EATOM  =   432.3788 eV,   31.7789 Ry                                         
                                                                                
   TITEL  = PAW_PBE O 08Apr2002                                                 
   LULTRA =        F    use ultrasoft PP ?                                      
   IUNSCR =        1    unscreen: 0-lin 1-nonlin 2-no                           
   RPACOR =    1.200    partial core radius                                     
   POMASS =   16.000; ZVAL   =    6.000    mass and valenz                      
   RCORE  =    1.520    outmost cutoff radius                                   
   RWIGS  =    1.550; RWIGS  =    0.820    wigner-seitz radius (au A)           
   ENMAX  =  400.000; ENMIN  =  300.000 eV                                      
   ICORE  =        2    local potential                                         
   LCOR   =        T    correct aug charges                                     
   LPAW   =        T    paw PP                                                  
   EAUG   =  605.392                                                            
   DEXC   =    0.000                                                            
   RMAX   =    1.553    core radius for proj-oper                               
   RAUG   =    1.300    factor for augmentation sphere                          
   RDEP   =    1.550    radius for radial grids                                 
   RDEPT  =    1.329    core radius for aug-charge                              
                                                                                
   Atomic configuration                                                         
    4 entries                                                                   
     n  l   j            E        occ.                                          
     1  0  0.50      -514.6923   2.0000                                         
     2  0  0.50       -23.9615   2.0000                                         
     2  1  0.50        -9.0305   4.0000                                         
     3  2  1.50        -9.5241   0.0000                                         
   Description                                                                  
     l       E           TYP  RCUT    TYP  RCUT                                 
     0    -23.9615318     23  1.200                                             
     0     -9.5240782     23  1.200                                             
     1     -9.0304911     23  1.520                                             
     1      8.1634956     23  1.520                                             
     2     -9.5240782      7  1.500                                             
  local pseudopotential read in
  partial core-charges read in
  partial kinetic energy density read in
  kinetic energy density of atom read in
  atomic valenz-charges read in
  non local Contribution for L=           0  read in
    real space projection operators read in
  non local Contribution for L=           0  read in
    real space projection operators read in
  non local Contribution for L=           1  read in
    real space projection operators read in
  non local Contribution for L=           1  read in
    real space projection operators read in
    PAW grid and wavefunctions read in
 
   number of l-projection  operators is LMAX  =           4
   number of lm-projection operators is LMMAX =           8
 
 Optimization of the real space projectors (new method)

 maximal supplied QI-value         = 16.25
 optimisation between [QCUT,QGAM] = [ 12.51, 25.03] = [ 43.85,175.40] Ry 
 Optimized for a Real-space Cutoff    1.47 Angstroem

   l    n(q)    QCUT    max X(q) W(low)/X(q) W(high)/X(q)  e(spline) 
   0     11    12.514    11.817    0.25E-04    0.32E-05    0.87E-07
   0     11    12.514     8.461    0.39E-04    0.59E-05    0.18E-06
   1     11    12.514     3.957    0.97E-05    0.57E-05    0.28E-07
   1     11    12.514     4.314    0.42E-04    0.14E-04    0.23E-06
   2     10    12.514    14.565    0.79E-04    0.50E-03    0.16E-05
   2     10    12.514    14.552    0.75E-04    0.48E-03    0.15E-05
 Optimization of the real space projectors (new method)

 maximal supplied QI-value         = 19.84
 optimisation between [QCUT,QGAM] = [ 12.50, 25.00] = [ 43.76,175.03] Ry 
 Optimized for a Real-space Cutoff    1.16 Angstroem

   l    n(q)    QCUT    max X(q) W(low)/X(q) W(high)/X(q)  e(spline) 
   0      9    12.501   159.560    0.10E-03    0.83E-04    0.71E-07
   0      9    12.501   115.863    0.99E-04    0.81E-04    0.70E-07
   1      8    12.501    88.339    0.20E-03    0.25E-03    0.76E-07
   1      8    12.501    48.592    0.20E-03    0.24E-03    0.75E-07
 Optimization of the real space projectors (new method)

 maximal supplied QI-value         = 24.76
 optimisation between [QCUT,QGAM] = [ 12.38, 25.00] = [ 42.90,175.06] Ry 
 Optimized for a Real-space Cutoff    1.16 Angstroem

   l    n(q)    QCUT    max X(q) W(low)/X(q) W(high)/X(q)  e(spline) 
   0      9    12.378    20.381    0.16E-03    0.67E-05    0.31E-06
   0      9    12.378    15.268    0.17E-03    0.81E-05    0.33E-06
   1      8    12.378     5.964    0.20E-03    0.16E-03    0.30E-06
   1      8    12.378     5.382    0.18E-03    0.14E-03    0.26E-06
  PAW_PBE Ca_sv 06Sep2000               :
 energy of atom  1       EATOM=-1006.0909
 kinetic energy error for atom=    0.0012 (will be added to EATOM!!)
  PAW_PBE Si 05Jan2001                  :
 energy of atom  2       EATOM= -103.0669
 kinetic energy error for atom=    0.0003 (will be added to EATOM!!)
  PAW_PBE O 08Apr2002                   :
 energy of atom  3       EATOM= -432.3788
 kinetic energy error for atom=    0.0168 (will be added to EATOM!!)
 
 
 POSCAR: Ca Si  O                                
  positions in direct lattice
  No initial velocities read in
 exchange correlation table for  LEXCH =        8
   RHO(1)=    0.500       N(1)  =     2000
   RHO(2)=  100.500       N(2)  =     4000
 


--------------------------------------------------------------------------------------------------------


 ion  position               nearest neighbor table
   1  0.052  0.503  0.891- 117 2.15  66 2.54   7 3.05  28 3.14  50 3.16
   2  0.448  0.052  0.221-  94 1.97
   3  0.333  0.470  0.935-  92 2.03  79 2.35
   4  0.416  0.851  0.002-  76 2.43  75 2.50  77 2.57  36 3.00  43 3.10
   5  0.919  0.067  0.531-  88 2.13  73 2.43  31 2.99
   6  0.754  0.492  0.751- 113 2.32 119 2.37 111 2.56  52 2.92  47 3.06
   7  0.084  0.289  0.965- 117 1.97 118 2.16 112 2.31  51 2.79   1 3.05
   8  0.828  0.427  0.466-  78 1.88 119 2.22  34 2.72
   9  0.969  0.865  0.197- 103 2.47
  10  0.035  0.874  0.895- 114 2.20 126 2.23 116 2.52  40 2.78
  11  0.396  0.705  0.361- 109 2.43  62 2.50  32 2.75  38 3.07
  12  0.673  0.974  0.310-  97 2.23 110 2.32  99 2.51  38 3.11
  13  0.387  0.299  0.249-  60 1.91 129 2.28  49 2.87
  14  0.393  0.775  0.732-  91 2.06 101 2.15 102 2.49
  15  0.797  0.520  0.996- 105 2.19 111 2.23  89 2.54
  16  0.697  0.696  0.625-  68 2.05 135 2.15  84 2.31  55 2.36  52 2.95
  17  0.427  0.085  0.777- 130 2.17 128 2.38 133 2.39  48 3.09  42 3.12  26 3.17
  18  0.781  0.982  0.815-  73 2.13
  19  0.145  0.028  0.320-  86 2.42 108 2.51  67 2.55  37 3.13
  20  0.183  0.070  0.015- 118 2.10 114 2.38 103 2.46  40 2.99
  21  0.997  0.581  0.645-  84 2.14  66 2.49  78 2.52
  22  0.550  0.135  0.460-  99 2.15  94 2.15 124 2.35  31 2.83  39 3.16
  23  0.700  0.616  0.323-  80 2.16 131 2.21  62 2.30 110 2.47  38 2.73
  24  0.694  0.214  0.856- 128 1.99 113 2.47  57 2.51
  25  0.646  0.276  0.191-  70 2.30  60 2.48 121 2.54
  26  0.298  0.223  0.632-  98 1.96 122 2.05 124 2.39  28 2.99  27 3.15  17 3.17
  27  0.099  0.143  0.731-  81 1.97 112 2.19 114 2.57  54 2.63  26 3.15
  28  0.165  0.378  0.726-  66 1.64 112 1.65 123 1.70  98 1.75  26 2.99   1 3.14
  29  0.891  0.423  0.203- 121 1.61 105 1.61  87 1.66 100 1.73  34 2.85  51 2.89  33 2.94
  30  0.191  0.805  0.603-  91 1.49  85 1.68  95 1.75 115 1.88  45 2.32  53 2.99
  31  0.703  0.073  0.594-  61 1.55  99 1.60 120 1.65  73 1.67  22 2.83   5 2.99
  32  0.355  0.557  0.223-  90 1.49 109 1.61  71 1.71  65 1.74  11 2.75  35 3.07  49 3.13
  33  0.879  0.205  0.238- 132 1.64 121 1.69 106 1.76  59 1.78  29 2.94
  34  0.965  0.541  0.366- 100 1.57  80 1.58  78 1.66  64 1.84  35 2.47   8 2.72  29 2.85
  35  0.141  0.554  0.309-  65 1.57  56 1.59  64 1.69  69 2.17  34 2.47  51 3.07  32 3.07
  36  0.611  0.751  0.950-  89 1.64  77 1.87  96 1.89   4 3.00
  37  0.132  0.230  0.201-  67 1.53 118 1.53  82 1.66  59 1.72  51 2.84  19 3.13
  38  0.609  0.775  0.415-  62 1.50  55 1.66 110 1.71  72 1.77  39 2.69  23 2.73  11 3.07  12 3.11

  39  0.536  0.914  0.543- 102 1.62  72 1.65 120 1.69  83 1.84  55 2.45  38 2.69  22 3.16
  40  0.230  0.929  0.847- 114 1.60 101 1.65  76 1.86 115 2.00  10 2.78  20 2.99
  41  0.816  0.031  0.086- 125 1.56 106 1.76 104 1.77  97 1.79
  42  0.545  0.257  0.669- 124 1.56 128 1.71 127 1.74  61 2.24  47 3.01  17 3.12
  43  0.217  0.855  0.123- 107 1.55 103 1.59  63 1.62  76 2.55  50 3.01   4 3.10
  44  0.603  0.009  0.971- 130 1.65  93 1.70  96 1.74 125 2.17
  45  0.079  0.866  0.484-  85 1.51 108 1.54  88 1.66  95 1.87  30 2.32
  46  0.575  0.406  0.950-  79 1.49 113 1.63  74 1.74  70 1.83
  47  0.601  0.458  0.583- 119 1.52 135 1.66 127 1.71  58 1.75  42 3.01   6 3.06
  48  0.408  0.162  0.995- 129 1.65 133 1.66  75 1.72  93 2.15  74 2.28  17 3.09
  49  0.517  0.439  0.348- 131 1.61  60 1.62  71 1.67  58 1.71  13 2.87  32 3.13
  50  0.178  0.660  0.017-  63 1.49  92 1.51 116 1.82  43 3.01   1 3.16
  51  0.093  0.425  0.124-  69 1.57 117 1.61  82 1.66  87 1.70   7 2.79  37 2.84  29 2.89  35 3.07

  52  0.836  0.690  0.797-  68 1.61 111 1.68  84 1.73 126 1.99   6 2.92  16 2.95
  53  0.297  0.989  0.528- 122 1.64  95 1.65  86 1.67  83 1.70  30 2.99
  54  0.926  0.238  0.731-  57 1.63 134 1.65  81 1.68  27 2.63
  55  0.689  0.821  0.500-  38 1.66  16 2.36  39 2.45
  56  0.151  0.525  0.425-  35 1.59
  57  0.861  0.292  0.820-  54 1.63  24 2.51
  58  0.580  0.422  0.458-  49 1.71  47 1.75
  59  0.013  0.208  0.246-  37 1.72  33 1.78
  60  0.513  0.323  0.313-  49 1.62  13 1.91  25 2.48
  61  0.691  0.178  0.644-  31 1.55  42 2.24
  62  0.570  0.670  0.423-  38 1.50  23 2.30  11 2.50
  63  0.200  0.739  0.093-  50 1.49  43 1.62
  64  0.044  0.635  0.303-  35 1.69  34 1.84
  65  0.250  0.595  0.291-  35 1.57  32 1.74
  66  0.048  0.417  0.720-  28 1.64  21 2.49   1 2.54
  67  0.203  0.208  0.289-  37 1.53  19 2.55
  68  0.717  0.686  0.778-  52 1.61  16 2.05
  69  0.104  0.539  0.151-  51 1.57  35 2.17
  70  0.645  0.397  0.068-  46 1.83  25 2.30
  71  0.419  0.516  0.326-  49 1.67  32 1.71
  72  0.507  0.858  0.436-  39 1.65  38 1.77
  73  0.798  0.028  0.662-  31 1.67  18 2.13   5 2.43
  74  0.497  0.301  0.948-  46 1.74  48 2.28
  75  0.382  0.036  0.002-  48 1.72   4 2.50
  76  0.248  0.824  0.937-  40 1.86   4 2.43  43 2.55
  77  0.490  0.712  0.891-  36 1.87   4 2.57
  78  0.949  0.498  0.482-  34 1.66   8 1.88  21 2.52
  79  0.507  0.485  0.909-  46 1.49   3 2.35
  80  0.858  0.591  0.354-  34 1.58  23 2.16
  81  0.956  0.120  0.764-  54 1.68  27 1.97
  82  0.169  0.347  0.185-  51 1.66  37 1.66
  83  0.422  0.992  0.552-  53 1.70  39 1.84
  84  0.859  0.657  0.674-  52 1.73  21 2.14  16 2.31
  85  0.091  0.767  0.538-  45 1.51  30 1.68
  86  0.305  0.019  0.406-  53 1.67  19 2.42
  87  0.972  0.385  0.116-  29 1.66  51 1.70
  88  0.013  0.941  0.559-  45 1.66   5 2.13
  89  0.680  0.669  0.012-  36 1.64  15 2.54
  90  0.306  0.493  0.146-  32 1.49
  91  0.290  0.755  0.618-  30 1.49  14 2.06
  92  0.235  0.584  0.955-  50 1.51   3 2.03
  93  0.538  0.084  0.052-  44 1.70  48 2.15
  94  0.548  0.127  0.299-   2 1.97  22 2.15
  95  0.212  0.900  0.515-  53 1.65  30 1.75  45 1.87
  96  0.624  0.883  0.999-  44 1.74  36 1.89
  97  0.777  0.946  0.182-  41 1.79  12 2.23
  98  0.179  0.307  0.615-  28 1.75  26 1.96
  99  0.694  0.065  0.475-  31 1.60  22 2.15  12 2.51
 100  0.978  0.446  0.298-  34 1.57  29 1.73
 101  0.347  0.908  0.812-  40 1.65  14 2.15
 102  0.538  0.823  0.624-  39 1.62  14 2.49
 103  0.125  0.932  0.123-  43 1.59  20 2.46   9 2.47
 104  0.934  0.988  0.041-  41 1.77
 105  0.842  0.523  0.155-  29 1.61  15 2.19
 106  0.879  0.141  0.122-  41 1.76  33 1.76
 107  0.300  0.891  0.197-  43 1.55
 108  0.037  0.884  0.378-  45 1.54  19 2.51
 109  0.408  0.660  0.185-  32 1.61  11 2.43
 110  0.686  0.801  0.315-  38 1.71  12 2.32  23 2.47
 111  0.874  0.590  0.865-  52 1.68  15 2.23   6 2.56
 112  0.149  0.282  0.804-  28 1.65  27 2.19   7 2.31
 113  0.662  0.396  0.864-  46 1.63   6 2.32  24 2.47
 114  0.134  0.000  0.857-  40 1.60  10 2.20  20 2.38  27 2.57
 115  0.182  0.901  0.707-  30 1.88  40 2.00
 116  0.058  0.699  0.963-  50 1.82  10 2.52
 117  0.129  0.422  0.008-  51 1.61   7 1.97   1 2.15
 118  0.142  0.202  0.090-  37 1.53  20 2.10   7 2.16
 119  0.714  0.438  0.586-  47 1.52   8 2.22   6 2.37
 120  0.601  0.004  0.604-  31 1.65  39 1.69
 121  0.831  0.318  0.204-  29 1.61  33 1.69  25 2.54
 122  0.255  0.079  0.601-  53 1.64  26 2.05
 123  0.241  0.474  0.763-  28 1.70
 124  0.470  0.235  0.582-  42 1.56  22 2.35  26 2.39
 125  0.738  0.087  0.017-  41 1.56  44 2.17
 126  0.910  0.821  0.797-  52 1.99  10 2.23
 127  0.518  0.382  0.643-  47 1.71  42 1.74
 128  0.563  0.201  0.783-  42 1.71  24 1.99  17 2.38
 129  0.379  0.199  0.110-  48 1.65  13 2.28
 130  0.544  0.010  0.862-  44 1.65  17 2.17
 131  0.602  0.490  0.278-  49 1.61  23 2.21
 132  0.804  0.174  0.331-  33 1.64
 133  0.347  0.196  0.893-  48 1.66  17 2.39
 134  0.903  0.256  0.611-  54 1.65
 135  0.589  0.575  0.625-  47 1.66  16 2.15
 

IMPORTANT INFORMATION: All symmetrisations will be switched off!
NOSYMM: (Re-)initialisation of all symmetry stuff for point group C_1.

 
 

Automatic generation of k-mesh.
 generate k-points for:    2    2    2
Space group operators:
 irot       det(A)        alpha          n_x          n_y          n_z        tau_x        tau_y        tau_z
    1     1.000000     0.000001     1.000000     0.000000     0.000000     0.000000     0.000000     0.000000
 
 Subroutine IBZKPT returns following result:
 ===========================================
 
 Found      8 irreducible k-points:
 
 Following reciprocal coordinates:
            Coordinates               Weight
  0.000000  0.000000  0.000000      1.000000
  0.500000  0.000000  0.000000      1.000000
  0.000000  0.500000  0.000000      1.000000
  0.500000  0.500000  0.000000      1.000000
  0.000000  0.000000  0.500000      1.000000
  0.500000  0.000000  0.500000      1.000000
  0.000000  0.500000  0.500000      1.000000
  0.500000  0.500000  0.500000      1.000000
 
 Following cartesian coordinates:
            Coordinates               Weight
  0.000000  0.000000  0.000000      1.000000
  0.037563  0.000000  0.000000      1.000000
  0.000000  0.037563  0.000000      1.000000
  0.037563  0.037563  0.000000      1.000000
  0.000000  0.000000  0.037563      1.000000
  0.037563  0.000000  0.037563      1.000000
  0.000000  0.037563  0.037563      1.000000
  0.037563  0.037563  0.037563      1.000000
 


--------------------------------------------------------------------------------------------------------




 Dimension of arrays:
   k-points           NKPTS =      8   k-points in BZ     NKDIM =      8   number of bands    NBANDS=    520
   number of dos      NEDOS =    301   number of ions     NIONS =    135
   non local maximal  LDIM  =      6   non local SUM 2l+1 LMDIM =     18
   total plane-waves  NPLWV = ******
   max r-space proj   IRMAX =   7167   max aug-charges    IRDMAX= 204049
   dimension x,y,z NGX =   108 NGY =  108 NGZ =  108
   dimension x,y,z NGXF=   216 NGYF=  216 NGZF=  216
   support grid    NGXF=   432 NGYF=  432 NGZF=  432
   ions per type =              27  27  81
   NGX,Y,Z   is equivalent  to a cutoff of  13.49, 13.49, 13.49 a.u.
   NGXF,Y,Z  is equivalent  to a cutoff of  26.98, 26.98, 26.98 a.u.

 SYSTEM =  unknown system                          
 POSCAR =  Ca Si  O                                

 Startparameter for this run:
   NWRITE =      2    write-flag & timer
   PREC   = a         normal or accurate (medium, high low for compatibility)
   ISTART =      0    job   : 0-new  1-cont  2-samecut
   ICHARG =      2    charge: 1-file 2-atom 10-const
   ISPIN  =      1    spin polarized calculation?
   LNONCOLLINEAR =      F non collinear calculations
   LSORBIT =      F    spin-orbit coupling
   INIWAV =      1    electr: 0-lowe 1-rand  2-diag
   LASPH  =      F    aspherical Exc in radial PAW
   METAGGA=      F    non-selfconsistent MetaGGA calc.

 Electronic Relaxation 1
   ENCUT  =  600.0 eV  44.10 Ry    6.64 a.u.  26.59 26.59 26.59*2*pi/ulx,y,z
   ENINI  =  600.0     initial cutoff
   ENAUG  =  605.4 eV  augmentation charge cutoff
   NELM   =     60;   NELMIN=  2; NELMDL= -5     # of ELM steps 
   EDIFF  = 0.1E-05   stopping-criterion for ELM
   LREAL  =      T    real-space projection
   NLSPLINE    = F    spline interpolate recip. space projectors
   LCOMPAT=      F    compatible to vasp.4.4
   GGA_COMPAT  = T    GGA compatible to vasp.4.4-vasp.4.6
   LMAXPAW     = -100 max onsite density
   LMAXMIX     =    2 max onsite mixed and CHGCAR
   VOSKOWN=      0    Vosko Wilk Nusair interpolation
   ROPT   =   -0.00025  -0.00025  -0.00025
 Ionic relaxation
   EDIFFG = -.1E-01   stopping-criterion for IOM
   NSW    =      1    number of steps for IOM
   NBLOCK =      1;   KBLOCK =      1    inner block; outer block 
   IBRION =     -1    ionic relax: 0-MD 1-quasi-New 2-CG
   NFREE  =      0    steps in history (QN), initial steepest desc. (CG)
   ISIF   =      2    stress and relaxation
   IWAVPR =     10    prediction:  0-non 1-charg 2-wave 3-comb
   ISYM   =      0    0-nonsym 1-usesym 2-fastsym
   LCORR  =      T    Harris-Foulkes like correction to forces

   POTIM  = 1.0000    time-step for ionic-motion
   TEIN   =    0.0    initial temperature
   TEBEG  =    0.0;   TEEND  =   0.0 temperature during run
   SMASS  =  -3.00    Nose mass-parameter (am)
   estimated Nose-frequenzy (Omega)   =  0.10E-29 period in steps =****** mass=  -0.405E-26a.u.
   SCALEE = 1.0000    scale energy and forces
   NPACO  =    256;   APACO  = 16.0  distance and # of slots for P.C.
   PSTRESS=    0.0 pullay stress

  Mass of Ions in am
   POMASS =  40.08 28.09 16.00
  Ionic Valenz
   ZVAL   =  10.00  4.00  6.00
  Atomic Wigner-Seitz radii
   RWIGS  =  -1.00 -1.00 -1.00
  virtual crystal weights 
   VCA    =   1.00  1.00  1.00
   NELECT =     864.0000    total number of electrons
   NUPDOWN=      -1.0000    fix difference up-down

 DOS related values:
   EMIN   =  10.00;   EMAX   =-10.00  energy-range for DOS
   EFERMI =   0.00
   ISMEAR =     0;   SIGMA  =   0.05  broadening in eV -4-tet -1-fermi 0-gaus

 Electronic relaxation 2 (details)
   IALGO  =     38    algorithm
   LDIAG  =      T    sub-space diagonalisation (order eigenvalues)
   LSUBROT=      F    optimize rotation matrix (better conditioning)
   TURBO    =      0    0=normal 1=particle mesh
   IRESTART =      0    0=no restart 2=restart with 2 vectors
   NREBOOT  =      0    no. of reboots
   NMIN     =      0    reboot dimension
   EREF     =   0.00    reference energy to select bands
   IMIX   =      4    mixing-type and parameters
     AMIX     =   0.40;   BMIX     =  1.00
     AMIX_MAG =   1.60;   BMIX_MAG =  1.00
     AMIN     =   0.10
     WC   =   100.;   INIMIX=   1;  MIXPRE=   1;  MAXMIX= -45

 Intra band minimization:
   WEIMIN = 0.0000     energy-eigenvalue tresh-hold
   EBREAK =  0.48E-09  absolut break condition
   DEPER  =   0.30     relativ break condition  

   TIME   =   0.40     timestep for ELM

  volume/ion in A,a.u.               =      17.47       117.89
  Fermi-wavevector in a.u.,A,eV,Ry     =   1.171397  2.213620 18.669524  1.372171
  Thomas-Fermi vector in A             =   2.307841
 
 Write flags
   LWAVE        =      F    write WAVECAR
   LDOWNSAMPLE  =      F    k-point downsampling of WAVECAR
   LCHARG       =      F    write CHGCAR
   LVTOT        =      F    write LOCPOT, total local potential
   LVHAR        =      F    write LOCPOT, Hartree potential only
   LELF         =      F    write electronic localiz. function (ELF)
   LORBIT       =      0    0 simple, 1 ext, 2 COOP (PROOUT), +10 PAW based schemes


 Dipole corrections
   LMONO  =      F    monopole corrections only (constant potential shift)
   LDIPOL =      F    correct potential (dipole corrections)
   IDIPOL =      0    1-x, 2-y, 3-z, 4-all directions 
   EPSILON=  1.0000000 bulk dielectric constant

 Exchange correlation treatment:
   GGA     =    --    GGA type
   LEXCH   =     8    internal setting for exchange type
   VOSKOWN=      0    Vosko Wilk Nusair interpolation
   LHFCALC =     F    Hartree Fock is set to
   LHFONE  =     F    Hartree Fock one center treatment
   AEXX    =    0.0000 exact exchange contribution

 Linear response parameters
   LEPSILON=     F    determine dielectric tensor
   LRPA    =     F    only Hartree local field effects (RPA)
   LNABLA  =     F    use nabla operator in PAW spheres
   LVEL    =     F    velocity operator in full k-point grid
   LINTERFAST=   F  fast interpolation
   KINTER  =     0    interpolate to denser k-point grid
   CSHIFT  =0.1000    complex shift for real part using Kramers Kronig
   OMEGAMAX=  -1.0    maximum frequency
   DEG_THRESHOLD= 0.2000000E-02 threshold for treating states as degnerate
   RTIME   =   -0.100 relaxation time in fs
  (WPLASMAI=    0.000 imaginary part of plasma frequency in eV, 0.658/RTIME)
   DFIELD  = 0.0000000 0.0000000 0.0000000 field for delta impulse in time
 
 Orbital magnetization related:
   ORBITALMAG=     F  switch on orbital magnetization
   LCHIMAG   =     F  perturbation theory with respect to B field
   DQ        =  0.001000  dq finite difference perturbation B field
   LLRAUG    =     F  two centre corrections for induced B field



--------------------------------------------------------------------------------------------------------


 Static calculation
 charge density and potential will be updated during run
 non-spin polarized calculation
 Variant of blocked Davidson
 Davidson routine will perform the subspace rotation
 perform sub-space diagonalisation
    after iterative eigenvector-optimisation
 modified Broyden-mixing scheme, WC =      100.0
 initial mixing is a Kerker type mixing with AMIX =  0.4000 and BMIX =      1.0000
 Hartree-type preconditioning will be used
 using additional bands           88
 real space projection scheme for non local part
 use partial core corrections
 calculate Harris-corrections to forces 
   (improved forces if not selfconsistent)
 use gradient corrections 
 use of overlap-Matrix (Vanderbilt PP)
 Gauss-broadening in eV      SIGMA  =   0.05


--------------------------------------------------------------------------------------------------------


  energy-cutoff  :      600.00
  volume of cell :     2358.44
      direct lattice vectors                 reciprocal lattice vectors
    13.310935620  0.000000000  0.000000000     0.075126199  0.000000000  0.000000000
     0.000000000 13.310935620  0.000000000     0.000000000  0.075126199  0.000000000
     0.000000000  0.000000000 13.310935620     0.000000000  0.000000000  0.075126199

  length of vectors
    13.310935620 13.310935620 13.310935620     0.075126199  0.075126199  0.075126199


 
 k-points in units of 2pi/SCALE and weight: read from INCAR                         
   0.00000000  0.00000000  0.00000000       0.125
   0.03756310  0.00000000  0.00000000       0.125
   0.00000000  0.03756310  0.00000000       0.125
   0.03756310  0.03756310  0.00000000       0.125
   0.00000000  0.00000000  0.03756310       0.125
   0.03756310  0.00000000  0.03756310       0.125
   0.00000000  0.03756310  0.03756310       0.125
   0.03756310  0.03756310  0.03756310       0.125
 
 k-points in reciprocal lattice and weights: read from INCAR                         
   0.00000000  0.00000000  0.00000000       0.125
   0.50000000  0.00000000  0.00000000       0.125
   0.00000000  0.50000000  0.00000000       0.125
   0.50000000  0.50000000  0.00000000       0.125
   0.00000000  0.00000000  0.50000000       0.125
   0.50000000  0.00000000  0.50000000       0.125
   0.00000000  0.50000000  0.50000000       0.125
   0.50000000  0.50000000  0.50000000       0.125
 
 position of ions in fractional coordinates (direct lattice) 
   0.05244561  0.50275309  0.89082482
   0.44780862  0.05173684  0.22056900
   0.33334026  0.46993946  0.93469296
   0.41578053  0.85068906  0.00183143
   0.91892230  0.06718456  0.53078306
   0.75444310  0.49167525  0.75084911
   0.08424207  0.28860124  0.96481359
   0.82765219  0.42688325  0.46554355
   0.96859486  0.86455908  0.19684574
   0.03496351  0.87409245  0.89530562
   0.39633703  0.70545210  0.36135331
   0.67322664  0.97434767  0.31027423
   0.38690884  0.29870744  0.24894461
   0.39297535  0.77504168  0.73206408
   0.79668111  0.51973322  0.99638831
   0.69702620  0.69566869  0.62536661
   0.42701474  0.08517188  0.77707939
   0.78089347  0.98244128  0.81467325
   0.14511316  0.02760190  0.32046420
   0.18274016  0.06991645  0.01476976
   0.99749444  0.58092050  0.64499313
   0.55039157  0.13548196  0.46018109
   0.70045859  0.61570634  0.32341202
   0.69350333  0.21369402  0.85615886
   0.64568700  0.27567972  0.19093902
   0.29842148  0.22345593  0.63234299
   0.09910497  0.14265091  0.73148081
   0.16531694  0.37780056  0.72590584
   0.89134823  0.42318418  0.20344793
   0.19148361  0.80536370  0.60342829
   0.70336834  0.07320037  0.59391306
   0.35536326  0.55717970  0.22298563
   0.87925486  0.20517391  0.23807286
   0.96513856  0.54084427  0.36625798
   0.14123311  0.55357316  0.30935940
   0.61112147  0.75118497  0.94962143
   0.13213788  0.22978071  0.20101028
   0.60942908  0.77544659  0.41472537
   0.53609521  0.91357355  0.54318065
   0.23022079  0.92930161  0.84657380
   0.81587954  0.03134204  0.08563747
   0.54494531  0.25672140  0.66926801
   0.21710184  0.85545238  0.12334331
   0.60259879  0.00890455  0.97121971
   0.07896557  0.86580551  0.48445995
   0.57539275  0.40570850  0.94987113
   0.60126825  0.45818671  0.58316630
   0.40826486  0.16180395  0.99538887
   0.51660287  0.43947924  0.34776497
   0.17755996  0.66015739  0.01683597
   0.09306429  0.42465797  0.12413668
   0.83642870  0.69001613  0.79744421
   0.29696030  0.98898222  0.52811992
   0.92633843  0.23829683  0.73117548
   0.68921104  0.82080080  0.49955571
   0.15051092  0.52499710  0.42513692
   0.86117797  0.29197373  0.81966199
   0.57977828  0.42200736  0.45826153
   0.01272705  0.20842868  0.24644643
   0.51270957  0.32313485  0.31295603
   0.69143084  0.17763688  0.64419226
   0.57038441  0.67020774  0.42262140
   0.20041360  0.73865231  0.09292066
   0.04434746  0.63506642  0.30310843
   0.25016363  0.59538342  0.29081577
   0.04841744  0.41716830  0.72018187
   0.20254510  0.20761872  0.28863723
   0.71747590  0.68597869  0.77751505
   0.10432925  0.53858655  0.15119200
   0.64515669  0.39727737  0.06821279
   0.41937554  0.51610054  0.32646099
   0.50738740  0.85848900  0.43561633
   0.79808930  0.02777507  0.66223336
   0.49664404  0.30122428  0.94840417
   0.38188261  0.03576237  0.00163136
   0.24772982  0.82377285  0.93657138
   0.48996032  0.71184982  0.89066266
   0.94901578  0.49756489  0.48207823
   0.50738722  0.48460384  0.90917108
   0.85805822  0.59052517  0.35445863
   0.95632381  0.11987037  0.76385090
   0.16932573  0.34748674  0.18487418
   0.42222419  0.99150665  0.55209590
   0.85930688  0.65734003  0.67399499
   0.09080947  0.76660868  0.53808803
   0.30496358  0.01949068  0.40645698
   0.97159854  0.38534636  0.11570764
   0.01335345  0.94124815  0.55934159
   0.67961118  0.66928479  0.01179490
   0.30608171  0.49259357  0.14559827
   0.29023021  0.75501369  0.61810920
   0.23461259  0.58416215  0.95462356
   0.53783219  0.08385457  0.05241988
   0.54787865  0.12715237  0.29926290
   0.21164961  0.89995097  0.51488776
   0.62416368  0.88321339  0.99917075
   0.77696636  0.94578997  0.18204684
   0.17878478  0.30736866  0.61531852
   0.69439829  0.06462191  0.47466027
   0.97772502  0.44564348  0.29813131
   0.34700440  0.90798206  0.81205698
   0.53800491  0.82264559  0.62387146
   0.12488169  0.93157037  0.12260794
   0.93369037  0.98833042  0.04105889
   0.84171241  0.52255881  0.15492099
   0.87894768  0.14122509  0.12246089
   0.29984091  0.89057597  0.19702585
   0.03655892  0.88431632  0.37836867
   0.40783513  0.65965266  0.18482865
   0.68585435  0.80065352  0.31469148
   0.87361105  0.59044133  0.86548408
   0.14863617  0.28233394  0.80365579
   0.66167640  0.39631685  0.86398932
   0.13414776  0.00018043  0.85711606
   0.18183521  0.90090417  0.70711691
   0.05767726  0.69855503  0.96277677
   0.12881912  0.42241267  0.00848516
   0.14165873  0.20243521  0.08985923
   0.71361335  0.43836784  0.58621157
   0.60118668  0.00427383  0.60410784
   0.83147430  0.31811737  0.20385038
   0.25513298  0.07911669  0.60096678
   0.24141970  0.47394998  0.76276293
   0.46998776  0.23483448  0.58187288
   0.73822380  0.08656395  0.01739937
   0.90996305  0.82061099  0.79718709
   0.51785709  0.38156243  0.64321969
   0.56317936  0.20070511  0.78349031
   0.37887584  0.19912051  0.10955481
   0.54415762  0.01012071  0.86205805
   0.60208855  0.49015785  0.27837638
   0.80380377  0.17402677  0.33057587
   0.34676004  0.19612316  0.89276161
   0.90336199  0.25649701  0.61089739
   0.58933052  0.57501410  0.62467482
 
 position of ions in cartesian coordinates  (Angst):
   0.69810008  6.69211396 11.85771189
   5.96075168  0.68866568  2.93597974
   4.43707072  6.25533396 12.44163780
   5.53442793 11.32346729  0.02437811
  12.23171553  0.89428940  7.06521920
  10.04234351  6.54465766  9.99450414
   1.12134083  3.84155257 12.84257163
  11.01682497  5.68221541  6.19682024
  12.89290387 11.50809031  2.62020100
   0.46539703 11.63498831 11.91735549
   5.27561668  9.39022754  4.80995069
   8.96127651 12.96947906  4.13004031
   5.15011863  3.97607549  3.31368564
   5.23086963 10.31652991  9.74445781
  10.60457094  6.91813539 13.26286068
   9.27807084  9.26000111  8.32421462
   5.68396577  1.13371737 10.34365370
  10.39442277 13.07721265 10.84406313
   1.93159190  0.36740707  4.26567837
   2.43244254  0.93065340  0.19659933
  13.27758426  7.73259534  8.58546208
   7.32622679  1.80339166  6.12544080
   9.32375920  8.19562739  4.30491658
   9.23117824  2.84446728 11.39627553
   8.59469812  3.66955500  2.54157703
   3.97226913  2.97440744  8.41707689
   1.31917986  1.89881704  9.73669392
   2.20052309  5.02887896  9.66248593
  11.86467889  5.63297744  2.70808231
   2.54882598 10.72014432  8.03219513
   9.36249072  0.97436546  7.90553849
   4.73021754  7.41658306  2.96814734
  11.70370489  2.73105665  3.16897246
  12.84689726  7.19914323  4.87523636
   1.87994484  7.36857674  4.11786303
   8.13459855  9.99897483 12.64034972
   1.75887886  3.05859627  2.67563496
   8.11207123 10.32191957  5.52038273
   7.13592881 12.16051871  7.23024267
   3.06445412 12.36987395 11.26868933
  10.86012009  0.41719184  1.13991489
   7.25373192  3.41720199  8.90858340
   2.88982857 11.38687156  1.64181480
   8.02115365  0.11852785 12.92784303
   1.05110560 11.52468140  6.44861521
   7.65901590  5.40035978 12.64367349
   8.00344300  6.09889378  7.76248901
   5.43438722  2.15376196 13.24955722
   6.87646752  5.84987989  4.62907713
   2.36348920  8.78731257  0.22410255
   1.23877277  5.65259484  1.65237542
  11.13364858  9.18476024 10.61472855
   3.95281944 13.16427865  7.02977028
  12.33043122  3.17195376  9.73262977
   9.17404380 10.92562661  6.64955384
   2.00344116  6.98820261  5.65897015
  11.46308452  3.88644356 10.91046798
   7.71739140  5.61731283  6.09988971
   0.16940888  2.77438080  3.28043261
   6.82464402  4.30122723  4.16573751
   9.20359135  2.36451301  8.57480173
   7.59235021  8.92109211  5.62548623
   2.66769248  9.83215339  1.23686094
   0.59030614  8.45332829  4.03465675
   3.32991201  7.92511037  3.87103001
   0.64448147  5.55290044  9.58629445
   2.69606484  2.76359948  3.84203160
   9.55027555  9.13101819 10.34945281
   1.38871988  7.16909092  2.01250694
   8.58763913  5.28813354  0.90797611
   5.58228085  6.86978104  4.34550123
   6.75380095 11.42729177  5.79846099
  10.62331523  0.36971215  8.81494568
   6.61079678  4.00957706 12.62414687
   5.08321479  0.47603058  0.02171497
   3.29751575 10.96518736 12.46664138
   6.52183031  9.47538718 11.85555333
  12.63228801  6.62305423  6.41691233
   6.75379864  6.45053048 12.10191769
  11.42155774  7.86044254  4.71817605
  12.72956465  1.59558674 10.16757009
   2.25388385  4.62537365  2.46084836
   5.62019898 13.19788124  7.34891300
  11.43817852  8.74981087  8.97150386
   1.20875900 10.20427884  7.16245511
   4.05935058  0.25943924  5.41032274
  12.93288560  5.12932061  1.54017692
   0.17774697 12.52889349  7.44535996
   9.04626070  8.90880681  0.15700116
   4.07423389  6.55688131  1.93804917
   3.86323565 10.04993868  8.22761171
   3.12291312  7.77574474 12.70693276
   7.15904965  1.11618283  0.69775764
   7.29277739  1.69251706  3.98346917
   2.81725436 11.97918946  6.85363784
   8.30820252 11.75639659 13.29989753
  10.34214914 12.58934945  2.42321382
   2.37979274  4.09136449  8.19046525
   9.24309099  0.86017811  6.31817224
  13.01443473  5.93193164  3.96840667
   4.61895320 12.08609068 10.80923813
   7.16134877 10.95018245  8.30431289
   1.66229218 12.40007326  1.63202634
  12.42829238 13.15560260  0.54653222
  11.20397973  6.95574671  2.06214330
  11.69961599  1.87983811  1.63006905
   3.99116311 11.85439946  2.62259841
   0.48663349 11.77107761  5.03644095
   5.42866716  8.78059404  2.46024229
   9.12936313 10.65744744  4.18883798
  11.62858039  7.85932652 11.52040290
   1.97848651  3.75812890 10.69741047
   8.80753191  5.27534811 11.50050621
   1.78563224  0.00240167 11.40901672
   2.42039676 11.99187738  9.41238771
   0.76773836  9.29842109 12.81545956
   1.71470305  5.62270787  0.11294537
   1.88561023  2.69460201  1.19611042
   9.49886138  5.83508606  7.80302453
   8.00235720  0.05688871  8.04124061
  11.06770087  4.23443985  2.71343925
   3.39605870  1.05311715  7.99943012
   3.21352210  6.30871770 10.15308832
   6.25597677  3.12586661  7.74527244
   9.82644949  1.15224720  0.23160185
  12.11245952 10.92310001 10.61130604
   6.89316238  5.07895299  8.56185587
   7.49644419  2.67157279 10.42898909
   5.04319185  2.65048025  1.45827705
   7.24324710  0.13471613 11.47479915
   8.01436192  6.52445962  3.70545011
  10.69938020  2.31645911  4.40027418
   4.61570058  2.61058274 11.88349227
  12.02459334  3.41421518  8.13161580
   7.84454062  7.65397560  8.31500632
 


--------------------------------------------------------------------------------------------------------


 k-point  1 :   0.0000 0.0000 0.0000  plane waves:   78805
 k-point  2 :   0.5000 0.0000 0.0000  plane waves:   78774
 k-point  3 :   0.0000 0.5000 0.0000  plane waves:   78774
 k-point  4 :   0.5000 0.5000 0.0000  plane waves:   78724
 k-point  5 :   0.0000 0.0000 0.5000  plane waves:   78774
 k-point  6 :   0.5000 0.0000 0.5000  plane waves:   78724
 k-point  7 :   0.0000 0.5000 0.5000  plane waves:   78724
 k-point  8 :   0.5000 0.5000 0.5000  plane waves:   78792

 maximum and minimum number of plane-waves per node :      6631     6484

 maximum number of plane-waves:     78805
 maximum index in each direction: 
   IXMAX=   26   IYMAX=   26   IZMAX=   26
   IXMIN=  -27   IYMIN=  -27   IZMIN=  -27


 real space projection operators:
  total allocation   :      49155.62 KBytes
  max/ min on nodes  :       4129.08       4077.59


 parallel 3D FFT for wavefunctions:
    minimum data exchange during FFTs selected (reduces bandwidth)
 parallel 3D FFT for charge:
    minimum data exchange during FFTs selected (reduces bandwidth)


 total amount of memory used by VASP MPI-rank0   216806. kBytes
=======================================================================

   base      :      30000. kBytes
   nonlr-proj:      21443. kBytes
   fftplans  :      34308. kBytes
   grid      :      19248. kBytes
   one-center:        186. kBytes
   wavefun   :     111621. kBytes
 
     INWAV:  cpu time    0.0001: real time    0.0004
 Broyden mixing: mesh for mixing (old mesh)
   NGX = 53   NGY = 53   NGZ = 53
  (NGX  =216   NGY  =216   NGZ  =216)
  gives a total of 148877 points

 initial charge density was supplied:
 charge density of overlapping atoms calculated
 number of electron     864.0000000 magnetization 
 keeping initial charge density in first step


--------------------------------------------------------------------------------------------------------


 Maximum index for non-local projection operator          655
 Maximum index for augmentation-charges         4591 (set IRDMAX)


--------------------------------------------------------------------------------------------------------


 First call to EWALD:  gamma=   0.133
 Maximum number of real-space cells 3x 3x 3
 Maximum number of reciprocal cells 3x 3x 3

    FEWALD:  cpu time    0.0050: real time    0.0051


--------------------------------------- Iteration      1(   1)  ---------------------------------------


    POTLOK:  cpu time    0.1746: real time    0.1774
    SETDIJ:  cpu time    0.3271: real time    0.3281
     EDDAV:  cpu time   50.9832: real time   51.1758
       DOS:  cpu time    0.0024: real time    0.0024
    --------------------------------------------
      LOOP:  cpu time   51.4873: real time   51.6837

 eigenvalue-minimisations  :  8320
 total energy-change (2. order) : 0.9286182E+04  (-0.4626944E+05)
 number of electron     864.0000000 magnetization 
 augmentation part      864.0000000 magnetization 

 Free energy of the ion-electron system (eV)
  ---------------------------------------------------
  alpha Z        PSCENC =      2026.14881195
  Ewald energy   TEWEN  =    -35987.87666385
  -Hartree energ DENC   =    -24672.40488660
  -exchange      EXHF   =         0.00000000
  -V(xc)+E(xc)   XCENC  =      3130.78866433
  PAW double counting   =     50594.51003143   -49994.65612350
  entropy T*S    EENTRO =        -0.03631977
  eigenvalues    EBANDS =      -778.83176521
  atomic energy  EATOM  =     64968.54023382
  Solvation  Ediel_sol  =         0.00000000
  ---------------------------------------------------
  free energy    TOTEN  =      9286.18198261 eV

  energy without entropy =     9286.21830238  energy(sigma->0) =     9286.20014250


--------------------------------------------------------------------------------------------------------




--------------------------------------- Iteration      1(   2)  ---------------------------------------


     EDDAV:  cpu time   59.8434: real time   60.0642
       DOS:  cpu time    0.0010: real time    0.0010
    --------------------------------------------
      LOOP:  cpu time   59.8445: real time   60.0652

 eigenvalue-minimisations  : 10232
 total energy-change (2. order) :-0.9275398E+04  (-0.8996416E+04)
 number of electron     864.0000000 magnetization 
 augmentation part      864.0000000 magnetization 

 Free energy of the ion-electron system (eV)
  ---------------------------------------------------
  alpha Z        PSCENC =      2026.14881195
  Ewald energy   TEWEN  =    -35987.87666385
  -Hartree energ DENC   =    -24672.40488660
  -exchange      EXHF   =         0.00000000
  -V(xc)+E(xc)   XCENC  =      3130.78866433
  PAW double counting   =     50594.51003143   -49994.65612350
  entropy T*S    EENTRO =        -0.00000000
  eigenvalues    EBANDS =    -10054.26640038
  atomic energy  EATOM  =     64968.54023382
  Solvation  Ediel_sol  =         0.00000000
  ---------------------------------------------------
  free energy    TOTEN  =        10.78366721 eV

  energy without entropy =       10.78366721  energy(sigma->0) =       10.78366721


--------------------------------------------------------------------------------------------------------




--------------------------------------- Iteration      1(   3)  ---------------------------------------


     EDDAV:  cpu time   59.9152: real time   60.1753
       DOS:  cpu time    0.0010: real time    0.0010
    --------------------------------------------
      LOOP:  cpu time   59.9162: real time   60.1764

 eigenvalue-minimisations  : 10248
 total energy-change (2. order) :-0.1032572E+04  (-0.1025817E+04)
 number of electron     864.0000000 magnetization 
 augmentation part      864.0000000 magnetization 

 Free energy of the ion-electron system (eV)
  ---------------------------------------------------
  alpha Z        PSCENC =      2026.14881195
  Ewald energy   TEWEN  =    -35987.87666385
  -Hartree energ DENC   =    -24672.40488660
  -exchange      EXHF   =         0.00000000
  -V(xc)+E(xc)   XCENC  =      3130.78866433
  PAW double counting   =     50594.51003143   -49994.65612350
  entropy T*S    EENTRO =        -0.00000000
  eigenvalues    EBANDS =    -11086.83860475
  atomic energy  EATOM  =     64968.54023382
  Solvation  Ediel_sol  =         0.00000000
  ---------------------------------------------------
  free energy    TOTEN  =     -1021.78853716 eV

  energy without entropy =    -1021.78853716  energy(sigma->0) =    -1021.78853716


--------------------------------------------------------------------------------------------------------




--------------------------------------- Iteration      1(   4)  ---------------------------------------


     EDDAV:  cpu time   63.0232: real time   63.3928
       DOS:  cpu time    0.0011: real time    0.0011
    --------------------------------------------
      LOOP:  cpu time   63.0243: real time   63.3939

 eigenvalue-minimisations  : 10944
 total energy-change (2. order) :-0.4735143E+02  (-0.4716496E+02)
 number of electron     864.0000000 magnetization 
 augmentation part      864.0000000 magnetization 

 Free energy of the ion-electron system (eV)
  ---------------------------------------------------
  alpha Z        PSCENC =      2026.14881195
  Ewald energy   TEWEN  =    -35987.87666385
  -Hartree energ DENC   =    -24672.40488660
  -exchange      EXHF   =         0.00000000
  -V(xc)+E(xc)   XCENC  =      3130.78866433
  PAW double counting   =     50594.51003143   -49994.65612350
  entropy T*S    EENTRO =        -0.00000000
  eigenvalues    EBANDS =    -11134.19003961
  atomic energy  EATOM  =     64968.54023382
  Solvation  Ediel_sol  =         0.00000000
  ---------------------------------------------------
  free energy    TOTEN  =     -1069.13997202 eV

  energy without entropy =    -1069.13997202  energy(sigma->0) =    -1069.13997202


--------------------------------------------------------------------------------------------------------




--------------------------------------- Iteration      1(   5)  ---------------------------------------


     EDDAV:  cpu time   82.9723: real time   83.3865
       DOS:  cpu time    0.0010: real time    0.0010
    CHARGE:  cpu time    2.4676: real time    2.4759
    MIXING:  cpu time    0.0068: real time    0.0069
    --------------------------------------------
      LOOP:  cpu time   85.4477: real time   85.8703

 eigenvalue-minimisations  : 15304
 total energy-change (2. order) :-0.6575301E+01  (-0.6571943E+01)
 number of electron     864.0000008 magnetization 
 augmentation part      133.8567909 magnetization 

 Broyden mixing:
  rms(total) = 0.86665E+01    rms(broyden)= 0.86657E+01
  rms(prec ) = 0.10120E+02
  weight for this iteration     100.00

 Free energy of the ion-electron system (eV)
  ---------------------------------------------------
  alpha Z        PSCENC =      2026.14881195
  Ewald energy   TEWEN  =    -35987.87666385
  -Hartree energ DENC   =    -24672.40488660
  -exchange      EXHF   =         0.00000000
  -V(xc)+E(xc)   XCENC  =      3130.78866433
  PAW double counting   =     50594.51003143   -49994.65612350
  entropy T*S    EENTRO =        -0.00000000
  eigenvalues    EBANDS =    -11140.76534033
  atomic energy  EATOM  =     64968.54023382
  Solvation  Ediel_sol  =         0.00000000
  ---------------------------------------------------
  free energy    TOTEN  =     -1075.71527274 eV

  energy without entropy =    -1075.71527274  energy(sigma->0) =    -1075.71527274


--------------------------------------------------------------------------------------------------------




--------------------------------------- Iteration      1(   6)  ---------------------------------------


    POTLOK:  cpu time    0.1739: real time    0.1749
    SETDIJ:  cpu time    0.3191: real time    0.3198
     EDDAV:  cpu time   60.8840: real time   61.2612
       DOS:  cpu time    0.0011: real time    0.0011
    CHARGE:  cpu time    2.4221: real time    2.4291
    MIXING:  cpu time    0.0058: real time    0.0060
    --------------------------------------------
      LOOP:  cpu time   63.8059: real time   64.1920

 eigenvalue-minimisations  : 10424
 total energy-change (2. order) : 0.1652323E+03  (-0.8038197E+02)
 number of electron     864.0000007 magnetization 
 augmentation part      119.1123471 magnetization 

 Broyden mixing:
  rms(total) = 0.37582E+01    rms(broyden)= 0.37568E+01
  rms(prec ) = 0.39968E+01
  weight for this iteration     100.00

 eigenvalues of (default mixing * dielectric matrix)
  average eigenvalue GAMMA=   0.9580
  0.9580

 Free energy of the ion-electron system (eV)
  ---------------------------------------------------
  alpha Z        PSCENC =      2026.14881195
  Ewald energy   TEWEN  =    -35987.87666385
  -Hartree energ DENC   =    -26256.41053746
  -exchange      EXHF   =         0.00000000
  -V(xc)+E(xc)   XCENC  =      3232.44137069
  PAW double counting   =     65070.18211837   -64615.28806284
  entropy T*S    EENTRO =        -0.00000000
  eigenvalues    EBANDS =     -9348.22028752
  atomic energy  EATOM  =     64968.54023382
  Solvation  Ediel_sol  =         0.00000000
  ---------------------------------------------------
  free energy    TOTEN  =      -910.48301682 eV

  energy without entropy =     -910.48301682  energy(sigma->0) =     -910.48301682


--------------------------------------------------------------------------------------------------------




--------------------------------------- Iteration      1(   7)  ---------------------------------------


    POTLOK:  cpu time    0.1753: real time    0.1815
    SETDIJ:  cpu time    0.3344: real time    0.3352
     EDDAV:  cpu time   62.9767: real time   63.3367
       DOS:  cpu time    0.0010: real time    0.0010
    CHARGE:  cpu time    2.4785: real time    2.4900
    MIXING:  cpu time    0.0066: real time    0.0066
    --------------------------------------------
      LOOP:  cpu time   65.9725: real time   66.3510

 eigenvalue-minimisations  : 10832
 total energy-change (2. order) :-0.3045424E+00  (-0.8185492E+01)
 number of electron     864.0000007 magnetization 
 augmentation part      118.8514088 magnetization 

 Broyden mixing:
  rms(total) = 0.18908E+01    rms(broyden)= 0.18907E+01
  rms(prec ) = 0.20779E+01
  weight for this iteration     100.00

 eigenvalues of (default mixing * dielectric matrix)
  average eigenvalue GAMMA=   1.1961
  1.1961  1.1961

 Free energy of the ion-electron system (eV)
  ---------------------------------------------------
  alpha Z        PSCENC =      2026.14881195
  Ewald energy   TEWEN  =    -35987.87666385
  -Hartree energ DENC   =    -26314.09882261
  -exchange      EXHF   =         0.00000000
  -V(xc)+E(xc)   XCENC  =      3232.77495536
  PAW double counting   =     76532.82381785   -76131.78316253
  entropy T*S    EENTRO =        -0.00000000
  eigenvalues    EBANDS =     -9237.31672923
  atomic energy  EATOM  =     64968.54023382
  Solvation  Ediel_sol  =         0.00000000
  ---------------------------------------------------
  free energy    TOTEN  =      -910.78755922 eV

  energy without entropy =     -910.78755922  energy(sigma->0) =     -910.78755922


--------------------------------------------------------------------------------------------------------




--------------------------------------- Iteration      1(   8)  ---------------------------------------


    POTLOK:  cpu time    0.1709: real time    0.1771
    SETDIJ:  cpu time    0.3198: real time    0.3206
     EDDAV:  cpu time   63.5516: real time   64.1584
       DOS:  cpu time    0.0021: real time    0.0021
    CHARGE:  cpu time    2.4010: real time    2.4776
    MIXING:  cpu time    0.0059: real time    0.0061
    --------------------------------------------
      LOOP:  cpu time   66.4512: real time   67.1418

 eigenvalue-minimisations  : 11056
 total energy-change (2. order) : 0.2158678E+01  (-0.1261456E+01)
 number of electron     864.0000007 magnetization 
 augmentation part      118.9538273 magnetization 

 Broyden mixing:
  rms(total) = 0.79970E+00    rms(broyden)= 0.79961E+00
  rms(prec ) = 0.93101E+00
  weight for this iteration     100.00

 eigenvalues of (default mixing * dielectric matrix)
  average eigenvalue GAMMA=   1.3250
  2.1201  0.9274  0.9274

 Free energy of the ion-electron system (eV)
  ---------------------------------------------------
  alpha Z        PSCENC =      2026.14881195
  Ewald energy   TEWEN  =    -35987.87666385
  -Hartree energ DENC   =    -26362.72556064
  -exchange      EXHF   =         0.00000000
  -V(xc)+E(xc)   XCENC  =      3232.98843249
  PAW double counting   =     84249.29956112   -83892.10484358
  entropy T*S    EENTRO =        -0.00005503
  eigenvalues    EBANDS =     -9142.89879764
  atomic energy  EATOM  =     64968.54023382
  Solvation  Ediel_sol  =         0.00000000
  ---------------------------------------------------
  free energy    TOTEN  =      -908.62888136 eV

  energy without entropy =     -908.62882632  energy(sigma->0) =     -908.62885384


--------------------------------------------------------------------------------------------------------




--------------------------------------- Iteration      1(   9)  ---------------------------------------


    POTLOK:  cpu time    0.1704: real time    0.1786
    SETDIJ:  cpu time    0.3195: real time    0.3207
     EDDAV:  cpu time   64.1156: real time   65.8398
       DOS:  cpu time    0.0023: real time    0.0024
    CHARGE:  cpu time    2.4407: real time    2.5176
    MIXING:  cpu time    0.0070: real time    0.0072
    --------------------------------------------
      LOOP:  cpu time   67.0556: real time   68.8662

 eigenvalue-minimisations  : 11400
 total energy-change (2. order) : 0.3968350E+00  (-0.2972465E+00)
 number of electron     864.0000007 magnetization 
 augmentation part      118.1730096 magnetization 

 Broyden mixing:
  rms(total) = 0.47979E+00    rms(broyden)= 0.47963E+00
  rms(prec ) = 0.63690E+00
  weight for this iteration     100.00

 eigenvalues of (default mixing * dielectric matrix)
  average eigenvalue GAMMA=   1.1430
  2.1776  0.9137  0.9137  0.5669

 Free energy of the ion-electron system (eV)
  ---------------------------------------------------
  alpha Z        PSCENC =      2026.14881195
  Ewald energy   TEWEN  =    -35987.87666385
  -Hartree energ DENC   =    -26467.11675283
  -exchange      EXHF   =         0.00000000
  -V(xc)+E(xc)   XCENC  =      3238.21895802
  PAW double counting   =     90232.67866511   -89901.59727326
  entropy T*S    EENTRO =        -0.03208481
  eigenvalues    EBANDS =     -9017.19594047
  atomic energy  EATOM  =     64968.54023382
  Solvation  Ediel_sol  =         0.00000000
  ---------------------------------------------------
  free energy    TOTEN  =      -908.23204631 eV

  energy without entropy =     -908.19996150  energy(sigma->0) =     -908.21600390


--------------------------------------------------------------------------------------------------------




--------------------------------------- Iteration      1(  10)  ---------------------------------------


    POTLOK:  cpu time    0.1702: real time    0.1757
    SETDIJ:  cpu time    0.3202: real time    0.3210
     EDDAV:  cpu time   66.3477: real time   66.6799
       DOS:  cpu time    0.0019: real time    0.0019
    CHARGE:  cpu time    2.3875: real time    2.4236
    MIXING:  cpu time    0.0082: real time    0.0082
    --------------------------------------------
      LOOP:  cpu time   69.2356: real time   69.6103

 eigenvalue-minimisations  : 11544
 total energy-change (2. order) :-0.1815769E+00  (-0.1648366E+00)
 number of electron     864.0000007 magnetization 
 augmentation part      118.3122591 magnetization 

 Broyden mixing:
  rms(total) = 0.30446E+00    rms(broyden)= 0.30422E+00
  rms(prec ) = 0.39599E+00
  weight for this iteration     100.00

 eigenvalues of (default mixing * dielectric matrix)
  average eigenvalue GAMMA=   1.0983
  2.3512  1.0356  0.8964  0.8964  0.3120

 Free energy of the ion-electron system (eV)
  ---------------------------------------------------
  alpha Z        PSCENC =      2026.14881195
  Ewald energy   TEWEN  =    -35987.87666385
  -Hartree energ DENC   =    -26473.76833849
  -exchange      EXHF   =         0.00000000
  -V(xc)+E(xc)   XCENC  =      3238.43215552
  PAW double counting   =     90567.57280012   -90236.69816228
  entropy T*S    EENTRO =        -0.00000038
  eigenvalues    EBANDS =     -9010.76445962
  atomic energy  EATOM  =     64968.54023382
  Solvation  Ediel_sol  =         0.00000000
  ---------------------------------------------------
  free energy    TOTEN  =      -908.41362321 eV

  energy without entropy =     -908.41362283  energy(sigma->0) =     -908.41362302


--------------------------------------------------------------------------------------------------------




--------------------------------------- Iteration      1(  11)  ---------------------------------------


    POTLOK:  cpu time    0.1702: real time    0.1767
    SETDIJ:  cpu time    0.3213: real time    0.3224
     EDDAV:  cpu time   63.5665: real time   63.8311
       DOS:  cpu time    0.0018: real time    0.0018
    CHARGE:  cpu time    2.5014: real time    2.5093
    MIXING:  cpu time    0.0075: real time    0.0075
    --------------------------------------------
      LOOP:  cpu time   66.5687: real time   66.8489

 eigenvalue-minimisations  : 11048
 total energy-change (2. order) : 0.5720019E-01  (-0.3743809E-01)
 number of electron     864.0000007 magnetization 
 augmentation part      118.2330526 magnetization 

 Broyden mixing:
  rms(total) = 0.18601E+00    rms(broyden)= 0.18600E+00
  rms(prec ) = 0.25499E+00
  weight for this iteration     100.00

 eigenvalues of (default mixing * dielectric matrix)
  average eigenvalue GAMMA=   1.1263
  2.3998  1.3909  0.9269  0.9269  0.7379  0.3757

 Free energy of the ion-electron system (eV)
  ---------------------------------------------------
  alpha Z        PSCENC =      2026.14881195
  Ewald energy   TEWEN  =    -35987.87666385
  -Hartree energ DENC   =    -26498.72706604
  -exchange      EXHF   =         0.00000000
  -V(xc)+E(xc)   XCENC  =      3239.55943319
  PAW double counting   =     91445.53820038   -91115.94193498
  entropy T*S    EENTRO =        -0.00000198
  eigenvalues    EBANDS =     -8985.59743553
  atomic energy  EATOM  =     64968.54023382
  Solvation  Ediel_sol  =         0.00000000
  ---------------------------------------------------
  free energy    TOTEN  =      -908.35642302 eV

  energy without entropy =     -908.35642104  energy(sigma->0) =     -908.35642203


--------------------------------------------------------------------------------------------------------




--------------------------------------- Iteration      1(  12)  ---------------------------------------


    POTLOK:  cpu time    0.1688: real time    0.1765
    SETDIJ:  cpu time    0.3201: real time    0.3213
     EDDAV:  cpu time   65.6195: real time   65.8805
       DOS:  cpu time    0.0022: real time    0.0022
    CHARGE:  cpu time    2.4806: real time    2.5025
    MIXING:  cpu time    0.0079: real time    0.0080
    --------------------------------------------
      LOOP:  cpu time   68.5991: real time   68.8909

 eigenvalue-minimisations  : 11520
 total energy-change (2. order) : 0.1108729E-01  (-0.1804471E-01)
 number of electron     864.0000007 magnetization 
 augmentation part      118.1788317 magnetization 

 Broyden mixing:
  rms(total) = 0.10012E+00    rms(broyden)= 0.10011E+00
  rms(prec ) = 0.14818E+00
  weight for this iteration     100.00

 eigenvalues of (default mixing * dielectric matrix)
  average eigenvalue GAMMA=   1.1381
  2.4728  1.5848  0.9310  0.9310  0.9089  0.7756  0.3622

 Free energy of the ion-electron system (eV)
  ---------------------------------------------------
  alpha Z        PSCENC =      2026.14881195
  Ewald energy   TEWEN  =    -35987.87666385
  -Hartree energ DENC   =    -26513.47867207
  -exchange      EXHF   =         0.00000000
  -V(xc)+E(xc)   XCENC  =      3240.12603112
  PAW double counting   =     91519.35039604   -91188.11179247
  entropy T*S    EENTRO =        -0.00027392
  eigenvalues    EBANDS =     -8973.04340636
  atomic energy  EATOM  =     64968.54023382
  Solvation  Ediel_sol  =         0.00000000
  ---------------------------------------------------
  free energy    TOTEN  =      -908.34533573 eV

  energy without entropy =     -908.34506181  energy(sigma->0) =     -908.34519877


--------------------------------------------------------------------------------------------------------




--------------------------------------- Iteration      1(  13)  ---------------------------------------


    POTLOK:  cpu time    0.1691: real time    0.1760
    SETDIJ:  cpu time    0.3206: real time    0.3218
     EDDAV:  cpu time   71.1365: real time   72.1851
       DOS:  cpu time    0.0024: real time    0.0024
    CHARGE:  cpu time    2.4493: real time    2.4603
    MIXING:  cpu time    0.0089: real time    0.0089
    --------------------------------------------
      LOOP:  cpu time   74.0868: real time   75.1544

 eigenvalue-minimisations  : 10656
 total energy-change (2. order) : 0.1753617E-02  (-0.4844471E-02)
 number of electron     864.0000007 magnetization 
 augmentation part      118.1475923 magnetization 

 Broyden mixing:
  rms(total) = 0.55153E-01    rms(broyden)= 0.55144E-01
  rms(prec ) = 0.82270E-01
  weight for this iteration     100.00

 eigenvalues of (default mixing * dielectric matrix)
  average eigenvalue GAMMA=   1.2407
  2.4294  2.4294  1.0111  1.0111  0.9566  0.9566  0.7684  0.3632

 Free energy of the ion-electron system (eV)
  ---------------------------------------------------
  alpha Z        PSCENC =      2026.14881195
  Ewald energy   TEWEN  =    -35987.87666385
  -Hartree energ DENC   =    -26522.92244242
  -exchange      EXHF   =         0.00000000
  -V(xc)+E(xc)   XCENC  =      3240.46950859
  PAW double counting   =     91508.58747119   -91176.18973587
  entropy T*S    EENTRO =        -0.00489637
  eigenvalues    EBANDS =     -8965.09586916
  atomic energy  EATOM  =     64968.54023382
  Solvation  Ediel_sol  =         0.00000000
  ---------------------------------------------------
  free energy    TOTEN  =      -908.34358211 eV

  energy without entropy =     -908.33868574  energy(sigma->0) =     -908.34113393


--------------------------------------------------------------------------------------------------------




--------------------------------------- Iteration      1(  14)  ---------------------------------------


    POTLOK:  cpu time    0.1715: real time    0.1773
    SETDIJ:  cpu time    0.3237: real time    0.3245
     EDDAV:  cpu time   58.8406: real time   59.0865
       DOS:  cpu time    0.0026: real time    0.0026
    CHARGE:  cpu time    2.4245: real time    2.4356
    MIXING:  cpu time    0.0106: real time    0.0106
    --------------------------------------------
      LOOP:  cpu time   61.7735: real time   62.0371

 eigenvalue-minimisations  : 10144
 total energy-change (2. order) :-0.9509483E-02  (-0.2535315E-02)
 number of electron     864.0000007 magnetization 
 augmentation part      118.0911928 magnetization 

 Broyden mixing:
  rms(total) = 0.10044E+00    rms(broyden)= 0.10037E+00
  rms(prec ) = 0.13626E+00
  weight for this iteration     100.00

 eigenvalues of (default mixing * dielectric matrix)
  average eigenvalue GAMMA=   1.2273
  2.8670  2.3452  0.9740  0.9740  1.0879  0.9148  0.9148  0.6014  0.3663

 Free energy of the ion-electron system (eV)
  ---------------------------------------------------
  alpha Z        PSCENC =      2026.14881195
  Ewald energy   TEWEN  =    -35987.87666385
  -Hartree energ DENC   =    -26530.92215816
  -exchange      EXHF   =         0.00000000
  -V(xc)+E(xc)   XCENC  =      3240.66866676
  PAW double counting   =     91357.92035608   -91023.68632247
  entropy T*S    EENTRO =        -0.01903397
  eigenvalues    EBANDS =     -8959.12698178
  atomic energy  EATOM  =     64968.54023382
  Solvation  Ediel_sol  =         0.00000000
  ---------------------------------------------------
  free energy    TOTEN  =      -908.35309159 eV

  energy without entropy =     -908.33405763  energy(sigma->0) =     -908.34357461


--------------------------------------------------------------------------------------------------------




--------------------------------------- Iteration      1(  15)  ---------------------------------------


    POTLOK:  cpu time    0.1663: real time    0.1765
    SETDIJ:  cpu time    0.3150: real time    0.3206
     EDDAV:  cpu time   64.6209: real time   65.5473
       DOS:  cpu time    0.0024: real time    0.0024
    CHARGE:  cpu time    2.4863: real time    2.4984
    MIXING:  cpu time    0.0100: real time    0.0100
    --------------------------------------------
      LOOP:  cpu time   67.6009: real time   68.5551

 eigenvalue-minimisations  : 11512
 total energy-change (2. order) : 0.3382495E-02  (-0.1763879E-02)
 number of electron     864.0000007 magnetization 
 augmentation part      118.1478651 magnetization 

 Broyden mixing:
  rms(total) = 0.27954E-01    rms(broyden)= 0.27852E-01
  rms(prec ) = 0.40358E-01
  weight for this iteration     100.00

 eigenvalues of (default mixing * dielectric matrix)
  average eigenvalue GAMMA=   1.1885
  2.9157  2.4479  1.0488  1.0488  0.9985  0.9985  0.7681  0.7681  0.3672  0.5237

 Free energy of the ion-electron system (eV)
  ---------------------------------------------------
  alpha Z        PSCENC =      2026.14881195
  Ewald energy   TEWEN  =    -35987.87666385
  -Hartree energ DENC   =    -26533.53267608
  -exchange      EXHF   =         0.00000000
  -V(xc)+E(xc)   XCENC  =      3240.75397419
  PAW double counting   =     91362.15421006   -91027.59814019
  entropy T*S    EENTRO =        -0.00788342
  eigenvalues    EBANDS =     -8956.93157560
  atomic energy  EATOM  =     64968.54023382
  Solvation  Ediel_sol  =         0.00000000
  ---------------------------------------------------
  free energy    TOTEN  =      -908.34970910 eV

  energy without entropy =     -908.34182568  energy(sigma->0) =     -908.34576739


--------------------------------------------------------------------------------------------------------




--------------------------------------- Iteration      1(  16)  ---------------------------------------


    POTLOK:  cpu time    0.1693: real time    0.1767
    SETDIJ:  cpu time    0.3197: real time    0.3209
     EDDAV:  cpu time   60.8294: real time   61.1192
       DOS:  cpu time    0.0024: real time    0.0024
    CHARGE:  cpu time    2.4409: real time    2.4709
    MIXING:  cpu time    0.0099: real time    0.0099
    --------------------------------------------
      LOOP:  cpu time   63.7717: real time   64.1000

 eigenvalue-minimisations  : 10424
 total energy-change (2. order) : 0.3671001E-03  (-0.3175515E-03)
 number of electron     864.0000007 magnetization 
 augmentation part      118.1416016 magnetization 

 Broyden mixing:
  rms(total) = 0.15558E-01    rms(broyden)= 0.15556E-01
  rms(prec ) = 0.22291E-01
  weight for this iteration     100.00

 eigenvalues of (default mixing * dielectric matrix)
  average eigenvalue GAMMA=   1.2115
  3.1184  2.4539  1.2397  1.1054  1.1054  0.9538  0.9538  0.3668  0.6988  0.6988
  0.6319

 Free energy of the ion-electron system (eV)
  ---------------------------------------------------
  alpha Z        PSCENC =      2026.14881195
  Ewald energy   TEWEN  =    -35987.87666385
  -Hartree energ DENC   =    -26534.34503390
  -exchange      EXHF   =         0.00000000
  -V(xc)+E(xc)   XCENC  =      3240.76116159
  PAW double counting   =     91343.47383181   -91008.84612703
  entropy T*S    EENTRO =        -0.00956981
  eigenvalues    EBANDS =     -8956.19598658
  atomic energy  EATOM  =     64968.54023382
  Solvation  Ediel_sol  =         0.00000000
  ---------------------------------------------------
  free energy    TOTEN  =      -908.34934200 eV

  energy without entropy =     -908.33977219  energy(sigma->0) =     -908.34455709


--------------------------------------------------------------------------------------------------------




--------------------------------------- Iteration      1(  17)  ---------------------------------------


    POTLOK:  cpu time    0.1708: real time    0.1779
    SETDIJ:  cpu time    0.3271: real time    0.3284
     EDDAV:  cpu time   65.5329: real time   65.9379
       DOS:  cpu time    0.0023: real time    0.0023
    CHARGE:  cpu time    2.4569: real time    2.4638
    MIXING:  cpu time    0.0096: real time    0.0096
    --------------------------------------------
      LOOP:  cpu time   68.4996: real time   68.9199

 eigenvalue-minimisations  : 11408
 total energy-change (2. order) : 0.1066610E-03  (-0.1690288E-03)
 number of electron     864.0000007 magnetization 
 augmentation part      118.1353139 magnetization 

 Broyden mixing:
  rms(total) = 0.58226E-02    rms(broyden)= 0.58115E-02
  rms(prec ) = 0.78410E-02
  weight for this iteration     100.00

 eigenvalues of (default mixing * dielectric matrix)
  average eigenvalue GAMMA=   1.2709
  3.3859  2.3103  2.3103  1.0334  1.0334  0.9587  0.9587  0.3667  0.8672  0.6640
  0.6809  0.6809

 Free energy of the ion-electron system (eV)
  ---------------------------------------------------
  alpha Z        PSCENC =      2026.14881195
  Ewald energy   TEWEN  =    -35987.87666385
  -Hartree energ DENC   =    -26535.21491999
  -exchange      EXHF   =         0.00000000
  -V(xc)+E(xc)   XCENC  =      3240.77362303
  PAW double counting   =     91338.09914767   -91003.56910180
  entropy T*S    EENTRO =        -0.01120795
  eigenvalues    EBANDS =     -8955.23915823
  atomic energy  EATOM  =     64968.54023382
  Solvation  Ediel_sol  =         0.00000000
  ---------------------------------------------------
  free energy    TOTEN  =      -908.34923534 eV

  energy without entropy =     -908.33802739  energy(sigma->0) =     -908.34363136


--------------------------------------------------------------------------------------------------------




--------------------------------------- Iteration      1(  18)  ---------------------------------------


    POTLOK:  cpu time    0.1696: real time    0.1777
    SETDIJ:  cpu time    0.3203: real time    0.3214
     EDDAV:  cpu time   65.7089: real time   66.0501
       DOS:  cpu time    0.0024: real time    0.0024
    CHARGE:  cpu time    2.3705: real time    2.3892
    MIXING:  cpu time    0.0104: real time    0.0105
    --------------------------------------------
      LOOP:  cpu time   68.5822: real time   68.9514

 eigenvalue-minimisations  : 11472
 total energy-change (2. order) :-0.4189223E-04  (-0.5647456E-04)
 number of electron     864.0000007 magnetization 
 augmentation part      118.1336869 magnetization 

 Broyden mixing:
  rms(total) = 0.60596E-02    rms(broyden)= 0.60573E-02
  rms(prec ) = 0.80922E-02
  weight for this iteration     100.00

 eigenvalues of (default mixing * dielectric matrix)
  average eigenvalue GAMMA=   1.2914
  3.7900  2.4748  2.4748  1.0358  1.0358  0.3668  0.9410  0.9410  0.8424  0.8424
  0.7180  0.7180  0.6076

 Free energy of the ion-electron system (eV)
  ---------------------------------------------------
  alpha Z        PSCENC =      2026.14881195
  Ewald energy   TEWEN  =    -35987.87666385
  -Hartree energ DENC   =    -26535.62039145
  -exchange      EXHF   =         0.00000000
  -V(xc)+E(xc)   XCENC  =      3240.77307225
  PAW double counting   =     91346.85828828   -91012.50368195
  entropy T*S    EENTRO =        -0.01154402
  eigenvalues    EBANDS =     -8954.65740228
  atomic energy  EATOM  =     64968.54023382
  Solvation  Ediel_sol  =         0.00000000
  ---------------------------------------------------
  free energy    TOTEN  =      -908.34927723 eV

  energy without entropy =     -908.33773321  energy(sigma->0) =     -908.34350522


--------------------------------------------------------------------------------------------------------




--------------------------------------- Iteration      1(  19)  ---------------------------------------


    POTLOK:  cpu time    0.1694: real time    0.1757
    SETDIJ:  cpu time    0.3230: real time    0.3238
     EDDAV:  cpu time   66.0289: real time   66.3884
       DOS:  cpu time    0.0023: real time    0.0023
    CHARGE:  cpu time    2.4241: real time    2.4321
    MIXING:  cpu time    0.0127: real time    0.0128
    --------------------------------------------
      LOOP:  cpu time   68.9605: real time   69.3351

 eigenvalue-minimisations  : 11664
 total energy-change (2. order) : 0.1593464E-04  (-0.2648888E-04)
 number of electron     864.0000007 magnetization 
 augmentation part      118.1362861 magnetization 

 Broyden mixing:
  rms(total) = 0.17992E-02    rms(broyden)= 0.17966E-02
  rms(prec ) = 0.23253E-02
  weight for this iteration     100.00

 eigenvalues of (default mixing * dielectric matrix)
  average eigenvalue GAMMA=   1.2867
  3.9871  2.5159  2.5159  1.0465  1.0465  1.0035  1.0035  0.9943  0.3668  0.7695
  0.7695  0.6218  0.6864  0.6864

 Free energy of the ion-electron system (eV)
  ---------------------------------------------------
  alpha Z        PSCENC =      2026.14881195
  Ewald energy   TEWEN  =    -35987.87666385
[...]
   0.890E+02 0.443E+02 -.341E+02   -.101E+03 -.360E+02 0.543E+02   0.129E+02 -.812E+01 -.214E+02   0.460E-03 0.309E-03 0.349E-03
   -.979E+01 -.504E+02 -.130E+03   0.226E+02 0.324E+02 0.147E+03   -.139E+02 0.202E+02 -.185E+02   0.884E-04 0.295E-02 -.128E-02
   -.841E+02 0.330E+02 0.559E+02   0.637E+02 -.525E+02 -.815E+02   0.204E+02 0.152E+02 0.220E+02   -.153E-02 -.100E-03 -.540E-03
   -.855E+01 0.294E+03 0.930E+02   0.404E+02 -.313E+03 -.932E+02   -.297E+02 0.155E+02 -.698E+00   -.144E-03 0.409E-03 0.444E-03
   -.866E+02 -.111E+03 0.130E+03   0.102E+03 0.909E+02 -.150E+03   -.150E+02 0.202E+02 0.191E+02   -.513E-03 0.800E-03 -.134E-02
   -.122E+03 0.577E+01 -.991E+02   0.115E+03 0.708E+01 0.115E+03   0.977E+01 -.137E+02 -.168E+02   0.175E-02 -.318E-02 -.525E-03
   -.635E+02 -.238E+02 0.179E+02   0.678E+02 0.312E+02 -.178E+02   -.305E+01 -.818E+01 -.114E+00   0.378E-03 -.133E-02 0.177E-03
   0.872E+01 0.738E+02 0.124E+03   -.812E+01 -.740E+02 -.137E+03   -.255E+01 -.217E+01 0.126E+02   -.156E-03 0.596E-03 0.844E-03
   -.122E+03 0.152E+03 -.982E+02   0.132E+03 -.159E+03 0.113E+03   -.105E+02 0.667E+01 -.161E+02   0.543E-03 0.847E-03 -.337E-02
   -.360E+02 0.163E+03 0.543E+01   0.297E+02 -.180E+03 0.515E+01   0.797E+01 0.197E+02 -.131E+02   -.159E-03 0.363E-03 -.660E-03
   0.621E+02 -.160E+03 0.288E+03   -.694E+02 0.157E+03 -.311E+03   0.632E+01 0.483E+01 0.247E+02   -.798E-03 -.622E-03 -.609E-03
   -.210E+03 0.217E+02 0.132E+03   0.212E+03 -.249E+02 -.158E+03   0.693E+00 0.354E+01 0.241E+02   0.653E-03 -.121E-02 -.219E-03
   -.746E+02 0.998E+02 -.113E+03   0.946E+02 -.122E+03 0.112E+03   -.214E+02 0.187E+02 -.154E+01   0.621E-03 -.985E-03 -.211E-03
   -.614E+02 0.465E+02 0.381E+02   0.838E+02 -.504E+02 -.430E+02   -.224E+02 0.695E+01 0.510E+01   0.481E-03 -.310E-04 -.627E-03
   0.149E+02 0.141E+03 -.121E+03   -.103E+02 -.162E+03 0.138E+03   -.626E+01 0.205E+02 -.157E+02   -.647E-03 0.639E-03 0.919E-03
   0.113E+03 0.198E+02 -.821E+02   -.136E+03 -.448E+00 0.802E+02   0.218E+02 -.192E+02 0.203E+01   -.107E-03 0.267E-03 -.107E-03
   0.129E+02 0.866E+02 0.406E+02   0.636E+01 -.867E+02 -.458E+02   -.214E+02 -.154E+01 0.489E+01   -.843E-03 -.143E-03 -.255E-03
   0.790E+02 -.226E+03 -.947E+00   -.892E+02 0.253E+03 -.477E+01   0.100E+02 -.280E+02 0.627E+01   0.621E-03 0.576E-03 -.128E-03
   -.224E+02 0.142E+02 0.329E+02   0.368E+02 -.707E+01 -.495E+02   -.162E+02 -.674E+01 0.195E+02   -.476E-03 -.122E-02 0.472E-04
   -.928E+02 0.559E+02 -.155E+03   0.117E+03 -.461E+02 0.180E+03   -.226E+02 -.966E+01 -.243E+02   -.417E-03 0.952E-03 -.223E-03
   0.126E+03 0.721E+02 0.849E+02   -.143E+03 -.702E+02 -.110E+03   0.174E+02 -.115E+01 0.207E+02   -.772E-04 0.107E-02 0.733E-03
   -.153E+03 -.126E+03 0.125E+03   0.166E+03 0.147E+03 -.140E+03   -.133E+02 -.206E+02 0.172E+02   -.179E-03 0.135E-02 -.488E-03
   -.127E+03 0.292E+02 0.201E+03   0.144E+03 -.260E+02 -.219E+03   -.199E+02 -.352E+01 0.179E+02   0.699E-03 0.155E-02 -.847E-04
   -.778E+02 -.682E+02 -.735E+02   0.864E+02 0.548E+02 0.849E+02   -.809E+01 0.136E+02 -.122E+02   0.339E-03 0.964E-03 -.930E-04
   -.631E+02 -.254E+02 0.363E+01   0.640E+02 0.121E+02 0.900E+01   -.921E+00 0.122E+02 -.106E+02   -.361E-03 -.607E-03 -.657E-03
   -.242E+02 -.649E+02 0.226E+02   0.359E+02 0.639E+02 -.396E+02   -.851E+01 0.386E+00 0.158E+02   0.312E-02 0.272E-03 -.217E-02
   0.108E+03 -.444E+02 0.384E+02   -.131E+03 0.617E+02 -.421E+02   0.242E+02 -.152E+02 0.534E+01   0.157E-03 -.220E-03 -.101E-02
   0.112E+03 0.883E+02 0.291E+02   -.118E+03 -.725E+02 -.304E+02   0.525E+01 -.186E+02 0.144E+01   0.218E-03 -.321E-04 -.526E-03
   0.146E+03 -.251E+02 0.931E+01   -.165E+03 0.295E+02 -.156E+02   0.222E+02 -.584E+01 0.733E+01   0.205E-03 0.588E-03 -.817E-03
   -.950E+02 -.879E+02 0.470E+02   0.112E+03 0.947E+02 -.637E+02   -.162E+02 -.635E+01 0.149E+02   -.908E-04 0.204E-03 -.686E-03
   0.138E+02 0.783E+02 -.194E+02   -.858E+01 -.805E+02 -.384E+01   -.557E+01 -.895E+00 0.190E+02   -.478E-03 -.817E-03 0.699E-04
   -.760E+02 0.586E+02 0.108E+02   0.104E+03 -.658E+02 -.113E+02   -.227E+02 0.572E+01 0.194E+01   0.653E-03 -.216E-03 0.674E-03
   -.176E+02 0.872E+02 -.112E+03   0.845E+01 -.872E+02 0.130E+03   0.730E+01 -.511E+00 -.166E+02   -.276E-03 -.693E-03 0.523E-03
   0.922E+02 0.987E+01 -.259E+02   -.114E+03 -.139E+02 0.163E+02   0.204E+02 0.338E+01 0.111E+02   0.115E-02 -.122E-02 0.183E-03
   0.124E+03 -.245E+02 0.677E+02   -.134E+03 0.377E+02 -.561E+02   0.958E+01 -.149E+02 -.112E+02   -.789E-03 -.989E-03 -.838E-04
   -.149E+03 -.177E+03 0.186E+03   0.165E+03 0.198E+03 -.184E+03   -.178E+02 -.237E+02 -.228E+01   -.558E-03 0.106E-02 -.850E-03
   0.130E+03 -.111E+03 0.120E+03   -.149E+03 0.114E+03 -.144E+03   0.170E+02 -.652E+01 0.234E+02   -.862E-03 -.187E-02 -.120E-04
   -.190E+02 -.362E+01 0.156E+02   0.476E+01 0.274E+02 -.262E+02   0.102E+02 -.244E+02 0.620E+01   -.124E-02 -.325E-02 -.167E-02
   0.234E+02 0.447E+01 0.401E+02   -.171E+02 0.438E+01 -.487E+02   -.884E+01 -.112E+02 0.986E+01   -.398E-03 0.951E-03 -.203E-03
   0.194E+03 -.167E+03 -.405E+02   -.219E+03 0.175E+03 0.448E+02   0.283E+02 -.875E+01 -.238E+01   -.618E-03 -.306E-03 -.871E-04
   0.497E+02 -.579E+02 0.758E+01   -.508E+02 0.497E+02 0.124E+02   -.234E+01 0.940E+01 -.242E+02   0.859E-03 -.335E-02 -.180E-02
   0.333E+02 -.769E+02 -.546E+02   -.418E+02 0.855E+02 0.732E+02   0.882E+01 -.869E+01 -.183E+02   -.117E-02 -.223E-02 0.123E-02
   -.111E+03 0.149E+03 0.484E+02   0.992E+02 -.152E+03 -.696E+02   0.147E+02 0.359E+01 0.225E+02   0.219E-02 -.185E-02 0.487E-03
   -.439E+02 -.626E+02 0.143E+03   0.599E+02 0.717E+02 -.164E+03   -.152E+02 -.907E+01 0.204E+02   0.533E-03 0.649E-03 0.228E-03
   -.398E+02 0.405E+02 -.126E+03   0.199E+02 -.474E+02 0.150E+03   0.218E+02 0.674E+01 -.253E+02   0.586E-03 -.181E-02 0.858E-04
   0.923E+02 -.147E+03 0.725E+02   -.105E+03 0.162E+03 -.911E+02   0.126E+02 -.156E+02 0.184E+02   -.264E-02 -.281E-02 -.147E-02
   -.468E+02 -.693E+02 0.181E+03   0.395E+02 0.773E+02 -.207E+03   0.864E+01 -.914E+01 0.284E+02   0.114E-02 -.131E-02 0.277E-04
   0.247E+03 -.375E+02 -.500E+02   -.256E+03 0.601E+02 0.588E+02   0.929E+01 -.245E+02 -.913E+01   -.862E-03 0.171E-02 0.841E-03
 -----------------------------------------------------------------------------------------------
   -.612E+02 0.914E+02 -.771E+02   0.284E-12 0.119E-11 -.391E-12   0.612E+02 -.914E+02 0.771E+02   0.779E-02 -.166E-01 -.438E-02
 
 
 POSITION                                       TOTAL-FORCE (eV/Angst)
 -----------------------------------------------------------------------------------
      0.69810      6.69211     11.85771         0.482568      2.192055     -1.020627
      5.96075      0.68867      2.93598        -2.223564     -0.366841     -2.006423
      4.43707      6.25533     12.44164         2.349197     -1.752778     -0.276926
      5.53443     11.32347      0.02438        -0.718126      0.335748     -1.163752
     12.23172      0.89429      7.06522        -1.249416      0.302020      0.784690
     10.04234      6.54466      9.99450        -1.437548     -0.792384     -0.030731
      1.12134      3.84155     12.84257        -1.138908     -2.749774     -1.507162
     11.01682      5.68222      6.19682        -3.559068     -2.844258      0.012232
     12.89290     11.50809      2.62020        -1.127541      0.258034     -0.483751
      0.46540     11.63499     11.91736        -2.202009     -2.247956      0.735241
      5.27562      9.39023      4.80995         0.639117     -0.602884     -0.360507
      8.96128     12.96948      4.13004         1.367604     -0.048937      0.554964
      5.15012      3.97608      3.31369        -5.268390     -0.693661     -2.768931
      5.23087     10.31653      9.74446         3.148924     -0.661732      0.499106
     10.60457      6.91814     13.26286        -2.405777      0.034184      1.889238
      9.27807      9.26000      8.32421        -1.654527      1.690386     -2.824807
      5.68397      1.13372     10.34365         0.376271     -0.864062      0.535769
     10.39442     13.07721     10.84406         1.387048     -1.368963     -1.053598
      1.93159      0.36741      4.26568         2.145228      0.861173      0.400119
      2.43244      0.93065      0.19660         1.296798     -0.585853      0.382118
     13.27758      7.73260      8.58546         0.674225     -1.287969     -2.023788
      7.32623      1.80339      6.12544        -1.212878      1.308261     -0.009735
      9.32376      8.19563      4.30492        -0.092098     -0.326652     -1.929494
      9.23118      2.84447     11.39628         1.318414      2.484608      1.221022
      8.59470      3.66956      2.54158        -0.378455      1.275739     -0.073002
      3.97227      2.97441      8.41708         2.524587      1.182483     -0.638084
      1.31918      1.89882      9.73669         4.382884     -1.571054     -1.413250
      2.20052      5.02888      9.66249         0.421302      1.058418     -2.316360
     11.86468      5.63298      2.70808         1.370750      2.912703     -1.728104
      2.54883     10.72014      8.03220        -1.317484      4.692774      3.914866
      9.36249      0.97437      7.90554         0.167532     -3.139387      0.461514
      4.73022      7.41658      2.96815         0.226458      2.970150      1.209108
     11.70370      2.73106      3.16897         1.074599     -1.553249     -1.473186
     12.84690      7.19914      4.87524         1.220591      5.142611      2.310203
      1.87994      7.36858      4.11786        -0.219626      2.040768      0.032519
      8.13460      9.99897     12.64035        -1.142168     -3.462938     -0.324808
      1.75888      3.05860      2.67563        -2.562442      3.466058      2.753120
      8.11207     10.32192      5.52038         4.782943      6.502798      0.392681
      7.13593     12.16052      7.23024        -0.715756     -1.218695      4.514904
      3.06445     12.36987     11.26869         3.596292     -5.550603     -3.309281
     10.86012      0.41719      1.13991         6.331119     -2.073376      4.247682
      7.25373      3.41720      8.90858         2.571550      1.611444      1.867778
      2.88983     11.38687      1.64181        -0.147088     -1.200238     -0.989744
      8.02115      0.11853     12.92784        -2.327082      1.140753      1.710531
      1.05111     11.52468      6.44862        -3.851057      7.474994      0.308173
      7.65902      5.40036     12.64367         2.047676     -5.468615      4.170573
      8.00344      6.09889      7.76249        -5.604804      2.222283     -1.379228
      5.43439      2.15376     13.24956         0.720526      0.767336      0.877571
      6.87647      5.84988      4.62908         4.676407      1.956014      0.477200
      2.36349      8.78731      0.22410        -7.159166     -0.962095     -4.228582
      1.23877      5.65259      1.65238         0.896517      0.040078      0.965793
     11.13365      9.18476     10.61473         2.873452      2.267465     -2.033500
      3.95282     13.16428      7.02977         2.857733      4.495251     -2.627094
     12.33043      3.17195      9.73263        -4.074077      0.757886     -1.209337
      9.17404     10.92563      6.64955        -0.949989     -0.013515      0.220128
      2.00344      6.98820      5.65897        -1.653986     -1.396736     -0.520280
     11.46308      3.88644     10.91047         0.744854     -0.083134     -0.459499
      7.71739      5.61731      6.09989        -1.472075      1.285863      1.198426
      0.16941      2.77438      3.28043        -1.282044     -0.325117      0.419445
      6.82464      4.30123      4.16574         1.467345     -0.237773      0.855689
      9.20359      2.36451      8.57480        -2.360739      4.404018      0.894476
      7.59235      8.92109      5.62549        -2.608140     -4.076511     -0.396257
      2.66769      9.83215      1.23686         1.620754      3.880854      5.799601
      0.59031      8.45333      4.03466        -0.861506     -1.500697      1.526117
      3.32991      7.92511      3.87103         3.124378      2.072602     -0.965368
      0.64448      5.55290      9.58629        -1.633477      2.292978      0.995279
      2.69606      2.76360      3.84203         2.364116     -3.872157      2.556919
      9.55028      9.13102     10.34945        -0.928128      0.883858      3.997964
      1.38872      7.16909      2.01251         0.618150      1.946035      1.979353
      8.58764      5.28813      0.90798        -0.829370     -0.253962     -2.403989
      5.58228      6.86978      4.34550        -0.689807     -1.186376      0.732532
      6.75380     11.42729      5.79846         0.410363      0.296110     -2.543046
     10.62332      0.36971      8.81495        -0.167958     -0.346728     -1.121975
      6.61080      4.00958     12.62415         0.698097     -0.823484      1.314202
      5.08321      0.47603      0.02171        -2.640609     -1.264015     -0.441188
      3.29752     10.96519     12.46664        -1.770703      3.287277      0.170670
      6.52183      9.47539     11.85555         3.465730      3.354552      2.492580
     12.63229      6.62305      6.41691         3.691253      2.170210      1.951162
      6.75380      6.45053     12.10192        -4.543121      4.735919     -0.675212
     11.42156      7.86044      4.71818        -2.058540      0.074584      0.143188
     12.72956      1.59559     10.16757        -1.664093      1.478128      0.198126
      2.25388      4.62537      2.46085        -2.075708      2.021665      0.265246
      5.62020     13.19788      7.34891         0.326112     -1.716529      0.685742
     11.43818      8.74981      8.97150         1.161157     -0.883959      0.937106
      1.20876     10.20428      7.16246         1.659464     -5.667322      3.264234
      4.05935      0.25944      5.41032        -1.673210     -0.077076     -0.150323
     12.93289      5.12932      1.54018         2.601603     -0.249005     -1.371937
      0.17775     12.52889      7.44536         1.184357      0.178361     -1.134999
      9.04626      8.90881      0.15700        -1.036824      2.237970     -1.673189
      4.07423      6.55688      1.93805        -0.062436     -4.246751     -3.564654
      3.86324     10.04994      8.22761         2.119155     -3.327190     -0.931577
      3.12291      7.77574     12.70693         0.059435      0.543434     -0.920851
      7.15905      1.11618      0.69776         2.476798     -0.818662     -0.728946
      7.29278      1.69252      3.98347         1.258970     -0.729622      0.010101
      2.81725     11.97919      6.85364        -1.940449     -2.387536     -0.363510
      8.30820     11.75640     13.29990        -0.619362     -0.632516     -0.929536
     10.34215     12.58935      2.42321         1.671209      2.564999     -2.495466
      2.37979      4.09136      8.19047        -1.006004      1.873113      1.891646
      9.24309      0.86018      6.31817         2.584540      0.331738     -2.329302
     13.01443      5.93193      3.96841        -1.427749     -3.854947     -2.601234
      4.61895     12.08609     10.80924         0.055659      3.048981      0.182220
      7.16135     10.95018      8.30431        -1.664228     -0.164995      1.069427
      1.66229     12.40007      1.63203        -1.178305      0.129690      0.134676
     12.42829     13.15560      0.54653        -2.169748     -1.645179     -0.263598
     11.20398      6.95575      2.06214        -0.201402     -1.073819      0.550852
     11.69962      1.87984      1.63007        -1.705303      0.358411      2.784250
      3.99116     11.85440      2.62260         1.695328      0.199101      0.122503
      0.48663     11.77108      5.03644         0.531208      0.745760     -4.340446
      5.42867      8.78059      2.46024         0.298327      1.000688      1.707097
      9.12936     10.65745      4.18884        -2.471418     -0.347092      0.132204
     11.62858      7.85933     11.52040         0.477103      0.168558     -0.713457
      1.97849      3.75813     10.69741        -0.050712     -1.194374      2.066557
      8.80753      5.27535     11.50051         3.169973     -0.602552     -1.217465
      1.78563      0.00240     11.40902         0.733070      2.083210      1.606648
      2.42040     11.99188      9.41239        -0.534688     -2.867148      0.062010
      0.76774      9.29842     12.81546         3.062418     -1.469606      1.049313
      1.71470      5.62271      0.11295         0.342095      0.462993     -1.756451
      1.88561      2.69460      1.19611        -0.402700     -3.029789     -4.215315
      9.49886      5.83509      7.80302         5.571457     -1.407518      1.437987
      8.00236      0.05689      8.04124        -1.863949     -0.558088      0.651059
     11.06770      4.23444      2.71344        -1.165244     -0.679520      1.440567
      3.39606      1.05312      7.99943        -0.747403     -1.641040      0.390672
      3.21352      6.30872     10.15309        -1.637932     -2.489349      0.145509
      6.25598      3.12587      7.74527        -1.786381     -4.117310     -1.003683
      9.82645      1.15225      0.23160        -4.038955     -0.632657     -4.434223
     12.11246     10.92310     10.61131        -2.556006     -2.337178      1.324729
      6.89316      5.07895      8.56186         3.138569     -0.050419      2.000702
      7.49644      2.67157     10.42899        -3.442532      1.170807     -4.202973
      5.04319      2.65048      1.45828         0.333955     -0.120090      0.374634
      7.24325      0.13472     11.47480         2.953728     -0.304893      1.374794
      8.01436      6.52446      3.70545         0.836753      0.013361     -0.061400
     10.69938      2.31646      4.40027         1.975084     -0.151801     -1.422328
      4.61570      2.61058     11.88349        -0.294757     -1.380252     -0.176799
     12.02459      3.41422      8.13162         1.381477     -1.146401      1.713783
      7.84454      7.65398      8.31501        -0.135609     -1.962956     -0.316576
 -----------------------------------------------------------------------------------
    total drift:                                0.001519     -0.014367     -0.006502


--------------------------------------------------------------------------------------------------------



  FREE ENERGIE OF THE ION-ELECTRON SYSTEM (eV)
  ---------------------------------------------------
  free  energy   TOTEN  =      -908.34926598 eV

  energy  without entropy=     -908.33817181  energy(sigma->0) =     -908.34371890
 


--------------------------------------------------------------------------------------------------------


    POTLOK:  cpu time    0.4881: real time    0.4899


--------------------------------------------------------------------------------------------------------


     LOOP+:  cpu time 1544.9508: real time 1555.8206
    4ORBIT:  cpu time    0.0000: real time    0.0000

 total amount of memory used by VASP MPI-rank0   216806. kBytes
=======================================================================

   base      :      30000. kBytes
   nonlr-proj:      21443. kBytes
   fftplans  :      34308. kBytes
   grid      :      19248. kBytes
   one-center:        186. kBytes
   wavefun   :     111621. kBytes
 
  
  
 General timing and accounting informations for this job:
 ========================================================
  
                  Total CPU time used (sec):     1573.261
                            User time (sec):     1567.203
                          System time (sec):        6.059
                         Elapsed time (sec):     1584.610
  
                   Maximum memory used (kb):      358440.
                   Average memory used (kb):           0.
  
                          Minor page faults:       166631
                          Major page faults:            0
                 Voluntary context switches:          485
