<?xml version="1.0" encoding="ISO-8859-1"?>
<modeling>
 <generator>
  <i name="program" type="string">vasp </i>
  <i name="version" type="string">5.4.4.18Apr17-6-g9f103f2a35  </i>
  <i name="subversion" type="string">(build Oct 31 2019 15:01:46) complex            parallel </i>
  <i name="platform" type="string">LinuxIFC </i>
  <i name="date" type="string">2024 04 30 </i>
  <i name="time" type="string">10:27:37 </i>
 </generator>
 <incar>
  <i type="int" name="ISTART">     0</i>
  <i type="string" name="PREC">anormal</i>
  <i type="logical" name="ADDGRID"> T  </i>
  <i type="int" name="IBRION">    -1</i>
  <i name="EDIFF">      0.00000100</i>
  <i name="EDIFFG">     -0.01000000</i>
  <i type="int" name="NSW">     1</i>
  <i type="int" name="ISIF">     2</i>
  <i type="int" name="ISYM">     2</i>
  <i name="ENCUT">    600.00000000</i>
  <i name="POTIM">      1.00000000</i>
  <i type="string" name="LREAL"> Auto.</i>
  <i type="int" name="ISMEAR">     0</i>
  <i name="SIGMA">      0.05000000</i>
  <i name="KSPACING">      0.25000000</i>
  <i type="logical" name="LWAVE"> F  </i>
  <i type="logical" name="LCHARG"> F  </i>
  <i type="logical" name="LSCALAPACK"> F  </i>
  <v type="int" name="KPOINT_BSE">    -1     0     0     0</v>
 </incar>
 <structure name="primitive_cell" >
  <crystal>
   <varray name="basis" >
    <v>      13.79398668       0.00000000       0.00000000 </v>
    <v>      -6.89699334      11.94594288       0.00000000 </v>
    <v>       0.00000000       0.00000000      27.81022107 </v>
   </varray>
   <i name="volume">   4582.62876984 </i>
   <varray name="rec_basis" >
    <v>       0.07249536       0.04185521       0.00000000 </v>
    <v>       0.00000000       0.08371043       0.00000000 </v>
    <v>       0.00000000       0.00000000       0.03595800 </v>
   </varray>
  </crystal>
  <varray name="positions" >
   <v>       0.08556043       0.17320199      -0.45624279 </v>
   <v>       0.24446030       0.25234597      -0.49755511 </v>
   <v>       0.00974530       0.24971942       0.49313904 </v>
   <v>       0.00780862       0.00837087       0.49605324 </v>
   <v>       0.15586658       0.08339790      -0.39501310 </v>
   <v>       0.16298098       0.33834617      -0.39379887 </v>
   <v>      -0.09302141       0.09543283      -0.39126388 </v>
   <v>       0.15769640       0.31917280       0.45410788 </v>
   <v>      -0.08651053       0.07043541       0.45641752 </v>
   <v>       0.31808369       0.41165052      -0.45972666 </v>
   <v>       0.17567987       0.09274662       0.45047138 </v>
   <v>       0.08340487       0.41268520      -0.45792357 </v>
   <v>       0.32680783       0.17243329      -0.45028871 </v>
   <v>      -0.16935720      -0.08565092      -0.45684561 </v>
   <v>      -0.18094941       0.15659949      -0.45534333 </v>
   <v>       0.09379068      -0.08464705      -0.45332984 </v>
   <v>       0.25339649       0.49924787       0.49921029 </v>
   <v>      -0.05943989       0.33864830      -0.39359925 </v>
   <v>       0.24817538       0.00298756       0.49413428 </v>
   <v>       0.08287710       0.16813097       0.39201379 </v>
   <v>       0.40927550       0.32182860      -0.39534420 </v>
   <v>      -0.26183578      -0.00793642      -0.49625313 </v>
   <v>      -0.08546299      -0.15440697      -0.38757514 </v>
   <v>      -0.07517086       0.32649819       0.44865347 </v>
   <v>      -0.06811281      -0.15707980       0.45586030 </v>
   <v>       0.42709887       0.34429253       0.45553044 </v>
   <v>      -0.15658915       0.16602967       0.39891555 </v>
   <v>       0.49526744       0.48795113      -0.49966505 </v>
   <v>       0.10398885       0.42788894       0.39729039 </v>
   <v>       0.41855449      -0.43420742      -0.39644272 </v>
   <v>      -0.23736616       0.26106162       0.49611615 </v>
   <v>       0.01836768      -0.48562028      -0.49715282 </v>
   <v>       0.17952813      -0.41887247      -0.39598823 </v>
   <v>       0.14976424      -0.15787007      -0.39153557 </v>
   <v>       0.49998431       0.25726273       0.49885621 </v>
   <v>      -0.00211328      -0.24431081      -0.49774740 </v>
   <v>       0.32621451       0.17572212       0.38860659 </v>
   <v>       0.35114913       0.41276792       0.39397250 </v>
   <v>       0.07583685      -0.09601256       0.39690814 </v>
   <v>      -0.18524153      -0.10540486       0.40002387 </v>
   <v>       0.42314445       0.08679095      -0.39598953 </v>
   <v>       0.40895830      -0.41800766       0.45704194 </v>
   <v>      -0.26401755      -0.26959461      -0.49780794 </v>
   <v>      -0.34646617       0.08890491      -0.39905692 </v>
   <v>       0.33849085      -0.34362442      -0.45484529 </v>
   <v>       0.15783328      -0.41831848       0.45323077 </v>
   <v>      -0.43030990       0.40454232      -0.45285055 </v>
   <v>      -0.35457174      -0.16730623      -0.39170594 </v>
   <v>       0.41038405       0.08844186       0.44861601 </v>
   <v>      -0.33285123      -0.16911449       0.45834574 </v>
   <v>      -0.32859962       0.09213923       0.45193677 </v>
   <v>      -0.16336998       0.41980841      -0.45090064 </v>
   <v>       0.34731167      -0.06134898      -0.45515045 </v>
   <v>       0.16656050      -0.16870725       0.45218571 </v>
   <v>      -0.41898972      -0.08768656      -0.45819868 </v>
   <v>      -0.16848443      -0.33608064      -0.45229869 </v>
   <v>      -0.42710963      -0.34286638      -0.45307002 </v>
   <v>       0.09478524      -0.32859045      -0.45431885 </v>
   <v>      -0.40835603       0.17468900      -0.45589679 </v>
   <v>      -0.39811589      -0.07824634       0.39360451 </v>
   <v>      -0.16583163       0.40802247       0.39299298 </v>
   <v>       0.23634165      -0.24795095       0.49450328 </v>
   <v>       0.49825359      -0.24445659      -0.49876283 </v>
   <v>      -0.41246588       0.41752548       0.39694409 </v>
   <v>       0.33602282      -0.32851915       0.39346661 </v>
   <v>      -0.33505730      -0.42935144      -0.39098883 </v>
   <v>      -0.08257135      -0.41447468      -0.39737351 </v>
   <v>       0.49756366      -0.00206398       0.49649336 </v>
   <v>      -0.32923482       0.33566609      -0.39174784 </v>
   <v>       0.32516880      -0.08976935       0.39131679 </v>
   <v>      -0.17538995      -0.33872995       0.39517049 </v>
   <v>      -0.31626048       0.34647272       0.45903018 </v>
   <v>      -0.08121587      -0.41398442       0.46156597 </v>
   <v>      -0.32527058      -0.41220525       0.45856780 </v>
   <v>      -0.42111247      -0.33832225       0.39748986 </v>
   <v>      -0.24459329      -0.49743390      -0.49971312 </v>
   <v>       0.40988275      -0.17330951      -0.39668504 </v>
   <v>      -0.42614237       0.16854003       0.38992923 </v>
   <v>       0.07601387      -0.33687418       0.39030337 </v>
   <v>       0.42051489      -0.16102165       0.45616714 </v>
  </varray>
 </structure>
 <varray name="primitive_index" >
  <v type="int" >        1 </v>
  <v type="int" >       70 </v>
  <v type="int" >       66 </v>
  <v type="int" >       65 </v>
  <v type="int" >       49 </v>
  <v type="int" >       50 </v>
  <v type="int" >       61 </v>
  <v type="int" >       18 </v>
  <v type="int" >       29 </v>
  <v type="int" >        6 </v>
  <v type="int" >       17 </v>
  <v type="int" >        2 </v>
  <v type="int" >        5 </v>
  <v type="int" >       16 </v>
  <v type="int" >       13 </v>
  <v type="int" >        4 </v>
  <v type="int" >       71 </v>
  <v type="int" >       62 </v>
  <v type="int" >       69 </v>
  <v type="int" >       33 </v>
  <v type="int" >       54 </v>
  <v type="int" >       77 </v>
  <v type="int" >       64 </v>
  <v type="int" >       30 </v>
  <v type="int" >       32 </v>
  <v type="int" >       22 </v>
  <v type="int" >       45 </v>
  <v type="int" >       75 </v>
  <v type="int" >       34 </v>
  <v type="int" >       55 </v>
  <v type="int" >       78 </v>
  <v type="int" >       67 </v>
  <v type="int" >       51 </v>
  <v type="int" >       52 </v>
  <v type="int" >       74 </v>
  <v type="int" >       68 </v>
  <v type="int" >       37 </v>
  <v type="int" >       38 </v>
  <v type="int" >       36 </v>
  <v type="int" >       48 </v>
  <v type="int" >       53 </v>
  <v type="int" >       23 </v>
  <v type="int" >       80 </v>
  <v type="int" >       57 </v>
  <v type="int" >        7 </v>
  <v type="int" >       19 </v>
  <v type="int" >       10 </v>
  <v type="int" >       60 </v>
  <v type="int" >       21 </v>
  <v type="int" >       28 </v>
  <v type="int" >       25 </v>
  <v type="int" >       14 </v>
  <v type="int" >        8 </v>
  <v type="int" >       20 </v>
  <v type="int" >       12 </v>
  <v type="int" >       15 </v>
  <v type="int" >       11 </v>
  <v type="int" >        3 </v>
  <v type="int" >        9 </v>
  <v type="int" >       44 </v>
  <v type="int" >       46 </v>
  <v type="int" >       72 </v>
  <v type="int" >       76 </v>
  <v type="int" >       42 </v>
  <v type="int" >       39 </v>
  <v type="int" >       59 </v>
  <v type="int" >       63 </v>
  <v type="int" >       73 </v>
  <v type="int" >       58 </v>
  <v type="int" >       40 </v>
  <v type="int" >       47 </v>
  <v type="int" >       26 </v>
  <v type="int" >       31 </v>
  <v type="int" >       27 </v>
  <v type="int" >       43 </v>
  <v type="int" >       79 </v>
  <v type="int" >       56 </v>
  <v type="int" >       41 </v>
  <v type="int" >       35 </v>
  <v type="int" >       24 </v>
 </varray>
 <kpoints>
  <generation param="Gamma">
   <v type="int" name="divisions">       3        3        1 </v>
   <v name="usershift">      0.00000000       0.00000000       0.00000000 </v>
   <v name="genvec1">      0.33333333      -0.00000000       0.00000000 </v>
   <v name="genvec2">      0.00000000       0.33333333       0.00000000 </v>
   <v name="genvec3">      0.00000000       0.00000000       1.00000000 </v>
   <v name="shift">      0.00000000       0.00000000       0.00000000 </v>
  </generation>
  <varray name="kpointlist" >
   <v>       0.00000000       0.00000000       0.00000000 </v>
   <v>       0.33333333      -0.00000000       0.00000000 </v>
   <v>       0.00000000       0.33333333       0.00000000 </v>
   <v>       0.33333333       0.33333333       0.00000000 </v>
   <v>      -0.33333333       0.33333333       0.00000000 </v>
  </varray>
  <varray name="weights" >
   <v>       0.11111111 </v>
   <v>       0.22222222 </v>
   <v>       0.22222222 </v>
   <v>       0.22222222 </v>
   <v>       0.22222222 </v>
  </varray>
 </kpoints>
 <parameters>
  <separator name="general" >
   <i type="string" name="SYSTEM">unknown system</i>
   <i type="logical" name="LCOMPAT"> F  </i>
  </separator>
  <separator name="electronic" >
   <i type="string" name="PREC">anorma</i>
   <i name="ENMAX">    600.00000000</i>
   <i name="ENAUG">    644.87300000</i>
   <i name="EDIFF">      0.00000100</i>
   <i type="int" name="IALGO">    38</i>
   <i type="int" name="IWAVPR">    10</i>
   <i type="int" name="NBANDS">   384</i>
   <i name="NELECT">    640.00000000</i>
   <i type="int" name="TURBO">     0</i>
   <i type="int" name="IRESTART">     0</i>
   <i type="int" name="NREBOOT">     0</i>
   <i type="int" name="NMIN">     0</i>
   <i name="EREF">      0.00000000</i>
   <separator name="electronic smearing" >
    <i type="int" name="ISMEAR">     0</i>
    <i name="SIGMA">      0.05000000</i>
    <i name="KSPACING">      0.25000000</i>
    <i type="logical" name="KGAMMA"> T  </i>
   </separator>
   <separator name="electronic projectors" >
    <i type="logical" name="LREAL"> T  </i>
    <v name="ROPT">     -0.00025000     -0.00025000     -0.00025000</v>
    <i type="int" name="LMAXPAW">  -100</i>
    <i type="int" name="LMAXMIX">     2</i>
    <i type="logical" name="NLSPLINE"> F  </i>
   </separator>
   <separator name="electronic startup" >
    <i type="int" name="ISTART">     0</i>
    <i type="int" name="ICHARG">     2</i>
    <i type="int" name="INIWAV">     1</i>
   </separator>
   <separator name="electronic spin" >
    <i type="int" name="ISPIN">     1</i>
    <i type="logical" name="LNONCOLLINEAR"> F  </i>
    <v name="MAGMOM">      1.00000000      1.00000000      1.00000000      1.00000000      1.00000000      1.00000000      1.00000000      1.00000000      1.00000000      1.00000000      1.00000000      1.00000000      1.00000000      1.00000000      1.00000000      1.00000000      1.00000000      1.00000000      1.00000000      1.00000000
      1.00000000      1.00000000      1.00000000      1.00000000      1.00000000      1.00000000      1.00000000      1.00000000      1.00000000      1.00000000      1.00000000      1.00000000      1.00000000      1.00000000      1.00000000      1.00000000      1.00000000      1.00000000      1.00000000      1.00000000
      1.00000000      1.00000000      1.00000000      1.00000000      1.00000000      1.00000000      1.00000000      1.00000000      1.00000000      1.00000000      1.00000000      1.00000000      1.00000000      1.00000000      1.00000000      1.00000000      1.00000000      1.00000000      1.00000000      1.00000000
      1.00000000      1.00000000      1.00000000      1.00000000      1.00000000      1.00000000      1.00000000      1.00000000      1.00000000      1.00000000      1.00000000      1.00000000      1.00000000      1.00000000      1.00000000      1.00000000      1.00000000      1.00000000      1.00000000      1.00000000
</v>
    <i name="NUPDOWN">     -1.00000000</i>
    <i type="logical" name="LSORBIT"> F  </i>
    <v name="SAXIS">      0.00000000      0.00000000      1.00000000</v>
    <i type="logical" name="LSPIRAL"> F  </i>
    <v name="QSPIRAL">      0.00000000      0.00000000      0.00000000</v>
    <i type="logical" name="LZEROZ"> F  </i>
   </separator>
   <separator name="electronic exchange-correlation" >
    <i type="logical" name="LASPH"> F  </i>
    <i type="logical" name="LMETAGGA"> F  </i>
   </separator>
   <separator name="electronic convergence" >
    <i type="int" name="NELM">    60</i>
    <i type="int" name="NELMDL">    -5</i>
    <i type="int" name="NELMIN">     2</i>
    <i name="ENINI">    600.00000000</i>
    <separator name="electronic convergence detail" >
     <i type="logical" name="LDIAG"> T  </i>
     <i type="logical" name="LSUBROT"> F  </i>
     <i name="WEIMIN">      0.00000000</i>
     <i name="EBREAK">      0.00000000</i>
     <i name="DEPER">      0.30000000</i>
     <i type="int" name="NRMM">     4</i>
     <i name="TIME">      0.40000000</i>
    </separator>
   </separator>
   <separator name="electronic mixer" >
    <i name="AMIX">      0.40000000</i>
    <i name="BMIX">      1.00000000</i>
    <i name="AMIN">      0.10000000</i>
    <i name="AMIX_MAG">      1.60000000</i>
    <i name="BMIX_MAG">      1.00000000</i>
    <separator name="electronic mixer details" >
     <i type="int" name="IMIX">     4</i>
     <i type="logical" name="MIXFIRST"> F  </i>
     <i type="int" name="MAXMIX">   -45</i>
     <i name="WC">    100.00000000</i>
     <i type="int" name="INIMIX">     1</i>
     <i type="int" name="MIXPRE">     1</i>
     <i type="int" name="MREMOVE">     5</i>
    </separator>
   </separator>
   <separator name="electronic dipolcorrection" >
    <i type="logical" name="LDIPOL"> F  </i>
    <i type="logical" name="LMONO"> F  </i>
    <i type="int" name="IDIPOL">     0</i>
    <i name="EPSILON">      1.00000000</i>
    <v name="DIPOL">   -100.00000000   -100.00000000   -100.00000000</v>
    <i name="EFIELD">      0.00000000</i>
   </separator>
  </separator>
  <separator name="grids" >
   <i type="int" name="NGX">   112</i>
   <i type="int" name="NGY">   112</i>
   <i type="int" name="NGZ">   224</i>
   <i type="int" name="NGXF">   224</i>
   <i type="int" name="NGYF">   224</i>
   <i type="int" name="NGZF">   448</i>
   <i type="logical" name="ADDGRID"> T  </i>
  </separator>
  <separator name="ionic" >
   <i type="int" name="NSW">     1</i>
   <i type="int" name="IBRION">    -1</i>
   <i type="int" name="MDALGO">     0</i>
   <i type="int" name="ISIF">     2</i>
   <i name="PSTRESS">      0.00000000</i>
   <i name="EDIFFG">     -0.01000000</i>
   <i type="int" name="NFREE">     0</i>
   <i name="POTIM">      1.00000000</i>
   <i name="SMASS">     -3.00000000</i>
   <i name="SCALEE">      1.00000000</i>
  </separator>
  <separator name="ionic md" >
   <i name="TEBEG">      0.00010000</i>
   <i name="TEEND">      0.00010000</i>
   <i type="int" name="NBLOCK">     1</i>
   <i type="int" name="KBLOCK">     1</i>
   <i type="int" name="NPACO">   256</i>
   <i name="APACO">     16.00000000</i>
  </separator>
  <separator name="symmetry" >
   <i type="int" name="ISYM">     2</i>
   <i name="SYMPREC">      0.00001000</i>
  </separator>
  <separator name="dos" >
   <i type="int" name="LORBIT">     0</i>
   <v name="RWIGS">     -1.00000000     -1.00000000     -1.00000000</v>
   <i type="int" name="NEDOS">   301</i>
   <i name="EMIN">     10.00000000</i>
   <i name="EMAX">    -10.00000000</i>
   <i name="EFERMI">      0.00000000</i>
  </separator>
  <separator name="writing" >
   <i type="int" name="NWRITE">     2</i>
   <i type="logical" name="LWAVE"> F  </i>
   <i type="logical" name="LDOWNSAMPLE"> F  </i>
   <i type="logical" name="LCHARG"> F  </i>
   <i type="logical" name="LPARD"> F  </i>
   <i type="logical" name="LVTOT"> F  </i>
   <i type="logical" name="LVHAR"> F  </i>
   <i type="logical" name="LELF"> F  </i>
   <i type="logical" name="LOPTICS"> F  </i>
   <v name="STM">      0.00000000      0.00000000      0.00000000      0.00000000      0.00000000      0.00000000      0.00000000</v>
  </separator>
  <separator name="performance" >
   <i type="int" name="NPAR">     4</i>
   <i type="int" name="NSIM">     4</i>
   <i type="int" name="NBLK">    -1</i>
   <i type="logical" name="LPLANE"> T  </i>
   <i type="logical" name="LSCALAPACK"> F  </i>
   <i type="logical" name="LSCAAWARE"> F  </i>
   <i type="logical" name="LSCALU"> F  </i>
   <i type="logical" name="LASYNC"> F  </i>
   <i type="logical" name="LORBITALREAL"> F  </i>
  </separator>
  <separator name="miscellaneous" >
   <i type="int" name="IDIOT">     3</i>
   <i type="int" name="ISPECIAL">     0</i>
   <i type="logical" name="LMUSIC"> F  </i>
   <v name="POMASS">     44.95600000     35.45300000     12.01100000</v>
   <v name="DARWINR">      0.00000000      0.00000000      0.00000000</v>
   <v name="DARWINV">      1.00000000      1.00000000      1.00000000</v>
   <i type="logical" name="LCORR"> T  </i>
  </separator>
  <i type="logical" name="GGA_COMPAT"> T  </i>
  <i type="logical" name="LBERRY"> F  </i>
  <i type="int" name="ICORELEVEL">     0</i>
  <i type="logical" name="LDAU"> F  </i>
  <i type="int" name="I_CONSTRAINED_M">     0</i>
  <separator name="electronic exchange-correlation" >
   <i type="string" name="GGA">--</i>
   <i type="int" name="VOSKOWN">     0</i>
   <i type="logical" name="LHFCALC"> F  </i>
   <i type="string" name="PRECFOCK"></i>
   <i type="logical" name="LSYMGRAD"> F  </i>
   <i type="logical" name="LHFONE"> F  </i>
   <i type="logical" name="LRHFCALC"> F  </i>
   <i type="logical" name="LTHOMAS"> F  </i>
   <i type="logical" name="LMODELHF"> F  </i>
   <i name="ENCUT4O">     -1.00000000</i>
   <i type="int" name="EXXOEP">     0</i>
   <i type="int" name="FOURORBIT">     0</i>
   <i name="AEXX">      0.00000000</i>
   <i name="HFALPHA">      0.00000000</i>
   <i name="MCALPHA">      0.00000000</i>
   <i name="ALDAX">      1.00000000</i>
   <i name="AGGAX">      1.00000000</i>
   <i name="ALDAC">      1.00000000</i>
   <i name="AGGAC">      1.00000000</i>
   <i type="int" name="NKREDX">     1</i>
   <i type="int" name="NKREDY">     1</i>
   <i type="int" name="NKREDZ">     1</i>
   <i type="logical" name="SHIFTRED"> F  </i>
   <i type="logical" name="ODDONLY"> F  </i>
   <i type="logical" name="EVENONLY"> F  </i>
   <i type="int" name="LMAXFOCK">     0</i>
   <i type="int" name="NMAXFOCKAE">     0</i>
   <i type="logical" name="LFOCKAEDFT"> F  </i>
   <i name="HFSCREEN">      0.00000000</i>
   <i name="HFSCREENC">      0.00000000</i>
   <i type="int" name="NBANDSGWLOW">     0</i>
  </separator>
  <separator name="vdW DFT" >
   <i type="logical" name="LUSE_VDW"> F  </i>
   <i name="Zab_VDW">     -0.84910000</i>
   <i name="PARAM1">      0.12340000</i>
   <i name="PARAM2">      1.00000000</i>
   <i name="PARAM3">      0.00000000</i>
  </separator>
  <separator name="model GW" >
   <i type="int" name="MODEL_GW">     0</i>
   <i name="MODEL_EPS0">     34.36971577</i>
   <i name="MODEL_ALPHA">      1.00000000</i>
  </separator>
  <separator name="linear response parameters" >
   <i type="logical" name="LEPSILON"> F  </i>
   <i type="logical" name="LRPA"> F  </i>
   <i type="logical" name="LNABLA"> F  </i>
   <i type="logical" name="LVEL"> F  </i>
   <i type="int" name="KINTER">     0</i>
   <i name="CSHIFT">      0.10000000</i>
   <i name="OMEGAMAX">     -1.00000000</i>
   <i name="DEG_THRESHOLD">      0.00200000</i>
   <i name="RTIME">     -0.10000000</i>
   <i name="WPLASMAI">      0.00000000</i>
   <v name="DFIELD">      0.00000000      0.00000000      0.00000000</v>
   <v name="WPLASMA">      0.00000000      0.00000000      0.00000000      0.00000000      0.00000000      0.00000000      0.00000000      0.00000000      0.00000000</v>
  </separator>
  <separator name="orbital magnetization" >
   <i type="logical" name="NUCIND"> F  </i>
   <v name="MAGPOS">      0.00000000      0.00000000      0.00000000</v>
   <i type="logical" name="LNICSALL"> T  </i>
   <i type="logical" name="ORBITALMAG"> F  </i>
   <i type="logical" name="LMAGBLOCH"> F  </i>
   <i type="logical" name="LCHIMAG"> F  </i>
   <i type="logical" name="LGAUGE"> T  </i>
   <i type="int" name="MAGATOM">     0</i>
   <v name="MAGDIPOL">      0.00000000      0.00000000      0.00000000</v>
   <v name="AVECCONST">      0.00000000      0.00000000      0.00000000</v>
  </separator>
  <separator name="response functions" >
   <i type="logical" name="LADDER"> F  </i>
   <i type="logical" name="LRPAFORCE"> F  </i>
   <i type="logical" name="LFXC"> F  </i>
   <i type="logical" name="LHARTREE"> T  </i>
   <i type="int" name="IBSE">     0</i>
   <v type="int" name="KPOINT">    -1     0     0     0</v>
   <i type="logical" name="LTCTE"> F  </i>
   <i type="logical" name="LTETE"> F  </i>
   <i type="logical" name="LTRIPLET"> F  </i>
   <i type="logical" name="LFXCEPS"> F  </i>
   <i type="logical" name="LFXHEG"> F  </i>
   <i type="int" name="NATURALO">     2</i>
   <i type="logical" name="L2ORDER"> F  </i>
   <i type="logical" name="LMP2LT"> F  </i>
   <i type="logical" name="LUSEW"> F  </i>
   <i name="ENCUTGW">     -2.00000000</i>
   <i name="ENCUTGWSOFT">     -2.00000000</i>
   <i name="ENCUTLF">     -1.00000000</i>
   <i type="int" name="LMAXMP2">    -1</i>
   <i name="SCISSOR">      0.00000000</i>
   <i type="int" name="NOMEGA">     0</i>
   <i type="int" name="NOMEGAR">     0</i>
   <i type="int" name="NBANDSGW">    -1</i>
   <i type="int" name="NBANDSO">    -1</i>
   <i type="int" name="NBANDSV">    -1</i>
   <i type="int" name="NELM">     1</i>
   <i type="int" name="NELMHF">     1</i>
   <i type="int" name="DIM">     3</i>
   <i type="int" name="ANTIRES">     0</i>
   <i name="OMEGAMAX">    -30.00000000</i>
   <i name="OMEGAMIN">    -30.00000000</i>
   <i name="OMEGATL">   -200.00000000</i>
   <i type="int" name="OMEGAGRID">   140</i>
   <i name="CSHIFT">     -0.10000000</i>
   <i type="logical" name="SELFENERGY"> F  </i>
   <i type="logical" name="LSPECTRAL"> F  </i>
   <i type="logical" name="LSPECTRALGW"> F  </i>
   <i type="logical" name="LSINGLES"> F  </i>
   <i type="logical" name="LFERMIGW"> F  </i>
   <i type="logical" name="ODDONLYGW"> F  </i>
   <i type="logical" name="EVENONLYGW"> F  </i>
   <i type="int" name="NKREDLFX">     1</i>
   <i type="int" name="NKREDLFY">     1</i>
   <i type="int" name="NKREDLFZ">     1</i>
   <i type="int" name="MAXMEM">  2800</i>
   <i type="int" name="TELESCOPE">     0</i>
   <i type="int" name="TAUPAR">     1</i>
   <i type="int" name="OMEGAPAR">    -1</i>
   <i name="LAMBDA">      1.00000000</i>
  </separator>
  <separator name="External order field" >
   <i name="OFIELD_KAPPA">      0.00000000</i>
   <v name="OFIELD_K">      0.00000000      0.00000000      0.00000000</v>
   <i name="OFIELD_Q6_NEAR">      0.00000000</i>
   <i name="OFIELD_Q6_FAR">      0.00000000</i>
   <i name="OFIELD_A">      0.00000000</i>
  </separator>
 </parameters>
 <atominfo>
  <atoms>      80 </atoms>
  <types>       3 </types>
  <array name="atoms" >
   <dimension dim="1">ion</dimension>
   <field type="string">element</field>
   <field type="int">atomtype</field>
   <set>
    <rc><c>Sc</c><c>   1</c></rc>
    <rc><c>Sc</c><c>   1</c></rc>
    <rc><c>Sc</c><c>   1</c></rc>
    <rc><c>Sc</c><c>   1</c></rc>
    <rc><c>Sc</c><c>   1</c></rc>
    <rc><c>Sc</c><c>   1</c></rc>
    <rc><c>Sc</c><c>   1</c></rc>
    <rc><c>Sc</c><c>   1</c></rc>
    <rc><c>Sc</c><c>   1</c></rc>
    <rc><c>Sc</c><c>   1</c></rc>
    <rc><c>Sc</c><c>   1</c></rc>
    <rc><c>Sc</c><c>   1</c></rc>
    <rc><c>Sc</c><c>   1</c></rc>
    <rc><c>Sc</c><c>   1</c></rc>
    <rc><c>Sc</c><c>   1</c></rc>
    <rc><c>Sc</c><c>   1</c></rc>
    <rc><c>Sc</c><c>   1</c></rc>
    <rc><c>Sc</c><c>   1</c></rc>
    <rc><c>Sc</c><c>   1</c></rc>
    <rc><c>Sc</c><c>   1</c></rc>
    <rc><c>Sc</c><c>   1</c></rc>
    <rc><c>Sc</c><c>   1</c></rc>
    <rc><c>Sc</c><c>   1</c></rc>
    <rc><c>Sc</c><c>   1</c></rc>
    <rc><c>Sc</c><c>   1</c></rc>
    <rc><c>Sc</c><c>   1</c></rc>
    <rc><c>Sc</c><c>   1</c></rc>
    <rc><c>Sc</c><c>   1</c></rc>
    <rc><c>Sc</c><c>   1</c></rc>
    <rc><c>Sc</c><c>   1</c></rc>
    <rc><c>Sc</c><c>   1</c></rc>
    <rc><c>Sc</c><c>   1</c></rc>
    <rc><c>Cl</c><c>   2</c></rc>
    <rc><c>Cl</c><c>   2</c></rc>
    <rc><c>Cl</c><c>   2</c></rc>
    <rc><c>Cl</c><c>   2</c></rc>
    <rc><c>Cl</c><c>   2</c></rc>
    <rc><c>Cl</c><c>   2</c></rc>
    <rc><c>Cl</c><c>   2</c></rc>
    <rc><c>Cl</c><c>   2</c></rc>
    <rc><c>Cl</c><c>   2</c></rc>
    <rc><c>Cl</c><c>   2</c></rc>
    <rc><c>Cl</c><c>   2</c></rc>
    <rc><c>Cl</c><c>   2</c></rc>
    <rc><c>Cl</c><c>   2</c></rc>
    <rc><c>Cl</c><c>   2</c></rc>
    <rc><c>Cl</c><c>   2</c></rc>
    <rc><c>Cl</c><c>   2</c></rc>
    <rc><c>Cl</c><c>   2</c></rc>
    <rc><c>Cl</c><c>   2</c></rc>
    <rc><c>Cl</c><c>   2</c></rc>
    <rc><c>Cl</c><c>   2</c></rc>
    <rc><c>Cl</c><c>   2</c></rc>
    <rc><c>Cl</c><c>   2</c></rc>
    <rc><c>Cl</c><c>   2</c></rc>
    <rc><c>Cl</c><c>   2</c></rc>
    <rc><c>Cl</c><c>   2</c></rc>
    <rc><c>Cl</c><c>   2</c></rc>
    <rc><c>Cl</c><c>   2</c></rc>
    <rc><c>Cl</c><c>   2</c></rc>
    <rc><c>Cl</c><c>   2</c></rc>
    <rc><c>Cl</c><c>   2</c></rc>
    <rc><c>Cl</c><c>   2</c></rc>
    <rc><c>Cl</c><c>   2</c></rc>
    <rc><c>C </c><c>   3</c></rc>
    <rc><c>C </c><c>   3</c></rc>
    <rc><c>C </c><c>   3</c></rc>
    <rc><c>C </c><c>   3</c></rc>
    <rc><c>C </c><c>   3</c></rc>
    <rc><c>C </c><c>   3</c></rc>
    <rc><c>C </c><c>   3</c></rc>
    <rc><c>C </c><c>   3</c></rc>
    <rc><c>C </c><c>   3</c></rc>
    <rc><c>C </c><c>   3</c></rc>
    <rc><c>C </c><c>   3</c></rc>
    <rc><c>C </c><c>   3</c></rc>
    <rc><c>C </c><c>   3</c></rc>
    <rc><c>C </c><c>   3</c></rc>
    <rc><c>C </c><c>   3</c></rc>
    <rc><c>C </c><c>   3</c></rc>
   </set>
  </array>
  <array name="atomtypes" >
   <dimension dim="1">type</dimension>
   <field type="int">atomspertype</field>
   <field type="string">element</field>
   <field>mass</field>
   <field>valence</field>
   <field type="string">pseudopotential</field>
   <set>
    <rc><c>  32</c><c>Sc</c><c>     44.95600000</c><c>     11.00000000</c><c>  PAW_PBE Sc_sv 07Sep2000               </c></rc>
    <rc><c>  32</c><c>Cl</c><c>     35.45300000</c><c>      7.00000000</c><c>  PAW_PBE Cl 06Sep2000                  </c></rc>
    <rc><c>  16</c><c>C </c><c>     12.01100000</c><c>      4.00000000</c><c>  PAW_PBE C 08Apr2002                   </c></rc>
   </set>
  </array>
 </atominfo>
 <structure name="initialpos" >
  <crystal>
   <varray name="basis" >
    <v>      13.79398668       0.00000000       0.00000000 </v>
    <v>      -6.89699334      11.94594288       0.00000000 </v>
    <v>       0.00000000       0.00000000      27.81022107 </v>
   </varray>
   <i name="volume">   4582.62876984 </i>
   <varray name="rec_basis" >
    <v>       0.07249536       0.04185521       0.00000000 </v>
    <v>       0.00000000       0.08371043       0.00000000 </v>
    <v>       0.00000000       0.00000000       0.03595800 </v>
   </varray>
  </crystal>
  <varray name="positions" >
   <v>       0.08556043       0.17320199       0.54375721 </v>
   <v>       0.08340487       0.41268520       0.54207643 </v>
   <v>       0.09478524       0.67140955       0.54568115 </v>
   <v>       0.09379068       0.91535295       0.54667016 </v>
   <v>       0.32680783       0.17243329       0.54971129 </v>
   <v>       0.31808369       0.41165052       0.54027334 </v>
   <v>       0.33849085       0.65637558       0.54515471 </v>
   <v>       0.34731167       0.93865102       0.54484955 </v>
   <v>       0.59164397       0.17468900       0.54410321 </v>
   <v>       0.56969010       0.40454232       0.54714945 </v>
   <v>       0.57289037       0.65713362       0.54692998 </v>
   <v>       0.58101028       0.91231344       0.54180132 </v>
   <v>       0.81905059       0.15659949       0.54465667 </v>
   <v>       0.83663002       0.41980841       0.54909936 </v>
   <v>       0.83151557       0.66391936       0.54770131 </v>
   <v>       0.83064280       0.91434908       0.54315439 </v>
   <v>       0.17567987       0.09274662       0.45047138 </v>
   <v>       0.15769640       0.31917280       0.45410788 </v>
   <v>       0.15783328       0.58168152       0.45323077 </v>
   <v>       0.16656050       0.83129275       0.45218571 </v>
   <v>       0.41038405       0.08844186       0.44861601 </v>
   <v>       0.42709887       0.34429253       0.45553044 </v>
   <v>       0.40895830       0.58199234       0.45704194 </v>
   <v>       0.42051489       0.83897835       0.45616714 </v>
   <v>       0.67140038       0.09213923       0.45193677 </v>
   <v>       0.68373952       0.34647272       0.45903018 </v>
   <v>       0.67472942       0.58779475       0.45856780 </v>
   <v>       0.66714877       0.83088551       0.45834574 </v>
   <v>       0.91348947       0.07043541       0.45641752 </v>
   <v>       0.92482914       0.32649819       0.44865347 </v>
   <v>       0.91878413       0.58601558       0.46156597 </v>
   <v>       0.93188719       0.84292020       0.45586030 </v>
   <v>       0.08287710       0.16813097       0.39201379 </v>
   <v>       0.10398885       0.42788894       0.39729039 </v>
   <v>       0.07601387       0.66312582       0.39030337 </v>
   <v>       0.07583685       0.90398744       0.39690814 </v>
   <v>       0.32621451       0.17572212       0.38860659 </v>
   <v>       0.35114913       0.41276792       0.39397250 </v>
   <v>       0.33602282       0.67148085       0.39346661 </v>
   <v>       0.32516880       0.91023065       0.39131679 </v>
   <v>       0.57385763       0.16854003       0.38992923 </v>
   <v>       0.58753412       0.41752548       0.39694409 </v>
   <v>       0.57888753       0.66167775       0.39748986 </v>
   <v>       0.60188411       0.92175366       0.39360451 </v>
   <v>       0.84341085       0.16602967       0.39891555 </v>
   <v>       0.83416837       0.40802247       0.39299298 </v>
   <v>       0.82461005       0.66127005       0.39517049 </v>
   <v>       0.81475847       0.89459514       0.40002387 </v>
   <v>       0.15586658       0.08339790       0.60498690 </v>
   <v>       0.16298098       0.33834617       0.60620113 </v>
   <v>       0.17952813       0.58112753       0.60401177 </v>
   <v>       0.14976424       0.84212993       0.60846443 </v>
   <v>       0.42314445       0.08679095       0.60401047 </v>
   <v>       0.40927550       0.32182860       0.60465580 </v>
   <v>       0.41855449       0.56579258       0.60355728 </v>
   <v>       0.40988275       0.82669049       0.60331496 </v>
   <v>       0.65353383       0.08890491       0.60094308 </v>
   <v>       0.67076518       0.33566609       0.60825216 </v>
   <v>       0.66494270       0.57064856       0.60901117 </v>
   <v>       0.64542826       0.83269377       0.60829406 </v>
   <v>       0.90697859       0.09543283       0.60873612 </v>
   <v>       0.94056011       0.33864830       0.60640075 </v>
   <v>       0.91742865       0.58552532       0.60262649 </v>
   <v>       0.91453701       0.84559303       0.61242486 </v>
   <v>       0.00780862       0.00837087       0.49605324 </v>
   <v>       0.00974530       0.24971942       0.49313904 </v>
   <v>       0.01836768       0.51437972       0.50284718 </v>
   <v>       0.99788672       0.75568919       0.50225260 </v>
   <v>       0.24817538       0.00298756       0.49413428 </v>
   <v>       0.24446030       0.25234597       0.50244489 </v>
   <v>       0.25339649       0.49924787       0.49921029 </v>
   <v>       0.23634165       0.75204905       0.49450328 </v>
   <v>       0.49756366       0.99793602       0.49649336 </v>
   <v>       0.49998431       0.25726273       0.49885621 </v>
   <v>       0.49526744       0.48795113       0.50033495 </v>
   <v>       0.49825359       0.75554341       0.50123717 </v>
   <v>       0.73816422       0.99206358       0.50374687 </v>
   <v>       0.76263384       0.26106162       0.49611615 </v>
   <v>       0.75540671       0.50256610       0.50028688 </v>
   <v>       0.73598245       0.73040539       0.50219206 </v>
  </varray>
  <varray name="velocities" >
   <v>       0.00000000       0.00000000       0.00000000 </v>
   <v>       0.00000000       0.00000000       0.00000000 </v>
   <v>       0.00000000       0.00000000       0.00000000 </v>
   <v>       0.00000000       0.00000000       0.00000000 </v>
   <v>       0.00000000       0.00000000       0.00000000 </v>
   <v>       0.00000000       0.00000000       0.00000000 </v>
   <v>       0.00000000       0.00000000       0.00000000 </v>
   <v>       0.00000000       0.00000000       0.00000000 </v>
   <v>       0.00000000       0.00000000       0.00000000 </v>
   <v>       0.00000000       0.00000000       0.00000000 </v>
   <v>       0.00000000       0.00000000       0.00000000 </v>
   <v>       0.00000000       0.00000000       0.00000000 </v>
   <v>       0.00000000       0.00000000       0.00000000 </v>
   <v>       0.00000000       0.00000000       0.00000000 </v>
   <v>       0.00000000       0.00000000       0.00000000 </v>
   <v>       0.00000000       0.00000000       0.00000000 </v>
   <v>       0.00000000       0.00000000       0.00000000 </v>
   <v>       0.00000000       0.00000000       0.00000000 </v>
   <v>       0.00000000       0.00000000       0.00000000 </v>
   <v>       0.00000000       0.00000000       0.00000000 </v>
   <v>       0.00000000       0.00000000       0.00000000 </v>
   <v>       0.00000000       0.00000000       0.00000000 </v>
   <v>       0.00000000       0.00000000       0.00000000 </v>
   <v>       0.00000000       0.00000000       0.00000000 </v>
   <v>       0.00000000       0.00000000       0.00000000 </v>
   <v>       0.00000000       0.00000000       0.00000000 </v>
   <v>       0.00000000       0.00000000       0.00000000 </v>
   <v>       0.00000000       0.00000000       0.00000000 </v>
   <v>       0.00000000       0.00000000       0.00000000 </v>
   <v>       0.00000000       0.00000000       0.00000000 </v>
   <v>       0.00000000       0.00000000       0.00000000 </v>
   <v>       0.00000000       0.00000000       0.00000000 </v>
   <v>       0.00000000       0.00000000       0.00000000 </v>
   <v>       0.00000000       0.00000000       0.00000000 </v>
   <v>       0.00000000       0.00000000       0.00000000 </v>
   <v>       0.00000000       0.00000000       0.00000000 </v>
   <v>       0.00000000       0.00000000       0.00000000 </v>
   <v>       0.00000000       0.00000000       0.00000000 </v>
   <v>       0.00000000       0.00000000       0.00000000 </v>
   <v>       0.00000000       0.00000000       0.00000000 </v>
   <v>       0.00000000       0.00000000       0.00000000 </v>
   <v>       0.00000000       0.00000000       0.00000000 </v>
   <v>       0.00000000       0.00000000       0.00000000 </v>
   <v>       0.00000000       0.00000000       0.00000000 </v>
   <v>       0.00000000       0.00000000       0.00000000 </v>
   <v>       0.00000000       0.00000000       0.00000000 </v>
   <v>       0.00000000       0.00000000       0.00000000 </v>
   <v>       0.00000000       0.00000000       0.00000000 </v>
   <v>       0.00000000       0.00000000       0.00000000 </v>
   <v>       0.00000000       0.00000000       0.00000000 </v>
   <v>       0.00000000       0.00000000       0.00000000 </v>
   <v>       0.00000000       0.00000000       0.00000000 </v>
   <v>       0.00000000       0.00000000       0.00000000 </v>
   <v>       0.00000000       0.00000000       0.00000000 </v>
   <v>       0.00000000       0.00000000       0.00000000 </v>
   <v>       0.00000000       0.00000000       0.00000000 </v>
   <v>       0.00000000       0.00000000       0.00000000 </v>
   <v>       0.00000000       0.00000000       0.00000000 </v>
   <v>       0.00000000       0.00000000       0.00000000 </v>
   <v>       0.00000000       0.00000000       0.00000000 </v>
   <v>       0.00000000       0.00000000       0.00000000 </v>
   <v>       0.00000000       0.00000000       0.00000000 </v>
   <v>       0.00000000       0.00000000       0.00000000 </v>
   <v>       0.00000000       0.00000000       0.00000000 </v>
   <v>       0.00000000       0.00000000       0.00000000 </v>
   <v>       0.00000000       0.00000000       0.00000000 </v>
   <v>       0.00000000       0.00000000       0.00000000 </v>
   <v>       0.00000000       0.00000000       0.00000000 </v>
   <v>       0.00000000       0.00000000       0.00000000 </v>
   <v>       0.00000000       0.00000000       0.00000000 </v>
   <v>       0.00000000       0.00000000       0.00000000 </v>
   <v>       0.00000000       0.00000000       0.00000000 </v>
   <v>       0.00000000       0.00000000       0.00000000 </v>
   <v>       0.00000000       0.00000000       0.00000000 </v>
   <v>       0.00000000       0.00000000       0.00000000 </v>
   <v>       0.00000000       0.00000000       0.00000000 </v>
   <v>       0.00000000       0.00000000       0.00000000 </v>
   <v>       0.00000000       0.00000000       0.00000000 </v>
   <v>       0.00000000       0.00000000       0.00000000 </v>
   <v>       0.00000000       0.00000000       0.00000000 </v>
  </varray>
 </structure>
 <calculation>
  <scstep>
   <time name="dav">   50.50   50.50</time>
   <time name="total">   51.33   51.34</time>
   <energy>
    <i name="alphaZ">    784.57699423 </i>
    <i name="ewald"> 251227.21684524 </i>
    <i name="hartreedc">-298888.21786609 </i>
    <i name="XCdc">   2502.63589316 </i>
    <i name="pawpsdc">  43679.68029659 </i>
    <i name="pawaedc"> -43417.33247688 </i>
    <i name="eentropy">     -0.06949857 </i>
    <i name="bandstr">    120.12986458 </i>
    <i name="atom">  56210.72393729 </i>
    <i name="e_fr_energy">  12219.34398955 </i>
    <i name="e_wo_entrp">  12219.41348813 </i>
    <i name="e_0_energy">  12219.37873884 </i>
   </energy>
  </scstep>
  <scstep>
   <time name="dav">   56.65   56.67</time>
   <time name="total">   56.65   56.67</time>
   <energy>
    <i name="e_fr_energy">   1758.62329451 </i>
    <i name="e_wo_entrp">   1758.66829178 </i>
    <i name="e_0_energy">   1758.64579314 </i>
   </energy>
  </scstep>
  <scstep>
   <time name="dav">   71.02   71.03</time>
   <time name="total">   71.02   71.03</time>
   <energy>
    <i name="e_fr_energy">   -401.73717293 </i>
    <i name="e_wo_entrp">   -401.73716675 </i>
    <i name="e_0_energy">   -401.73716984 </i>
   </energy>
  </scstep>
  <scstep>
   <time name="dav">   64.82   64.83</time>
   <time name="total">   64.82   64.83</time>
   <energy>
    <i name="e_fr_energy">   -641.80586977 </i>
    <i name="e_wo_entrp">   -641.80586977 </i>
    <i name="e_0_energy">   -641.80586977 </i>
   </energy>
  </scstep>
  <scstep>
   <time name="dav">   64.68   64.69</time>
   <time name="total">   68.59   68.59</time>
   <energy>
    <i name="e_fr_energy">   -652.41409935 </i>
    <i name="e_wo_entrp">   -652.41409935 </i>
    <i name="e_0_energy">   -652.41409935 </i>
   </energy>
  </scstep>
  <scstep>
   <time name="dav">   62.78   62.78</time>
   <time name="total">   67.48   67.49</time>
   <energy>
    <i name="e_fr_energy">   -520.95018170 </i>
    <i name="e_wo_entrp">   -520.95018170 </i>
    <i name="e_0_energy">   -520.95018170 </i>
   </energy>
  </scstep>
  <scstep>
   <time name="dav">   63.54   63.54</time>
   <time name="total">   68.25   68.26</time>
   <energy>
    <i name="e_fr_energy">   -526.28351238 </i>
    <i name="e_wo_entrp">   -526.28351238 </i>
    <i name="e_0_energy">   -526.28351238 </i>
   </energy>
  </scstep>
  <scstep>
   <time name="dav">   61.79   61.79</time>
   <time name="total">   66.49   66.50</time>
   <energy>
    <i name="e_fr_energy">   -523.91583296 </i>
    <i name="e_wo_entrp">   -523.91583296 </i>
    <i name="e_0_energy">   -523.91583296 </i>
   </energy>
  </scstep>
  <scstep>
   <time name="dav">   58.75   58.76</time>
   <time name="total">   63.46   63.47</time>
   <energy>
    <i name="e_fr_energy">   -523.40395254 </i>
    <i name="e_wo_entrp">   -523.40395254 </i>
    <i name="e_0_energy">   -523.40395254 </i>
   </energy>
  </scstep>
  <scstep>
   <time name="dav">   61.65   61.66</time>
   <time name="total">   66.37   66.38</time>
   <energy>
    <i name="e_fr_energy">   -523.24754056 </i>
    <i name="e_wo_entrp">   -523.24754056 </i>
    <i name="e_0_energy">   -523.24754056 </i>
   </energy>
  </scstep>
  <scstep>
   <time name="dav">   61.50   61.50</time>
   <time name="total">   66.20   66.22</time>
   <energy>
    <i name="e_fr_energy">   -523.22534598 </i>
    <i name="e_wo_entrp">   -523.22534598 </i>
    <i name="e_0_energy">   -523.22534598 </i>
   </energy>
  </scstep>
  <scstep>
   <time name="dav">   63.35   63.36</time>
   <time name="total">   68.03   68.04</time>
   <energy>
    <i name="e_fr_energy">   -523.21010091 </i>
    <i name="e_wo_entrp">   -523.21010091 </i>
    <i name="e_0_energy">   -523.21010091 </i>
   </energy>
  </scstep>
  <scstep>
   <time name="dav">   59.53   59.53</time>
   <time name="total">   64.23   64.24</time>
   <energy>
    <i name="e_fr_energy">   -523.20734242 </i>
    <i name="e_wo_entrp">   -523.20734242 </i>
    <i name="e_0_energy">   -523.20734242 </i>
   </energy>
  </scstep>
  <scstep>
   <time name="dav">   59.48   59.48</time>
   <time name="total">   64.19   64.21</time>
   <energy>
    <i name="e_fr_energy">   -523.20562523 </i>
    <i name="e_wo_entrp">   -523.20562523 </i>
    <i name="e_0_energy">   -523.20562523 </i>
   </energy>
  </scstep>
  <scstep>
   <time name="dav">   59.76   59.77</time>
   <time name="total">   64.47   64.48</time>
   <energy>
    <i name="e_fr_energy">   -523.20690868 </i>
    <i name="e_wo_entrp">   -523.20690868 </i>
    <i name="e_0_energy">   -523.20690868 </i>
   </energy>
  </scstep>
  <scstep>
   <time name="dav">   62.25   62.25</time>
   <time name="total">   66.97   66.98</time>
   <energy>
    <i name="e_fr_energy">   -523.20838336 </i>
    <i name="e_wo_entrp">   -523.20838336 </i>
    <i name="e_0_energy">   -523.20838336 </i>
   </energy>
  </scstep>
  <scstep>
   <time name="dav">   60.49   60.49</time>
   <time name="total">   65.20   65.21</time>
   <energy>
    <i name="e_fr_energy">   -523.21112855 </i>
    <i name="e_wo_entrp">   -523.21112855 </i>
    <i name="e_0_energy">   -523.21112855 </i>
   </energy>
  </scstep>
  <scstep>
   <time name="dav">   56.16   56.16</time>
   <time name="total">   60.88   60.89</time>
   <energy>
    <i name="e_fr_energy">   -523.21388844 </i>
    <i name="e_wo_entrp">   -523.21388844 </i>
    <i name="e_0_energy">   -523.21388844 </i>
   </energy>
  </scstep>
  <scstep>
   <time name="dav">   57.12   57.12</time>
   <time name="total">   61.83   61.84</time>
   <energy>
    <i name="e_fr_energy">   -523.21498899 </i>
    <i name="e_wo_entrp">   -523.21498899 </i>
    <i name="e_0_energy">   -523.21498899 </i>
   </energy>
  </scstep>
  <scstep>
   <time name="dav">   49.29   49.29</time>
   <time name="total">   54.01   54.02</time>
   <energy>
    <i name="e_fr_energy">   -523.21639309 </i>
    <i name="e_wo_entrp">   -523.21639309 </i>
    <i name="e_0_energy">   -523.21639309 </i>
   </energy>
  </scstep>
  <scstep>
   <time name="dav">   52.92   52.92</time>
   <time name="total">   57.64   57.65</time>
   <energy>
    <i name="e_fr_energy">   -523.21713491 </i>
    <i name="e_wo_entrp">   -523.21713491 </i>
    <i name="e_0_energy">   -523.21713491 </i>
   </energy>
  </scstep>
  <scstep>
   <time name="dav">   47.41   47.41</time>
   <time name="total">   52.13   52.14</time>
   <energy>
    <i name="e_fr_energy">   -523.21740113 </i>
    <i name="e_wo_entrp">   -523.21740113 </i>
    <i name="e_0_energy">   -523.21740113 </i>
   </energy>
  </scstep>
  <scstep>
   <time name="dav">   45.41   45.41</time>
   <time name="total">   50.12   50.13</time>
   <energy>
    <i name="e_fr_energy">   -523.21800861 </i>
    <i name="e_wo_entrp">   -523.21800861 </i>
    <i name="e_0_energy">   -523.21800861 </i>
   </energy>
  </scstep>
  <scstep>
   <time name="dav">   41.64   41.64</time>
   <time name="total">   46.36   46.37</time>
   <energy>
    <i name="e_fr_energy">   -523.21834312 </i>
    <i name="e_wo_entrp">   -523.21834312 </i>
    <i name="e_0_energy">   -523.21834312 </i>
   </energy>
  </scstep>
  <scstep>
   <time name="dav">   39.20   39.20</time>
   <time name="total">   43.92   43.92</time>
   <energy>
    <i name="e_fr_energy">   -523.21841586 </i>
    <i name="e_wo_entrp">   -523.21841586 </i>
    <i name="e_0_energy">   -523.21841586 </i>
   </energy>
  </scstep>
  <scstep>
   <time name="dav">   42.05   42.05</time>
   <time name="total">   46.78   46.79</time>
   <energy>
    <i name="e_fr_energy">   -523.21849865 </i>
    <i name="e_wo_entrp">   -523.21849865 </i>
    <i name="e_0_energy">   -523.21849865 </i>
   </energy>
  </scstep>
  <scstep>
   <time name="dav">   37.43   37.43</time>
   <time name="total">   42.15   42.15</time>
   <energy>
    <i name="e_fr_energy">   -523.21855829 </i>
    <i name="e_wo_entrp">   -523.21855829 </i>
    <i name="e_0_energy">   -523.21855829 </i>
   </energy>
  </scstep>
  <scstep>
   <time name="dav">   35.03   35.03</time>
   <time name="total">   39.75   39.77</time>
   <energy>
    <i name="e_fr_energy">   -523.21857620 </i>
    <i name="e_wo_entrp">   -523.21857620 </i>
    <i name="e_0_energy">   -523.21857620 </i>
   </energy>
  </scstep>
  <scstep>
   <time name="dav">   34.14   34.14</time>
   <time name="total">   38.88   38.88</time>
   <energy>
    <i name="e_fr_energy">   -523.21858731 </i>
    <i name="e_wo_entrp">   -523.21858731 </i>
    <i name="e_0_energy">   -523.21858731 </i>
   </energy>
  </scstep>
  <scstep>
   <time name="dav">   35.17   35.17</time>
   <time name="total">   39.89   39.90</time>
   <energy>
    <i name="e_fr_energy">   -523.21859783 </i>
    <i name="e_wo_entrp">   -523.21859783 </i>
    <i name="e_0_energy">   -523.21859783 </i>
   </energy>
  </scstep>
  <scstep>
   <time name="dav">   35.07   35.07</time>
   <time name="total">   39.79   39.80</time>
   <energy>
    <i name="e_fr_energy">   -523.21860610 </i>
    <i name="e_wo_entrp">   -523.21860610 </i>
    <i name="e_0_energy">   -523.21860610 </i>
   </energy>
  </scstep>
  <scstep>
   <time name="dav">   32.63   32.63</time>
   <time name="total">   37.35   37.36</time>
   <energy>
    <i name="e_fr_energy">   -523.21860791 </i>
    <i name="e_wo_entrp">   -523.21860791 </i>
    <i name="e_0_energy">   -523.21860791 </i>
   </energy>
  </scstep>
  <scstep>
   <time name="dav">   32.59   32.59</time>
   <time name="total">   33.39   33.40</time>
   <energy>
    <i name="alphaZ">    784.57699423 </i>
    <i name="ewald"> 251227.21684524 </i>
    <i name="hartreedc">-299215.54543097 </i>
    <i name="XCdc">   2490.28413423 </i>
    <i name="pawpsdc">  59799.05780333 </i>
    <i name="pawaedc"> -59630.71655700 </i>
    <i name="eentropy">     -0.00000000 </i>
    <i name="bandstr"> -12188.81633443 </i>
    <i name="atom">  56210.72393729 </i>
    <i name="e_fr_energy">   -523.21860807 </i>
    <i name="e_wo_entrp">   -523.21860807 </i>
    <i name="e_0_energy">   -523.21860807 </i>
   </energy>
  </scstep>
  <structure>
   <crystal>
    <varray name="basis" >
     <v>      13.79398668       0.00000000       0.00000000 </v>
     <v>      -6.89699334      11.94594288       0.00000000 </v>
     <v>       0.00000000       0.00000000      27.81022107 </v>
    </varray>
    <i name="volume">   4582.62876984 </i>
    <varray name="rec_basis" >
     <v>       0.07249536       0.04185521       0.00000000 </v>
     <v>       0.00000000       0.08371043       0.00000000 </v>
     <v>       0.00000000       0.00000000       0.03595800 </v>
    </varray>
   </crystal>
   <varray name="positions" >
    <v>       0.08556043       0.17320199       0.54375721 </v>
    <v>       0.08340487       0.41268520       0.54207643 </v>
    <v>       0.09478524       0.67140955       0.54568115 </v>
    <v>       0.09379068       0.91535295       0.54667016 </v>
    <v>       0.32680783       0.17243329       0.54971129 </v>
    <v>       0.31808369       0.41165052       0.54027334 </v>
    <v>       0.33849085       0.65637558       0.54515471 </v>
    <v>       0.34731167       0.93865102       0.54484955 </v>
    <v>       0.59164397       0.17468900       0.54410321 </v>
    <v>       0.56969010       0.40454232       0.54714945 </v>
    <v>       0.57289037       0.65713362       0.54692998 </v>
    <v>       0.58101028       0.91231344       0.54180132 </v>
    <v>       0.81905059       0.15659949       0.54465667 </v>
    <v>       0.83663002       0.41980841       0.54909936 </v>
    <v>       0.83151557       0.66391936       0.54770131 </v>
    <v>       0.83064280       0.91434908       0.54315439 </v>
    <v>       0.17567987       0.09274662       0.45047138 </v>
    <v>       0.15769640       0.31917280       0.45410788 </v>
    <v>       0.15783328       0.58168152       0.45323077 </v>
    <v>       0.16656050       0.83129275       0.45218571 </v>
    <v>       0.41038405       0.08844186       0.44861601 </v>
    <v>       0.42709887       0.34429253       0.45553044 </v>
    <v>       0.40895830       0.58199234       0.45704194 </v>
    <v>       0.42051489       0.83897835       0.45616714 </v>
    <v>       0.67140038       0.09213923       0.45193677 </v>
    <v>       0.68373952       0.34647272       0.45903018 </v>
    <v>       0.67472942       0.58779475       0.45856780 </v>
    <v>       0.66714877       0.83088551       0.45834574 </v>
    <v>       0.91348947       0.07043541       0.45641752 </v>
    <v>       0.92482914       0.32649819       0.44865347 </v>
    <v>       0.91878413       0.58601558       0.46156597 </v>
    <v>       0.93188719       0.84292020       0.45586030 </v>
    <v>       0.08287710       0.16813097       0.39201379 </v>
    <v>       0.10398885       0.42788894       0.39729039 </v>
    <v>       0.07601387       0.66312582       0.39030337 </v>
    <v>       0.07583685       0.90398744       0.39690814 </v>
    <v>       0.32621451       0.17572212       0.38860659 </v>
    <v>       0.35114913       0.41276792       0.39397250 </v>
    <v>       0.33602282       0.67148085       0.39346661 </v>
    <v>       0.32516880       0.91023065       0.39131679 </v>
    <v>       0.57385763       0.16854003       0.38992923 </v>
    <v>       0.58753412       0.41752548       0.39694409 </v>
    <v>       0.57888753       0.66167775       0.39748986 </v>
    <v>       0.60188411       0.92175366       0.39360451 </v>
    <v>       0.84341085       0.16602967       0.39891555 </v>
    <v>       0.83416837       0.40802247       0.39299298 </v>
    <v>       0.82461005       0.66127005       0.39517049 </v>
    <v>       0.81475847       0.89459514       0.40002387 </v>
    <v>       0.15586658       0.08339790       0.60498690 </v>
    <v>       0.16298098       0.33834617       0.60620113 </v>
    <v>       0.17952813       0.58112753       0.60401177 </v>
    <v>       0.14976424       0.84212993       0.60846443 </v>
    <v>       0.42314445       0.08679095       0.60401047 </v>
    <v>       0.40927550       0.32182860       0.60465580 </v>
    <v>       0.41855449       0.56579258       0.60355728 </v>
    <v>       0.40988275       0.82669049       0.60331496 </v>
    <v>       0.65353383       0.08890491       0.60094308 </v>
    <v>       0.67076518       0.33566609       0.60825216 </v>
    <v>       0.66494270       0.57064856       0.60901117 </v>
    <v>       0.64542826       0.83269377       0.60829406 </v>
    <v>       0.90697859       0.09543283       0.60873612 </v>
    <v>       0.94056011       0.33864830       0.60640075 </v>
    <v>       0.91742865       0.58552532       0.60262649 </v>
    <v>       0.91453701       0.84559303       0.61242486 </v>
    <v>       0.00780862       0.00837087       0.49605324 </v>
    <v>       0.00974530       0.24971942       0.49313904 </v>
    <v>       0.01836768       0.51437972       0.50284718 </v>
    <v>       0.99788672       0.75568919       0.50225260 </v>
    <v>       0.24817538       0.00298756       0.49413428 </v>
    <v>       0.24446030       0.25234597       0.50244489 </v>
    <v>       0.25339649       0.49924787       0.49921029 </v>
    <v>       0.23634165       0.75204905       0.49450328 </v>
    <v>       0.49756366       0.99793602       0.49649336 </v>
    <v>       0.49998431       0.25726273       0.49885621 </v>
    <v>       0.49526744       0.48795113       0.50033495 </v>
    <v>       0.49825359       0.75554341       0.50123717 </v>
    <v>       0.73816422       0.99206358       0.50374687 </v>
    <v>       0.76263384       0.26106162       0.49611615 </v>
    <v>       0.75540671       0.50256610       0.50028688 </v>
    <v>       0.73598245       0.73040539       0.50219206 </v>
   </varray>
  </structure>
  <varray name="forces" >
   <v>      -0.24889910      -0.85911303      -0.04674208 </v>
   <v>      -0.19885809       0.66319519      -0.35847502 </v>
   <v>      -0.06392400       0.14532383      -0.17795820 </v>
   <v>      -1.63919397       0.59646808      -1.74095889 </v>
   <v>       0.29781102      -0.74361309      -2.38098191 </v>
   <v>       1.36518489       0.11424197       0.80059963 </v>
   <v>      -1.13796895       0.81611454      -0.22490883 </v>
   <v>      -0.18828866      -1.76495421      -1.41319817 </v>
   <v>      -1.28552108       0.16345456      -1.55935391 </v>
   <v>       0.41286115       1.02971599      -0.52829766 </v>
   <v>       1.38444805       0.40490613      -0.46112973 </v>
   <v>      -0.92634734       0.09606990       1.00567261 </v>
   <v>       0.96173845       0.72791704      -0.15634367 </v>
   <v>       0.74600595      -0.04896962      -0.76258957 </v>
   <v>      -0.38948371       0.75727196      -0.17300766 </v>
   <v>       0.27142601      -0.23931307       1.37138821 </v>
   <v>      -0.35478632      -0.80206682       1.24000046 </v>
   <v>       1.18428359       1.33664121      -0.67949788 </v>
   <v>       0.71868549       1.53927339       0.57337229 </v>
   <v>       0.28180809       0.09859218       0.70644438 </v>
   <v>       0.44819802       0.06542026       0.86359706 </v>
   <v>      -0.00663013      -0.81040439      -0.11427421 </v>
   <v>       0.80290084      -0.09169618      -1.35332293 </v>
   <v>      -0.71619688      -0.63387245      -0.76961348 </v>
   <v>      -0.89507433      -0.81731623       0.17906589 </v>
   <v>      -1.23267898      -0.46946242      -1.26239253 </v>
   <v>      -0.74186215      -1.07861817      -0.81121958 </v>
   <v>      -0.70691061      -1.23163979      -0.08348751 </v>
   <v>       0.39090994       0.90713320      -0.16981912 </v>
   <v>      -0.65308945       1.04743132       1.66459998 </v>
   <v>       0.14146286       0.35721829      -1.10909567 </v>
   <v>      -0.64403542      -1.30250514       0.73641629 </v>
   <v>      -0.12659209      -0.44365503      -0.19802317 </v>
   <v>      -0.38269366      -0.73149463      -1.00971683 </v>
   <v>      -0.05692339      -0.17600358       0.57158786 </v>
   <v>      -0.06742844       0.88884497      -1.16669350 </v>
   <v>       0.60643177      -0.42369210       0.29944132 </v>
   <v>      -1.30472241       0.56346699      -0.07458366 </v>
   <v>       0.16530479      -0.06889163       0.41907547 </v>
   <v>       0.30338984       0.41839510       0.11296250 </v>
   <v>       0.62590664      -0.06362745       0.51806802 </v>
   <v>       0.36532345       0.02561521       0.03827765 </v>
   <v>      -0.01668148       0.14681430       0.29297369 </v>
   <v>      -0.76032784       0.04959444       0.34490087 </v>
   <v>      -0.27141954      -0.71060141      -1.33037382 </v>
   <v>       0.07360750       0.38660441       0.30578109 </v>
   <v>       0.58374185       0.19632892       0.37417424 </v>
   <v>       0.93249180       1.03257015      -0.73464276 </v>
   <v>       0.25156318       0.18943326       0.14148440 </v>
   <v>       0.59804038      -0.32888770      -0.23888400 </v>
   <v>      -0.55573875       0.21731828       0.10486589 </v>
   <v>       1.64844987      -0.60726505       0.67568970 </v>
   <v>      -0.36350214       0.28589599       0.44079323 </v>
   <v>      -0.19429312       0.76519317       1.01814375 </v>
   <v>      -0.71696283       0.20182860       0.59501409 </v>
   <v>      -0.36860315       0.36010258      -0.15511415 </v>
   <v>       1.03132030      -0.42619780       0.85258880 </v>
   <v>       0.10108682      -0.21009258      -0.26884442 </v>
   <v>      -0.31768899       0.35521380      -0.33797431 </v>
   <v>       0.84115561      -0.13650046      -0.39384977 </v>
   <v>       0.40896702      -0.62066022      -0.71989215 </v>
   <v>      -1.45220470      -0.15416315      -0.29970791 </v>
   <v>       0.34977574       0.01688906       0.83749684 </v>
   <v>      -0.24378845      -0.29881700      -1.06863158 </v>
   <v>      -0.83538550      -0.79271341       0.72442021 </v>
   <v>      -1.52059362      -0.42639277       1.23722621 </v>
   <v>      -1.08194556      -1.26106408      -0.21489948 </v>
   <v>       0.24430114      -0.33117689      -0.00909997 </v>
   <v>       0.41678622       0.46157154       1.05234238 </v>
   <v>       0.44931188      -0.89302322      -0.52516514 </v>
   <v>      -0.44761853       0.13168608       0.05699697 </v>
   <v>       1.51264801       0.04760819       0.94127734 </v>
   <v>      -0.03466584       1.09679047       0.41636906 </v>
   <v>       0.71490959      -0.82580048       0.67603427 </v>
   <v>      -0.46730589       1.32609604       0.79682714 </v>
   <v>       0.22520317      -1.19515568      -0.17776540 </v>
   <v>       1.38133850       1.00178191      -0.77581410 </v>
   <v>      -0.08800929      -1.15672820       1.08070307 </v>
   <v>       0.63098716      -0.13712439       0.92905342 </v>
   <v>      -0.16492221       2.28124104       1.04061806 </v>
  </varray>
  <varray name="stress" >
   <v>       4.94237739      -0.00876477       0.98455629 </v>
   <v>      -0.00876479       4.53675027       0.03985469 </v>
   <v>       0.98455626       0.03985469      -1.88073477 </v>
  </varray>
  <energy>
   <i name="e_fr_energy">   -523.21860807 </i>
   <i name="e_wo_entrp">   -523.21860807 </i>
   <i name="e_0_energy">     -0.00000000 </i>
  </energy>
  <time name="totalsc"> 1916.73 1917.08</time>
  <eigenvalues>
   <array>
    <dimension dim="1">band</dimension>
    <dimension dim="2">kpoint</dimension>
    <dimension dim="3">spin</dimension>
    <field>eigene</field>
    <field>occ</field>
    <set>
     <set comment="spin 1">
      <set comment="kpoint 1">
       <r>  -51.9364    1.0000 </r>
       <r>  -51.9205    1.0000 </r>
       <r>  -51.8668    1.0000 </r>
       <r>  -51.8514    1.0000 </r>
       <r>  -51.7972    1.0000 </r>
       <r>  -51.7443    1.0000 </r>
       <r>  -51.7367    1.0000 </r>
       <r>  -51.6776    1.0000 </r>
       <r>  -51.6664    1.0000 </r>
       <r>  -51.5286    1.0000 </r>
       <r>  -51.5010    1.0000 </r>
       <r>  -51.4628    1.0000 </r>
       <r>  -51.4553    1.0000 </r>
       <r>  -51.3886    1.0000 </r>
       <r>  -51.3826    1.0000 </r>
       <r>  -51.3507    1.0000 </r>
       <r>  -51.3377    1.0000 </r>
       <r>  -51.3143    1.0000 </r>
       <r>  -51.3053    1.0000 </r>
       <r>  -51.2993    1.0000 </r>
       <r>  -51.2838    1.0000 </r>
       <r>  -51.2711    1.0000 </r>
       <r>  -51.2547    1.0000 </r>
       <r>  -51.1540    1.0000 </r>
       <r>  -51.1454    1.0000 </r>
       <r>  -51.0997    1.0000 </r>
       <r>  -51.0236    1.0000 </r>
       <r>  -50.9899    1.0000 </r>
       <r>  -50.9742    1.0000 </r>
       <r>  -50.8769    1.0000 </r>
       <r>  -50.8311    1.0000 </r>
       <r>  -50.8059    1.0000 </r>
       <r>  -30.6419    1.0000 </r>
       <r>  -30.6250    1.0000 </r>
       <r>  -30.6012    1.0000 </r>
       <r>  -30.5881    1.0000 </r>
       <r>  -30.5833    1.0000 </r>
       <r>  -30.5581    1.0000 </r>
       <r>  -30.5511    1.0000 </r>
       <r>  -30.5425    1.0000 </r>
       <r>  -30.5219    1.0000 </r>
       <r>  -30.5073    1.0000 </r>
       <r>  -30.4818    1.0000 </r>
       <r>  -30.4766    1.0000 </r>
       <r>  -30.4670    1.0000 </r>
       <r>  -30.4576    1.0000 </r>
       <r>  -30.4432    1.0000 </r>
       <r>  -30.4314    1.0000 </r>
       <r>  -30.4217    1.0000 </r>
       <r>  -30.3997    1.0000 </r>
       <r>  -30.3858    1.0000 </r>
       <r>  -30.3748    1.0000 </r>
       <r>  -30.3676    1.0000 </r>
       <r>  -30.3545    1.0000 </r>
       <r>  -30.3436    1.0000 </r>
       <r>  -30.3141    1.0000 </r>
       <r>  -30.3060    1.0000 </r>
       <r>  -30.2924    1.0000 </r>
       <r>  -30.2823    1.0000 </r>
       <r>  -30.2469    1.0000 </r>
       <r>  -30.2299    1.0000 </r>
       <r>  -30.2075    1.0000 </r>
       <r>  -30.1828    1.0000 </r>
       <r>  -30.1790    1.0000 </r>
       <r>  -30.1661    1.0000 </r>
       <r>  -30.1558    1.0000 </r>
       <r>  -30.1513    1.0000 </r>
       <r>  -30.1367    1.0000 </r>
       <r>  -30.1312    1.0000 </r>
       <r>  -30.1238    1.0000 </r>
       <r>  -30.1084    1.0000 </r>
       <r>  -30.1005    1.0000 </r>
       <r>  -30.0819    1.0000 </r>
       <r>  -30.0744    1.0000 </r>
       <r>  -30.0705    1.0000 </r>
       <r>  -30.0634    1.0000 </r>
       <r>  -30.0496    1.0000 </r>
       <r>  -30.0406    1.0000 </r>
       <r>  -30.0338    1.0000 </r>
       <r>  -30.0241    1.0000 </r>
       <r>  -30.0178    1.0000 </r>
       <r>  -30.0068    1.0000 </r>
       <r>  -30.0029    1.0000 </r>
       <r>  -29.9993    1.0000 </r>
       <r>  -29.9940    1.0000 </r>
       <r>  -29.9899    1.0000 </r>
       <r>  -29.9808    1.0000 </r>
       <r>  -29.9788    1.0000 </r>
       <r>  -29.9764    1.0000 </r>
       <r>  -29.9669    1.0000 </r>
       <r>  -29.9480    1.0000 </r>
       <r>  -29.9432    1.0000 </r>
       <r>  -29.9360    1.0000 </r>
       <r>  -29.9322    1.0000 </r>
       <r>  -29.9198    1.0000 </r>
       <r>  -29.9154    1.0000 </r>
       <r>  -29.9120    1.0000 </r>
       <r>  -29.9077    1.0000 </r>
       <r>  -29.9013    1.0000 </r>
       <r>  -29.8982    1.0000 </r>
       <r>  -29.8663    1.0000 </r>
       <r>  -29.8573    1.0000 </r>
       <r>  -29.8305    1.0000 </r>
       <r>  -29.8182    1.0000 </r>
       <r>  -29.8016    1.0000 </r>
       <r>  -29.7914    1.0000 </r>
       <r>  -29.7833    1.0000 </r>
       <r>  -29.7672    1.0000 </r>
       <r>  -29.7614    1.0000 </r>
       <r>  -29.7554    1.0000 </r>
       <r>  -29.7197    1.0000 </r>
       <r>  -29.6895    1.0000 </r>
       <r>  -29.6760    1.0000 </r>
       <r>  -29.6714    1.0000 </r>
       <r>  -29.6675    1.0000 </r>
       <r>  -29.6636    1.0000 </r>
       <r>  -29.6420    1.0000 </r>
       <r>  -29.6347    1.0000 </r>
       <r>  -29.6076    1.0000 </r>
       <r>  -29.5860    1.0000 </r>
       <r>  -29.5696    1.0000 </r>
       <r>  -29.5567    1.0000 </r>
       <r>  -29.5351    1.0000 </r>
       <r>  -29.5051    1.0000 </r>
       <r>  -29.5027    1.0000 </r>
       <r>  -29.4862    1.0000 </r>
       <r>  -29.4803    1.0000 </r>
       <r>  -29.4267    1.0000 </r>
       <r>  -18.8670    1.0000 </r>
       <r>  -18.7978    1.0000 </r>
       <r>  -18.5794    1.0000 </r>
       <r>  -18.4910    1.0000 </r>
       <r>  -18.4779    1.0000 </r>
       <r>  -18.4563    1.0000 </r>
       <r>  -18.4256    1.0000 </r>
       <r>  -18.3445    1.0000 </r>
       <r>  -18.3377    1.0000 </r>
       <r>  -18.3336    1.0000 </r>
       <r>  -18.2160    1.0000 </r>
       <r>  -18.1940    1.0000 </r>
       <r>  -18.1814    1.0000 </r>
       <r>  -18.0763    1.0000 </r>
       <r>  -18.0383    1.0000 </r>
       <r>  -17.9797    1.0000 </r>
       <r>  -17.8911    1.0000 </r>
       <r>  -17.8773    1.0000 </r>
       <r>  -17.8738    1.0000 </r>
       <r>  -17.8270    1.0000 </r>
       <r>  -17.7802    1.0000 </r>
       <r>  -17.7459    1.0000 </r>
       <r>  -17.7393    1.0000 </r>
       <r>  -17.6823    1.0000 </r>
       <r>  -17.6817    1.0000 </r>
       <r>  -17.5886    1.0000 </r>
       <r>  -17.5774    1.0000 </r>
       <r>  -17.5593    1.0000 </r>
       <r>  -17.5091    1.0000 </r>
       <r>  -17.4736    1.0000 </r>
       <r>  -17.4110    1.0000 </r>
       <r>  -17.4071    1.0000 </r>
       <r>  -11.7667    1.0000 </r>
       <r>  -11.4514    1.0000 </r>
       <r>  -11.4175    1.0000 </r>
       <r>  -11.3541    1.0000 </r>
       <r>  -11.2885    1.0000 </r>
       <r>  -11.2493    1.0000 </r>
       <r>  -11.1992    1.0000 </r>
       <r>  -11.0125    1.0000 </r>
       <r>  -10.9516    1.0000 </r>
       <r>  -10.8487    1.0000 </r>
       <r>  -10.8303    1.0000 </r>
       <r>  -10.8093    1.0000 </r>
       <r>  -10.7878    1.0000 </r>
       <r>  -10.7337    1.0000 </r>
       <r>  -10.6474    1.0000 </r>
       <r>  -10.5458    1.0000 </r>
       <r>   -8.1587    1.0000 </r>
       <r>   -8.0952    1.0000 </r>
       <r>   -8.0385    1.0000 </r>
       <r>   -7.9799    1.0000 </r>
       <r>   -7.9162    1.0000 </r>
       <r>   -7.8151    1.0000 </r>
       <r>   -7.7067    1.0000 </r>
       <r>   -7.6472    1.0000 </r>
       <r>   -7.6259    1.0000 </r>
       <r>   -7.5560    1.0000 </r>
       <r>   -7.5389    1.0000 </r>
       <r>   -7.5140    1.0000 </r>
       <r>   -7.4872    1.0000 </r>
       <r>   -7.4211    1.0000 </r>
       <r>   -7.3870    1.0000 </r>
       <r>   -7.3649    1.0000 </r>
       <r>   -7.3256    1.0000 </r>
       <r>   -7.3110    1.0000 </r>
       <r>   -7.2925    1.0000 </r>
       <r>   -7.2315    1.0000 </r>
       <r>   -7.1944    1.0000 </r>
       <r>   -7.1629    1.0000 </r>
       <r>   -7.1433    1.0000 </r>
       <r>   -7.1194    1.0000 </r>
       <r>   -7.0712    1.0000 </r>
       <r>   -7.0591    1.0000 </r>
       <r>   -7.0216    1.0000 </r>
       <r>   -6.9919    1.0000 </r>
       <r>   -6.9813    1.0000 </r>
       <r>   -6.9607    1.0000 </r>
       <r>   -6.9211    1.0000 </r>
       <r>   -6.9090    1.0000 </r>
       <r>   -6.8724    1.0000 </r>
       <r>   -6.8626    1.0000 </r>
       <r>   -6.8379    1.0000 </r>
       <r>   -6.8046    1.0000 </r>
       <r>   -6.7852    1.0000 </r>
       <r>   -6.7563    1.0000 </r>
       <r>   -6.7514    1.0000 </r>
       <r>   -6.7395    1.0000 </r>
       <r>   -6.6933    1.0000 </r>
       <r>   -6.6832    1.0000 </r>
       <r>   -6.6726    1.0000 </r>
       <r>   -6.6395    1.0000 </r>
       <r>   -6.6275    1.0000 </r>
       <r>   -6.6076    1.0000 </r>
       <r>   -6.5757    1.0000 </r>
       <r>   -6.5549    1.0000 </r>
       <r>   -6.5344    1.0000 </r>
       <r>   -6.5120    1.0000 </r>
       <r>   -6.5058    1.0000 </r>
       <r>   -6.4826    1.0000 </r>
       <r>   -6.4593    1.0000 </r>
       <r>   -6.4497    1.0000 </r>
       <r>   -6.4301    1.0000 </r>
       <r>   -6.3932    1.0000 </r>
       <r>   -6.3879    1.0000 </r>
       <r>   -6.3707    1.0000 </r>
       <r>   -6.3666    1.0000 </r>
       <r>   -6.3538    1.0000 </r>
       <r>   -6.3287    1.0000 </r>
       <r>   -6.3240    1.0000 </r>
       <r>   -6.3130    1.0000 </r>
       <r>   -6.2886    1.0000 </r>
       <r>   -6.2468    1.0000 </r>
       <r>   -6.2389    1.0000 </r>
       <r>   -6.2194    1.0000 </r>
       <r>   -6.1945    1.0000 </r>
       <r>   -6.1790    1.0000 </r>
       <r>   -6.1379    1.0000 </r>
       <r>   -6.1010    1.0000 </r>
       <r>   -6.0417    1.0000 </r>
       <r>   -6.0338    1.0000 </r>
       <r>   -6.0073    1.0000 </r>
       <r>   -5.9565    1.0000 </r>
       <r>   -5.8690    1.0000 </r>
       <r>   -5.8599    1.0000 </r>
       <r>   -5.7646    1.0000 </r>
       <r>   -5.7386    1.0000 </r>
       <r>   -5.6753    1.0000 </r>
       <r>   -5.6132    1.0000 </r>
       <r>   -5.6034    1.0000 </r>
       <r>   -5.5818    1.0000 </r>
       <r>   -5.5438    1.0000 </r>
       <r>   -5.5169    1.0000 </r>
       <r>   -5.4431    1.0000 </r>
       <r>   -5.4319    1.0000 </r>
       <r>   -5.3902    1.0000 </r>
       <r>   -5.3236    1.0000 </r>
       <r>   -5.2873    1.0000 </r>
       <r>   -5.1885    1.0000 </r>
       <r>   -5.1326    1.0000 </r>
       <r>   -5.1227    1.0000 </r>
       <r>   -5.0621    1.0000 </r>
       <r>   -4.9882    1.0000 </r>
       <r>   -4.9310    1.0000 </r>
       <r>   -4.8524    1.0000 </r>
       <r>   -4.8255    1.0000 </r>
       <r>   -4.7759    1.0000 </r>
       <r>   -4.5962    1.0000 </r>
       <r>   -4.5904    1.0000 </r>
       <r>   -4.5467    1.0000 </r>
       <r>   -4.5289    1.0000 </r>
       <r>   -4.4993    1.0000 </r>
       <r>   -4.4731    1.0000 </r>
       <r>   -4.2490    1.0000 </r>
       <r>   -4.1814    1.0000 </r>
       <r>   -4.1600    1.0000 </r>
       <r>   -4.1254    1.0000 </r>
       <r>   -4.0855    1.0000 </r>
       <r>   -4.0708    1.0000 </r>
       <r>   -4.0189    1.0000 </r>
       <r>   -4.0020    1.0000 </r>
       <r>   -3.9795    1.0000 </r>
       <r>   -3.9777    1.0000 </r>
       <r>   -3.9556    1.0000 </r>
       <r>   -3.9106    1.0000 </r>
       <r>   -3.9018    1.0000 </r>
       <r>   -3.8727    1.0000 </r>
       <r>   -3.8413    1.0000 </r>
       <r>   -3.7807    1.0000 </r>
       <r>   -3.7731    1.0000 </r>
       <r>   -3.7615    1.0000 </r>
       <r>   -3.7269    1.0000 </r>
       <r>   -3.7047    1.0000 </r>
       <r>   -3.6757    1.0000 </r>
       <r>   -3.6410    1.0000 </r>
       <r>   -3.6043    1.0000 </r>
       <r>   -3.5945    1.0000 </r>
       <r>   -3.5644    1.0000 </r>
       <r>   -3.5155    1.0000 </r>
       <r>   -3.3810    1.0000 </r>
       <r>   -3.3734    1.0000 </r>
       <r>   -3.3578    1.0000 </r>
       <r>   -3.3258    1.0000 </r>
       <r>   -3.2492    1.0000 </r>
       <r>   -3.2331    1.0000 </r>
       <r>   -3.1937    1.0000 </r>
       <r>   -3.1729    1.0000 </r>
       <r>   -3.0984    1.0000 </r>
       <r>   -3.0826    1.0000 </r>
       <r>   -2.9799    1.0000 </r>
       <r>   -2.8644    1.0000 </r>
       <r>   -2.8431    1.0000 </r>
       <r>   -2.0685    0.0000 </r>
       <r>   -2.0283    0.0000 </r>
       <r>   -1.9697    0.0000 </r>
       <r>   -1.5175    0.0000 </r>
       <r>   -1.4620    0.0000 </r>
       <r>   -1.4319    0.0000 </r>
       <r>   -1.3668    0.0000 </r>
       <r>   -1.3165    0.0000 </r>
       <r>   -1.2586    0.0000 </r>
       <r>   -0.7404    0.0000 </r>
       <r>   -0.6953    0.0000 </r>
       <r>   -0.6617    0.0000 </r>
       <r>   -0.5981    0.0000 </r>
       <r>   -0.5759    0.0000 </r>
       <r>   -0.5148    0.0000 </r>
       <r>   -0.5064    0.0000 </r>
       <r>   -0.4598    0.0000 </r>
       <r>   -0.4573    0.0000 </r>
       <r>   -0.4297    0.0000 </r>
       <r>   -0.4044    0.0000 </r>
       <r>   -0.3710    0.0000 </r>
       <r>   -0.3110    0.0000 </r>
       <r>   -0.2709    0.0000 </r>
       <r>   -0.2258    0.0000 </r>
       <r>    0.0082    0.0000 </r>
       <r>    0.0534    0.0000 </r>
       <r>    0.1092    0.0000 </r>
       <r>    0.1213    0.0000 </r>
       <r>    0.1265    0.0000 </r>
       <r>    0.1876    0.0000 </r>
       <r>    0.2303    0.0000 </r>
       <r>    0.2375    0.0000 </r>
       <r>    0.2561    0.0000 </r>
       <r>    0.2714    0.0000 </r>
       <r>    0.3003    0.0000 </r>
       <r>    0.3323    0.0000 </r>
       <r>    0.4012    0.0000 </r>
       <r>    0.4325    0.0000 </r>
       <r>    0.4860    0.0000 </r>
       <r>    0.5028    0.0000 </r>
       <r>    0.5108    0.0000 </r>
       <r>    0.5392    0.0000 </r>
       <r>    0.5658    0.0000 </r>
       <r>    0.5959    0.0000 </r>
       <r>    0.6479    0.0000 </r>
       <r>    0.6584    0.0000 </r>
       <r>    0.6764    0.0000 </r>
       <r>    0.7219    0.0000 </r>
       <r>    0.7531    0.0000 </r>
       <r>    0.7730    0.0000 </r>
       <r>    0.7887    0.0000 </r>
       <r>    0.8283    0.0000 </r>
       <r>    0.8452    0.0000 </r>
       <r>    0.8495    0.0000 </r>
       <r>    0.8727    0.0000 </r>
       <r>    0.8818    0.0000 </r>
       <r>    0.8922    0.0000 </r>
       <r>    0.9245    0.0000 </r>
       <r>    0.9479    0.0000 </r>
       <r>    0.9565    0.0000 </r>
       <r>    0.9710    0.0000 </r>
       <r>    0.9863    0.0000 </r>
       <r>    1.0157    0.0000 </r>
       <r>    1.0426    0.0000 </r>
      </set>
      <set comment="kpoint 2">
       <r>  -51.9364    1.0000 </r>
       <r>  -51.9205    1.0000 </r>
       <r>  -51.8668    1.0000 </r>
       <r>  -51.8514    1.0000 </r>
       <r>  -51.7972    1.0000 </r>
       <r>  -51.7443    1.0000 </r>
       <r>  -51.7367    1.0000 </r>
       <r>  -51.6776    1.0000 </r>
       <r>  -51.6664    1.0000 </r>
       <r>  -51.5286    1.0000 </r>
       <r>  -51.5010    1.0000 </r>
       <r>  -51.4628    1.0000 </r>
       <r>  -51.4553    1.0000 </r>
       <r>  -51.3886    1.0000 </r>
       <r>  -51.3826    1.0000 </r>
       <r>  -51.3507    1.0000 </r>
       <r>  -51.3377    1.0000 </r>
       <r>  -51.3143    1.0000 </r>
       <r>  -51.3053    1.0000 </r>
       <r>  -51.2993    1.0000 </r>
       <r>  -51.2838    1.0000 </r>
       <r>  -51.2711    1.0000 </r>
       <r>  -51.2547    1.0000 </r>
       <r>  -51.1540    1.0000 </r>
       <r>  -51.1454    1.0000 </r>
       <r>  -51.0997    1.0000 </r>
       <r>  -51.0236    1.0000 </r>
       <r>  -50.9899    1.0000 </r>
       <r>  -50.9742    1.0000 </r>
       <r>  -50.8769    1.0000 </r>
       <r>  -50.8311    1.0000 </r>
       <r>  -50.8059    1.0000 </r>
       <r>  -30.6418    1.0000 </r>
       <r>  -30.6249    1.0000 </r>
       <r>  -30.6011    1.0000 </r>
       <r>  -30.5879    1.0000 </r>
       <r>  -30.5833    1.0000 </r>
       <r>  -30.5580    1.0000 </r>
       <r>  -30.5508    1.0000 </r>
       <r>  -30.5426    1.0000 </r>
       <r>  -30.5219    1.0000 </r>
       <r>  -30.5073    1.0000 </r>
       <r>  -30.4823    1.0000 </r>
       <r>  -30.4767    1.0000 </r>
       <r>  -30.4671    1.0000 </r>
       <r>  -30.4579    1.0000 </r>
       <r>  -30.4434    1.0000 </r>
       <r>  -30.4316    1.0000 </r>
       <r>  -30.4225    1.0000 </r>
       <r>  -30.3997    1.0000 </r>
       <r>  -30.3846    1.0000 </r>
       <r>  -30.3749    1.0000 </r>
       <r>  -30.3673    1.0000 </r>
       <r>  -30.3545    1.0000 </r>
       <r>  -30.3436    1.0000 </r>
       <r>  -30.3143    1.0000 </r>
       <r>  -30.3058    1.0000 </r>
       <r>  -30.2923    1.0000 </r>
       <r>  -30.2823    1.0000 </r>
       <r>  -30.2469    1.0000 </r>
       <r>  -30.2301    1.0000 </r>
       <r>  -30.2072    1.0000 </r>
       <r>  -30.1819    1.0000 </r>
       <r>  -30.1797    1.0000 </r>
       <r>  -30.1663    1.0000 </r>
       <r>  -30.1556    1.0000 </r>
       <r>  -30.1522    1.0000 </r>
       <r>  -30.1376    1.0000 </r>
       <r>  -30.1297    1.0000 </r>
       <r>  -30.1251    1.0000 </r>
       <r>  -30.1073    1.0000 </r>
       <r>  -30.1006    1.0000 </r>
       <r>  -30.0831    1.0000 </r>
       <r>  -30.0736    1.0000 </r>
       <r>  -30.0710    1.0000 </r>
       <r>  -30.0627    1.0000 </r>
       <r>  -30.0488    1.0000 </r>
       <r>  -30.0417    1.0000 </r>
       <r>  -30.0340    1.0000 </r>
       <r>  -30.0236    1.0000 </r>
       <r>  -30.0183    1.0000 </r>
       <r>  -30.0067    1.0000 </r>
       <r>  -30.0007    1.0000 </r>
       <r>  -29.9996    1.0000 </r>
       <r>  -29.9942    1.0000 </r>
       <r>  -29.9906    1.0000 </r>
       <r>  -29.9832    1.0000 </r>
       <r>  -29.9785    1.0000 </r>
       <r>  -29.9748    1.0000 </r>
       <r>  -29.9670    1.0000 </r>
       <r>  -29.9483    1.0000 </r>
       <r>  -29.9428    1.0000 </r>
       <r>  -29.9362    1.0000 </r>
       <r>  -29.9323    1.0000 </r>
       <r>  -29.9186    1.0000 </r>
       <r>  -29.9161    1.0000 </r>
       <r>  -29.9121    1.0000 </r>
       <r>  -29.9077    1.0000 </r>
       <r>  -29.9009    1.0000 </r>
       <r>  -29.8985    1.0000 </r>
       <r>  -29.8660    1.0000 </r>
       <r>  -29.8574    1.0000 </r>
       <r>  -29.8305    1.0000 </r>
       <r>  -29.8179    1.0000 </r>
       <r>  -29.8018    1.0000 </r>
       <r>  -29.7916    1.0000 </r>
       <r>  -29.7830    1.0000 </r>
       <r>  -29.7672    1.0000 </r>
       <r>  -29.7614    1.0000 </r>
       <r>  -29.7554    1.0000 </r>
       <r>  -29.7192    1.0000 </r>
       <r>  -29.6895    1.0000 </r>
       <r>  -29.6764    1.0000 </r>
       <r>  -29.6714    1.0000 </r>
       <r>  -29.6675    1.0000 </r>
       <r>  -29.6636    1.0000 </r>
       <r>  -29.6420    1.0000 </r>
       <r>  -29.6347    1.0000 </r>
       <r>  -29.6077    1.0000 </r>
       <r>  -29.5860    1.0000 </r>
       <r>  -29.5697    1.0000 </r>
       <r>  -29.5567    1.0000 </r>
       <r>  -29.5351    1.0000 </r>
       <r>  -29.5051    1.0000 </r>
       <r>  -29.5027    1.0000 </r>
       <r>  -29.4862    1.0000 </r>
       <r>  -29.4804    1.0000 </r>
       <r>  -29.4267    1.0000 </r>
       <r>  -18.8664    1.0000 </r>
       <r>  -18.7943    1.0000 </r>
       <r>  -18.5872    1.0000 </r>
       <r>  -18.4854    1.0000 </r>
       <r>  -18.4757    1.0000 </r>
       <r>  -18.4582    1.0000 </r>
       <r>  -18.4450    1.0000 </r>
       <r>  -18.3448    1.0000 </r>
       <r>  -18.3375    1.0000 </r>
       <r>  -18.3064    1.0000 </r>
       <r>  -18.2181    1.0000 </r>
       <r>  -18.2043    1.0000 </r>
       <r>  -18.1870    1.0000 </r>
       <r>  -18.0760    1.0000 </r>
       <r>  -18.0238    1.0000 </r>
       <r>  -17.9806    1.0000 </r>
       <r>  -17.8961    1.0000 </r>
       <r>  -17.8793    1.0000 </r>
       <r>  -17.8667    1.0000 </r>
       <r>  -17.8296    1.0000 </r>
       <r>  -17.7783    1.0000 </r>
       <r>  -17.7465    1.0000 </r>
       <r>  -17.7436    1.0000 </r>
       <r>  -17.6868    1.0000 </r>
       <r>  -17.6693    1.0000 </r>
       <r>  -17.6085    1.0000 </r>
       <r>  -17.5723    1.0000 </r>
       <r>  -17.5481    1.0000 </r>
       <r>  -17.5193    1.0000 </r>
[...]
       <r>   -32.4351     0.0000    64.0000 </r>
       <r>   -32.2407     0.0000    64.0000 </r>
       <r>   -32.0464     0.0000    64.0000 </r>
       <r>   -31.8521     0.0000    64.0000 </r>
       <r>   -31.6578     0.0000    64.0000 </r>
       <r>   -31.4635     0.0000    64.0000 </r>
       <r>   -31.2692     0.0000    64.0000 </r>
       <r>   -31.0749     0.0000    64.0000 </r>
       <r>   -30.8806     0.0000    64.0000 </r>
       <r>   -30.6863     1.6276    64.3162 </r>
       <r>   -30.4920   107.4890    85.2021 </r>
       <r>   -30.2977   147.7377   113.9086 </r>
       <r>   -30.1034   145.2874   142.1389 </r>
       <r>   -29.9091   259.1051   192.4848 </r>
       <r>   -29.7148   150.7528   221.7771 </r>
       <r>   -29.5204   128.0193   246.6521 </r>
       <r>   -29.3261    48.0859   255.9955 </r>
       <r>   -29.1318     0.0231   256.0000 </r>
       <r>   -28.9375     0.0000   256.0000 </r>
       <r>   -28.7432     0.0000   256.0000 </r>
       <r>   -28.5489     0.0000   256.0000 </r>
       <r>   -28.3546     0.0000   256.0000 </r>
       <r>   -28.1603     0.0000   256.0000 </r>
       <r>   -27.9660     0.0000   256.0000 </r>
       <r>   -27.7717     0.0000   256.0000 </r>
       <r>   -27.5774     0.0000   256.0000 </r>
       <r>   -27.3831     0.0000   256.0000 </r>
       <r>   -27.1888     0.0000   256.0000 </r>
       <r>   -26.9945     0.0000   256.0000 </r>
       <r>   -26.8002     0.0000   256.0000 </r>
       <r>   -26.6058     0.0000   256.0000 </r>
       <r>   -26.4115     0.0000   256.0000 </r>
       <r>   -26.2172     0.0000   256.0000 </r>
       <r>   -26.0229     0.0000   256.0000 </r>
       <r>   -25.8286     0.0000   256.0000 </r>
       <r>   -25.6343     0.0000   256.0000 </r>
       <r>   -25.4400     0.0000   256.0000 </r>
       <r>   -25.2457     0.0000   256.0000 </r>
       <r>   -25.0514     0.0000   256.0000 </r>
       <r>   -24.8571     0.0000   256.0000 </r>
       <r>   -24.6628     0.0000   256.0000 </r>
       <r>   -24.4685     0.0000   256.0000 </r>
       <r>   -24.2742     0.0000   256.0000 </r>
       <r>   -24.0799     0.0000   256.0000 </r>
       <r>   -23.8856     0.0000   256.0000 </r>
       <r>   -23.6912     0.0000   256.0000 </r>
       <r>   -23.4969     0.0000   256.0000 </r>
       <r>   -23.3026     0.0000   256.0000 </r>
       <r>   -23.1083     0.0000   256.0000 </r>
       <r>   -22.9140     0.0000   256.0000 </r>
       <r>   -22.7197     0.0000   256.0000 </r>
       <r>   -22.5254     0.0000   256.0000 </r>
       <r>   -22.3311     0.0000   256.0000 </r>
       <r>   -22.1368     0.0000   256.0000 </r>
       <r>   -21.9425     0.0000   256.0000 </r>
       <r>   -21.7482     0.0000   256.0000 </r>
       <r>   -21.5539     0.0000   256.0000 </r>
       <r>   -21.3596     0.0000   256.0000 </r>
       <r>   -21.1653     0.0000   256.0000 </r>
       <r>   -20.9709     0.0000   256.0000 </r>
       <r>   -20.7766     0.0000   256.0000 </r>
       <r>   -20.5823     0.0000   256.0000 </r>
       <r>   -20.3880     0.0000   256.0000 </r>
       <r>   -20.1937     0.0000   256.0000 </r>
       <r>   -19.9994     0.0000   256.0000 </r>
       <r>   -19.8051     0.0000   256.0000 </r>
       <r>   -19.6108     0.0000   256.0000 </r>
       <r>   -19.4165     0.0000   256.0000 </r>
       <r>   -19.2222     0.0000   256.0000 </r>
       <r>   -19.0279     0.0000   256.0000 </r>
       <r>   -18.8336     9.8391   257.9118 </r>
       <r>   -18.6393    11.5159   260.1494 </r>
       <r>   -18.4450    37.6828   267.4714 </r>
       <r>   -18.2507    46.4845   276.5037 </r>
       <r>   -18.0563    37.5428   283.7985 </r>
       <r>   -17.8620    45.6210   292.6630 </r>
       <r>   -17.6677    60.7970   304.4763 </r>
       <r>   -17.4734    52.9041   314.7559 </r>
       <r>   -17.2791    26.9861   319.9995 </r>
       <r>   -17.0848     0.0028   320.0000 </r>
       <r>   -16.8905     0.0000   320.0000 </r>
       <r>   -16.6962     0.0000   320.0000 </r>
       <r>   -16.5019     0.0000   320.0000 </r>
       <r>   -16.3076     0.0000   320.0000 </r>
       <r>   -16.1133     0.0000   320.0000 </r>
       <r>   -15.9190     0.0000   320.0000 </r>
       <r>   -15.7247     0.0000   320.0000 </r>
       <r>   -15.5304     0.0000   320.0000 </r>
       <r>   -15.3360     0.0000   320.0000 </r>
       <r>   -15.1417     0.0000   320.0000 </r>
       <r>   -14.9474     0.0000   320.0000 </r>
       <r>   -14.7531     0.0000   320.0000 </r>
       <r>   -14.5588     0.0000   320.0000 </r>
       <r>   -14.3645     0.0000   320.0000 </r>
       <r>   -14.1702     0.0000   320.0000 </r>
       <r>   -13.9759     0.0000   320.0000 </r>
       <r>   -13.7816     0.0000   320.0000 </r>
       <r>   -13.5873     0.0000   320.0000 </r>
       <r>   -13.3930     0.0000   320.0000 </r>
       <r>   -13.1987     0.0000   320.0000 </r>
       <r>   -13.0044     0.0000   320.0000 </r>
       <r>   -12.8101     0.0000   320.0000 </r>
       <r>   -12.6158     0.0000   320.0000 </r>
       <r>   -12.4214     0.0000   320.0000 </r>
       <r>   -12.2271     0.0000   320.0000 </r>
       <r>   -12.0328     0.0000   320.0000 </r>
       <r>   -11.8385     0.0296   320.0058 </r>
       <r>   -11.6442    10.1011   321.9685 </r>
       <r>   -11.4499    16.2484   325.1256 </r>
       <r>   -11.2556    18.3531   328.6918 </r>
       <r>   -11.0613    28.0407   334.1403 </r>
       <r>   -10.8670    33.2887   340.6085 </r>
       <r>   -10.6727    38.8055   348.1487 </r>
       <r>   -10.4784    19.2602   351.8911 </r>
       <r>   -10.2841     0.5605   352.0000 </r>
       <r>   -10.0898     0.0000   352.0000 </r>
       <r>    -9.8955     0.0000   352.0000 </r>
       <r>    -9.7012     0.0000   352.0000 </r>
       <r>    -9.5068     0.0000   352.0000 </r>
       <r>    -9.3125     0.0000   352.0000 </r>
       <r>    -9.1182     0.0000   352.0000 </r>
       <r>    -8.9239     0.0000   352.0000 </r>
       <r>    -8.7296     0.0000   352.0000 </r>
       <r>    -8.5353     0.0000   352.0000 </r>
       <r>    -8.3410     0.0000   352.0000 </r>
       <r>    -8.1467     1.6198   352.3147 </r>
       <r>    -7.9524    29.4738   358.0417 </r>
       <r>    -7.7581    29.6202   363.7971 </r>
       <r>    -7.5638    44.2346   372.3922 </r>
       <r>    -7.3695    61.3461   384.3122 </r>
       <r>    -7.1752    68.4014   397.6030 </r>
       <r>    -6.9809    72.9557   411.7788 </r>
       <r>    -6.7865    79.9198   427.3078 </r>
       <r>    -6.5922    80.2685   442.9045 </r>
       <r>    -6.3979    93.6567   461.1027 </r>
       <r>    -6.2036   102.5100   481.0211 </r>
       <r>    -6.0093    75.7117   495.7324 </r>
       <r>    -5.8150    46.5322   504.7739 </r>
       <r>    -5.6207    52.7141   515.0166 </r>
       <r>    -5.4264    57.2944   526.1493 </r>
       <r>    -5.2321    36.1863   533.1805 </r>
       <r>    -5.0378    42.0860   541.3581 </r>
       <r>    -4.8435    15.8109   544.4303 </r>
       <r>    -4.6492    34.4123   551.1169 </r>
       <r>    -4.4549    45.3567   559.9300 </r>
       <r>    -4.2606    30.6337   565.8823 </r>
       <r>    -4.0663    36.0464   572.8864 </r>
       <r>    -3.8719    56.2361   583.8134 </r>
       <r>    -3.6776    82.2565   599.7964 </r>
       <r>    -3.4833    74.8409   614.3385 </r>
       <r>    -3.2890    59.6994   625.9386 </r>
       <r>    -3.0947    39.2786   633.5706 </r>
       <r>    -2.9004    26.1851   638.6586 </r>
       <r>    -2.7061     6.9035   640.0000 </r>
       <r>    -2.5118     0.0001   640.0000 </r>
       <r>    -2.3175     0.0000   640.0000 </r>
       <r>    -2.1232     0.0745   640.0145 </r>
       <r>    -1.9289     8.7540   641.7154 </r>
       <r>    -1.7346    16.8954   644.9983 </r>
       <r>    -1.5403    16.8609   648.2745 </r>
       <r>    -1.3460    17.3998   651.6554 </r>
       <r>    -1.1517    22.9297   656.1108 </r>
       <r>    -0.9573    27.4443   661.4434 </r>
       <r>    -0.7630    20.3844   665.4043 </r>
       <r>    -0.5687    26.6970   670.5917 </r>
       <r>    -0.3744    37.3213   677.8435 </r>
       <r>    -0.1801    30.6406   683.7971 </r>
       <r>     0.0142    32.2270   690.0591 </r>
       <r>     0.2085    40.8224   697.9911 </r>
       <r>     0.4028    49.4384   707.5973 </r>
       <r>     0.5971    82.4949   723.6267 </r>
       <r>     0.7914    98.3641   742.7395 </r>
       <r>     0.9857   101.8691   762.5333 </r>
       <r>     1.1800    28.1328   767.9997 </r>
       <r>     1.3743     0.0014   768.0000 </r>
       <r>     1.5686     0.0000   768.0000 </r>
       <r>     1.7630     0.0000   768.0000 </r>
       <r>     1.9573     0.0000   768.0000 </r>
       <r>     2.1516     0.0000   768.0000 </r>
       <r>     2.3459     0.0000   768.0000 </r>
       <r>     2.5402     0.0000   768.0000 </r>
       <r>     2.7345     0.0000   768.0000 </r>
       <r>     2.9288     0.0000   768.0000 </r>
       <r>     3.1231     0.0000   768.0000 </r>
       <r>     3.3174     0.0000   768.0000 </r>
       <r>     3.5117     0.0000   768.0000 </r>
       <r>     3.7060     0.0000   768.0000 </r>
      </set>
     </set>
    </array>
   </total>
  </dos>
 </calculation>
 <structure name="finalpos" >
  <crystal>
   <varray name="basis" >
    <v>      13.79398668       0.00000000       0.00000000 </v>
    <v>      -6.89699334      11.94594288       0.00000000 </v>
    <v>       0.00000000       0.00000000      27.81022107 </v>
   </varray>
   <i name="volume">   4582.62876984 </i>
   <varray name="rec_basis" >
    <v>       0.07249536       0.04185521       0.00000000 </v>
    <v>       0.00000000       0.08371043       0.00000000 </v>
    <v>       0.00000000       0.00000000       0.03595800 </v>
   </varray>
  </crystal>
  <varray name="positions" >
   <v>       0.08556043       0.17320199       0.54375721 </v>
   <v>       0.08340487       0.41268520       0.54207643 </v>
   <v>       0.09478524       0.67140955       0.54568115 </v>
   <v>       0.09379068       0.91535295       0.54667016 </v>
   <v>       0.32680783       0.17243329       0.54971129 </v>
   <v>       0.31808369       0.41165052       0.54027334 </v>
   <v>       0.33849085       0.65637558       0.54515471 </v>
   <v>       0.34731167       0.93865102       0.54484955 </v>
   <v>       0.59164397       0.17468900       0.54410321 </v>
   <v>       0.56969010       0.40454232       0.54714945 </v>
   <v>       0.57289037       0.65713362       0.54692998 </v>
   <v>       0.58101028       0.91231344       0.54180132 </v>
   <v>       0.81905059       0.15659949       0.54465667 </v>
   <v>       0.83663002       0.41980841       0.54909936 </v>
   <v>       0.83151557       0.66391936       0.54770131 </v>
   <v>       0.83064280       0.91434908       0.54315439 </v>
   <v>       0.17567987       0.09274662       0.45047138 </v>
   <v>       0.15769640       0.31917280       0.45410788 </v>
   <v>       0.15783328       0.58168152       0.45323077 </v>
   <v>       0.16656050       0.83129275       0.45218571 </v>
   <v>       0.41038405       0.08844186       0.44861601 </v>
   <v>       0.42709887       0.34429253       0.45553044 </v>
   <v>       0.40895830       0.58199234       0.45704194 </v>
   <v>       0.42051489       0.83897835       0.45616714 </v>
   <v>       0.67140038       0.09213923       0.45193677 </v>
   <v>       0.68373952       0.34647272       0.45903018 </v>
   <v>       0.67472942       0.58779475       0.45856780 </v>
   <v>       0.66714877       0.83088551       0.45834574 </v>
   <v>       0.91348947       0.07043541       0.45641752 </v>
   <v>       0.92482914       0.32649819       0.44865347 </v>
   <v>       0.91878413       0.58601558       0.46156597 </v>
   <v>       0.93188719       0.84292020       0.45586030 </v>
   <v>       0.08287710       0.16813097       0.39201379 </v>
   <v>       0.10398885       0.42788894       0.39729039 </v>
   <v>       0.07601387       0.66312582       0.39030337 </v>
   <v>       0.07583685       0.90398744       0.39690814 </v>
   <v>       0.32621451       0.17572212       0.38860659 </v>
   <v>       0.35114913       0.41276792       0.39397250 </v>
   <v>       0.33602282       0.67148085       0.39346661 </v>
   <v>       0.32516880       0.91023065       0.39131679 </v>
   <v>       0.57385763       0.16854003       0.38992923 </v>
   <v>       0.58753412       0.41752548       0.39694409 </v>
   <v>       0.57888753       0.66167775       0.39748986 </v>
   <v>       0.60188411       0.92175366       0.39360451 </v>
   <v>       0.84341085       0.16602967       0.39891555 </v>
   <v>       0.83416837       0.40802247       0.39299298 </v>
   <v>       0.82461005       0.66127005       0.39517049 </v>
   <v>       0.81475847       0.89459514       0.40002387 </v>
   <v>       0.15586658       0.08339790       0.60498690 </v>
   <v>       0.16298098       0.33834617       0.60620113 </v>
   <v>       0.17952813       0.58112753       0.60401177 </v>
   <v>       0.14976424       0.84212993       0.60846443 </v>
   <v>       0.42314445       0.08679095       0.60401047 </v>
   <v>       0.40927550       0.32182860       0.60465580 </v>
   <v>       0.41855449       0.56579258       0.60355728 </v>
   <v>       0.40988275       0.82669049       0.60331496 </v>
   <v>       0.65353383       0.08890491       0.60094308 </v>
   <v>       0.67076518       0.33566609       0.60825216 </v>
   <v>       0.66494270       0.57064856       0.60901117 </v>
   <v>       0.64542826       0.83269377       0.60829406 </v>
   <v>       0.90697859       0.09543283       0.60873612 </v>
   <v>       0.94056011       0.33864830       0.60640075 </v>
   <v>       0.91742865       0.58552532       0.60262649 </v>
   <v>       0.91453701       0.84559303       0.61242486 </v>
   <v>       0.00780862       0.00837087       0.49605324 </v>
   <v>       0.00974530       0.24971942       0.49313904 </v>
   <v>       0.01836768       0.51437972       0.50284718 </v>
   <v>       0.99788672       0.75568919       0.50225260 </v>
   <v>       0.24817538       0.00298756       0.49413428 </v>
   <v>       0.24446030       0.25234597       0.50244489 </v>
   <v>       0.25339649       0.49924787       0.49921029 </v>
   <v>       0.23634165       0.75204905       0.49450328 </v>
   <v>       0.49756366       0.99793602       0.49649336 </v>
   <v>       0.49998431       0.25726273       0.49885621 </v>
   <v>       0.49526744       0.48795113       0.50033495 </v>
   <v>       0.49825359       0.75554341       0.50123717 </v>
   <v>       0.73816422       0.99206358       0.50374687 </v>
   <v>       0.76263384       0.26106162       0.49611615 </v>
   <v>       0.75540671       0.50256610       0.50028688 </v>
   <v>       0.73598245       0.73040539       0.50219206 </v>
  </varray>
  <varray name="velocities" >
   <v>       0.00000000       0.00000000       0.00000000 </v>
   <v>       0.00000000       0.00000000       0.00000000 </v>
   <v>       0.00000000       0.00000000       0.00000000 </v>
   <v>       0.00000000       0.00000000       0.00000000 </v>
   <v>       0.00000000       0.00000000       0.00000000 </v>
   <v>       0.00000000       0.00000000       0.00000000 </v>
   <v>       0.00000000       0.00000000       0.00000000 </v>
   <v>       0.00000000       0.00000000       0.00000000 </v>
   <v>       0.00000000       0.00000000       0.00000000 </v>
   <v>       0.00000000       0.00000000       0.00000000 </v>
   <v>       0.00000000       0.00000000       0.00000000 </v>
   <v>       0.00000000       0.00000000       0.00000000 </v>
   <v>       0.00000000       0.00000000       0.00000000 </v>
   <v>       0.00000000       0.00000000       0.00000000 </v>
   <v>       0.00000000       0.00000000       0.00000000 </v>
   <v>       0.00000000       0.00000000       0.00000000 </v>
   <v>       0.00000000       0.00000000       0.00000000 </v>
   <v>       0.00000000       0.00000000       0.00000000 </v>
   <v>       0.00000000       0.00000000       0.00000000 </v>
   <v>       0.00000000       0.00000000       0.00000000 </v>
   <v>       0.00000000       0.00000000       0.00000000 </v>
   <v>       0.00000000       0.00000000       0.00000000 </v>
   <v>       0.00000000       0.00000000       0.00000000 </v>
   <v>       0.00000000       0.00000000       0.00000000 </v>
   <v>       0.00000000       0.00000000       0.00000000 </v>
   <v>       0.00000000       0.00000000       0.00000000 </v>
   <v>       0.00000000       0.00000000       0.00000000 </v>
   <v>       0.00000000       0.00000000       0.00000000 </v>
   <v>       0.00000000       0.00000000       0.00000000 </v>
   <v>       0.00000000       0.00000000       0.00000000 </v>
   <v>       0.00000000       0.00000000       0.00000000 </v>
   <v>       0.00000000       0.00000000       0.00000000 </v>
   <v>       0.00000000       0.00000000       0.00000000 </v>
   <v>       0.00000000       0.00000000       0.00000000 </v>
   <v>       0.00000000       0.00000000       0.00000000 </v>
   <v>       0.00000000       0.00000000       0.00000000 </v>
   <v>       0.00000000       0.00000000       0.00000000 </v>
   <v>       0.00000000       0.00000000       0.00000000 </v>
   <v>       0.00000000       0.00000000       0.00000000 </v>
   <v>       0.00000000       0.00000000       0.00000000 </v>
   <v>       0.00000000       0.00000000       0.00000000 </v>
   <v>       0.00000000       0.00000000       0.00000000 </v>
   <v>       0.00000000       0.00000000       0.00000000 </v>
   <v>       0.00000000       0.00000000       0.00000000 </v>
   <v>       0.00000000       0.00000000       0.00000000 </v>
   <v>       0.00000000       0.00000000       0.00000000 </v>
   <v>       0.00000000       0.00000000       0.00000000 </v>
   <v>       0.00000000       0.00000000       0.00000000 </v>
   <v>       0.00000000       0.00000000       0.00000000 </v>
   <v>       0.00000000       0.00000000       0.00000000 </v>
   <v>       0.00000000       0.00000000       0.00000000 </v>
   <v>       0.00000000       0.00000000       0.00000000 </v>
   <v>       0.00000000       0.00000000       0.00000000 </v>
   <v>       0.00000000       0.00000000       0.00000000 </v>
   <v>       0.00000000       0.00000000       0.00000000 </v>
   <v>       0.00000000       0.00000000       0.00000000 </v>
   <v>       0.00000000       0.00000000       0.00000000 </v>
   <v>       0.00000000       0.00000000       0.00000000 </v>
   <v>       0.00000000       0.00000000       0.00000000 </v>
   <v>       0.00000000       0.00000000       0.00000000 </v>
   <v>       0.00000000       0.00000000       0.00000000 </v>
   <v>       0.00000000       0.00000000       0.00000000 </v>
   <v>       0.00000000       0.00000000       0.00000000 </v>
   <v>       0.00000000       0.00000000       0.00000000 </v>
   <v>       0.00000000       0.00000000       0.00000000 </v>
   <v>       0.00000000       0.00000000       0.00000000 </v>
   <v>       0.00000000       0.00000000       0.00000000 </v>
   <v>       0.00000000       0.00000000       0.00000000 </v>
   <v>       0.00000000       0.00000000       0.00000000 </v>
   <v>       0.00000000       0.00000000       0.00000000 </v>
   <v>       0.00000000       0.00000000       0.00000000 </v>
   <v>       0.00000000       0.00000000       0.00000000 </v>
   <v>       0.00000000       0.00000000       0.00000000 </v>
   <v>       0.00000000       0.00000000       0.00000000 </v>
   <v>       0.00000000       0.00000000       0.00000000 </v>
   <v>       0.00000000       0.00000000       0.00000000 </v>
   <v>       0.00000000       0.00000000       0.00000000 </v>
   <v>       0.00000000       0.00000000       0.00000000 </v>
   <v>       0.00000000       0.00000000       0.00000000 </v>
   <v>       0.00000000       0.00000000       0.00000000 </v>
  </varray>
 </structure>
</modeling>
