 running on   52 total cores
 distrk:  each k-point on   52 cores,    1 groups
 distr:  one band on   13 cores,    4 groups
 using from now: INCAR     
 vasp.5.4.4.18Apr17-6-g9f103f2a35 (build Oct 31 2019 15:01:46) complex          
  
 POSCAR found type information on POSCAR  Sc Cl C 
 POSCAR found :  3 types and      80 ions
 scaLAPACK is switched off
 LDA part: xc-table for Pade appr. of Perdew
 generate k-points for:    3    3    1
 POSCAR, INCAR and KPOINTS ok, starting setup
 FFT: planning ...
 WAVECAR not read
 entering main loop
       N       E                     dE             d eps       ncg     rms          rms(c)
DAV:   1     0.122264455485E+05    0.12226E+05   -0.26783E+05  4416   0.152E+03
DAV:   2     0.174608841339E+04   -0.10480E+05   -0.10212E+05  5192   0.522E+02
DAV:   3    -0.401630552967E+03   -0.21477E+04   -0.20589E+04  6800   0.283E+02
DAV:   4    -0.641126644580E+03   -0.23950E+03   -0.23465E+03  6096   0.100E+02
DAV:   5    -0.651776115478E+03   -0.10649E+02   -0.10591E+02  6080   0.283E+01    0.703E+01
DAV:   6    -0.521376282480E+03    0.13040E+03   -0.70140E+02  5840   0.500E+01    0.304E+01
DAV:   7    -0.525981238928E+03   -0.46050E+01   -0.85477E+01  5944   0.229E+01    0.154E+01
DAV:   8    -0.523816585009E+03    0.21647E+01   -0.92495E+00  5712   0.753E+00    0.927E+00
DAV:   9    -0.523340718460E+03    0.47587E+00   -0.34983E+00  5400   0.382E+00    0.284E+00
DAV:  10    -0.523214638045E+03    0.12608E+00   -0.53074E-01  5688   0.205E+00    0.167E+00
DAV:  11    -0.523193850340E+03    0.20788E-01   -0.22199E-01  5752   0.936E-01    0.689E-01
DAV:  12    -0.523181734573E+03    0.12116E-01   -0.33601E-02  6040   0.536E-01    0.299E-01
DAV:  13    -0.523179551778E+03    0.21828E-02   -0.94631E-03  5512   0.270E-01    0.192E-01
DAV:  14    -0.523177978545E+03    0.15732E-02   -0.54135E-03  5440   0.153E-01    0.157E-01
DAV:  15    -0.523179303824E+03   -0.13253E-02   -0.26619E-03  5472   0.101E-01    0.104E-01
DAV:  16    -0.523181126474E+03   -0.18227E-02   -0.12930E-03  5880   0.653E-02    0.533E-02
DAV:  17    -0.523183943942E+03   -0.28175E-02   -0.67913E-04  5456   0.566E-02    0.361E-02
DAV:  18    -0.523186502987E+03   -0.25590E-02   -0.22680E-04  4784   0.309E-02    0.272E-02
DAV:  19    -0.523187548536E+03   -0.10455E-02   -0.12278E-04  4760   0.178E-02    0.147E-02
DAV:  20    -0.523188853921E+03   -0.13054E-02   -0.69808E-05  4192   0.139E-02    0.869E-03
DAV:  21    -0.523189276126E+03   -0.42221E-03   -0.18549E-05  4368   0.822E-03    0.724E-03
DAV:  22    -0.523189593051E+03   -0.31693E-03   -0.36693E-06  3616   0.436E-03    0.509E-03
DAV:  23    -0.523190210905E+03   -0.61785E-03   -0.14028E-05  3536   0.513E-03    0.406E-03
DAV:  24    -0.523190395794E+03   -0.18489E-03   -0.51067E-06  3800   0.360E-03    0.391E-03
DAV:  25    -0.523190458389E+03   -0.62595E-04   -0.89492E-07  2736   0.227E-03    0.219E-03
DAV:  26    -0.523190553399E+03   -0.95010E-04   -0.37141E-06  3528   0.279E-03    0.250E-03
DAV:  27    -0.523190576096E+03   -0.22697E-04   -0.34468E-07  2704   0.200E-03    0.217E-03
DAV:  28    -0.523190582934E+03   -0.68376E-05   -0.21143E-07  2448   0.144E-03    0.158E-03
DAV:  29    -0.523190595130E+03   -0.12196E-04   -0.28551E-07  2632   0.128E-03    0.772E-04
DAV:  30    -0.523190608877E+03   -0.13748E-04   -0.41864E-07  2712   0.162E-03    0.633E-04
DAV:  31    -0.523190616095E+03   -0.72179E-05   -0.36962E-07  2632   0.153E-03    0.617E-04
DAV:  32    -0.523190618687E+03   -0.25922E-05   -0.22224E-07  2416   0.132E-03    0.461E-04
DAV:  33    -0.523190619093E+03   -0.40556E-06   -0.12960E-07  2400   0.916E-04
   1 F= -.52319062E+03 E0= -.52319062E+03  d E =-.370043E-18
