<?xml version="1.0" encoding="ISO-8859-1"?>
<modeling>
 <generator>
  <i name="program" type="string">vasp </i>
  <i name="version" type="string">5.4.4.18Apr17-6-g9f103f2a35  </i>
  <i name="subversion" type="string">(build Oct 31 2019 15:01:46) complex            parallel </i>
  <i name="platform" type="string">LinuxIFC </i>
  <i name="date" type="string">2024 05 01 </i>
  <i name="time" type="string">20:41:19 </i>
 </generator>
 <incar>
  <i type="int" name="ISTART">     0</i>
  <i type="string" name="PREC">anormal</i>
  <i type="logical" name="ADDGRID"> T  </i>
  <i type="int" name="IBRION">    -1</i>
  <i name="EDIFF">      0.00000100</i>
  <i name="EDIFFG">     -0.01000000</i>
  <i type="int" name="NSW">     1</i>
  <i type="int" name="ISIF">     2</i>
  <i type="int" name="ISYM">     2</i>
  <i name="ENCUT">    600.00000000</i>
  <i name="POTIM">      1.00000000</i>
  <i type="string" name="LREAL"> Auto.</i>
  <i type="int" name="ISMEAR">     0</i>
  <i name="SIGMA">      0.05000000</i>
  <i name="KSPACING">      0.25000000</i>
  <i type="logical" name="LWAVE"> F  </i>
  <i type="logical" name="LCHARG"> F  </i>
  <i type="logical" name="LSCALAPACK"> F  </i>
  <v type="int" name="KPOINT_BSE">    -1     0     0     0</v>
 </incar>
 <structure name="primitive_cell" >
  <crystal>
   <varray name="basis" >
    <v>      13.79398668       0.00000000       0.00000000 </v>
    <v>      -6.89699334      11.94594288       0.00000000 </v>
    <v>       0.00000000       0.00000000      27.81022107 </v>
   </varray>
   <i name="volume">   4582.62876984 </i>
   <varray name="rec_basis" >
    <v>       0.07249536       0.04185521       0.00000000 </v>
    <v>       0.00000000       0.08371043       0.00000000 </v>
    <v>       0.00000000       0.00000000       0.03595800 </v>
   </varray>
  </crystal>
  <varray name="positions" >
   <v>       0.07840787       0.16511764      -0.45425531 </v>
   <v>       0.00550494       0.00230124       0.49944079 </v>
   <v>       0.24303082       0.24411812       0.49863840 </v>
   <v>       0.14934254       0.08929568      -0.39271395 </v>
   <v>      -0.00216098       0.24936337       0.49232663 </v>
   <v>      -0.09231968       0.09087309      -0.39734424 </v>
   <v>       0.15735767       0.33871340      -0.39582026 </v>
   <v>      -0.07319577       0.08640757       0.45311346 </v>
   <v>       0.15863658       0.32854716       0.45526974 </v>
   <v>       0.17515092       0.08524892       0.45922488 </v>
   <v>      -0.16072806       0.16744565      -0.46059054 </v>
   <v>       0.08815575       0.41611732      -0.45615902 </v>
   <v>       0.33065917       0.41201490      -0.45751500 </v>
   <v>      -0.17100431      -0.09089594      -0.46032635 </v>
   <v>       0.08385459      -0.08904919      -0.45243445 </v>
   <v>       0.33997093       0.16894901      -0.45312521 </v>
   <v>      -0.24732870      -0.00760520       0.49718352 </v>
   <v>       0.09003715       0.17492291       0.39565906 </v>
   <v>      -0.08991660       0.32925753      -0.39897933 </v>
   <v>       0.25265430      -0.49330622      -0.49814862 </v>
   <v>       0.25837428       0.00059735      -0.49530645 </v>
   <v>      -0.07813906      -0.16275679      -0.39166074 </v>
   <v>       0.41850741       0.34392305      -0.39527498 </v>
   <v>      -0.08012341      -0.15644364       0.45642971 </v>
   <v>      -0.07337389       0.34286533       0.45442562 </v>
   <v>       0.41220488       0.32721059       0.45117145 </v>
   <v>      -0.15899287      -0.06965965       0.39632651 </v>
   <v>      -0.25022826      -0.24300549      -0.49621419 </v>
   <v>       0.49251928       0.49818883      -0.49790918 </v>
   <v>       0.32681191       0.41873300       0.39725496 </v>
   <v>       0.08769954      -0.08487711       0.39858605 </v>
   <v>      -0.16261733       0.16876817       0.39351207 </v>
   <v>      -0.25153822       0.25037488       0.49797255 </v>
   <v>       0.09585709       0.42035499       0.39337566 </v>
   <v>      -0.00209840      -0.49615263      -0.49672277 </v>
   <v>       0.00321014      -0.25313759      -0.49537996 </v>
   <v>       0.41807153      -0.42726640      -0.39512363 </v>
   <v>      -0.49918249       0.25269717       0.49881726 </v>
   <v>       0.33628911       0.16486015       0.39555483 </v>
   <v>       0.17193969      -0.15774250      -0.39202015 </v>
   <v>       0.15075420      -0.42312273      -0.39514390 </v>
   <v>       0.41494905       0.08814189      -0.39524834 </v>
   <v>      -0.34085103      -0.18039491      -0.39818119 </v>
   <v>      -0.34435136       0.07628577      -0.39449349 </v>
   <v>       0.40745024      -0.42001678       0.45479580 </v>
   <v>      -0.33099752       0.07962933       0.44902094 </v>
   <v>      -0.41127857      -0.08790789      -0.46042385 </v>
   <v>      -0.33624064      -0.17037615       0.45333687 </v>
   <v>       0.16973726      -0.41242020       0.45672207 </v>
   <v>      -0.43071514       0.40516808      -0.45706465 </v>
   <v>       0.17284773      -0.16679716       0.45872185 </v>
   <v>      -0.16866480       0.41284943      -0.45419585 </v>
   <v>       0.33369544      -0.07585455      -0.45041902 </v>
   <v>      -0.17183573      -0.33778536      -0.45463070 </v>
   <v>       0.42861129       0.08516761       0.45412192 </v>
   <v>       0.34019348      -0.32899913      -0.45324186 </v>
   <v>      -0.40178667       0.17511721      -0.45544688 </v>
   <v>      -0.42295700      -0.33812816      -0.45830683 </v>
   <v>       0.07876555      -0.33539193      -0.45044255 </v>
   <v>      -0.16606407      -0.32474035       0.40185235 </v>
   <v>      -0.43138168       0.40964805       0.39695994 </v>
   <v>      -0.15782744       0.41863905       0.39414888 </v>
   <v>      -0.40957816      -0.08412248       0.39271489 </v>
   <v>       0.32218957      -0.33837715       0.39732657 </v>
   <v>      -0.49753663       0.00803710       0.49709259 </v>
   <v>      -0.32561640       0.33591834      -0.39475180 </v>
   <v>       0.24903493      -0.25117816      -0.49599491 </v>
   <v>       0.49475092      -0.24852324       0.49984068 </v>
   <v>      -0.08835052      -0.42303265      -0.39203745 </v>
   <v>      -0.33600666      -0.42163341      -0.39833761 </v>
   <v>       0.33625021      -0.08632030       0.39478686 </v>
   <v>      -0.08130342      -0.40959484       0.45799824 </v>
   <v>      -0.32260479       0.33871167       0.45244006 </v>
   <v>      -0.33680911      -0.42316114       0.46106593 </v>
   <v>       0.41636760      -0.18375235      -0.39555919 </v>
   <v>       0.06853641      -0.33268054       0.39261350 </v>
   <v>      -0.25538381      -0.49921136      -0.49908588 </v>
   <v>      -0.42214148      -0.32900979       0.39396103 </v>
   <v>      -0.41079914       0.17599355       0.38846914 </v>
   <v>       0.41955699      -0.16906943       0.45864452 </v>
  </varray>
 </structure>
 <varray name="primitive_index" >
  <v type="int" >        1 </v>
  <v type="int" >       65 </v>
  <v type="int" >       70 </v>
  <v type="int" >       49 </v>
  <v type="int" >       66 </v>
  <v type="int" >       61 </v>
  <v type="int" >       50 </v>
  <v type="int" >       29 </v>
  <v type="int" >       18 </v>
  <v type="int" >       17 </v>
  <v type="int" >       13 </v>
  <v type="int" >        2 </v>
  <v type="int" >        6 </v>
  <v type="int" >       16 </v>
  <v type="int" >        4 </v>
  <v type="int" >        5 </v>
  <v type="int" >       77 </v>
  <v type="int" >       33 </v>
  <v type="int" >       62 </v>
  <v type="int" >       71 </v>
  <v type="int" >       69 </v>
  <v type="int" >       64 </v>
  <v type="int" >       54 </v>
  <v type="int" >       32 </v>
  <v type="int" >       30 </v>
  <v type="int" >       22 </v>
  <v type="int" >       48 </v>
  <v type="int" >       80 </v>
  <v type="int" >       75 </v>
  <v type="int" >       38 </v>
  <v type="int" >       36 </v>
  <v type="int" >       45 </v>
  <v type="int" >       78 </v>
  <v type="int" >       34 </v>
  <v type="int" >       67 </v>
  <v type="int" >       68 </v>
  <v type="int" >       55 </v>
  <v type="int" >       74 </v>
  <v type="int" >       37 </v>
  <v type="int" >       52 </v>
  <v type="int" >       51 </v>
  <v type="int" >       53 </v>
  <v type="int" >       60 </v>
  <v type="int" >       57 </v>
  <v type="int" >       23 </v>
  <v type="int" >       25 </v>
  <v type="int" >       12 </v>
  <v type="int" >       28 </v>
  <v type="int" >       19 </v>
  <v type="int" >       10 </v>
  <v type="int" >       20 </v>
  <v type="int" >       14 </v>
  <v type="int" >        8 </v>
  <v type="int" >       15 </v>
  <v type="int" >       21 </v>
  <v type="int" >        7 </v>
  <v type="int" >        9 </v>
  <v type="int" >       11 </v>
  <v type="int" >        3 </v>
  <v type="int" >       47 </v>
  <v type="int" >       42 </v>
  <v type="int" >       46 </v>
  <v type="int" >       44 </v>
  <v type="int" >       39 </v>
  <v type="int" >       73 </v>
  <v type="int" >       58 </v>
  <v type="int" >       72 </v>
  <v type="int" >       76 </v>
  <v type="int" >       63 </v>
  <v type="int" >       59 </v>
  <v type="int" >       40 </v>
  <v type="int" >       31 </v>
  <v type="int" >       26 </v>
  <v type="int" >       27 </v>
  <v type="int" >       56 </v>
  <v type="int" >       35 </v>
  <v type="int" >       79 </v>
  <v type="int" >       43 </v>
  <v type="int" >       41 </v>
  <v type="int" >       24 </v>
 </varray>
 <kpoints>
  <generation param="Gamma">
   <v type="int" name="divisions">       3        3        1 </v>
   <v name="usershift">      0.00000000       0.00000000       0.00000000 </v>
   <v name="genvec1">      0.33333333      -0.00000000       0.00000000 </v>
   <v name="genvec2">      0.00000000       0.33333333       0.00000000 </v>
   <v name="genvec3">      0.00000000       0.00000000       1.00000000 </v>
   <v name="shift">      0.00000000       0.00000000       0.00000000 </v>
  </generation>
  <varray name="kpointlist" >
   <v>       0.00000000       0.00000000       0.00000000 </v>
   <v>       0.33333333      -0.00000000       0.00000000 </v>
   <v>       0.00000000       0.33333333       0.00000000 </v>
   <v>       0.33333333       0.33333333       0.00000000 </v>
   <v>      -0.33333333       0.33333333       0.00000000 </v>
  </varray>
  <varray name="weights" >
   <v>       0.11111111 </v>
   <v>       0.22222222 </v>
   <v>       0.22222222 </v>
   <v>       0.22222222 </v>
   <v>       0.22222222 </v>
  </varray>
 </kpoints>
 <parameters>
  <separator name="general" >
   <i type="string" name="SYSTEM">unknown system</i>
   <i type="logical" name="LCOMPAT"> F  </i>
  </separator>
  <separator name="electronic" >
   <i type="string" name="PREC">anorma</i>
   <i name="ENMAX">    600.00000000</i>
   <i name="ENAUG">    644.87300000</i>
   <i name="EDIFF">      0.00000100</i>
   <i type="int" name="IALGO">    38</i>
   <i type="int" name="IWAVPR">    10</i>
   <i type="int" name="NBANDS">   384</i>
   <i name="NELECT">    640.00000000</i>
   <i type="int" name="TURBO">     0</i>
   <i type="int" name="IRESTART">     0</i>
   <i type="int" name="NREBOOT">     0</i>
   <i type="int" name="NMIN">     0</i>
   <i name="EREF">      0.00000000</i>
   <separator name="electronic smearing" >
    <i type="int" name="ISMEAR">     0</i>
    <i name="SIGMA">      0.05000000</i>
    <i name="KSPACING">      0.25000000</i>
    <i type="logical" name="KGAMMA"> T  </i>
   </separator>
   <separator name="electronic projectors" >
    <i type="logical" name="LREAL"> T  </i>
    <v name="ROPT">     -0.00025000     -0.00025000     -0.00025000</v>
    <i type="int" name="LMAXPAW">  -100</i>
    <i type="int" name="LMAXMIX">     2</i>
    <i type="logical" name="NLSPLINE"> F  </i>
   </separator>
   <separator name="electronic startup" >
    <i type="int" name="ISTART">     0</i>
    <i type="int" name="ICHARG">     2</i>
    <i type="int" name="INIWAV">     1</i>
   </separator>
   <separator name="electronic spin" >
    <i type="int" name="ISPIN">     1</i>
    <i type="logical" name="LNONCOLLINEAR"> F  </i>
    <v name="MAGMOM">      1.00000000      1.00000000      1.00000000      1.00000000      1.00000000      1.00000000      1.00000000      1.00000000      1.00000000      1.00000000      1.00000000      1.00000000      1.00000000      1.00000000      1.00000000      1.00000000      1.00000000      1.00000000      1.00000000      1.00000000
      1.00000000      1.00000000      1.00000000      1.00000000      1.00000000      1.00000000      1.00000000      1.00000000      1.00000000      1.00000000      1.00000000      1.00000000      1.00000000      1.00000000      1.00000000      1.00000000      1.00000000      1.00000000      1.00000000      1.00000000
      1.00000000      1.00000000      1.00000000      1.00000000      1.00000000      1.00000000      1.00000000      1.00000000      1.00000000      1.00000000      1.00000000      1.00000000      1.00000000      1.00000000      1.00000000      1.00000000      1.00000000      1.00000000      1.00000000      1.00000000
      1.00000000      1.00000000      1.00000000      1.00000000      1.00000000      1.00000000      1.00000000      1.00000000      1.00000000      1.00000000      1.00000000      1.00000000      1.00000000      1.00000000      1.00000000      1.00000000      1.00000000      1.00000000      1.00000000      1.00000000
</v>
    <i name="NUPDOWN">     -1.00000000</i>
    <i type="logical" name="LSORBIT"> F  </i>
    <v name="SAXIS">      0.00000000      0.00000000      1.00000000</v>
    <i type="logical" name="LSPIRAL"> F  </i>
    <v name="QSPIRAL">      0.00000000      0.00000000      0.00000000</v>
    <i type="logical" name="LZEROZ"> F  </i>
   </separator>
   <separator name="electronic exchange-correlation" >
    <i type="logical" name="LASPH"> F  </i>
    <i type="logical" name="LMETAGGA"> F  </i>
   </separator>
   <separator name="electronic convergence" >
    <i type="int" name="NELM">    60</i>
    <i type="int" name="NELMDL">    -5</i>
    <i type="int" name="NELMIN">     2</i>
    <i name="ENINI">    600.00000000</i>
    <separator name="electronic convergence detail" >
     <i type="logical" name="LDIAG"> T  </i>
     <i type="logical" name="LSUBROT"> F  </i>
     <i name="WEIMIN">      0.00000000</i>
     <i name="EBREAK">      0.00000000</i>
     <i name="DEPER">      0.30000000</i>
     <i type="int" name="NRMM">     4</i>
     <i name="TIME">      0.40000000</i>
    </separator>
   </separator>
   <separator name="electronic mixer" >
    <i name="AMIX">      0.40000000</i>
    <i name="BMIX">      1.00000000</i>
    <i name="AMIN">      0.10000000</i>
    <i name="AMIX_MAG">      1.60000000</i>
    <i name="BMIX_MAG">      1.00000000</i>
    <separator name="electronic mixer details" >
     <i type="int" name="IMIX">     4</i>
     <i type="logical" name="MIXFIRST"> F  </i>
     <i type="int" name="MAXMIX">   -45</i>
     <i name="WC">    100.00000000</i>
     <i type="int" name="INIMIX">     1</i>
     <i type="int" name="MIXPRE">     1</i>
     <i type="int" name="MREMOVE">     5</i>
    </separator>
   </separator>
   <separator name="electronic dipolcorrection" >
    <i type="logical" name="LDIPOL"> F  </i>
    <i type="logical" name="LMONO"> F  </i>
    <i type="int" name="IDIPOL">     0</i>
    <i name="EPSILON">      1.00000000</i>
    <v name="DIPOL">   -100.00000000   -100.00000000   -100.00000000</v>
    <i name="EFIELD">      0.00000000</i>
   </separator>
  </separator>
  <separator name="grids" >
   <i type="int" name="NGX">   112</i>
   <i type="int" name="NGY">   112</i>
   <i type="int" name="NGZ">   224</i>
   <i type="int" name="NGXF">   224</i>
   <i type="int" name="NGYF">   224</i>
   <i type="int" name="NGZF">   448</i>
   <i type="logical" name="ADDGRID"> T  </i>
  </separator>
  <separator name="ionic" >
   <i type="int" name="NSW">     1</i>
   <i type="int" name="IBRION">    -1</i>
   <i type="int" name="MDALGO">     0</i>
   <i type="int" name="ISIF">     2</i>
   <i name="PSTRESS">      0.00000000</i>
   <i name="EDIFFG">     -0.01000000</i>
   <i type="int" name="NFREE">     0</i>
   <i name="POTIM">      1.00000000</i>
   <i name="SMASS">     -3.00000000</i>
   <i name="SCALEE">      1.00000000</i>
  </separator>
  <separator name="ionic md" >
   <i name="TEBEG">      0.00010000</i>
   <i name="TEEND">      0.00010000</i>
   <i type="int" name="NBLOCK">     1</i>
   <i type="int" name="KBLOCK">     1</i>
   <i type="int" name="NPACO">   256</i>
   <i name="APACO">     16.00000000</i>
  </separator>
  <separator name="symmetry" >
   <i type="int" name="ISYM">     2</i>
   <i name="SYMPREC">      0.00001000</i>
  </separator>
  <separator name="dos" >
   <i type="int" name="LORBIT">     0</i>
   <v name="RWIGS">     -1.00000000     -1.00000000     -1.00000000</v>
   <i type="int" name="NEDOS">   301</i>
   <i name="EMIN">     10.00000000</i>
   <i name="EMAX">    -10.00000000</i>
   <i name="EFERMI">      0.00000000</i>
  </separator>
  <separator name="writing" >
   <i type="int" name="NWRITE">     2</i>
   <i type="logical" name="LWAVE"> F  </i>
   <i type="logical" name="LDOWNSAMPLE"> F  </i>
   <i type="logical" name="LCHARG"> F  </i>
   <i type="logical" name="LPARD"> F  </i>
   <i type="logical" name="LVTOT"> F  </i>
   <i type="logical" name="LVHAR"> F  </i>
   <i type="logical" name="LELF"> F  </i>
   <i type="logical" name="LOPTICS"> F  </i>
   <v name="STM">      0.00000000      0.00000000      0.00000000      0.00000000      0.00000000      0.00000000      0.00000000</v>
  </separator>
  <separator name="performance" >
   <i type="int" name="NPAR">     4</i>
   <i type="int" name="NSIM">     4</i>
   <i type="int" name="NBLK">    -1</i>
   <i type="logical" name="LPLANE"> T  </i>
   <i type="logical" name="LSCALAPACK"> F  </i>
   <i type="logical" name="LSCAAWARE"> F  </i>
   <i type="logical" name="LSCALU"> F  </i>
   <i type="logical" name="LASYNC"> F  </i>
   <i type="logical" name="LORBITALREAL"> F  </i>
  </separator>
  <separator name="miscellaneous" >
   <i type="int" name="IDIOT">     3</i>
   <i type="int" name="ISPECIAL">     0</i>
   <i type="logical" name="LMUSIC"> F  </i>
   <v name="POMASS">     44.95600000     35.45300000     12.01100000</v>
   <v name="DARWINR">      0.00000000      0.00000000      0.00000000</v>
   <v name="DARWINV">      1.00000000      1.00000000      1.00000000</v>
   <i type="logical" name="LCORR"> T  </i>
  </separator>
  <i type="logical" name="GGA_COMPAT"> T  </i>
  <i type="logical" name="LBERRY"> F  </i>
  <i type="int" name="ICORELEVEL">     0</i>
  <i type="logical" name="LDAU"> F  </i>
  <i type="int" name="I_CONSTRAINED_M">     0</i>
  <separator name="electronic exchange-correlation" >
   <i type="string" name="GGA">--</i>
   <i type="int" name="VOSKOWN">     0</i>
   <i type="logical" name="LHFCALC"> F  </i>
   <i type="string" name="PRECFOCK"></i>
   <i type="logical" name="LSYMGRAD"> F  </i>
   <i type="logical" name="LHFONE"> F  </i>
   <i type="logical" name="LRHFCALC"> F  </i>
   <i type="logical" name="LTHOMAS"> F  </i>
   <i type="logical" name="LMODELHF"> F  </i>
   <i name="ENCUT4O">     -1.00000000</i>
   <i type="int" name="EXXOEP">     0</i>
   <i type="int" name="FOURORBIT">     0</i>
   <i name="AEXX">      0.00000000</i>
   <i name="HFALPHA">      0.00000000</i>
   <i name="MCALPHA">      0.00000000</i>
   <i name="ALDAX">      1.00000000</i>
   <i name="AGGAX">      1.00000000</i>
   <i name="ALDAC">      1.00000000</i>
   <i name="AGGAC">      1.00000000</i>
   <i type="int" name="NKREDX">     1</i>
   <i type="int" name="NKREDY">     1</i>
   <i type="int" name="NKREDZ">     1</i>
   <i type="logical" name="SHIFTRED"> F  </i>
   <i type="logical" name="ODDONLY"> F  </i>
   <i type="logical" name="EVENONLY"> F  </i>
   <i type="int" name="LMAXFOCK">     0</i>
   <i type="int" name="NMAXFOCKAE">     0</i>
   <i type="logical" name="LFOCKAEDFT"> F  </i>
   <i name="HFSCREEN">      0.00000000</i>
   <i name="HFSCREENC">      0.00000000</i>
   <i type="int" name="NBANDSGWLOW">     0</i>
  </separator>
  <separator name="vdW DFT" >
   <i type="logical" name="LUSE_VDW"> F  </i>
   <i name="Zab_VDW">     -0.84910000</i>
   <i name="PARAM1">      0.12340000</i>
   <i name="PARAM2">      1.00000000</i>
   <i name="PARAM3">      0.00000000</i>
  </separator>
  <separator name="model GW" >
   <i type="int" name="MODEL_GW">     0</i>
   <i name="MODEL_EPS0">     34.36971577</i>
   <i name="MODEL_ALPHA">      1.00000000</i>
  </separator>
  <separator name="linear response parameters" >
   <i type="logical" name="LEPSILON"> F  </i>
   <i type="logical" name="LRPA"> F  </i>
   <i type="logical" name="LNABLA"> F  </i>
   <i type="logical" name="LVEL"> F  </i>
   <i type="int" name="KINTER">     0</i>
   <i name="CSHIFT">      0.10000000</i>
   <i name="OMEGAMAX">     -1.00000000</i>
   <i name="DEG_THRESHOLD">      0.00200000</i>
   <i name="RTIME">     -0.10000000</i>
   <i name="WPLASMAI">      0.00000000</i>
   <v name="DFIELD">      0.00000000      0.00000000      0.00000000</v>
   <v name="WPLASMA">      0.00000000      0.00000000      0.00000000      0.00000000      0.00000000      0.00000000      0.00000000      0.00000000      0.00000000</v>
  </separator>
  <separator name="orbital magnetization" >
   <i type="logical" name="NUCIND"> F  </i>
   <v name="MAGPOS">      0.00000000      0.00000000      0.00000000</v>
   <i type="logical" name="LNICSALL"> T  </i>
   <i type="logical" name="ORBITALMAG"> F  </i>
   <i type="logical" name="LMAGBLOCH"> F  </i>
   <i type="logical" name="LCHIMAG"> F  </i>
   <i type="logical" name="LGAUGE"> T  </i>
   <i type="int" name="MAGATOM">     0</i>
   <v name="MAGDIPOL">      0.00000000      0.00000000      0.00000000</v>
   <v name="AVECCONST">      0.00000000      0.00000000      0.00000000</v>
  </separator>
  <separator name="response functions" >
   <i type="logical" name="LADDER"> F  </i>
   <i type="logical" name="LRPAFORCE"> F  </i>
   <i type="logical" name="LFXC"> F  </i>
   <i type="logical" name="LHARTREE"> T  </i>
   <i type="int" name="IBSE">     0</i>
   <v type="int" name="KPOINT">    -1     0     0     0</v>
   <i type="logical" name="LTCTE"> F  </i>
   <i type="logical" name="LTETE"> F  </i>
   <i type="logical" name="LTRIPLET"> F  </i>
   <i type="logical" name="LFXCEPS"> F  </i>
   <i type="logical" name="LFXHEG"> F  </i>
   <i type="int" name="NATURALO">     2</i>
   <i type="logical" name="L2ORDER"> F  </i>
   <i type="logical" name="LMP2LT"> F  </i>
   <i type="logical" name="LUSEW"> F  </i>
   <i name="ENCUTGW">     -2.00000000</i>
   <i name="ENCUTGWSOFT">     -2.00000000</i>
   <i name="ENCUTLF">     -1.00000000</i>
   <i type="int" name="LMAXMP2">    -1</i>
   <i name="SCISSOR">      0.00000000</i>
   <i type="int" name="NOMEGA">     0</i>
   <i type="int" name="NOMEGAR">     0</i>
   <i type="int" name="NBANDSGW">    -1</i>
   <i type="int" name="NBANDSO">    -1</i>
   <i type="int" name="NBANDSV">    -1</i>
   <i type="int" name="NELM">     1</i>
   <i type="int" name="NELMHF">     1</i>
   <i type="int" name="DIM">     3</i>
   <i type="int" name="ANTIRES">     0</i>
   <i name="OMEGAMAX">    -30.00000000</i>
   <i name="OMEGAMIN">    -30.00000000</i>
   <i name="OMEGATL">   -200.00000000</i>
   <i type="int" name="OMEGAGRID">   140</i>
   <i name="CSHIFT">     -0.10000000</i>
   <i type="logical" name="SELFENERGY"> F  </i>
   <i type="logical" name="LSPECTRAL"> F  </i>
   <i type="logical" name="LSPECTRALGW"> F  </i>
   <i type="logical" name="LSINGLES"> F  </i>
   <i type="logical" name="LFERMIGW"> F  </i>
   <i type="logical" name="ODDONLYGW"> F  </i>
   <i type="logical" name="EVENONLYGW"> F  </i>
   <i type="int" name="NKREDLFX">     1</i>
   <i type="int" name="NKREDLFY">     1</i>
   <i type="int" name="NKREDLFZ">     1</i>
   <i type="int" name="MAXMEM">  2800</i>
   <i type="int" name="TELESCOPE">     0</i>
   <i type="int" name="TAUPAR">     1</i>
   <i type="int" name="OMEGAPAR">    -1</i>
   <i name="LAMBDA">      1.00000000</i>
  </separator>
  <separator name="External order field" >
   <i name="OFIELD_KAPPA">      0.00000000</i>
   <v name="OFIELD_K">      0.00000000      0.00000000      0.00000000</v>
   <i name="OFIELD_Q6_NEAR">      0.00000000</i>
   <i name="OFIELD_Q6_FAR">      0.00000000</i>
   <i name="OFIELD_A">      0.00000000</i>
  </separator>
 </parameters>
 <atominfo>
  <atoms>      80 </atoms>
  <types>       3 </types>
  <array name="atoms" >
   <dimension dim="1">ion</dimension>
   <field type="string">element</field>
   <field type="int">atomtype</field>
   <set>
    <rc><c>Sc</c><c>   1</c></rc>
    <rc><c>Sc</c><c>   1</c></rc>
    <rc><c>Sc</c><c>   1</c></rc>
    <rc><c>Sc</c><c>   1</c></rc>
    <rc><c>Sc</c><c>   1</c></rc>
    <rc><c>Sc</c><c>   1</c></rc>
    <rc><c>Sc</c><c>   1</c></rc>
    <rc><c>Sc</c><c>   1</c></rc>
    <rc><c>Sc</c><c>   1</c></rc>
    <rc><c>Sc</c><c>   1</c></rc>
    <rc><c>Sc</c><c>   1</c></rc>
    <rc><c>Sc</c><c>   1</c></rc>
    <rc><c>Sc</c><c>   1</c></rc>
    <rc><c>Sc</c><c>   1</c></rc>
    <rc><c>Sc</c><c>   1</c></rc>
    <rc><c>Sc</c><c>   1</c></rc>
    <rc><c>Sc</c><c>   1</c></rc>
    <rc><c>Sc</c><c>   1</c></rc>
    <rc><c>Sc</c><c>   1</c></rc>
    <rc><c>Sc</c><c>   1</c></rc>
    <rc><c>Sc</c><c>   1</c></rc>
    <rc><c>Sc</c><c>   1</c></rc>
    <rc><c>Sc</c><c>   1</c></rc>
    <rc><c>Sc</c><c>   1</c></rc>
    <rc><c>Sc</c><c>   1</c></rc>
    <rc><c>Sc</c><c>   1</c></rc>
    <rc><c>Sc</c><c>   1</c></rc>
    <rc><c>Sc</c><c>   1</c></rc>
    <rc><c>Sc</c><c>   1</c></rc>
    <rc><c>Sc</c><c>   1</c></rc>
    <rc><c>Sc</c><c>   1</c></rc>
    <rc><c>Sc</c><c>   1</c></rc>
    <rc><c>Cl</c><c>   2</c></rc>
    <rc><c>Cl</c><c>   2</c></rc>
    <rc><c>Cl</c><c>   2</c></rc>
    <rc><c>Cl</c><c>   2</c></rc>
    <rc><c>Cl</c><c>   2</c></rc>
    <rc><c>Cl</c><c>   2</c></rc>
    <rc><c>Cl</c><c>   2</c></rc>
    <rc><c>Cl</c><c>   2</c></rc>
    <rc><c>Cl</c><c>   2</c></rc>
    <rc><c>Cl</c><c>   2</c></rc>
    <rc><c>Cl</c><c>   2</c></rc>
    <rc><c>Cl</c><c>   2</c></rc>
    <rc><c>Cl</c><c>   2</c></rc>
    <rc><c>Cl</c><c>   2</c></rc>
    <rc><c>Cl</c><c>   2</c></rc>
    <rc><c>Cl</c><c>   2</c></rc>
    <rc><c>Cl</c><c>   2</c></rc>
    <rc><c>Cl</c><c>   2</c></rc>
    <rc><c>Cl</c><c>   2</c></rc>
    <rc><c>Cl</c><c>   2</c></rc>
    <rc><c>Cl</c><c>   2</c></rc>
    <rc><c>Cl</c><c>   2</c></rc>
    <rc><c>Cl</c><c>   2</c></rc>
    <rc><c>Cl</c><c>   2</c></rc>
    <rc><c>Cl</c><c>   2</c></rc>
    <rc><c>Cl</c><c>   2</c></rc>
    <rc><c>Cl</c><c>   2</c></rc>
    <rc><c>Cl</c><c>   2</c></rc>
    <rc><c>Cl</c><c>   2</c></rc>
    <rc><c>Cl</c><c>   2</c></rc>
    <rc><c>Cl</c><c>   2</c></rc>
    <rc><c>Cl</c><c>   2</c></rc>
    <rc><c>C </c><c>   3</c></rc>
    <rc><c>C </c><c>   3</c></rc>
    <rc><c>C </c><c>   3</c></rc>
    <rc><c>C </c><c>   3</c></rc>
    <rc><c>C </c><c>   3</c></rc>
    <rc><c>C </c><c>   3</c></rc>
    <rc><c>C </c><c>   3</c></rc>
    <rc><c>C </c><c>   3</c></rc>
    <rc><c>C </c><c>   3</c></rc>
    <rc><c>C </c><c>   3</c></rc>
    <rc><c>C </c><c>   3</c></rc>
    <rc><c>C </c><c>   3</c></rc>
    <rc><c>C </c><c>   3</c></rc>
    <rc><c>C </c><c>   3</c></rc>
    <rc><c>C </c><c>   3</c></rc>
    <rc><c>C </c><c>   3</c></rc>
   </set>
  </array>
  <array name="atomtypes" >
   <dimension dim="1">type</dimension>
   <field type="int">atomspertype</field>
   <field type="string">element</field>
   <field>mass</field>
   <field>valence</field>
   <field type="string">pseudopotential</field>
   <set>
    <rc><c>  32</c><c>Sc</c><c>     44.95600000</c><c>     11.00000000</c><c>  PAW_PBE Sc_sv 07Sep2000               </c></rc>
    <rc><c>  32</c><c>Cl</c><c>     35.45300000</c><c>      7.00000000</c><c>  PAW_PBE Cl 06Sep2000                  </c></rc>
    <rc><c>  16</c><c>C </c><c>     12.01100000</c><c>      4.00000000</c><c>  PAW_PBE C 08Apr2002                   </c></rc>
   </set>
  </array>
 </atominfo>
 <structure name="initialpos" >
  <crystal>
   <varray name="basis" >
    <v>      13.79398668       0.00000000       0.00000000 </v>
    <v>      -6.89699334      11.94594288       0.00000000 </v>
    <v>       0.00000000       0.00000000      27.81022107 </v>
   </varray>
   <i name="volume">   4582.62876984 </i>
   <varray name="rec_basis" >
    <v>       0.07249536       0.04185521       0.00000000 </v>
    <v>       0.00000000       0.08371043       0.00000000 </v>
    <v>       0.00000000       0.00000000       0.03595800 </v>
   </varray>
  </crystal>
  <varray name="positions" >
   <v>       0.07840787       0.16511764       0.54574469 </v>
   <v>       0.08815575       0.41611732       0.54384098 </v>
   <v>       0.07876555       0.66460807       0.54955745 </v>
   <v>       0.08385459       0.91095081       0.54756555 </v>
   <v>       0.33997093       0.16894901       0.54687479 </v>
   <v>       0.33065917       0.41201490       0.54248500 </v>
   <v>       0.34019348       0.67100087       0.54675814 </v>
   <v>       0.33369544       0.92414545       0.54958098 </v>
   <v>       0.59821333       0.17511721       0.54455312 </v>
   <v>       0.56928486       0.40516808       0.54293535 </v>
   <v>       0.57704300       0.66187184       0.54169317 </v>
   <v>       0.58872143       0.91209211       0.53957615 </v>
   <v>       0.83927194       0.16744565       0.53940946 </v>
   <v>       0.83133520       0.41284943       0.54580415 </v>
   <v>       0.82816427       0.66221464       0.54536930 </v>
   <v>       0.82899569       0.90910406       0.53967365 </v>
   <v>       0.17515092       0.08524892       0.45922488 </v>
   <v>       0.15863658       0.32854716       0.45526974 </v>
   <v>       0.16973726       0.58757980       0.45672207 </v>
   <v>       0.17284773       0.83320284       0.45872185 </v>
   <v>       0.42861129       0.08516761       0.45412192 </v>
   <v>       0.41220488       0.32721059       0.45117145 </v>
   <v>       0.40745024       0.57998322       0.45479580 </v>
   <v>       0.41955699       0.83093057       0.45864452 </v>
   <v>       0.66900248       0.07962933       0.44902094 </v>
   <v>       0.67739521       0.33871167       0.45244006 </v>
   <v>       0.66319089       0.57683886       0.46106593 </v>
   <v>       0.66375936       0.82962385       0.45333687 </v>
   <v>       0.92680423       0.08640757       0.45311346 </v>
   <v>       0.92662611       0.34286533       0.45442562 </v>
   <v>       0.91869658       0.59040516       0.45799824 </v>
   <v>       0.91987659       0.84355636       0.45642971 </v>
   <v>       0.09003715       0.17492291       0.39565906 </v>
   <v>       0.09585709       0.42035499       0.39337566 </v>
   <v>       0.06853641       0.66731946       0.39261350 </v>
   <v>       0.08769954       0.91512289       0.39858605 </v>
   <v>       0.33628911       0.16486015       0.39555483 </v>
   <v>       0.32681191       0.41873300       0.39725496 </v>
   <v>       0.32218957       0.66162285       0.39732657 </v>
   <v>       0.33625021       0.91367970       0.39478686 </v>
   <v>       0.58920086       0.17599355       0.38846914 </v>
   <v>       0.56861832       0.40964805       0.39695994 </v>
   <v>       0.57785852       0.67099021       0.39396103 </v>
   <v>       0.59042184       0.91587752       0.39271489 </v>
   <v>       0.83738267       0.16876817       0.39351207 </v>
   <v>       0.84217256       0.41863905       0.39414888 </v>
   <v>       0.83393593       0.67525965       0.40185235 </v>
   <v>       0.84100713       0.93034035       0.39632651 </v>
   <v>       0.14934254       0.08929568       0.60728605 </v>
   <v>       0.15735767       0.33871340       0.60417974 </v>
   <v>       0.15075420       0.57687727       0.60485610 </v>
   <v>       0.17193969       0.84225750       0.60797985 </v>
   <v>       0.41494905       0.08814189       0.60475166 </v>
   <v>       0.41850741       0.34392305       0.60472502 </v>
   <v>       0.41807153       0.57273360       0.60487637 </v>
   <v>       0.41636760       0.81624765       0.60444081 </v>
   <v>       0.65564864       0.07628577       0.60550651 </v>
   <v>       0.67438360       0.33591834       0.60524820 </v>
   <v>       0.66399334       0.57836659       0.60166239 </v>
   <v>       0.65914897       0.81960509       0.60181881 </v>
   <v>       0.90768032       0.09087309       0.60265576 </v>
   <v>       0.91008340       0.32925753       0.60102067 </v>
   <v>       0.91164948       0.57696735       0.60796255 </v>
   <v>       0.92186094       0.83724321       0.60833926 </v>
   <v>       0.00550494       0.00230124       0.49944079 </v>
   <v>       0.99783902       0.24936337       0.49232663 </v>
   <v>       0.99790160       0.50384737       0.50327723 </v>
   <v>       0.00321014       0.74686241       0.50462004 </v>
   <v>       0.25837428       0.00059735       0.50469355 </v>
   <v>       0.24303082       0.24411812       0.49863840 </v>
   <v>       0.25265430       0.50669378       0.50185138 </v>
   <v>       0.24903493       0.74882184       0.50400509 </v>
   <v>       0.50246337       0.00803710       0.49709259 </v>
   <v>       0.50081751       0.25269717       0.49881726 </v>
   <v>       0.49251928       0.49818883       0.50209082 </v>
   <v>       0.49475092       0.75147676       0.49984068 </v>
   <v>       0.75267130       0.99239480       0.49718352 </v>
   <v>       0.74846178       0.25037488       0.49797255 </v>
   <v>       0.74461619       0.50078864       0.50091412 </v>
   <v>       0.74977174       0.75699451       0.50378581 </v>
  </varray>
  <varray name="velocities" >
   <v>       0.00000000       0.00000000       0.00000000 </v>
   <v>       0.00000000       0.00000000       0.00000000 </v>
   <v>       0.00000000       0.00000000       0.00000000 </v>
   <v>       0.00000000       0.00000000       0.00000000 </v>
   <v>       0.00000000       0.00000000       0.00000000 </v>
   <v>       0.00000000       0.00000000       0.00000000 </v>
   <v>       0.00000000       0.00000000       0.00000000 </v>
   <v>       0.00000000       0.00000000       0.00000000 </v>
   <v>       0.00000000       0.00000000       0.00000000 </v>
   <v>       0.00000000       0.00000000       0.00000000 </v>
   <v>       0.00000000       0.00000000       0.00000000 </v>
   <v>       0.00000000       0.00000000       0.00000000 </v>
   <v>       0.00000000       0.00000000       0.00000000 </v>
   <v>       0.00000000       0.00000000       0.00000000 </v>
   <v>       0.00000000       0.00000000       0.00000000 </v>
   <v>       0.00000000       0.00000000       0.00000000 </v>
   <v>       0.00000000       0.00000000       0.00000000 </v>
   <v>       0.00000000       0.00000000       0.00000000 </v>
   <v>       0.00000000       0.00000000       0.00000000 </v>
   <v>       0.00000000       0.00000000       0.00000000 </v>
   <v>       0.00000000       0.00000000       0.00000000 </v>
   <v>       0.00000000       0.00000000       0.00000000 </v>
   <v>       0.00000000       0.00000000       0.00000000 </v>
   <v>       0.00000000       0.00000000       0.00000000 </v>
   <v>       0.00000000       0.00000000       0.00000000 </v>
   <v>       0.00000000       0.00000000       0.00000000 </v>
   <v>       0.00000000       0.00000000       0.00000000 </v>
   <v>       0.00000000       0.00000000       0.00000000 </v>
   <v>       0.00000000       0.00000000       0.00000000 </v>
   <v>       0.00000000       0.00000000       0.00000000 </v>
   <v>       0.00000000       0.00000000       0.00000000 </v>
   <v>       0.00000000       0.00000000       0.00000000 </v>
   <v>       0.00000000       0.00000000       0.00000000 </v>
   <v>       0.00000000       0.00000000       0.00000000 </v>
   <v>       0.00000000       0.00000000       0.00000000 </v>
   <v>       0.00000000       0.00000000       0.00000000 </v>
   <v>       0.00000000       0.00000000       0.00000000 </v>
   <v>       0.00000000       0.00000000       0.00000000 </v>
   <v>       0.00000000       0.00000000       0.00000000 </v>
   <v>       0.00000000       0.00000000       0.00000000 </v>
   <v>       0.00000000       0.00000000       0.00000000 </v>
   <v>       0.00000000       0.00000000       0.00000000 </v>
   <v>       0.00000000       0.00000000       0.00000000 </v>
   <v>       0.00000000       0.00000000       0.00000000 </v>
   <v>       0.00000000       0.00000000       0.00000000 </v>
   <v>       0.00000000       0.00000000       0.00000000 </v>
   <v>       0.00000000       0.00000000       0.00000000 </v>
   <v>       0.00000000       0.00000000       0.00000000 </v>
   <v>       0.00000000       0.00000000       0.00000000 </v>
   <v>       0.00000000       0.00000000       0.00000000 </v>
   <v>       0.00000000       0.00000000       0.00000000 </v>
   <v>       0.00000000       0.00000000       0.00000000 </v>
   <v>       0.00000000       0.00000000       0.00000000 </v>
   <v>       0.00000000       0.00000000       0.00000000 </v>
   <v>       0.00000000       0.00000000       0.00000000 </v>
   <v>       0.00000000       0.00000000       0.00000000 </v>
   <v>       0.00000000       0.00000000       0.00000000 </v>
   <v>       0.00000000       0.00000000       0.00000000 </v>
   <v>       0.00000000       0.00000000       0.00000000 </v>
   <v>       0.00000000       0.00000000       0.00000000 </v>
   <v>       0.00000000       0.00000000       0.00000000 </v>
   <v>       0.00000000       0.00000000       0.00000000 </v>
   <v>       0.00000000       0.00000000       0.00000000 </v>
   <v>       0.00000000       0.00000000       0.00000000 </v>
   <v>       0.00000000       0.00000000       0.00000000 </v>
   <v>       0.00000000       0.00000000       0.00000000 </v>
   <v>       0.00000000       0.00000000       0.00000000 </v>
   <v>       0.00000000       0.00000000       0.00000000 </v>
   <v>       0.00000000       0.00000000       0.00000000 </v>
   <v>       0.00000000       0.00000000       0.00000000 </v>
   <v>       0.00000000       0.00000000       0.00000000 </v>
   <v>       0.00000000       0.00000000       0.00000000 </v>
   <v>       0.00000000       0.00000000       0.00000000 </v>
   <v>       0.00000000       0.00000000       0.00000000 </v>
   <v>       0.00000000       0.00000000       0.00000000 </v>
   <v>       0.00000000       0.00000000       0.00000000 </v>
   <v>       0.00000000       0.00000000       0.00000000 </v>
   <v>       0.00000000       0.00000000       0.00000000 </v>
   <v>       0.00000000       0.00000000       0.00000000 </v>
   <v>       0.00000000       0.00000000       0.00000000 </v>
  </varray>
 </structure>
 <calculation>
  <scstep>
   <time name="dav">   50.67   50.69</time>
   <time name="total">   51.53   51.55</time>
   <energy>
    <i name="alphaZ">    784.57699423 </i>
    <i name="ewald"> 253081.29785572 </i>
    <i name="hartreedc">-300729.12522778 </i>
    <i name="XCdc">   2503.50588867 </i>
    <i name="pawpsdc">  43679.68029659 </i>
    <i name="pawaedc"> -43417.33247688 </i>
    <i name="eentropy">     -0.06292088 </i>
    <i name="bandstr">     83.74262767 </i>
    <i name="atom">  56210.72393729 </i>
    <i name="e_fr_energy">  12197.00697463 </i>
    <i name="e_wo_entrp">  12197.06989551 </i>
    <i name="e_0_energy">  12197.03843507 </i>
   </energy>
  </scstep>
  <scstep>
   <time name="dav">   57.90   57.94</time>
   <time name="total">   57.91   57.94</time>
   <energy>
    <i name="e_fr_energy">   1720.33654739 </i>
    <i name="e_wo_entrp">   1720.38070564 </i>
    <i name="e_0_energy">   1720.35862652 </i>
   </energy>
  </scstep>
  <scstep>
   <time name="dav">   71.97   72.01</time>
   <time name="total">   71.97   72.01</time>
   <energy>
    <i name="e_fr_energy">   -413.54096613 </i>
    <i name="e_wo_entrp">   -413.54096613 </i>
    <i name="e_0_energy">   -413.54096613 </i>
   </energy>
  </scstep>
  <scstep>
   <time name="dav">   65.67   65.71</time>
   <time name="total">   65.67   65.71</time>
   <energy>
    <i name="e_fr_energy">   -644.79094171 </i>
    <i name="e_wo_entrp">   -644.79094171 </i>
    <i name="e_0_energy">   -644.79094171 </i>
   </energy>
  </scstep>
  <scstep>
   <time name="dav">   65.46   65.50</time>
   <time name="total">   69.45   69.49</time>
   <energy>
    <i name="e_fr_energy">   -654.85102631 </i>
    <i name="e_wo_entrp">   -654.85102631 </i>
    <i name="e_0_energy">   -654.85102631 </i>
   </energy>
  </scstep>
  <scstep>
   <time name="dav">   63.33   63.35</time>
   <time name="total">   68.13   68.17</time>
   <energy>
    <i name="e_fr_energy">   -524.47339609 </i>
    <i name="e_wo_entrp">   -524.47339609 </i>
    <i name="e_0_energy">   -524.47339609 </i>
   </energy>
  </scstep>
  <scstep>
   <time name="dav">   63.72   63.75</time>
   <time name="total">   68.51   68.55</time>
   <energy>
    <i name="e_fr_energy">   -529.32298916 </i>
    <i name="e_wo_entrp">   -529.32298916 </i>
    <i name="e_0_energy">   -529.32298916 </i>
   </energy>
  </scstep>
  <scstep>
   <time name="dav">   63.32   63.35</time>
   <time name="total">   68.11   68.15</time>
   <energy>
    <i name="e_fr_energy">   -527.08472777 </i>
    <i name="e_wo_entrp">   -527.08472777 </i>
    <i name="e_0_energy">   -527.08472777 </i>
   </energy>
  </scstep>
  <scstep>
   <time name="dav">   59.52   59.54</time>
   <time name="total">   64.31   64.35</time>
   <energy>
    <i name="e_fr_energy">   -526.56098629 </i>
    <i name="e_wo_entrp">   -526.56098629 </i>
    <i name="e_0_energy">   -526.56098629 </i>
   </energy>
  </scstep>
  <scstep>
   <time name="dav">   61.87   61.90</time>
   <time name="total">   66.66   66.70</time>
   <energy>
    <i name="e_fr_energy">   -526.43196557 </i>
    <i name="e_wo_entrp">   -526.43196557 </i>
    <i name="e_0_energy">   -526.43196557 </i>
   </energy>
  </scstep>
  <scstep>
   <time name="dav">   61.66   61.68</time>
   <time name="total">   66.46   66.50</time>
   <energy>
    <i name="e_fr_energy">   -526.41059971 </i>
    <i name="e_wo_entrp">   -526.41059971 </i>
    <i name="e_0_energy">   -526.41059971 </i>
   </energy>
  </scstep>
  <scstep>
   <time name="dav">   65.95   65.98</time>
   <time name="total">   70.76   70.80</time>
   <energy>
    <i name="e_fr_energy">   -526.39638069 </i>
    <i name="e_wo_entrp">   -526.39638069 </i>
    <i name="e_0_energy">   -526.39638069 </i>
   </energy>
  </scstep>
  <scstep>
   <time name="dav">   59.72   59.75</time>
   <time name="total">   64.53   64.57</time>
   <energy>
    <i name="e_fr_energy">   -526.39384668 </i>
    <i name="e_wo_entrp">   -526.39384668 </i>
    <i name="e_0_energy">   -526.39384668 </i>
   </energy>
  </scstep>
  <scstep>
   <time name="dav">   58.84   58.87</time>
   <time name="total">   63.64   63.68</time>
   <energy>
    <i name="e_fr_energy">   -526.39194511 </i>
    <i name="e_wo_entrp">   -526.39194511 </i>
    <i name="e_0_energy">   -526.39194511 </i>
   </energy>
  </scstep>
  <scstep>
   <time name="dav">   59.35   59.37</time>
   <time name="total">   64.15   64.18</time>
   <energy>
    <i name="e_fr_energy">   -526.39345695 </i>
    <i name="e_wo_entrp">   -526.39345695 </i>
    <i name="e_0_energy">   -526.39345695 </i>
   </energy>
  </scstep>
  <scstep>
   <time name="dav">   65.10   65.13</time>
   <time name="total">   69.91   69.95</time>
   <energy>
    <i name="e_fr_energy">   -526.39573897 </i>
    <i name="e_wo_entrp">   -526.39573897 </i>
    <i name="e_0_energy">   -526.39573897 </i>
   </energy>
  </scstep>
  <scstep>
   <time name="dav">   58.56   58.58</time>
   <time name="total">   63.37   63.41</time>
   <energy>
    <i name="e_fr_energy">   -526.39925981 </i>
    <i name="e_wo_entrp">   -526.39925981 </i>
    <i name="e_0_energy">   -526.39925981 </i>
   </energy>
  </scstep>
  <scstep>
   <time name="dav">   55.85   55.87</time>
   <time name="total">   60.66   60.70</time>
   <energy>
    <i name="e_fr_energy">   -526.40153105 </i>
    <i name="e_wo_entrp">   -526.40153105 </i>
    <i name="e_0_energy">   -526.40153105 </i>
   </energy>
  </scstep>
  <scstep>
   <time name="dav">   56.45   56.47</time>
   <time name="total">   61.26   61.30</time>
   <energy>
    <i name="e_fr_energy">   -526.40262267 </i>
    <i name="e_wo_entrp">   -526.40262267 </i>
    <i name="e_0_energy">   -526.40262267 </i>
   </energy>
  </scstep>
  <scstep>
   <time name="dav">   51.09   51.12</time>
   <time name="total">   55.92   55.96</time>
   <energy>
    <i name="e_fr_energy">   -526.40378508 </i>
    <i name="e_wo_entrp">   -526.40378508 </i>
    <i name="e_0_energy">   -526.40378508 </i>
   </energy>
  </scstep>
  <scstep>
   <time name="dav">   47.07   47.09</time>
   <time name="total">   51.90   51.93</time>
   <energy>
    <i name="e_fr_energy">   -526.40427995 </i>
    <i name="e_wo_entrp">   -526.40427995 </i>
    <i name="e_0_energy">   -526.40427995 </i>
   </energy>
  </scstep>
  <scstep>
   <time name="dav">   43.20   43.21</time>
   <time name="total">   48.02   48.05</time>
   <energy>
    <i name="e_fr_energy">   -526.40475240 </i>
    <i name="e_wo_entrp">   -526.40475240 </i>
    <i name="e_0_energy">   -526.40475240 </i>
   </energy>
  </scstep>
  <scstep>
   <time name="dav">   42.74   42.76</time>
   <time name="total">   47.56   47.60</time>
   <energy>
    <i name="e_fr_energy">   -526.40523318 </i>
    <i name="e_wo_entrp">   -526.40523318 </i>
    <i name="e_0_energy">   -526.40523318 </i>
   </energy>
  </scstep>
  <scstep>
   <time name="dav">   44.73   44.75</time>
   <time name="total">   49.52   49.56</time>
   <energy>
    <i name="e_fr_energy">   -526.40539808 </i>
    <i name="e_wo_entrp">   -526.40539808 </i>
    <i name="e_0_energy">   -526.40539808 </i>
   </energy>
  </scstep>
  <scstep>
   <time name="dav">   38.85   38.87</time>
   <time name="total">   43.67   43.70</time>
   <energy>
    <i name="e_fr_energy">   -526.40548518 </i>
    <i name="e_wo_entrp">   -526.40548518 </i>
    <i name="e_0_energy">   -526.40548518 </i>
   </energy>
  </scstep>
  <scstep>
   <time name="dav">   40.56   40.57</time>
   <time name="total">   45.37   45.40</time>
   <energy>
    <i name="e_fr_energy">   -526.40555572 </i>
    <i name="e_wo_entrp">   -526.40555572 </i>
    <i name="e_0_energy">   -526.40555572 </i>
   </energy>
  </scstep>
  <scstep>
   <time name="dav">   35.09   35.10</time>
   <time name="total">   39.87   39.90</time>
   <energy>
    <i name="e_fr_energy">   -526.40556535 </i>
    <i name="e_wo_entrp">   -526.40556535 </i>
    <i name="e_0_energy">   -526.40556535 </i>
   </energy>
  </scstep>
  <scstep>
   <time name="dav">   35.15   35.15</time>
   <time name="total">   39.95   39.97</time>
   <energy>
    <i name="e_fr_energy">   -526.40557689 </i>
    <i name="e_wo_entrp">   -526.40557689 </i>
    <i name="e_0_energy">   -526.40557689 </i>
   </energy>
  </scstep>
  <scstep>
   <time name="dav">   35.18   35.18</time>
   <time name="total">   40.00   40.01</time>
   <energy>
    <i name="e_fr_energy">   -526.40558521 </i>
    <i name="e_wo_entrp">   -526.40558521 </i>
    <i name="e_0_energy">   -526.40558521 </i>
   </energy>
  </scstep>
  <scstep>
   <time name="dav">   35.74   35.74</time>
   <time name="total">   40.54   40.55</time>
   <energy>
    <i name="e_fr_energy">   -526.40559404 </i>
    <i name="e_wo_entrp">   -526.40559404 </i>
    <i name="e_0_energy">   -526.40559404 </i>
   </energy>
  </scstep>
  <scstep>
   <time name="dav">   34.00   34.01</time>
   <time name="total">   38.82   38.84</time>
   <energy>
    <i name="e_fr_energy">   -526.40559643 </i>
    <i name="e_wo_entrp">   -526.40559643 </i>
    <i name="e_0_energy">   -526.40559643 </i>
   </energy>
  </scstep>
  <scstep>
   <time name="dav">   33.45   33.47</time>
   <time name="total">   38.27   38.30</time>
   <energy>
    <i name="e_fr_energy">   -526.40559755 </i>
    <i name="e_wo_entrp">   -526.40559755 </i>
    <i name="e_0_energy">   -526.40559755 </i>
   </energy>
  </scstep>
  <scstep>
   <time name="dav">   33.02   33.02</time>
   <time name="total">   33.85   33.86</time>
   <energy>
    <i name="alphaZ">    784.57699423 </i>
    <i name="ewald"> 253081.29785572 </i>
    <i name="hartreedc">-301074.20641279 </i>
    <i name="XCdc">   2490.92563253 </i>
    <i name="pawpsdc">  59707.44477935 </i>
    <i name="pawaedc"> -59539.89241381 </i>
    <i name="eentropy">     -0.00000000 </i>
    <i name="bandstr"> -12187.27597030 </i>
    <i name="atom">  56210.72393729 </i>
    <i name="e_fr_energy">   -526.40559779 </i>
    <i name="e_wo_entrp">   -526.40559779 </i>
    <i name="e_0_energy">   -526.40559779 </i>
   </energy>
  </scstep>
  <structure>
   <crystal>
    <varray name="basis" >
     <v>      13.79398668       0.00000000       0.00000000 </v>
     <v>      -6.89699334      11.94594288       0.00000000 </v>
     <v>       0.00000000       0.00000000      27.81022107 </v>
    </varray>
    <i name="volume">   4582.62876984 </i>
    <varray name="rec_basis" >
     <v>       0.07249536       0.04185521       0.00000000 </v>
     <v>       0.00000000       0.08371043       0.00000000 </v>
     <v>       0.00000000       0.00000000       0.03595800 </v>
    </varray>
   </crystal>
   <varray name="positions" >
    <v>       0.07840787       0.16511764       0.54574469 </v>
    <v>       0.08815575       0.41611732       0.54384098 </v>
    <v>       0.07876555       0.66460807       0.54955745 </v>
    <v>       0.08385459       0.91095081       0.54756555 </v>
    <v>       0.33997093       0.16894901       0.54687479 </v>
    <v>       0.33065917       0.41201490       0.54248500 </v>
    <v>       0.34019348       0.67100087       0.54675814 </v>
    <v>       0.33369544       0.92414545       0.54958098 </v>
    <v>       0.59821333       0.17511721       0.54455312 </v>
    <v>       0.56928486       0.40516808       0.54293535 </v>
    <v>       0.57704300       0.66187184       0.54169317 </v>
    <v>       0.58872143       0.91209211       0.53957615 </v>
    <v>       0.83927194       0.16744565       0.53940946 </v>
    <v>       0.83133520       0.41284943       0.54580415 </v>
    <v>       0.82816427       0.66221464       0.54536930 </v>
    <v>       0.82899569       0.90910406       0.53967365 </v>
    <v>       0.17515092       0.08524892       0.45922488 </v>
    <v>       0.15863658       0.32854716       0.45526974 </v>
    <v>       0.16973726       0.58757980       0.45672207 </v>
    <v>       0.17284773       0.83320284       0.45872185 </v>
    <v>       0.42861129       0.08516761       0.45412192 </v>
    <v>       0.41220488       0.32721059       0.45117145 </v>
    <v>       0.40745024       0.57998322       0.45479580 </v>
    <v>       0.41955699       0.83093057       0.45864452 </v>
    <v>       0.66900248       0.07962933       0.44902094 </v>
    <v>       0.67739521       0.33871167       0.45244006 </v>
    <v>       0.66319089       0.57683886       0.46106593 </v>
    <v>       0.66375936       0.82962385       0.45333687 </v>
    <v>       0.92680423       0.08640757       0.45311346 </v>
    <v>       0.92662611       0.34286533       0.45442562 </v>
    <v>       0.91869658       0.59040516       0.45799824 </v>
    <v>       0.91987659       0.84355636       0.45642971 </v>
    <v>       0.09003715       0.17492291       0.39565906 </v>
    <v>       0.09585709       0.42035499       0.39337566 </v>
    <v>       0.06853641       0.66731946       0.39261350 </v>
    <v>       0.08769954       0.91512289       0.39858605 </v>
    <v>       0.33628911       0.16486015       0.39555483 </v>
    <v>       0.32681191       0.41873300       0.39725496 </v>
    <v>       0.32218957       0.66162285       0.39732657 </v>
    <v>       0.33625021       0.91367970       0.39478686 </v>
    <v>       0.58920086       0.17599355       0.38846914 </v>
    <v>       0.56861832       0.40964805       0.39695994 </v>
    <v>       0.57785852       0.67099021       0.39396103 </v>
    <v>       0.59042184       0.91587752       0.39271489 </v>
    <v>       0.83738267       0.16876817       0.39351207 </v>
    <v>       0.84217256       0.41863905       0.39414888 </v>
    <v>       0.83393593       0.67525965       0.40185235 </v>
    <v>       0.84100713       0.93034035       0.39632651 </v>
    <v>       0.14934254       0.08929568       0.60728605 </v>
    <v>       0.15735767       0.33871340       0.60417974 </v>
    <v>       0.15075420       0.57687727       0.60485610 </v>
    <v>       0.17193969       0.84225750       0.60797985 </v>
    <v>       0.41494905       0.08814189       0.60475166 </v>
    <v>       0.41850741       0.34392305       0.60472502 </v>
    <v>       0.41807153       0.57273360       0.60487637 </v>
    <v>       0.41636760       0.81624765       0.60444081 </v>
    <v>       0.65564864       0.07628577       0.60550651 </v>
    <v>       0.67438360       0.33591834       0.60524820 </v>
    <v>       0.66399334       0.57836659       0.60166239 </v>
    <v>       0.65914897       0.81960509       0.60181881 </v>
    <v>       0.90768032       0.09087309       0.60265576 </v>
    <v>       0.91008340       0.32925753       0.60102067 </v>
    <v>       0.91164948       0.57696735       0.60796255 </v>
    <v>       0.92186094       0.83724321       0.60833926 </v>
    <v>       0.00550494       0.00230124       0.49944079 </v>
    <v>       0.99783902       0.24936337       0.49232663 </v>
    <v>       0.99790160       0.50384737       0.50327723 </v>
    <v>       0.00321014       0.74686241       0.50462004 </v>
    <v>       0.25837428       0.00059735       0.50469355 </v>
    <v>       0.24303082       0.24411812       0.49863840 </v>
    <v>       0.25265430       0.50669378       0.50185138 </v>
    <v>       0.24903493       0.74882184       0.50400509 </v>
    <v>       0.50246337       0.00803710       0.49709259 </v>
    <v>       0.50081751       0.25269717       0.49881726 </v>
    <v>       0.49251928       0.49818883       0.50209082 </v>
    <v>       0.49475092       0.75147676       0.49984068 </v>
    <v>       0.75267130       0.99239480       0.49718352 </v>
    <v>       0.74846178       0.25037488       0.49797255 </v>
    <v>       0.74461619       0.50078864       0.50091412 </v>
    <v>       0.74977174       0.75699451       0.50378581 </v>
   </varray>
  </structure>
  <varray name="forces" >
   <v>       0.56697112      -0.17328577      -0.54963124 </v>
   <v>      -0.98567636       0.86809105      -0.21584926 </v>
   <v>       0.21953042       0.10426432      -0.76184075 </v>
   <v>      -0.46233921       0.51983054      -0.19049107 </v>
   <v>      -0.59834364      -0.20965937      -0.80392125 </v>
   <v>      -0.40291410       0.39608734       0.08673394 </v>
   <v>      -0.84264366      -1.09185758      -0.42073166 </v>
   <v>       0.91923603      -0.57709847      -0.98830454 </v>
   <v>      -0.59854714      -0.93574573      -0.67070395 </v>
   <v>       0.93379307       0.95808711       0.14042546 </v>
   <v>       0.25270714       0.05020889       0.84425084 </v>
   <v>      -0.41651995       0.87014198       1.20280239 </v>
   <v>      -0.87518072      -0.37256944      -0.02717583 </v>
   <v>       0.23051609       0.65361034      -0.70062354 </v>
   <v>       0.30193858       0.49970263       0.60283459 </v>
   <v>       0.00589851       1.20912766       1.91755934 </v>
   <v>      -0.34901470      -0.53614184      -0.31322167 </v>
   <v>       0.94939220       0.45208794      -0.01383836 </v>
   <v>      -0.66565940       0.04890153       0.76247936 </v>
   <v>      -0.09221117      -0.12194591       0.13882797 </v>
   <v>      -0.51085066      -0.11877702       0.34702627 </v>
   <v>      -0.38516036      -0.03406382       1.42546998 </v>
   <v>       0.48639558       0.12122641       0.33914752 </v>
   <v>      -1.25522008       0.60263839      -0.65478575 </v>
   <v>      -0.29801042       0.49466330       0.92191838 </v>
   <v>      -0.63290134      -0.34132796       0.52167465 </v>
   <v>      -0.29598993       0.34933028      -1.34076993 </v>
   <v>       0.46066520       0.12906772       0.03679869 </v>
   <v>      -0.51457781      -0.11765562       0.23123731 </v>
   <v>      -0.43969334      -0.24656561      -0.17971800 </v>
   <v>       0.34699556      -0.29929789       0.18792144 </v>
   <v>       0.71537595      -0.43632154       0.10387601 </v>
   <v>       0.32520458      -0.52281182      -0.41514777 </v>
   <v>      -0.77543854       0.10639860       0.17550917 </v>
   <v>       0.69263365       0.10124168       0.61467627 </v>
   <v>      -0.11999745       0.23944845       0.00276350 </v>
   <v>      -0.23856246      -0.28399962      -0.25618633 </v>
   <v>       0.39682236      -0.10741266      -0.43276531 </v>
   <v>       0.36494026       0.55711570      -0.40388406 </v>
   <v>      -0.08364215       0.01590013       0.30751410 </v>
   <v>       0.10279141      -0.26734278       0.54775500 </v>
   <v>       0.86055941       0.86656579      -0.56072032 </v>
   <v>       0.28997276      -0.41905013       0.20980112 </v>
   <v>      -0.48552645      -0.12691452      -0.06654658 </v>
   <v>       0.00936047       0.14633408      -0.03522256 </v>
   <v>      -0.37466672       0.21907294       0.01019799 </v>
   <v>      -0.34756260      -0.39058679      -0.45130663 </v>
   <v>       0.16598952      -0.89324022      -0.56937457 </v>
   <v>       0.90860763      -0.10118720       0.00014143 </v>
   <v>       0.64310121      -0.36309466       0.23539638 </v>
   <v>       0.85637841       0.01460428       0.45189741 </v>
   <v>       0.01871854      -0.31359213       0.33579724 </v>
   <v>       0.39692894       0.17924629       0.63485959 </v>
   <v>       0.01061986      -0.82146158       0.27252091 </v>
   <v>      -0.43243209       0.32310235      -0.06079867 </v>
   <v>      -0.23637006       1.26650543       0.65931684 </v>
   <v>       0.32577293      -0.02016940      -0.51472081 </v>
   <v>      -0.65305549      -0.22617879       0.09903646 </v>
   <v>      -0.09512233       0.05003582       0.25965063 </v>
   <v>       0.06725327       0.66688838       0.11592043 </v>
   <v>       0.33206144      -0.41383937       0.03170509 </v>
   <v>       0.37325386      -0.19700445       0.26912877 </v>
   <v>      -0.23194709       0.21174384      -0.14173619 </v>
   <v>      -0.28411188      -0.22106455      -0.51291839 </v>
   <v>      -0.28720668      -0.14423757       0.12367836 </v>
   <v>      -0.07808780       0.18147146       1.66935575 </v>
   <v>       0.35760552      -0.47943900      -0.77608371 </v>
   <v>      -0.62283177       0.50419020      -0.33629346 </v>
   <v>      -0.67317425       0.10381145      -0.35223752 </v>
   <v>       0.25192190       0.56885005       0.58021814 </v>
   <v>      -0.20934414      -0.79583211      -0.37072695 </v>
   <v>       0.19268241       0.20800021      -0.54537267 </v>
   <v>       1.05808214      -0.66136300       0.32066846 </v>
   <v>      -0.05803595      -0.26010777       0.09779836 </v>
   <v>       0.32663761      -0.13334123      -0.89153535 </v>
   <v>       0.87080421      -0.32572000      -0.28910636 </v>
   <v>      -0.80517713       0.71808641      -0.18081578 </v>
   <v>       0.49156735       0.25179314      -0.10233575 </v>
   <v>       0.42632742      -0.13625143      -0.29956745 </v>
   <v>       0.20773253      -1.58991774      -1.43928157 </v>
  </varray>
  <varray name="stress" >
   <v>       3.05227577      -0.12840692       1.57968857 </v>
   <v>      -0.12840696       3.55472106       1.79737446 </v>
   <v>       1.57968856       1.79737447       1.05784840 </v>
  </varray>
  <energy>
   <i name="e_fr_energy">   -526.40559779 </i>
   <i name="e_wo_entrp">   -526.40559779 </i>
   <i name="e_0_energy">     -0.00000000 </i>
  </energy>
  <time name="totalsc"> 1918.75 1919.84</time>
  <eigenvalues>
   <array>
    <dimension dim="1">band</dimension>
    <dimension dim="2">kpoint</dimension>
    <dimension dim="3">spin</dimension>
    <field>eigene</field>
    <field>occ</field>
    <set>
     <set comment="spin 1">
      <set comment="kpoint 1">
       <r>  -51.7227    1.0000 </r>
       <r>  -51.5838    1.0000 </r>
       <r>  -51.5609    1.0000 </r>
       <r>  -51.5396    1.0000 </r>
       <r>  -51.5289    1.0000 </r>
       <r>  -51.5233    1.0000 </r>
       <r>  -51.4819    1.0000 </r>
       <r>  -51.4708    1.0000 </r>
       <r>  -51.4623    1.0000 </r>
       <r>  -51.4486    1.0000 </r>
       <r>  -51.4367    1.0000 </r>
       <r>  -51.4244    1.0000 </r>
       <r>  -51.4227    1.0000 </r>
       <r>  -51.4070    1.0000 </r>
       <r>  -51.3898    1.0000 </r>
       <r>  -51.3829    1.0000 </r>
       <r>  -51.3633    1.0000 </r>
       <r>  -51.3624    1.0000 </r>
       <r>  -51.3440    1.0000 </r>
       <r>  -51.3244    1.0000 </r>
       <r>  -51.2958    1.0000 </r>
       <r>  -51.2884    1.0000 </r>
       <r>  -51.2651    1.0000 </r>
       <r>  -51.2508    1.0000 </r>
       <r>  -51.2394    1.0000 </r>
       <r>  -51.2302    1.0000 </r>
       <r>  -51.2119    1.0000 </r>
       <r>  -51.2033    1.0000 </r>
       <r>  -51.1930    1.0000 </r>
       <r>  -51.1784    1.0000 </r>
       <r>  -51.1618    1.0000 </r>
       <r>  -50.8799    1.0000 </r>
       <r>  -30.4086    1.0000 </r>
       <r>  -30.3876    1.0000 </r>
       <r>  -30.3526    1.0000 </r>
       <r>  -30.3085    1.0000 </r>
       <r>  -30.2973    1.0000 </r>
       <r>  -30.2862    1.0000 </r>
       <r>  -30.2723    1.0000 </r>
       <r>  -30.2663    1.0000 </r>
       <r>  -30.2619    1.0000 </r>
       <r>  -30.2509    1.0000 </r>
       <r>  -30.2449    1.0000 </r>
       <r>  -30.2417    1.0000 </r>
       <r>  -30.2374    1.0000 </r>
       <r>  -30.2321    1.0000 </r>
       <r>  -30.2206    1.0000 </r>
       <r>  -30.2184    1.0000 </r>
       <r>  -30.2153    1.0000 </r>
       <r>  -30.2079    1.0000 </r>
       <r>  -30.1997    1.0000 </r>
       <r>  -30.1959    1.0000 </r>
       <r>  -30.1909    1.0000 </r>
       <r>  -30.1875    1.0000 </r>
       <r>  -30.1834    1.0000 </r>
       <r>  -30.1735    1.0000 </r>
       <r>  -30.1636    1.0000 </r>
       <r>  -30.1555    1.0000 </r>
       <r>  -30.1513    1.0000 </r>
       <r>  -30.1480    1.0000 </r>
       <r>  -30.1403    1.0000 </r>
       <r>  -30.1395    1.0000 </r>
       <r>  -30.1330    1.0000 </r>
       <r>  -30.1232    1.0000 </r>
       <r>  -30.1188    1.0000 </r>
       <r>  -30.1112    1.0000 </r>
       <r>  -30.1095    1.0000 </r>
       <r>  -30.1045    1.0000 </r>
       <r>  -30.1003    1.0000 </r>
       <r>  -30.0909    1.0000 </r>
       <r>  -30.0831    1.0000 </r>
       <r>  -30.0771    1.0000 </r>
       <r>  -30.0725    1.0000 </r>
       <r>  -30.0616    1.0000 </r>
       <r>  -30.0572    1.0000 </r>
       <r>  -30.0489    1.0000 </r>
       <r>  -30.0398    1.0000 </r>
       <r>  -30.0350    1.0000 </r>
       <r>  -30.0294    1.0000 </r>
       <r>  -30.0270    1.0000 </r>
       <r>  -30.0215    1.0000 </r>
       <r>  -30.0154    1.0000 </r>
       <r>  -30.0147    1.0000 </r>
       <r>  -30.0099    1.0000 </r>
       <r>  -30.0028    1.0000 </r>
       <r>  -29.9982    1.0000 </r>
       <r>  -29.9893    1.0000 </r>
       <r>  -29.9826    1.0000 </r>
       <r>  -29.9763    1.0000 </r>
       <r>  -29.9740    1.0000 </r>
       <r>  -29.9588    1.0000 </r>
       <r>  -29.9567    1.0000 </r>
       <r>  -29.9506    1.0000 </r>
       <r>  -29.9489    1.0000 </r>
       <r>  -29.9395    1.0000 </r>
       <r>  -29.9368    1.0000 </r>
       <r>  -29.9323    1.0000 </r>
       <r>  -29.9307    1.0000 </r>
       <r>  -29.9260    1.0000 </r>
       <r>  -29.9168    1.0000 </r>
       <r>  -29.9113    1.0000 </r>
       <r>  -29.9096    1.0000 </r>
       <r>  -29.9034    1.0000 </r>
       <r>  -29.8965    1.0000 </r>
       <r>  -29.8948    1.0000 </r>
       <r>  -29.8853    1.0000 </r>
       <r>  -29.8762    1.0000 </r>
       <r>  -29.8732    1.0000 </r>
       <r>  -29.8687    1.0000 </r>
       <r>  -29.8573    1.0000 </r>
       <r>  -29.8545    1.0000 </r>
       <r>  -29.8484    1.0000 </r>
       <r>  -29.8438    1.0000 </r>
       <r>  -29.8397    1.0000 </r>
       <r>  -29.8362    1.0000 </r>
       <r>  -29.8333    1.0000 </r>
       <r>  -29.8285    1.0000 </r>
       <r>  -29.8196    1.0000 </r>
       <r>  -29.8122    1.0000 </r>
       <r>  -29.8035    1.0000 </r>
       <r>  -29.7981    1.0000 </r>
       <r>  -29.7948    1.0000 </r>
       <r>  -29.7882    1.0000 </r>
       <r>  -29.7829    1.0000 </r>
       <r>  -29.7748    1.0000 </r>
       <r>  -29.5827    1.0000 </r>
       <r>  -29.5444    1.0000 </r>
       <r>  -29.5309    1.0000 </r>
       <r>  -18.5399    1.0000 </r>
       <r>  -18.4841    1.0000 </r>
       <r>  -18.3660    1.0000 </r>
       <r>  -18.3577    1.0000 </r>
       <r>  -18.3362    1.0000 </r>
       <r>  -18.3055    1.0000 </r>
       <r>  -18.2612    1.0000 </r>
       <r>  -18.2370    1.0000 </r>
       <r>  -18.2115    1.0000 </r>
       <r>  -18.1906    1.0000 </r>
       <r>  -18.1802    1.0000 </r>
       <r>  -18.1761    1.0000 </r>
       <r>  -18.0980    1.0000 </r>
       <r>  -18.0853    1.0000 </r>
       <r>  -18.0501    1.0000 </r>
       <r>  -18.0159    1.0000 </r>
       <r>  -18.0064    1.0000 </r>
       <r>  -17.9581    1.0000 </r>
       <r>  -17.9256    1.0000 </r>
       <r>  -17.9142    1.0000 </r>
       <r>  -17.8978    1.0000 </r>
       <r>  -17.8794    1.0000 </r>
       <r>  -17.8451    1.0000 </r>
       <r>  -17.8262    1.0000 </r>
       <r>  -17.8110    1.0000 </r>
       <r>  -17.7694    1.0000 </r>
       <r>  -17.7658    1.0000 </r>
       <r>  -17.7437    1.0000 </r>
       <r>  -17.7289    1.0000 </r>
       <r>  -17.6322    1.0000 </r>
       <r>  -17.6263    1.0000 </r>
       <r>  -17.5639    1.0000 </r>
       <r>  -11.7505    1.0000 </r>
       <r>  -11.4401    1.0000 </r>
       <r>  -11.3780    1.0000 </r>
       <r>  -11.3244    1.0000 </r>
       <r>  -11.3090    1.0000 </r>
       <r>  -11.2705    1.0000 </r>
       <r>  -11.2690    1.0000 </r>
       <r>  -10.9620    1.0000 </r>
       <r>  -10.9257    1.0000 </r>
       <r>  -10.8677    1.0000 </r>
       <r>  -10.8619    1.0000 </r>
       <r>  -10.8316    1.0000 </r>
       <r>  -10.8004    1.0000 </r>
       <r>  -10.7711    1.0000 </r>
       <r>  -10.7388    1.0000 </r>
       <r>  -10.6919    1.0000 </r>
       <r>   -8.0083    1.0000 </r>
       <r>   -7.9792    1.0000 </r>
       <r>   -7.9481    1.0000 </r>
       <r>   -7.8048    1.0000 </r>
       <r>   -7.7588    1.0000 </r>
       <r>   -7.7389    1.0000 </r>
       <r>   -7.5843    1.0000 </r>
       <r>   -7.5461    1.0000 </r>
       <r>   -7.5214    1.0000 </r>
       <r>   -7.5128    1.0000 </r>
       <r>   -7.4599    1.0000 </r>
       <r>   -7.4406    1.0000 </r>
       <r>   -7.4281    1.0000 </r>
       <r>   -7.3968    1.0000 </r>
       <r>   -7.3727    1.0000 </r>
       <r>   -7.3624    1.0000 </r>
       <r>   -7.3344    1.0000 </r>
       <r>   -7.3013    1.0000 </r>
       <r>   -7.2808    1.0000 </r>
       <r>   -7.1103    1.0000 </r>
       <r>   -7.0681    1.0000 </r>
       <r>   -7.0555    1.0000 </r>
       <r>   -7.0319    1.0000 </r>
       <r>   -7.0134    1.0000 </r>
       <r>   -6.9911    1.0000 </r>
       <r>   -6.9629    1.0000 </r>
       <r>   -6.9279    1.0000 </r>
       <r>   -6.9076    1.0000 </r>
       <r>   -6.9029    1.0000 </r>
       <r>   -6.8838    1.0000 </r>
       <r>   -6.8464    1.0000 </r>
       <r>   -6.8324    1.0000 </r>
       <r>   -6.7982    1.0000 </r>
       <r>   -6.7926    1.0000 </r>
       <r>   -6.7750    1.0000 </r>
       <r>   -6.7621    1.0000 </r>
       <r>   -6.7530    1.0000 </r>
       <r>   -6.7321    1.0000 </r>
       <r>   -6.7106    1.0000 </r>
       <r>   -6.6929    1.0000 </r>
       <r>   -6.6737    1.0000 </r>
       <r>   -6.6602    1.0000 </r>
       <r>   -6.6445    1.0000 </r>
       <r>   -6.6265    1.0000 </r>
       <r>   -6.6065    1.0000 </r>
       <r>   -6.5988    1.0000 </r>
       <r>   -6.5935    1.0000 </r>
       <r>   -6.5754    1.0000 </r>
       <r>   -6.5688    1.0000 </r>
       <r>   -6.5532    1.0000 </r>
       <r>   -6.5464    1.0000 </r>
       <r>   -6.5427    1.0000 </r>
       <r>   -6.5371    1.0000 </r>
       <r>   -6.5251    1.0000 </r>
       <r>   -6.5010    1.0000 </r>
       <r>   -6.4700    1.0000 </r>
       <r>   -6.4621    1.0000 </r>
       <r>   -6.4535    1.0000 </r>
       <r>   -6.4394    1.0000 </r>
       <r>   -6.4339    1.0000 </r>
       <r>   -6.4297    1.0000 </r>
       <r>   -6.4259    1.0000 </r>
       <r>   -6.3967    1.0000 </r>
       <r>   -6.3850    1.0000 </r>
       <r>   -6.3695    1.0000 </r>
       <r>   -6.3447    1.0000 </r>
       <r>   -6.3232    1.0000 </r>
       <r>   -6.3114    1.0000 </r>
       <r>   -6.2873    1.0000 </r>
       <r>   -6.2850    1.0000 </r>
       <r>   -6.2491    1.0000 </r>
       <r>   -6.2216    1.0000 </r>
       <r>   -6.1891    1.0000 </r>
       <r>   -6.1434    1.0000 </r>
       <r>   -5.9215    1.0000 </r>
       <r>   -5.8883    1.0000 </r>
       <r>   -5.8179    1.0000 </r>
       <r>   -5.8115    1.0000 </r>
       <r>   -5.7792    1.0000 </r>
       <r>   -5.7300    1.0000 </r>
       <r>   -5.6941    1.0000 </r>
       <r>   -5.6386    1.0000 </r>
       <r>   -5.6307    1.0000 </r>
       <r>   -5.5989    1.0000 </r>
       <r>   -5.5271    1.0000 </r>
       <r>   -5.5042    1.0000 </r>
       <r>   -5.4925    1.0000 </r>
       <r>   -5.4847    1.0000 </r>
       <r>   -5.4771    1.0000 </r>
       <r>   -5.4201    1.0000 </r>
       <r>   -5.3863    1.0000 </r>
       <r>   -5.3654    1.0000 </r>
       <r>   -5.3247    1.0000 </r>
       <r>   -5.2499    1.0000 </r>
       <r>   -5.1523    1.0000 </r>
       <r>   -5.1356    1.0000 </r>
       <r>   -4.8191    1.0000 </r>
       <r>   -4.8004    1.0000 </r>
       <r>   -4.7236    1.0000 </r>
       <r>   -4.6068    1.0000 </r>
       <r>   -4.5562    1.0000 </r>
       <r>   -4.5411    1.0000 </r>
       <r>   -4.5042    1.0000 </r>
       <r>   -4.4978    1.0000 </r>
       <r>   -4.4763    1.0000 </r>
       <r>   -4.2037    1.0000 </r>
       <r>   -4.1701    1.0000 </r>
       <r>   -4.1101    1.0000 </r>
       <r>   -4.0842    1.0000 </r>
       <r>   -4.0557    1.0000 </r>
       <r>   -4.0508    1.0000 </r>
       <r>   -4.0156    1.0000 </r>
       <r>   -3.9848    1.0000 </r>
       <r>   -3.9674    1.0000 </r>
       <r>   -3.9468    1.0000 </r>
       <r>   -3.9321    1.0000 </r>
       <r>   -3.9163    1.0000 </r>
       <r>   -3.8938    1.0000 </r>
       <r>   -3.8715    1.0000 </r>
       <r>   -3.8193    1.0000 </r>
       <r>   -3.7575    1.0000 </r>
       <r>   -3.7303    1.0000 </r>
       <r>   -3.7215    1.0000 </r>
       <r>   -3.6932    1.0000 </r>
       <r>   -3.6723    1.0000 </r>
       <r>   -3.6405    1.0000 </r>
       <r>   -3.6197    1.0000 </r>
       <r>   -3.5820    1.0000 </r>
       <r>   -3.5666    1.0000 </r>
       <r>   -3.5495    1.0000 </r>
       <r>   -3.5191    1.0000 </r>
       <r>   -3.5073    1.0000 </r>
       <r>   -3.4978    1.0000 </r>
       <r>   -3.3932    1.0000 </r>
       <r>   -3.2929    1.0000 </r>
       <r>   -3.2614    1.0000 </r>
       <r>   -3.2553    1.0000 </r>
       <r>   -3.2239    1.0000 </r>
       <r>   -3.1749    1.0000 </r>
       <r>   -3.1581    1.0000 </r>
       <r>   -3.1179    1.0000 </r>
       <r>   -3.1130    1.0000 </r>
       <r>   -2.9505    1.0000 </r>
       <r>   -2.8751    1.0000 </r>
       <r>   -2.0630    0.0000 </r>
       <r>   -2.0294    0.0000 </r>
       <r>   -2.0172    0.0000 </r>
       <r>   -1.4676    0.0000 </r>
       <r>   -1.4241    0.0000 </r>
       <r>   -1.4092    0.0000 </r>
       <r>   -1.3755    0.0000 </r>
       <r>   -1.3388    0.0000 </r>
       <r>   -1.3136    0.0000 </r>
       <r>   -0.6446    0.0000 </r>
       <r>   -0.6093    0.0000 </r>
       <r>   -0.5799    0.0000 </r>
       <r>   -0.5397    0.0000 </r>
       <r>   -0.5134    0.0000 </r>
       <r>   -0.4934    0.0000 </r>
       <r>   -0.4686    0.0000 </r>
       <r>   -0.4593    0.0000 </r>
       <r>   -0.4258    0.0000 </r>
       <r>   -0.4056    0.0000 </r>
       <r>   -0.3903    0.0000 </r>
       <r>   -0.3517    0.0000 </r>
       <r>   -0.3415    0.0000 </r>
       <r>   -0.3048    0.0000 </r>
       <r>   -0.2329    0.0000 </r>
       <r>    0.1207    0.0000 </r>
       <r>    0.1447    0.0000 </r>
       <r>    0.1632    0.0000 </r>
       <r>    0.1778    0.0000 </r>
       <r>    0.1964    0.0000 </r>
       <r>    0.2180    0.0000 </r>
       <r>    0.2262    0.0000 </r>
       <r>    0.2709    0.0000 </r>
       <r>    0.2865    0.0000 </r>
       <r>    0.2970    0.0000 </r>
       <r>    0.3217    0.0000 </r>
       <r>    0.3716    0.0000 </r>
       <r>    0.5698    0.0000 </r>
       <r>    0.6231    0.0000 </r>
       <r>    0.6667    0.0000 </r>
       <r>    0.7168    0.0000 </r>
       <r>    0.7465    0.0000 </r>
       <r>    0.7565    0.0000 </r>
       <r>    0.7712    0.0000 </r>
       <r>    0.7805    0.0000 </r>
       <r>    0.8102    0.0000 </r>
       <r>    0.8222    0.0000 </r>
       <r>    0.8380    0.0000 </r>
       <r>    0.8517    0.0000 </r>
       <r>    0.8772    0.0000 </r>
       <r>    0.8813    0.0000 </r>
       <r>    0.9000    0.0000 </r>
       <r>    0.9063    0.0000 </r>
       <r>    0.9123    0.0000 </r>
       <r>    0.9409    0.0000 </r>
       <r>    0.9483    0.0000 </r>
       <r>    0.9550    0.0000 </r>
       <r>    0.9619    0.0000 </r>
       <r>    0.9748    0.0000 </r>
       <r>    0.9980    0.0000 </r>
       <r>    1.0117    0.0000 </r>
       <r>    1.0312    0.0000 </r>
       <r>    1.0453    0.0000 </r>
       <r>    1.0740    0.0000 </r>
       <r>    1.0874    0.0000 </r>
      </set>
      <set comment="kpoint 2">
       <r>  -51.7227    1.0000 </r>
       <r>  -51.5838    1.0000 </r>
       <r>  -51.5609    1.0000 </r>
       <r>  -51.5396    1.0000 </r>
       <r>  -51.5289    1.0000 </r>
       <r>  -51.5233    1.0000 </r>
       <r>  -51.4819    1.0000 </r>
       <r>  -51.4709    1.0000 </r>
       <r>  -51.4623    1.0000 </r>
       <r>  -51.4486    1.0000 </r>
       <r>  -51.4367    1.0000 </r>
       <r>  -51.4244    1.0000 </r>
       <r>  -51.4227    1.0000 </r>
       <r>  -51.4070    1.0000 </r>
       <r>  -51.3898    1.0000 </r>
       <r>  -51.3829    1.0000 </r>
       <r>  -51.3633    1.0000 </r>
       <r>  -51.3624    1.0000 </r>
       <r>  -51.3440    1.0000 </r>
       <r>  -51.3244    1.0000 </r>
       <r>  -51.2958    1.0000 </r>
       <r>  -51.2884    1.0000 </r>
       <r>  -51.2651    1.0000 </r>
       <r>  -51.2508    1.0000 </r>
       <r>  -51.2394    1.0000 </r>
       <r>  -51.2302    1.0000 </r>
       <r>  -51.2119    1.0000 </r>
       <r>  -51.2033    1.0000 </r>
       <r>  -51.1930    1.0000 </r>
       <r>  -51.1784    1.0000 </r>
       <r>  -51.1618    1.0000 </r>
       <r>  -50.8799    1.0000 </r>
       <r>  -30.4084    1.0000 </r>
       <r>  -30.3875    1.0000 </r>
       <r>  -30.3524    1.0000 </r>
       <r>  -30.3059    1.0000 </r>
       <r>  -30.2958    1.0000 </r>
       <r>  -30.2868    1.0000 </r>
       <r>  -30.2713    1.0000 </r>
       <r>  -30.2678    1.0000 </r>
       <r>  -30.2605    1.0000 </r>
       <r>  -30.2512    1.0000 </r>
       <r>  -30.2451    1.0000 </r>
       <r>  -30.2386    1.0000 </r>
       <r>  -30.2373    1.0000 </r>
       <r>  -30.2327    1.0000 </r>
       <r>  -30.2237    1.0000 </r>
       <r>  -30.2204    1.0000 </r>
       <r>  -30.2181    1.0000 </r>
       <r>  -30.2102    1.0000 </r>
       <r>  -30.1988    1.0000 </r>
       <r>  -30.1973    1.0000 </r>
       <r>  -30.1925    1.0000 </r>
       <r>  -30.1849    1.0000 </r>
       <r>  -30.1818    1.0000 </r>
       <r>  -30.1773    1.0000 </r>
       <r>  -30.1654    1.0000 </r>
       <r>  -30.1567    1.0000 </r>
       <r>  -30.1508    1.0000 </r>
       <r>  -30.1454    1.0000 </r>
       <r>  -30.1419    1.0000 </r>
       <r>  -30.1395    1.0000 </r>
       <r>  -30.1307    1.0000 </r>
       <r>  -30.1268    1.0000 </r>
       <r>  -30.1189    1.0000 </r>
       <r>  -30.1099    1.0000 </r>
       <r>  -30.1051    1.0000 </r>
       <r>  -30.1023    1.0000 </r>
       <r>  -30.0992    1.0000 </r>
       <r>  -30.0908    1.0000 </r>
       <r>  -30.0854    1.0000 </r>
       <r>  -30.0807    1.0000 </r>
       <r>  -30.0733    1.0000 </r>
       <r>  -30.0629    1.0000 </r>
       <r>  -30.0542    1.0000 </r>
       <r>  -30.0496    1.0000 </r>
       <r>  -30.0394    1.0000 </r>
       <r>  -30.0358    1.0000 </r>
       <r>  -30.0310    1.0000 </r>
       <r>  -30.0254    1.0000 </r>
       <r>  -30.0215    1.0000 </r>
       <r>  -30.0158    1.0000 </r>
       <r>  -30.0126    1.0000 </r>
       <r>  -30.0076    1.0000 </r>
       <r>  -30.0015    1.0000 </r>
       <r>  -29.9976    1.0000 </r>
       <r>  -29.9879    1.0000 </r>
       <r>  -29.9837    1.0000 </r>
       <r>  -29.9767    1.0000 </r>
       <r>  -29.9726    1.0000 </r>
       <r>  -29.9586    1.0000 </r>
       <r>  -29.9558    1.0000 </r>
       <r>  -29.9517    1.0000 </r>
       <r>  -29.9500    1.0000 </r>
       <r>  -29.9414    1.0000 </r>
       <r>  -29.9365    1.0000 </r>
       <r>  -29.9344    1.0000 </r>
       <r>  -29.9319    1.0000 </r>
       <r>  -29.9209    1.0000 </r>
       <r>  -29.9163    1.0000 </r>
       <r>  -29.9123    1.0000 </r>
       <r>  -29.9091    1.0000 </r>
       <r>  -29.9037    1.0000 </r>
       <r>  -29.8999    1.0000 </r>
       <r>  -29.8921    1.0000 </r>
       <r>  -29.8847    1.0000 </r>
       <r>  -29.8764    1.0000 </r>
       <r>  -29.8736    1.0000 </r>
       <r>  -29.8685    1.0000 </r>
       <r>  -29.8568    1.0000 </r>
       <r>  -29.8539    1.0000 </r>
       <r>  -29.8485    1.0000 </r>
       <r>  -29.8439    1.0000 </r>
       <r>  -29.8404    1.0000 </r>
       <r>  -29.8338    1.0000 </r>
       <r>  -29.8328    1.0000 </r>
       <r>  -29.8293    1.0000 </r>
       <r>  -29.8197    1.0000 </r>
       <r>  -29.8121    1.0000 </r>
       <r>  -29.8041    1.0000 </r>
       <r>  -29.7997    1.0000 </r>
       <r>  -29.7956    1.0000 </r>
       <r>  -29.7884    1.0000 </r>
       <r>  -29.7830    1.0000 </r>
       <r>  -29.7749    1.0000 </r>
       <r>  -29.5827    1.0000 </r>
       <r>  -29.5445    1.0000 </r>
       <r>  -29.5309    1.0000 </r>
       <r>  -18.5163    1.0000 </r>
       <r>  -18.4642    1.0000 </r>
       <r>  -18.4168    1.0000 </r>
       <r>  -18.3755    1.0000 </r>
       <r>  -18.3675    1.0000 </r>
       <r>  -18.3189    1.0000 </r>
       <r>  -18.2608    1.0000 </r>
       <r>  -18.2196    1.0000 </r>
       <r>  -18.1822    1.0000 </r>
       <r>  -18.1670    1.0000 </r>
       <r>  -18.1585    1.0000 </r>
       <r>  -18.1480    1.0000 </r>
       <r>  -18.1170    1.0000 </r>
       <r>  -18.1125    1.0000 </r>
       <r>  -18.0368    1.0000 </r>
       <r>  -18.0190    1.0000 </r>
       <r>  -17.9911    1.0000 </r>
       <r>  -17.9609    1.0000 </r>
       <r>  -17.9410    1.0000 </r>
       <r>  -17.9301    1.0000 </r>
       <r>  -17.8930    1.0000 </r>
       <r>  -17.8618    1.0000 </r>
       <r>  -17.8473    1.0000 </r>
       <r>  -17.8327    1.0000 </r>
       <r>  -17.8249    1.0000 </r>
       <r>  -17.7836    1.0000 </r>
       <r>  -17.7566    1.0000 </r>
       <r>  -17.7428    1.0000 </r>
       <r>  -17.7226    1.0000 </r>
[...]
       <r>   -32.2754     0.0000    64.0000 </r>
       <r>   -32.0817     0.0000    64.0000 </r>
       <r>   -31.8879     0.0000    64.0000 </r>
       <r>   -31.6941     0.0000    64.0000 </r>
       <r>   -31.5004     0.0000    64.0000 </r>
       <r>   -31.3066     0.0000    64.0000 </r>
       <r>   -31.1128     0.0000    64.0000 </r>
       <r>   -30.9191     0.0000    64.0000 </r>
       <r>   -30.7253     0.0000    64.0000 </r>
       <r>   -30.5315     0.0028    64.0005 </r>
       <r>   -30.3378    31.2505    70.0559 </r>
       <r>   -30.1440   260.5247   120.5373 </r>
       <r>   -29.9502   341.0878   186.6293 </r>
       <r>   -29.7565   314.5375   247.5768 </r>
       <r>   -29.5627    24.9107   252.4037 </r>
       <r>   -29.3689    18.5599   256.0000 </r>
       <r>   -29.1751     0.0000   256.0000 </r>
       <r>   -28.9814     0.0000   256.0000 </r>
       <r>   -28.7876     0.0000   256.0000 </r>
       <r>   -28.5938     0.0000   256.0000 </r>
       <r>   -28.4001     0.0000   256.0000 </r>
       <r>   -28.2063     0.0000   256.0000 </r>
       <r>   -28.0125     0.0000   256.0000 </r>
       <r>   -27.8188     0.0000   256.0000 </r>
       <r>   -27.6250     0.0000   256.0000 </r>
       <r>   -27.4312     0.0000   256.0000 </r>
       <r>   -27.2375     0.0000   256.0000 </r>
       <r>   -27.0437     0.0000   256.0000 </r>
       <r>   -26.8499     0.0000   256.0000 </r>
       <r>   -26.6562     0.0000   256.0000 </r>
       <r>   -26.4624     0.0000   256.0000 </r>
       <r>   -26.2686     0.0000   256.0000 </r>
       <r>   -26.0749     0.0000   256.0000 </r>
       <r>   -25.8811     0.0000   256.0000 </r>
       <r>   -25.6873     0.0000   256.0000 </r>
       <r>   -25.4935     0.0000   256.0000 </r>
       <r>   -25.2998     0.0000   256.0000 </r>
       <r>   -25.1060     0.0000   256.0000 </r>
       <r>   -24.9122     0.0000   256.0000 </r>
       <r>   -24.7185     0.0000   256.0000 </r>
       <r>   -24.5247     0.0000   256.0000 </r>
       <r>   -24.3309     0.0000   256.0000 </r>
       <r>   -24.1372     0.0000   256.0000 </r>
       <r>   -23.9434     0.0000   256.0000 </r>
       <r>   -23.7496     0.0000   256.0000 </r>
       <r>   -23.5559     0.0000   256.0000 </r>
       <r>   -23.3621     0.0000   256.0000 </r>
       <r>   -23.1683     0.0000   256.0000 </r>
       <r>   -22.9746     0.0000   256.0000 </r>
       <r>   -22.7808     0.0000   256.0000 </r>
       <r>   -22.5870     0.0000   256.0000 </r>
       <r>   -22.3933     0.0000   256.0000 </r>
       <r>   -22.1995     0.0000   256.0000 </r>
       <r>   -22.0057     0.0000   256.0000 </r>
       <r>   -21.8120     0.0000   256.0000 </r>
       <r>   -21.6182     0.0000   256.0000 </r>
       <r>   -21.4244     0.0000   256.0000 </r>
       <r>   -21.2306     0.0000   256.0000 </r>
       <r>   -21.0369     0.0000   256.0000 </r>
       <r>   -20.8431     0.0000   256.0000 </r>
       <r>   -20.6493     0.0000   256.0000 </r>
       <r>   -20.4556     0.0000   256.0000 </r>
       <r>   -20.2618     0.0000   256.0000 </r>
       <r>   -20.0680     0.0000   256.0000 </r>
       <r>   -19.8743     0.0000   256.0000 </r>
       <r>   -19.6805     0.0000   256.0000 </r>
       <r>   -19.4867     0.0000   256.0000 </r>
       <r>   -19.2930     0.0000   256.0000 </r>
       <r>   -19.0992     0.0000   256.0000 </r>
       <r>   -18.9054     0.0000   256.0000 </r>
       <r>   -18.7117     0.0000   256.0000 </r>
       <r>   -18.5179     5.7321   257.1107 </r>
       <r>   -18.3241    47.9143   266.3950 </r>
       <r>   -18.1304    67.6332   279.5002 </r>
       <r>   -17.9366    72.0562   293.4624 </r>
       <r>   -17.7428    88.3424   310.5803 </r>
       <r>   -17.5490    44.5888   319.2202 </r>
       <r>   -17.3553     4.0243   320.0000 </r>
       <r>   -17.1615     0.0000   320.0000 </r>
       <r>   -16.9677     0.0000   320.0000 </r>
       <r>   -16.7740     0.0000   320.0000 </r>
       <r>   -16.5802     0.0000   320.0000 </r>
       <r>   -16.3864     0.0000   320.0000 </r>
       <r>   -16.1927     0.0000   320.0000 </r>
       <r>   -15.9989     0.0000   320.0000 </r>
       <r>   -15.8051     0.0000   320.0000 </r>
       <r>   -15.6114     0.0000   320.0000 </r>
       <r>   -15.4176     0.0000   320.0000 </r>
       <r>   -15.2238     0.0000   320.0000 </r>
       <r>   -15.0301     0.0000   320.0000 </r>
       <r>   -14.8363     0.0000   320.0000 </r>
       <r>   -14.6425     0.0000   320.0000 </r>
       <r>   -14.4488     0.0000   320.0000 </r>
       <r>   -14.2550     0.0000   320.0000 </r>
       <r>   -14.0612     0.0000   320.0000 </r>
       <r>   -13.8674     0.0000   320.0000 </r>
       <r>   -13.6737     0.0000   320.0000 </r>
       <r>   -13.4799     0.0000   320.0000 </r>
       <r>   -13.2861     0.0000   320.0000 </r>
       <r>   -13.0924     0.0000   320.0000 </r>
       <r>   -12.8986     0.0000   320.0000 </r>
       <r>   -12.7048     0.0000   320.0000 </r>
       <r>   -12.5111     0.0000   320.0000 </r>
       <r>   -12.3173     0.0000   320.0000 </r>
       <r>   -12.1235     0.0000   320.0000 </r>
       <r>   -11.9298     0.0000   320.0000 </r>
       <r>   -11.7360     1.8856   320.3654 </r>
       <r>   -11.5422    16.1986   323.5041 </r>
       <r>   -11.3485    19.0991   327.2049 </r>
       <r>   -11.1547    23.9581   331.8473 </r>
       <r>   -10.9609    30.4741   337.7522 </r>
       <r>   -10.7672    45.8877   346.6438 </r>
       <r>   -10.5734    27.5852   351.9889 </r>
       <r>   -10.3796     0.0573   352.0000 </r>
       <r>   -10.1858     0.0000   352.0000 </r>
       <r>    -9.9921     0.0000   352.0000 </r>
       <r>    -9.7983     0.0000   352.0000 </r>
       <r>    -9.6045     0.0000   352.0000 </r>
       <r>    -9.4108     0.0000   352.0000 </r>
       <r>    -9.2170     0.0000   352.0000 </r>
       <r>    -9.0232     0.0000   352.0000 </r>
       <r>    -8.8295     0.0000   352.0000 </r>
       <r>    -8.6357     0.0000   352.0000 </r>
       <r>    -8.4419     0.0000   352.0000 </r>
       <r>    -8.2482     0.0000   352.0000 </r>
       <r>    -8.0544     0.1310   352.0254 </r>
       <r>    -7.8606    16.7126   355.2638 </r>
       <r>    -7.6669    40.0814   363.0303 </r>
       <r>    -7.4731    63.6938   375.3721 </r>
       <r>    -7.2793    68.4444   388.6345 </r>
       <r>    -7.0856    54.5144   399.1976 </r>
       <r>    -6.8918    72.6442   413.2738 </r>
       <r>    -6.6980   108.4945   434.2966 </r>
       <r>    -6.5043   114.3723   456.4583 </r>
       <r>    -6.3105   113.3276   478.4176 </r>
       <r>    -6.1167    61.7346   490.3798 </r>
       <r>    -5.9229    52.7054   500.5925 </r>
       <r>    -5.7292    68.2850   513.8240 </r>
       <r>    -5.5354    64.5068   526.3233 </r>
       <r>    -5.3416    53.9118   536.7697 </r>
       <r>    -5.1479    34.5188   543.4584 </r>
       <r>    -4.9541     2.7953   544.0000 </r>
       <r>    -4.7603     9.4361   545.8284 </r>
       <r>    -4.5666    46.8740   554.9111 </r>
       <r>    -4.3728    42.5698   563.1598 </r>
       <r>    -4.1790    27.6710   568.5216 </r>
       <r>    -3.9853    27.9747   573.9422 </r>
       <r>    -3.7915    65.8461   586.7011 </r>
       <r>    -3.5977   100.4587   606.1668 </r>
       <r>    -3.4040    80.6489   621.7940 </r>
       <r>    -3.2102    50.5555   631.5901 </r>
       <r>    -3.0164    33.3134   638.0452 </r>
       <r>    -2.8227     9.9844   639.9798 </r>
       <r>    -2.6289     0.1041   640.0000 </r>
       <r>    -2.4351     0.0000   640.0000 </r>
       <r>    -2.2413     0.0000   640.0000 </r>
       <r>    -2.0476     1.4040   640.2720 </r>
       <r>    -1.8538     9.0188   642.0196 </r>
       <r>    -1.6600    23.2513   646.5250 </r>
       <r>    -1.4663    11.9913   648.8485 </r>
       <r>    -1.2725    19.8533   652.6954 </r>
       <r>    -1.0787    24.1976   657.3842 </r>
       <r>    -0.8850    34.0759   663.9870 </r>
       <r>    -0.6912    10.4359   666.0091 </r>
       <r>    -0.4974    30.0498   671.8318 </r>
       <r>    -0.3037    38.0121   679.1974 </r>
       <r>    -0.1099    28.1967   684.6610 </r>
       <r>     0.0839    33.3092   691.1153 </r>
       <r>     0.2776    39.2211   698.7151 </r>
       <r>     0.4714    34.4657   705.3935 </r>
       <r>     0.6652    52.7069   715.6064 </r>
       <r>     0.8589   115.0726   737.9038 </r>
       <r>     1.0527   129.3501   762.9678 </r>
       <r>     1.2465    25.9695   767.9999 </r>
       <r>     1.4403     0.0007   768.0000 </r>
       <r>     1.6340     0.0000   768.0000 </r>
       <r>     1.8278     0.0000   768.0000 </r>
       <r>     2.0216     0.0000   768.0000 </r>
       <r>     2.2153     0.0000   768.0000 </r>
       <r>     2.4091     0.0000   768.0000 </r>
       <r>     2.6029     0.0000   768.0000 </r>
       <r>     2.7966     0.0000   768.0000 </r>
       <r>     2.9904     0.0000   768.0000 </r>
       <r>     3.1842     0.0000   768.0000 </r>
       <r>     3.3779     0.0000   768.0000 </r>
       <r>     3.5717     0.0000   768.0000 </r>
       <r>     3.7655     0.0000   768.0000 </r>
      </set>
     </set>
    </array>
   </total>
  </dos>
 </calculation>
 <structure name="finalpos" >
  <crystal>
   <varray name="basis" >
    <v>      13.79398668       0.00000000       0.00000000 </v>
    <v>      -6.89699334      11.94594288       0.00000000 </v>
    <v>       0.00000000       0.00000000      27.81022107 </v>
   </varray>
   <i name="volume">   4582.62876984 </i>
   <varray name="rec_basis" >
    <v>       0.07249536       0.04185521       0.00000000 </v>
    <v>       0.00000000       0.08371043       0.00000000 </v>
    <v>       0.00000000       0.00000000       0.03595800 </v>
   </varray>
  </crystal>
  <varray name="positions" >
   <v>       0.07840787       0.16511764       0.54574469 </v>
   <v>       0.08815575       0.41611732       0.54384098 </v>
   <v>       0.07876555       0.66460807       0.54955745 </v>
   <v>       0.08385459       0.91095081       0.54756555 </v>
   <v>       0.33997093       0.16894901       0.54687479 </v>
   <v>       0.33065917       0.41201490       0.54248500 </v>
   <v>       0.34019348       0.67100087       0.54675814 </v>
   <v>       0.33369544       0.92414545       0.54958098 </v>
   <v>       0.59821333       0.17511721       0.54455312 </v>
   <v>       0.56928486       0.40516808       0.54293535 </v>
   <v>       0.57704300       0.66187184       0.54169317 </v>
   <v>       0.58872143       0.91209211       0.53957615 </v>
   <v>       0.83927194       0.16744565       0.53940946 </v>
   <v>       0.83133520       0.41284943       0.54580415 </v>
   <v>       0.82816427       0.66221464       0.54536930 </v>
   <v>       0.82899569       0.90910406       0.53967365 </v>
   <v>       0.17515092       0.08524892       0.45922488 </v>
   <v>       0.15863658       0.32854716       0.45526974 </v>
   <v>       0.16973726       0.58757980       0.45672207 </v>
   <v>       0.17284773       0.83320284       0.45872185 </v>
   <v>       0.42861129       0.08516761       0.45412192 </v>
   <v>       0.41220488       0.32721059       0.45117145 </v>
   <v>       0.40745024       0.57998322       0.45479580 </v>
   <v>       0.41955699       0.83093057       0.45864452 </v>
   <v>       0.66900248       0.07962933       0.44902094 </v>
   <v>       0.67739521       0.33871167       0.45244006 </v>
   <v>       0.66319089       0.57683886       0.46106593 </v>
   <v>       0.66375936       0.82962385       0.45333687 </v>
   <v>       0.92680423       0.08640757       0.45311346 </v>
   <v>       0.92662611       0.34286533       0.45442562 </v>
   <v>       0.91869658       0.59040516       0.45799824 </v>
   <v>       0.91987659       0.84355636       0.45642971 </v>
   <v>       0.09003715       0.17492291       0.39565906 </v>
   <v>       0.09585709       0.42035499       0.39337566 </v>
   <v>       0.06853641       0.66731946       0.39261350 </v>
   <v>       0.08769954       0.91512289       0.39858605 </v>
   <v>       0.33628911       0.16486015       0.39555483 </v>
   <v>       0.32681191       0.41873300       0.39725496 </v>
   <v>       0.32218957       0.66162285       0.39732657 </v>
   <v>       0.33625021       0.91367970       0.39478686 </v>
   <v>       0.58920086       0.17599355       0.38846914 </v>
   <v>       0.56861832       0.40964805       0.39695994 </v>
   <v>       0.57785852       0.67099021       0.39396103 </v>
   <v>       0.59042184       0.91587752       0.39271489 </v>
   <v>       0.83738267       0.16876817       0.39351207 </v>
   <v>       0.84217256       0.41863905       0.39414888 </v>
   <v>       0.83393593       0.67525965       0.40185235 </v>
   <v>       0.84100713       0.93034035       0.39632651 </v>
   <v>       0.14934254       0.08929568       0.60728605 </v>
   <v>       0.15735767       0.33871340       0.60417974 </v>
   <v>       0.15075420       0.57687727       0.60485610 </v>
   <v>       0.17193969       0.84225750       0.60797985 </v>
   <v>       0.41494905       0.08814189       0.60475166 </v>
   <v>       0.41850741       0.34392305       0.60472502 </v>
   <v>       0.41807153       0.57273360       0.60487637 </v>
   <v>       0.41636760       0.81624765       0.60444081 </v>
   <v>       0.65564864       0.07628577       0.60550651 </v>
   <v>       0.67438360       0.33591834       0.60524820 </v>
   <v>       0.66399334       0.57836659       0.60166239 </v>
   <v>       0.65914897       0.81960509       0.60181881 </v>
   <v>       0.90768032       0.09087309       0.60265576 </v>
   <v>       0.91008340       0.32925753       0.60102067 </v>
   <v>       0.91164948       0.57696735       0.60796255 </v>
   <v>       0.92186094       0.83724321       0.60833926 </v>
   <v>       0.00550494       0.00230124       0.49944079 </v>
   <v>       0.99783902       0.24936337       0.49232663 </v>
   <v>       0.99790160       0.50384737       0.50327723 </v>
   <v>       0.00321014       0.74686241       0.50462004 </v>
   <v>       0.25837428       0.00059735       0.50469355 </v>
   <v>       0.24303082       0.24411812       0.49863840 </v>
   <v>       0.25265430       0.50669378       0.50185138 </v>
   <v>       0.24903493       0.74882184       0.50400509 </v>
   <v>       0.50246337       0.00803710       0.49709259 </v>
   <v>       0.50081751       0.25269717       0.49881726 </v>
   <v>       0.49251928       0.49818883       0.50209082 </v>
   <v>       0.49475092       0.75147676       0.49984068 </v>
   <v>       0.75267130       0.99239480       0.49718352 </v>
   <v>       0.74846178       0.25037488       0.49797255 </v>
   <v>       0.74461619       0.50078864       0.50091412 </v>
   <v>       0.74977174       0.75699451       0.50378581 </v>
  </varray>
  <varray name="velocities" >
   <v>       0.00000000       0.00000000       0.00000000 </v>
   <v>       0.00000000       0.00000000       0.00000000 </v>
   <v>       0.00000000       0.00000000       0.00000000 </v>
   <v>       0.00000000       0.00000000       0.00000000 </v>
   <v>       0.00000000       0.00000000       0.00000000 </v>
   <v>       0.00000000       0.00000000       0.00000000 </v>
   <v>       0.00000000       0.00000000       0.00000000 </v>
   <v>       0.00000000       0.00000000       0.00000000 </v>
   <v>       0.00000000       0.00000000       0.00000000 </v>
   <v>       0.00000000       0.00000000       0.00000000 </v>
   <v>       0.00000000       0.00000000       0.00000000 </v>
   <v>       0.00000000       0.00000000       0.00000000 </v>
   <v>       0.00000000       0.00000000       0.00000000 </v>
   <v>       0.00000000       0.00000000       0.00000000 </v>
   <v>       0.00000000       0.00000000       0.00000000 </v>
   <v>       0.00000000       0.00000000       0.00000000 </v>
   <v>       0.00000000       0.00000000       0.00000000 </v>
   <v>       0.00000000       0.00000000       0.00000000 </v>
   <v>       0.00000000       0.00000000       0.00000000 </v>
   <v>       0.00000000       0.00000000       0.00000000 </v>
   <v>       0.00000000       0.00000000       0.00000000 </v>
   <v>       0.00000000       0.00000000       0.00000000 </v>
   <v>       0.00000000       0.00000000       0.00000000 </v>
   <v>       0.00000000       0.00000000       0.00000000 </v>
   <v>       0.00000000       0.00000000       0.00000000 </v>
   <v>       0.00000000       0.00000000       0.00000000 </v>
   <v>       0.00000000       0.00000000       0.00000000 </v>
   <v>       0.00000000       0.00000000       0.00000000 </v>
   <v>       0.00000000       0.00000000       0.00000000 </v>
   <v>       0.00000000       0.00000000       0.00000000 </v>
   <v>       0.00000000       0.00000000       0.00000000 </v>
   <v>       0.00000000       0.00000000       0.00000000 </v>
   <v>       0.00000000       0.00000000       0.00000000 </v>
   <v>       0.00000000       0.00000000       0.00000000 </v>
   <v>       0.00000000       0.00000000       0.00000000 </v>
   <v>       0.00000000       0.00000000       0.00000000 </v>
   <v>       0.00000000       0.00000000       0.00000000 </v>
   <v>       0.00000000       0.00000000       0.00000000 </v>
   <v>       0.00000000       0.00000000       0.00000000 </v>
   <v>       0.00000000       0.00000000       0.00000000 </v>
   <v>       0.00000000       0.00000000       0.00000000 </v>
   <v>       0.00000000       0.00000000       0.00000000 </v>
   <v>       0.00000000       0.00000000       0.00000000 </v>
   <v>       0.00000000       0.00000000       0.00000000 </v>
   <v>       0.00000000       0.00000000       0.00000000 </v>
   <v>       0.00000000       0.00000000       0.00000000 </v>
   <v>       0.00000000       0.00000000       0.00000000 </v>
   <v>       0.00000000       0.00000000       0.00000000 </v>
   <v>       0.00000000       0.00000000       0.00000000 </v>
   <v>       0.00000000       0.00000000       0.00000000 </v>
   <v>       0.00000000       0.00000000       0.00000000 </v>
   <v>       0.00000000       0.00000000       0.00000000 </v>
   <v>       0.00000000       0.00000000       0.00000000 </v>
   <v>       0.00000000       0.00000000       0.00000000 </v>
   <v>       0.00000000       0.00000000       0.00000000 </v>
   <v>       0.00000000       0.00000000       0.00000000 </v>
   <v>       0.00000000       0.00000000       0.00000000 </v>
   <v>       0.00000000       0.00000000       0.00000000 </v>
   <v>       0.00000000       0.00000000       0.00000000 </v>
   <v>       0.00000000       0.00000000       0.00000000 </v>
   <v>       0.00000000       0.00000000       0.00000000 </v>
   <v>       0.00000000       0.00000000       0.00000000 </v>
   <v>       0.00000000       0.00000000       0.00000000 </v>
   <v>       0.00000000       0.00000000       0.00000000 </v>
   <v>       0.00000000       0.00000000       0.00000000 </v>
   <v>       0.00000000       0.00000000       0.00000000 </v>
   <v>       0.00000000       0.00000000       0.00000000 </v>
   <v>       0.00000000       0.00000000       0.00000000 </v>
   <v>       0.00000000       0.00000000       0.00000000 </v>
   <v>       0.00000000       0.00000000       0.00000000 </v>
   <v>       0.00000000       0.00000000       0.00000000 </v>
   <v>       0.00000000       0.00000000       0.00000000 </v>
   <v>       0.00000000       0.00000000       0.00000000 </v>
   <v>       0.00000000       0.00000000       0.00000000 </v>
   <v>       0.00000000       0.00000000       0.00000000 </v>
   <v>       0.00000000       0.00000000       0.00000000 </v>
   <v>       0.00000000       0.00000000       0.00000000 </v>
   <v>       0.00000000       0.00000000       0.00000000 </v>
   <v>       0.00000000       0.00000000       0.00000000 </v>
   <v>       0.00000000       0.00000000       0.00000000 </v>
  </varray>
 </structure>
</modeling>
