 running on   52 total cores
 distrk:  each k-point on   52 cores,    1 groups
 distr:  one band on   13 cores,    4 groups
 using from now: INCAR     
 vasp.5.4.4.18Apr17-6-g9f103f2a35 (build Oct 31 2019 15:01:46) complex          
  
 POSCAR found type information on POSCAR  Ca Si O 
 POSCAR found :  3 types and     135 ions
 scaLAPACK is switched off
 LDA part: xc-table for Pade appr. of Perdew
 generate k-points for:    2    2    2
 POSCAR, INCAR and KPOINTS ok, starting setup
 FFT: planning ...
 WAVECAR not read
 entering main loop
       N       E                     dE             d eps       ncg     rms          rms(c)
DAV:   1     0.923149003708E+04    0.92315E+04   -0.45747E+05  8320   0.172E+03
DAV:   2     0.347419503607E+02   -0.91967E+04   -0.89266E+04 10352   0.445E+02
DAV:   3    -0.101024379819E+04   -0.10450E+04   -0.10380E+04 10312   0.151E+02
DAV:   4    -0.105689109014E+04   -0.46647E+02   -0.46463E+02 10992   0.317E+01
DAV:   5    -0.106339506276E+04   -0.65040E+01   -0.65008E+01 15464   0.683E+00    0.867E+01
DAV:   6    -0.892697919120E+03    0.17070E+03   -0.84055E+02 10408   0.433E+01    0.414E+01
DAV:   7    -0.897995729312E+03   -0.52978E+01   -0.13659E+02 10848   0.161E+01    0.249E+01
DAV:   8    -0.888246622853E+03    0.97491E+01   -0.27214E+01 12000   0.973E+00    0.135E+01
DAV:   9    -0.892917377596E+03   -0.46708E+01   -0.23482E+01  9744   0.626E+00    0.312E+01
DAV:  10    -0.888692127704E+03    0.42252E+01   -0.78524E+00  9776   0.217E+00    0.179E+01
DAV:  11    -0.888048557307E+03    0.64357E+00   -0.81655E+00 11824   0.233E+00    0.572E+00
DAV:  12    -0.887984021770E+03    0.64536E-01   -0.17303E+00 10144   0.194E+00    0.489E+00
DAV:  13    -0.887662802527E+03    0.32122E+00   -0.60980E-01 11112   0.117E+00    0.361E+00
DAV:  14    -0.887633789969E+03    0.29013E-01   -0.12828E-01 11144   0.632E-01    0.342E+00
DAV:  15    -0.887441547879E+03    0.19224E+00   -0.13193E-01 10280   0.688E-01    0.263E+00
DAV:  16    -0.887359416675E+03    0.82131E-01   -0.69884E-02 11008   0.470E-01    0.227E+00
DAV:  17    -0.887279588585E+03    0.79828E-01   -0.34130E-02 11368   0.334E-01    0.191E+00
DAV:  18    -0.887213707854E+03    0.65881E-01   -0.25642E-02 10920   0.275E-01    0.149E+00
DAV:  19    -0.887195488864E+03    0.18219E-01   -0.93018E-03 11104   0.131E-01    0.132E+00
DAV:  20    -0.887187728683E+03    0.77602E-02   -0.12889E-03 12872   0.534E-02    0.125E+00
DAV:  21    -0.887159702069E+03    0.28027E-01   -0.46225E-02 10200   0.238E-01    0.100E+00
DAV:  22    -0.887165459756E+03   -0.57577E-02   -0.60302E-03 10400   0.849E-02    0.209E+00
DAV:  23    -0.887161103553E+03    0.43562E-02   -0.25116E-03 12504   0.845E-02    0.196E+00
DAV:  24    -0.887178236086E+03   -0.17133E-01   -0.50033E-03 10456   0.115E-01    0.393E+00
DAV:  25    -0.887175230958E+03    0.30051E-02   -0.10984E-03  9624   0.526E-02    0.403E+00
DAV:  26    -0.887163306725E+03    0.11924E-01   -0.91945E-04 11816   0.479E-02    0.304E+00
DAV:  27    -0.887158909844E+03    0.43969E-02   -0.27413E-03 11144   0.103E-01    0.230E+00
DAV:  28    -0.887149180766E+03    0.97291E-02   -0.89268E-03 11008   0.108E-01    0.431E-01
DAV:  29    -0.887154651558E+03   -0.54708E-02   -0.64742E-03 10088   0.745E-02    0.124E+00
DAV:  30    -0.887151937514E+03    0.27140E-02   -0.59959E-04  9848   0.294E-02    0.821E-01
DAV:  31    -0.887150511334E+03    0.14262E-02   -0.14681E-03 10216   0.463E-02    0.390E-01
DAV:  32    -0.887149804663E+03    0.70667E-03   -0.11450E-03  9888   0.541E-02    0.135E-01
DAV:  33    -0.887149746815E+03    0.57849E-04   -0.55328E-04 10208   0.390E-02    0.674E-02
DAV:  34    -0.887149727899E+03    0.18916E-04   -0.22435E-04 10640   0.196E-02    0.508E-02
DAV:  35    -0.887149717673E+03    0.10226E-04   -0.10242E-04 10136   0.155E-02    0.721E-02
DAV:  36    -0.887149703969E+03    0.13704E-04   -0.70523E-05 10472   0.727E-03    0.337E-02
DAV:  37    -0.887149695171E+03    0.87978E-05   -0.19710E-05  9488   0.697E-03    0.113E-02
DAV:  38    -0.887149699112E+03   -0.39407E-05   -0.13519E-05  8856   0.560E-03    0.339E-02
DAV:  39    -0.887149694210E+03    0.49014E-05   -0.40549E-06  6712   0.270E-03    0.122E-02
DAV:  40    -0.887149694150E+03    0.60099E-07   -0.63711E-07  5608   0.143E-03
   1 F= -.88714969E+03 E0= -.88714164E+03  d E =-.161087E-01
