 running on   52 total cores
 distrk:  each k-point on   52 cores,    1 groups
 distr:  one band on   13 cores,    4 groups
 using from now: INCAR     
 vasp.5.4.4.18Apr17-6-g9f103f2a35 (build Oct 31 2019 15:01:46) complex          
  
 POSCAR found type information on POSCAR  Sc Cl C 
 POSCAR found :  3 types and      80 ions
 scaLAPACK is switched off
 LDA part: xc-table for Pade appr. of Perdew
 generate k-points for:    3    3    1
 POSCAR, INCAR and KPOINTS ok, starting setup
 FFT: planning ...
 WAVECAR not read
 entering main loop
       N       E                     dE             d eps       ncg     rms          rms(c)
DAV:   1     0.121859424212E+05    0.12186E+05   -0.26796E+05  4416   0.152E+03
DAV:   2     0.173065681195E+04   -0.10455E+05   -0.10188E+05  5176   0.522E+02
DAV:   3    -0.409964400590E+03   -0.21406E+04   -0.20567E+04  6800   0.283E+02
DAV:   4    -0.645579673592E+03   -0.23562E+03   -0.23071E+03  6104   0.989E+01
DAV:   5    -0.655898058834E+03   -0.10318E+02   -0.10268E+02  6072   0.278E+01    0.691E+01
DAV:   6    -0.525627975354E+03    0.13027E+03   -0.69618E+02  5832   0.494E+01    0.299E+01
DAV:   7    -0.530316343967E+03   -0.46884E+01   -0.84774E+01  5880   0.224E+01    0.151E+01
DAV:   8    -0.528127713244E+03    0.21886E+01   -0.94796E+00  6000   0.695E+00    0.912E+00
DAV:   9    -0.527604625719E+03    0.52309E+00   -0.35158E+00  5376   0.376E+00    0.299E+00
DAV:  10    -0.527485751361E+03    0.11887E+00   -0.57732E-01  5728   0.196E+00    0.170E+00
DAV:  11    -0.527465332870E+03    0.20418E-01   -0.17201E-01  5688   0.796E-01    0.741E-01
DAV:  12    -0.527452088007E+03    0.13245E-01   -0.29977E-02  6096   0.477E-01    0.286E-01
DAV:  13    -0.527449214507E+03    0.28735E-02   -0.80607E-03  5336   0.247E-01    0.171E-01
DAV:  14    -0.527447676400E+03    0.15381E-02   -0.62511E-03  5432   0.152E-01    0.170E-01
DAV:  15    -0.527449227357E+03   -0.15510E-02   -0.17519E-03  5480   0.914E-02    0.104E-01
DAV:  16    -0.527451471029E+03   -0.22437E-02   -0.10069E-03  5952   0.553E-02    0.580E-02
DAV:  17    -0.527455207920E+03   -0.37369E-02   -0.77850E-04  5016   0.502E-02    0.332E-02
DAV:  18    -0.527457151919E+03   -0.19440E-02   -0.25257E-04  4888   0.276E-02    0.230E-02
DAV:  19    -0.527458373363E+03   -0.12214E-02   -0.11121E-04  5320   0.184E-02    0.153E-02
DAV:  20    -0.527459456401E+03   -0.10830E-02   -0.33363E-05  4576   0.125E-02    0.102E-02
DAV:  21    -0.527459898165E+03   -0.44176E-03   -0.12706E-05  3984   0.637E-03    0.709E-03
DAV:  22    -0.527460373519E+03   -0.47535E-03   -0.53718E-06  3448   0.427E-03    0.416E-03
DAV:  23    -0.527460866077E+03   -0.49256E-03   -0.14269E-05  3432   0.456E-03    0.305E-03
DAV:  24    -0.527460977489E+03   -0.11141E-03   -0.24873E-06  3552   0.289E-03    0.268E-03
DAV:  25    -0.527461077691E+03   -0.10020E-03   -0.24953E-06  3216   0.242E-03    0.188E-03
DAV:  26    -0.527461127632E+03   -0.49940E-04   -0.10195E-06  3000   0.191E-03    0.143E-03
DAV:  27    -0.527461137750E+03   -0.10118E-04   -0.28018E-07  2640   0.172E-03    0.798E-04
DAV:  28    -0.527461148297E+03   -0.10547E-04   -0.30577E-07  2624   0.111E-03    0.432E-04
DAV:  29    -0.527461160108E+03   -0.11811E-04   -0.28736E-07  2680   0.133E-03    0.404E-04
DAV:  30    -0.527461167086E+03   -0.69783E-05   -0.35478E-07  2752   0.121E-03    0.373E-04
DAV:  31    -0.527461168083E+03   -0.99676E-06   -0.17123E-07  2400   0.114E-03
   1 F= -.52746117E+03 E0= -.52746117E+03  d E =-.197516E-21
