<?xml version="1.0" encoding="ISO-8859-1"?>
<modeling>
 <generator>
  <i name="program" type="string">vasp </i>
  <i name="version" type="string">5.4.4.18Apr17-6-g9f103f2a35  </i>
  <i name="subversion" type="string">(build Mar 16 2023 09:39:13) complex            parallel </i>
  <i name="platform" type="string">LinuxIFC </i>
  <i name="date" type="string">2024 04 30 </i>
  <i name="time" type="string">16:44:23 </i>
 </generator>
 <incar>
  <i type="int" name="ISTART">     0</i>
  <i type="string" name="PREC">a</i>
  <i type="logical" name="ADDGRID"> T  </i>
  <i type="int" name="IBRION">    -1</i>
  <i name="EDIFF">      0.00000100</i>
  <i name="EDIFFG">     -0.01000000</i>
  <i type="int" name="NSW">     1</i>
  <i type="int" name="ISIF">     2</i>
  <i type="int" name="ISYM">     0</i>
  <i name="ENCUT">    600.00000000</i>
  <i name="POTIM">      1.00000000</i>
  <i type="string" name="LREAL">  A</i>
  <i type="int" name="ISMEAR">     0</i>
  <i name="SIGMA">      0.05000000</i>
  <i name="KSPACING">      0.30000000</i>
  <i type="logical" name="KGAMMA"> T  </i>
  <i type="logical" name="LWAVE"> F  </i>
  <i type="logical" name="LCHARG"> F  </i>
  <i type="logical" name="LSCALAPACK"> F  </i>
  <v type="int" name="KPOINT_BSE">    -1     0     0     0</v>
 </incar>
 <structure name="primitive_cell" >
  <crystal>
   <varray name="basis" >
    <v>      12.52607000       0.00000000       0.00000000 </v>
    <v>       0.00000000      12.52607000       0.00000000 </v>
    <v>       0.00000000       0.00000000      12.52607000 </v>
   </varray>
   <i name="volume">   1965.37081690 </i>
   <varray name="rec_basis" >
    <v>       0.07983350       0.00000000       0.00000000 </v>
    <v>       0.00000000       0.07983350       0.00000000 </v>
    <v>       0.00000000       0.00000000       0.07983350 </v>
   </varray>
  </crystal>
  <varray name="positions" >
   <v>      -0.25002875      -0.45515283      -0.22581631 </v>
   <v>      -0.41223079      -0.49436362      -0.26921095 </v>
   <v>      -0.18984846      -0.30906592      -0.30831918 </v>
   <v>      -0.24653009      -0.27968797      -0.14396578 </v>
   <v>      -0.24896870       0.47352827      -0.42861351 </v>
   <v>      -0.06127029       0.47463158      -0.13685048 </v>
   <v>      -0.27707629      -0.31300070      -0.02639774 </v>
   <v>      -0.35993085      -0.43030267      -0.00064019 </v>
   <v>      -0.49560395      -0.38670713      -0.24969651 </v>
   <v>      -0.44009270      -0.27860332      -0.21737423 </v>
   <v>      -0.28815236       0.31739328      -0.09405229 </v>
   <v>      -0.06083879      -0.45148356      -0.02530239 </v>
   <v>      -0.35459256      -0.34329969      -0.45627163 </v>
   <v>      -0.14968507      -0.34285158       0.02374866 </v>
   <v>      -0.21337374       0.25454526      -0.24577400 </v>
   <v>      -0.08606765      -0.22790941      -0.32134937 </v>
   <v>      -0.33265972       0.29560283      -0.37200492 </v>
   <v>      -0.47327193       0.41191919      -0.07330574 </v>
   <v>      -0.00825282       0.48970084      -0.39729472 </v>
   <v>      -0.09527749       0.43511241      -0.47419686 </v>
   <v>      -0.13950303       0.32329523      -0.42337698 </v>
   <v>      -0.33408742      -0.13993781      -0.23136731 </v>
   <v>      -0.33651278       0.36533418      -0.48490395 </v>
   <v>       0.02778252      -0.35680818      -0.07605885 </v>
   <v>       0.47937805       0.38952925      -0.33866428 </v>
   <v>      -0.04429790      -0.19661544      -0.19046061 </v>
   <v>       0.45728615      -0.41782013      -0.37881891 </v>
   <v>      -0.42492745       0.45709731       0.04357925 </v>
   <v>       0.42060222      -0.41729857      -0.16101907 </v>
   <v>      -0.42643686       0.28293611      -0.10194767 </v>
   <v>      -0.05553919       0.26825083      -0.16050790 </v>
   <v>      -0.23068519      -0.31775499       0.44000838 </v>
   <v>      -0.04418277       0.46643420       0.06495765 </v>
   <v>      -0.34096406      -0.20634495       0.02504809 </v>
   <v>      -0.12643187       0.29727291       0.01948862 </v>
   <v>       0.07070407       0.36722190      -0.16515115 </v>
   <v>       0.00912376      -0.24648098      -0.40573242 </v>
   <v>      -0.49034701       0.25349807      -0.19967972 </v>
   <v>       0.04678570      -0.24079397      -0.11910945 </v>
   <v>      -0.05182208      -0.36185028       0.45854028 </v>
   <v>      -0.14582757      -0.10735047      -0.35850469 </v>
   <v>      -0.33252962       0.39375546       0.12124713 </v>
   <v>      -0.46008053       0.38475914       0.46932365 </v>
   <v>      -0.08587864       0.46259938       0.41120962 </v>
   <v>      -0.27434152       0.29382494       0.42439233 </v>
   <v>       0.15078824      -0.36920846      -0.36015380 </v>
   <v>      -0.49374645      -0.20461671      -0.49980046 </v>
   <v>       0.33249628       0.43023363      -0.11998514 </v>
   <v>       0.45816547      -0.49006456       0.10978205 </v>
   <v>      -0.35283333      -0.43455601       0.33953604 </v>
   <v>       0.38426489      -0.31493734      -0.44654632 </v>
   <v>       0.19358025       0.44953753      -0.29230166 </v>
   <v>       0.33451368       0.34781836      -0.28951973 </v>
   <v>      -0.45389403       0.18731888      -0.01034093 </v>
   <v>       0.02471880      -0.13530899      -0.02711809 </v>
   <v>      -0.40076862      -0.03156555      -0.09124188 </v>
   <v>      -0.25237585      -0.35294102       0.31572394 </v>
   <v>      -0.32304860      -0.05984458       0.02098912 </v>
   <v>      -0.19274235      -0.04533527       0.01348163 </v>
   <v>      -0.15315754      -0.38764832       0.23757924 </v>
   <v>      -0.13436629      -0.21836399       0.17627915 </v>
   <v>      -0.06579250       0.10170919      -0.29753615 </v>
   <v>      -0.00137843       0.13036826      -0.17021257 </v>
   <v>       0.36598658      -0.19741226      -0.07268750 </v>
   <v>      -0.27217096       0.03873292      -0.25542518 </v>
   <v>       0.17872079      -0.21887897      -0.14540339 </v>
   <v>       0.00677861      -0.41461713       0.19694468 </v>
   <v>      -0.44194864       0.07860967      -0.22354003 </v>
   <v>      -0.23797618       0.39077164       0.25514502 </v>
   <v>       0.02184624       0.19879977      -0.47609760 </v>
   <v>      -0.16712122       0.03138629      -0.34196971 </v>
   <v>       0.47802179      -0.03432937      -0.34978797 </v>
   <v>       0.48318055      -0.45220246       0.32759945 </v>
   <v>      -0.36958203      -0.03695613       0.48647608 </v>
   <v>      -0.05884662      -0.03880439       0.02579088 </v>
   <v>       0.13714296      -0.13282154      -0.37135171 </v>
   <v>       0.35969662      -0.36638473       0.43509953 </v>
   <v>      -0.18784520       0.08261837      -0.46907536 </v>
   <v>      -0.49467653      -0.06169630      -0.47886394 </v>
   <v>       0.13302373      -0.27793423       0.44998605 </v>
   <v>       0.33381459       0.37856395       0.06192199 </v>
   <v>      -0.18753731      -0.05568420       0.42666294 </v>
   <v>       0.23377006       0.35127139      -0.37110982 </v>
   <v>      -0.15297725       0.13839212       0.12195785 </v>
   <v>       0.12652979       0.15231631      -0.18456772 </v>
   <v>       0.29815685      -0.31208781       0.04565999 </v>
   <v>       0.38572370       0.32617324       0.42974651 </v>
   <v>       0.27219076      -0.25426580      -0.40809824 </v>
   <v>      -0.29965444      -0.22648007       0.27608645 </v>
   <v>      -0.48094164       0.23122855       0.17777090 </v>
   <v>      -0.02126249       0.31119433       0.23026559 </v>
   <v>       0.36714092       0.44347112       0.17328011 </v>
   <v>       0.22171304       0.28684704      -0.05871601 </v>
   <v>      -0.01902958       0.05292810      -0.05438708 </v>
   <v>       0.17244324      -0.46717701       0.38929727 </v>
   <v>       0.19767709       0.21997168      -0.37987091 </v>
   <v>      -0.00234301      -0.25435964       0.29529254 </v>
   <v>      -0.32932371       0.12087432       0.38901271 </v>
   <v>      -0.31275350       0.19541737       0.23287344 </v>
   <v>       0.24744695       0.40703422      -0.49287431 </v>
   <v>      -0.34486765      -0.00202326       0.13445641 </v>
   <v>       0.09132020       0.26041942       0.38318254 </v>
   <v>       0.11838989       0.46635692       0.23196045 </v>
   <v>       0.42197168      -0.26524375       0.23097927 </v>
   <v>       0.31471302      -0.32428336       0.17295735 </v>
   <v>       0.35923624       0.08694303      -0.16453723 </v>
   <v>      -0.24769550       0.08520915       0.17821175 </v>
   <v>      -0.02316666      -0.02381503       0.15126167 </v>
   <v>       0.39845156       0.15661988       0.44722881 </v>
   <v>      -0.45272425      -0.13238206       0.26232836 </v>
   <v>       0.37713657      -0.04284265       0.05735727 </v>
   <v>       0.12604001      -0.22512660       0.32922977 </v>
   <v>       0.31478717       0.11796449      -0.38948860 </v>
   <v>       0.31382698      -0.45509522       0.23116222 </v>
   <v>       0.23801727       0.26639440       0.06982015 </v>
   <v>       0.09421344       0.33459699       0.27132776 </v>
   <v>       0.38184601       0.36144248       0.26644637 </v>
   <v>       0.19295047      -0.09927340       0.08549797 </v>
   <v>       0.41084699      -0.03345508       0.41752365 </v>
   <v>       0.01462257       0.00320188       0.39839911 </v>
   <v>       0.21816929      -0.00491290      -0.29097547 </v>
   <v>       0.22152421      -0.01804350      -0.06920126 </v>
   <v>       0.19364943       0.26465334       0.18206873 </v>
   <v>       0.34255545       0.05791776      -0.02202371 </v>
   <v>       0.29022658       0.14880352       0.05962737 </v>
   <v>       0.21751056       0.06424245      -0.18549008 </v>
   <v>       0.15930662       0.01736209      -0.47241119 </v>
   <v>       0.20608632      -0.26524937       0.23164907 </v>
   <v>      -0.18782772       0.00864383       0.27395212 </v>
   <v>      -0.05897407       0.11564137       0.27280663 </v>
   <v>       0.13987340      -0.00509728       0.40782744 </v>
   <v>       0.16619433      -0.10648842       0.31552214 </v>
   <v>      -0.49994618       0.09440963       0.28252239 </v>
   <v>       0.37420615       0.07250349       0.35357732 </v>
   <v>       0.23154594       0.06833163       0.33273745 </v>
  </varray>
 </structure>
 <varray name="primitive_index" >
  <v type="int" >        1 </v>
  <v type="int" >       80 </v>
  <v type="int" >       91 </v>
  <v type="int" >      110 </v>
  <v type="int" >      114 </v>
  <v type="int" >      104 </v>
  <v type="int" >       45 </v>
  <v type="int" >      103 </v>
  <v type="int" >       30 </v>
  <v type="int" >       56 </v>
  <v type="int" >       77 </v>
  <v type="int" >       54 </v>
  <v type="int" >       20 </v>
  <v type="int" >      128 </v>
  <v type="int" >       22 </v>
  <v type="int" >       42 </v>
  <v type="int" >       74 </v>
  <v type="int" >      117 </v>
  <v type="int" >       57 </v>
  <v type="int" >       31 </v>
  <v type="int" >       70 </v>
  <v type="int" >        2 </v>
  <v type="int" >       40 </v>
  <v type="int" >       95 </v>
  <v type="int" >       13 </v>
  <v type="int" >      122 </v>
  <v type="int" >       84 </v>
  <v type="int" >       37 </v>
  <v type="int" >       64 </v>
  <v type="int" >       41 </v>
  <v type="int" >      120 </v>
  <v type="int" >       58 </v>
  <v type="int" >       55 </v>
  <v type="int" >       63 </v>
  <v type="int" >       18 </v>
  <v type="int" >       23 </v>
  <v type="int" >       60 </v>
  <v type="int" >       88 </v>
  <v type="int" >       34 </v>
  <v type="int" >       11 </v>
  <v type="int" >       81 </v>
  <v type="int" >       87 </v>
  <v type="int" >      129 </v>
  <v type="int" >      116 </v>
  <v type="int" >      100 </v>
  <v type="int" >       16 </v>
  <v type="int" >       90 </v>
  <v type="int" >       26 </v>
  <v type="int" >       93 </v>
  <v type="int" >       96 </v>
  <v type="int" >       33 </v>
  <v type="int" >      121 </v>
  <v type="int" >      123 </v>
  <v type="int" >       61 </v>
  <v type="int" >       83 </v>
  <v type="int" >      112 </v>
  <v type="int" >       52 </v>
  <v type="int" >       29 </v>
  <v type="int" >      125 </v>
  <v type="int" >       94 </v>
  <v type="int" >       19 </v>
  <v type="int" >       85 </v>
  <v type="int" >       48 </v>
  <v type="int" >       27 </v>
  <v type="int" >       79 </v>
  <v type="int" >      133 </v>
  <v type="int" >        5 </v>
  <v type="int" >       17 </v>
  <v type="int" >       10 </v>
  <v type="int" >        6 </v>
  <v type="int" >       43 </v>
  <v type="int" >      113 </v>
  <v type="int" >       21 </v>
  <v type="int" >       75 </v>
  <v type="int" >       28 </v>
  <v type="int" >        4 </v>
  <v type="int" >       89 </v>
  <v type="int" >      109 </v>
  <v type="int" >       36 </v>
  <v type="int" >       99 </v>
  <v type="int" >      101 </v>
  <v type="int" >       25 </v>
  <v type="int" >       38 </v>
  <v type="int" >       86 </v>
  <v type="int" >      134 </v>
  <v type="int" >      126 </v>
  <v type="int" >        9 </v>
  <v type="int" >       62 </v>
  <v type="int" >      135 </v>
  <v type="int" >        3 </v>
  <v type="int" >       97 </v>
  <v type="int" >       51 </v>
  <v type="int" >       65 </v>
  <v type="int" >      124 </v>
  <v type="int" >        7 </v>
  <v type="int" >       71 </v>
  <v type="int" >      131 </v>
  <v type="int" >       24 </v>
  <v type="int" >       72 </v>
  <v type="int" >       59 </v>
  <v type="int" >      132 </v>
  <v type="int" >      119 </v>
  <v type="int" >       92 </v>
  <v type="int" >      111 </v>
  <v type="int" >       35 </v>
  <v type="int" >      127 </v>
  <v type="int" >       46 </v>
  <v type="int" >      105 </v>
  <v type="int" >      118 </v>
  <v type="int" >       15 </v>
  <v type="int" >       67 </v>
  <v type="int" >       44 </v>
  <v type="int" >       12 </v>
  <v type="int" >       73 </v>
  <v type="int" >       53 </v>
  <v type="int" >       32 </v>
  <v type="int" >      106 </v>
  <v type="int" >        8 </v>
  <v type="int" >      130 </v>
  <v type="int" >       68 </v>
  <v type="int" >       69 </v>
  <v type="int" >      107 </v>
  <v type="int" >      102 </v>
  <v type="int" >       39 </v>
  <v type="int" >       82 </v>
  <v type="int" >       47 </v>
  <v type="int" >       66 </v>
  <v type="int" >      115 </v>
  <v type="int" >       98 </v>
  <v type="int" >       14 </v>
  <v type="int" >       49 </v>
  <v type="int" >       78 </v>
  <v type="int" >      108 </v>
  <v type="int" >       50 </v>
  <v type="int" >       76 </v>
 </varray>
 <kpoints>
  <generation param="Gamma">
   <v type="int" name="divisions">       2        2        2 </v>
   <v name="usershift">      0.00000000       0.00000000       0.00000000 </v>
   <v name="genvec1">      0.50000000       0.00000000       0.00000000 </v>
   <v name="genvec2">      0.00000000       0.50000000       0.00000000 </v>
   <v name="genvec3">      0.00000000       0.00000000       0.50000000 </v>
   <v name="shift">      0.00000000       0.00000000       0.00000000 </v>
  </generation>
  <varray name="kpointlist" >
   <v>       0.00000000       0.00000000       0.00000000 </v>
   <v>       0.50000000       0.00000000       0.00000000 </v>
   <v>       0.00000000       0.50000000       0.00000000 </v>
   <v>       0.50000000       0.50000000       0.00000000 </v>
   <v>       0.00000000       0.00000000       0.50000000 </v>
   <v>       0.50000000       0.00000000       0.50000000 </v>
   <v>       0.00000000       0.50000000       0.50000000 </v>
   <v>       0.50000000       0.50000000       0.50000000 </v>
  </varray>
  <varray name="weights" >
   <v>       0.12500000 </v>
   <v>       0.12500000 </v>
   <v>       0.12500000 </v>
   <v>       0.12500000 </v>
   <v>       0.12500000 </v>
   <v>       0.12500000 </v>
   <v>       0.12500000 </v>
   <v>       0.12500000 </v>
  </varray>
 </kpoints>
 <parameters>
  <separator name="general" >
   <i type="string" name="SYSTEM">unknown system</i>
   <i type="logical" name="LCOMPAT"> F  </i>
  </separator>
  <separator name="electronic" >
   <i type="string" name="PREC">a</i>
   <i name="ENMAX">    600.00000000</i>
   <i name="ENAUG">    605.39200000</i>
   <i name="EDIFF">      0.00000100</i>
   <i type="int" name="IALGO">    38</i>
   <i type="int" name="IWAVPR">    10</i>
   <i type="int" name="NBANDS">   520</i>
   <i name="NELECT">    864.00000000</i>
   <i type="int" name="TURBO">     0</i>
   <i type="int" name="IRESTART">     0</i>
   <i type="int" name="NREBOOT">     0</i>
   <i type="int" name="NMIN">     0</i>
   <i name="EREF">      0.00000000</i>
   <separator name="electronic smearing" >
    <i type="int" name="ISMEAR">     0</i>
    <i name="SIGMA">      0.05000000</i>
    <i name="KSPACING">      0.30000000</i>
    <i type="logical" name="KGAMMA"> T  </i>
   </separator>
   <separator name="electronic projectors" >
    <i type="logical" name="LREAL"> T  </i>
    <v name="ROPT">     -0.00025000     -0.00025000     -0.00025000</v>
    <i type="int" name="LMAXPAW">  -100</i>
    <i type="int" name="LMAXMIX">     2</i>
    <i type="logical" name="NLSPLINE"> F  </i>
   </separator>
   <separator name="electronic startup" >
    <i type="int" name="ISTART">     0</i>
    <i type="int" name="ICHARG">     2</i>
    <i type="int" name="INIWAV">     1</i>
   </separator>
   <separator name="electronic spin" >
    <i type="int" name="ISPIN">     1</i>
    <i type="logical" name="LNONCOLLINEAR"> F  </i>
    <v name="MAGMOM">      1.00000000      1.00000000      1.00000000      1.00000000      1.00000000      1.00000000      1.00000000      1.00000000      1.00000000      1.00000000      1.00000000      1.00000000      1.00000000      1.00000000      1.00000000      1.00000000      1.00000000      1.00000000      1.00000000      1.00000000
      1.00000000      1.00000000      1.00000000      1.00000000      1.00000000      1.00000000      1.00000000      1.00000000      1.00000000      1.00000000      1.00000000      1.00000000      1.00000000      1.00000000      1.00000000      1.00000000      1.00000000      1.00000000      1.00000000      1.00000000
      1.00000000      1.00000000      1.00000000      1.00000000      1.00000000      1.00000000      1.00000000      1.00000000      1.00000000      1.00000000      1.00000000      1.00000000      1.00000000      1.00000000      1.00000000      1.00000000      1.00000000      1.00000000      1.00000000      1.00000000
      1.00000000      1.00000000      1.00000000      1.00000000      1.00000000      1.00000000      1.00000000      1.00000000      1.00000000      1.00000000      1.00000000      1.00000000      1.00000000      1.00000000      1.00000000      1.00000000      1.00000000      1.00000000      1.00000000      1.00000000
      1.00000000      1.00000000      1.00000000      1.00000000      1.00000000      1.00000000      1.00000000      1.00000000      1.00000000      1.00000000      1.00000000      1.00000000      1.00000000      1.00000000      1.00000000      1.00000000      1.00000000      1.00000000      1.00000000      1.00000000
      1.00000000      1.00000000      1.00000000      1.00000000      1.00000000      1.00000000      1.00000000      1.00000000      1.00000000      1.00000000      1.00000000      1.00000000      1.00000000      1.00000000      1.00000000      1.00000000      1.00000000      1.00000000      1.00000000      1.00000000
      1.00000000      1.00000000      1.00000000      1.00000000      1.00000000      1.00000000      1.00000000      1.00000000      1.00000000      1.00000000      1.00000000      1.00000000      1.00000000      1.00000000      1.00000000</v>
    <i name="NUPDOWN">     -1.00000000</i>
    <i type="logical" name="LSORBIT"> F  </i>
    <v name="SAXIS">      0.00000000      0.00000000      1.00000000</v>
    <i type="logical" name="LSPIRAL"> F  </i>
    <v name="QSPIRAL">      0.00000000      0.00000000      0.00000000</v>
    <i type="logical" name="LZEROZ"> F  </i>
   </separator>
   <separator name="electronic exchange-correlation" >
    <i type="logical" name="LASPH"> F  </i>
    <i type="logical" name="LMETAGGA"> F  </i>
   </separator>
   <separator name="electronic convergence" >
    <i type="int" name="NELM">    60</i>
    <i type="int" name="NELMDL">    -5</i>
    <i type="int" name="NELMIN">     2</i>
    <i name="ENINI">    600.00000000</i>
    <separator name="electronic convergence detail" >
     <i type="logical" name="LDIAG"> T  </i>
     <i type="logical" name="LSUBROT"> F  </i>
     <i name="WEIMIN">      0.00000000</i>
     <i name="EBREAK">      0.00000000</i>
     <i name="DEPER">      0.30000000</i>
     <i type="int" name="NRMM">     4</i>
     <i name="TIME">      0.40000000</i>
    </separator>
   </separator>
   <separator name="electronic mixer" >
    <i name="AMIX">      0.40000000</i>
    <i name="BMIX">      1.00000000</i>
    <i name="AMIN">      0.10000000</i>
    <i name="AMIX_MAG">      1.60000000</i>
    <i name="BMIX_MAG">      1.00000000</i>
    <separator name="electronic mixer details" >
     <i type="int" name="IMIX">     4</i>
     <i type="logical" name="MIXFIRST"> F  </i>
     <i type="int" name="MAXMIX">   -45</i>
     <i name="WC">    100.00000000</i>
     <i type="int" name="INIMIX">     1</i>
     <i type="int" name="MIXPRE">     1</i>
     <i type="int" name="MREMOVE">     5</i>
    </separator>
   </separator>
   <separator name="electronic dipolcorrection" >
    <i type="logical" name="LDIPOL"> F  </i>
    <i type="logical" name="LMONO"> F  </i>
    <i type="int" name="IDIPOL">     0</i>
    <i name="EPSILON">      1.00000000</i>
    <v name="DIPOL">   -100.00000000   -100.00000000   -100.00000000</v>
    <i name="EFIELD">      0.00000000</i>
   </separator>
  </separator>
  <separator name="grids" >
   <i type="int" name="NGX">   100</i>
   <i type="int" name="NGY">   100</i>
   <i type="int" name="NGZ">   100</i>
   <i type="int" name="NGXF">   200</i>
   <i type="int" name="NGYF">   200</i>
   <i type="int" name="NGZF">   200</i>
   <i type="logical" name="ADDGRID"> T  </i>
  </separator>
  <separator name="ionic" >
   <i type="int" name="NSW">     1</i>
   <i type="int" name="IBRION">    -1</i>
   <i type="int" name="MDALGO">     0</i>
   <i type="int" name="ISIF">     2</i>
   <i name="PSTRESS">      0.00000000</i>
   <i name="EDIFFG">     -0.01000000</i>
   <i type="int" name="NFREE">     0</i>
   <i name="POTIM">      1.00000000</i>
   <i name="SMASS">     -3.00000000</i>
   <i name="SCALEE">      1.00000000</i>
  </separator>
  <separator name="ionic md" >
   <i name="TEBEG">      0.00010000</i>
   <i name="TEEND">      0.00010000</i>
   <i type="int" name="NBLOCK">     1</i>
   <i type="int" name="KBLOCK">     1</i>
   <i type="int" name="NPACO">   256</i>
   <i name="APACO">     16.00000000</i>
  </separator>
  <separator name="symmetry" >
   <i type="int" name="ISYM">     0</i>
   <i name="SYMPREC">      0.00001000</i>
  </separator>
  <separator name="dos" >
   <i type="int" name="LORBIT">     0</i>
   <v name="RWIGS">     -1.00000000     -1.00000000     -1.00000000</v>
   <i type="int" name="NEDOS">   301</i>
   <i name="EMIN">     10.00000000</i>
   <i name="EMAX">    -10.00000000</i>
   <i name="EFERMI">      0.00000000</i>
  </separator>
  <separator name="writing" >
   <i type="int" name="NWRITE">     2</i>
   <i type="logical" name="LWAVE"> F  </i>
   <i type="logical" name="LDOWNSAMPLE"> F  </i>
   <i type="logical" name="LCHARG"> F  </i>
   <i type="logical" name="LPARD"> F  </i>
   <i type="logical" name="LVTOT"> F  </i>
   <i type="logical" name="LVHAR"> F  </i>
   <i type="logical" name="LELF"> F  </i>
   <i type="logical" name="LOPTICS"> F  </i>
   <v name="STM">      0.00000000      0.00000000      0.00000000      0.00000000      0.00000000      0.00000000      0.00000000</v>
  </separator>
  <separator name="performance" >
   <i type="int" name="NPAR">     4</i>
   <i type="int" name="NSIM">     4</i>
   <i type="int" name="NBLK">    -1</i>
   <i type="logical" name="LPLANE"> T  </i>
   <i type="logical" name="LSCALAPACK"> F  </i>
   <i type="logical" name="LSCAAWARE"> F  </i>
   <i type="logical" name="LSCALU"> F  </i>
   <i type="logical" name="LASYNC"> F  </i>
   <i type="logical" name="LORBITALREAL"> F  </i>
  </separator>
  <separator name="miscellaneous" >
   <i type="int" name="IDIOT">     3</i>
   <i type="int" name="ISPECIAL">     0</i>
   <i type="logical" name="LMUSIC"> F  </i>
   <v name="POMASS">     40.07800000     28.08500000     16.00000000</v>
   <v name="DARWINR">      0.00000000      0.00000000      0.00000000</v>
   <v name="DARWINV">      1.00000000      1.00000000      1.00000000</v>
   <i type="logical" name="LCORR"> T  </i>
  </separator>
  <i type="logical" name="GGA_COMPAT"> T  </i>
  <i type="logical" name="LBERRY"> F  </i>
  <i type="int" name="ICORELEVEL">     0</i>
  <i type="logical" name="LDAU"> F  </i>
  <i type="int" name="I_CONSTRAINED_M">     0</i>
  <separator name="electronic exchange-correlation" >
   <i type="string" name="GGA">--</i>
   <i type="int" name="VOSKOWN">     0</i>
   <i type="logical" name="LHFCALC"> F  </i>
   <i type="string" name="PRECFOCK"></i>
   <i type="logical" name="LSYMGRAD"> F  </i>
   <i type="logical" name="LHFONE"> F  </i>
   <i type="logical" name="LRHFCALC"> F  </i>
   <i type="logical" name="LTHOMAS"> F  </i>
   <i type="logical" name="LMODELHF"> F  </i>
   <i name="ENCUT4O">     -1.00000000</i>
   <i type="int" name="EXXOEP">     0</i>
   <i type="int" name="FOURORBIT">     0</i>
   <i name="AEXX">      0.00000000</i>
   <i name="HFALPHA">      0.00000000</i>
   <i name="MCALPHA">      0.00000000</i>
   <i name="ALDAX">      1.00000000</i>
   <i name="AGGAX">      1.00000000</i>
   <i name="ALDAC">      1.00000000</i>
   <i name="AGGAC">      1.00000000</i>
   <i type="int" name="NKREDX">     1</i>
   <i type="int" name="NKREDY">     1</i>
   <i type="int" name="NKREDZ">     1</i>
   <i type="logical" name="SHIFTRED"> F  </i>
   <i type="logical" name="ODDONLY"> F  </i>
   <i type="logical" name="EVENONLY"> F  </i>
   <i type="int" name="LMAXFOCK">     0</i>
   <i type="int" name="NMAXFOCKAE">     0</i>
   <i type="logical" name="LFOCKAEDFT"> F  </i>
   <i name="HFSCREEN">      0.00000000</i>
   <i name="HFSCREENC">      0.00000000</i>
   <i type="int" name="NBANDSGWLOW">     0</i>
  </separator>
  <separator name="vdW DFT" >
   <i type="logical" name="LUSE_VDW"> F  </i>
   <i name="Zab_VDW">     -0.84910000</i>
   <i name="PARAM1">      0.12340000</i>
   <i name="PARAM2">      1.00000000</i>
   <i name="PARAM3">      0.00000000</i>
  </separator>
  <separator name="model GW" >
   <i type="int" name="MODEL_GW">     0</i>
   <i name="MODEL_EPS0">      8.73498141</i>
   <i name="MODEL_ALPHA">      1.00000000</i>
  </separator>
  <separator name="linear response parameters" >
   <i type="logical" name="LEPSILON"> F  </i>
   <i type="logical" name="LRPA"> F  </i>
   <i type="logical" name="LNABLA"> F  </i>
   <i type="logical" name="LVEL"> F  </i>
   <i type="int" name="KINTER">     0</i>
   <i name="CSHIFT">      0.10000000</i>
   <i name="OMEGAMAX">     -1.00000000</i>
   <i name="DEG_THRESHOLD">      0.00200000</i>
   <i name="RTIME">     -0.10000000</i>
   <i name="WPLASMAI">      0.00000000</i>
   <v name="DFIELD">      0.00000000      0.00000000      0.00000000</v>
   <v name="WPLASMA">      0.00000000      0.00000000      0.00000000      0.00000000      0.00000000      0.00000000      0.00000000      0.00000000      0.00000000</v>
  </separator>
  <separator name="orbital magnetization" >
   <i type="logical" name="NUCIND"> F  </i>
   <v name="MAGPOS">      0.00000000      0.00000000      0.00000000</v>
   <i type="logical" name="LNICSALL"> T  </i>
   <i type="logical" name="ORBITALMAG"> F  </i>
   <i type="logical" name="LMAGBLOCH"> F  </i>
   <i type="logical" name="LCHIMAG"> F  </i>
   <i type="logical" name="LGAUGE"> T  </i>
   <i type="int" name="MAGATOM">     0</i>
   <v name="MAGDIPOL">      0.00000000      0.00000000      0.00000000</v>
   <v name="AVECCONST">      0.00000000      0.00000000      0.00000000</v>
  </separator>
  <separator name="response functions" >
   <i type="logical" name="LADDER"> F  </i>
   <i type="logical" name="LRPAFORCE"> F  </i>
   <i type="logical" name="LFXC"> F  </i>
   <i type="logical" name="LHARTREE"> T  </i>
   <i type="int" name="IBSE">     0</i>
   <v type="int" name="KPOINT">    -1     0     0     0</v>
   <i type="logical" name="LTCTE"> F  </i>
   <i type="logical" name="LTETE"> F  </i>
   <i type="logical" name="LTRIPLET"> F  </i>
   <i type="logical" name="LFXCEPS"> F  </i>
   <i type="logical" name="LFXHEG"> F  </i>
   <i type="int" name="NATURALO">     2</i>
   <i type="logical" name="L2ORDER"> F  </i>
   <i type="logical" name="LMP2LT"> F  </i>
   <i type="logical" name="LUSEW"> F  </i>
   <i name="ENCUTGW">     -2.00000000</i>
   <i name="ENCUTGWSOFT">     -2.00000000</i>
   <i name="ENCUTLF">     -1.00000000</i>
   <i type="int" name="LMAXMP2">    -1</i>
   <i name="SCISSOR">      0.00000000</i>
   <i type="int" name="NOMEGA">     0</i>
   <i type="int" name="NOMEGAR">     0</i>
   <i type="int" name="NBANDSGW">    -1</i>
   <i type="int" name="NBANDSO">    -1</i>
   <i type="int" name="NBANDSV">    -1</i>
   <i type="int" name="NELM">     1</i>
   <i type="int" name="NELMHF">     1</i>
   <i type="int" name="DIM">     3</i>
   <i type="int" name="ANTIRES">     0</i>
   <i name="OMEGAMAX">    -30.00000000</i>
   <i name="OMEGAMIN">    -30.00000000</i>
   <i name="OMEGATL">   -200.00000000</i>
   <i type="int" name="OMEGAGRID">   140</i>
   <i name="CSHIFT">     -0.10000000</i>
   <i type="logical" name="SELFENERGY"> F  </i>
   <i type="logical" name="LSPECTRAL"> F  </i>
   <i type="logical" name="LSPECTRALGW"> F  </i>
   <i type="logical" name="LSINGLES"> F  </i>
   <i type="logical" name="LFERMIGW"> F  </i>
   <i type="logical" name="ODDONLYGW"> F  </i>
   <i type="logical" name="EVENONLYGW"> F  </i>
   <i type="int" name="NKREDLFX">     1</i>
   <i type="int" name="NKREDLFY">     1</i>
   <i type="int" name="NKREDLFZ">     1</i>
   <i type="int" name="MAXMEM">  2800</i>
   <i type="int" name="TELESCOPE">     0</i>
   <i type="int" name="TAUPAR">     1</i>
   <i type="int" name="OMEGAPAR">    -1</i>
   <i name="LAMBDA">      1.00000000</i>
  </separator>
  <separator name="External order field" >
   <i name="OFIELD_KAPPA">      0.00000000</i>
   <v name="OFIELD_K">      0.00000000      0.00000000      0.00000000</v>
   <i name="OFIELD_Q6_NEAR">      0.00000000</i>
   <i name="OFIELD_Q6_FAR">      0.00000000</i>
   <i name="OFIELD_A">      0.00000000</i>
  </separator>
 </parameters>
 <atominfo>
  <atoms>     135 </atoms>
  <types>       3 </types>
  <array name="atoms" >
   <dimension dim="1">ion</dimension>
   <field type="string">element</field>
   <field type="int">atomtype</field>
   <set>
    <rc><c>Ca</c><c>   1</c></rc>
    <rc><c>Ca</c><c>   1</c></rc>
    <rc><c>Ca</c><c>   1</c></rc>
    <rc><c>Ca</c><c>   1</c></rc>
    <rc><c>Ca</c><c>   1</c></rc>
    <rc><c>Ca</c><c>   1</c></rc>
    <rc><c>Ca</c><c>   1</c></rc>
    <rc><c>Ca</c><c>   1</c></rc>
    <rc><c>Ca</c><c>   1</c></rc>
    <rc><c>Ca</c><c>   1</c></rc>
    <rc><c>Ca</c><c>   1</c></rc>
    <rc><c>Ca</c><c>   1</c></rc>
    <rc><c>Ca</c><c>   1</c></rc>
    <rc><c>Ca</c><c>   1</c></rc>
    <rc><c>Ca</c><c>   1</c></rc>
    <rc><c>Ca</c><c>   1</c></rc>
    <rc><c>Ca</c><c>   1</c></rc>
    <rc><c>Ca</c><c>   1</c></rc>
    <rc><c>Ca</c><c>   1</c></rc>
    <rc><c>Ca</c><c>   1</c></rc>
    <rc><c>Ca</c><c>   1</c></rc>
    <rc><c>Ca</c><c>   1</c></rc>
    <rc><c>Ca</c><c>   1</c></rc>
    <rc><c>Ca</c><c>   1</c></rc>
    <rc><c>Ca</c><c>   1</c></rc>
    <rc><c>Ca</c><c>   1</c></rc>
    <rc><c>Ca</c><c>   1</c></rc>
    <rc><c>Si</c><c>   2</c></rc>
    <rc><c>Si</c><c>   2</c></rc>
    <rc><c>Si</c><c>   2</c></rc>
    <rc><c>Si</c><c>   2</c></rc>
    <rc><c>Si</c><c>   2</c></rc>
    <rc><c>Si</c><c>   2</c></rc>
    <rc><c>Si</c><c>   2</c></rc>
    <rc><c>Si</c><c>   2</c></rc>
    <rc><c>Si</c><c>   2</c></rc>
    <rc><c>Si</c><c>   2</c></rc>
    <rc><c>Si</c><c>   2</c></rc>
    <rc><c>Si</c><c>   2</c></rc>
    <rc><c>Si</c><c>   2</c></rc>
    <rc><c>Si</c><c>   2</c></rc>
    <rc><c>Si</c><c>   2</c></rc>
    <rc><c>Si</c><c>   2</c></rc>
    <rc><c>Si</c><c>   2</c></rc>
    <rc><c>Si</c><c>   2</c></rc>
    <rc><c>Si</c><c>   2</c></rc>
    <rc><c>Si</c><c>   2</c></rc>
    <rc><c>Si</c><c>   2</c></rc>
    <rc><c>Si</c><c>   2</c></rc>
    <rc><c>Si</c><c>   2</c></rc>
    <rc><c>Si</c><c>   2</c></rc>
    <rc><c>Si</c><c>   2</c></rc>
    <rc><c>Si</c><c>   2</c></rc>
    <rc><c>Si</c><c>   2</c></rc>
    <rc><c>O </c><c>   3</c></rc>
    <rc><c>O </c><c>   3</c></rc>
    <rc><c>O </c><c>   3</c></rc>
    <rc><c>O </c><c>   3</c></rc>
    <rc><c>O </c><c>   3</c></rc>
    <rc><c>O </c><c>   3</c></rc>
    <rc><c>O </c><c>   3</c></rc>
    <rc><c>O </c><c>   3</c></rc>
    <rc><c>O </c><c>   3</c></rc>
    <rc><c>O </c><c>   3</c></rc>
    <rc><c>O </c><c>   3</c></rc>
    <rc><c>O </c><c>   3</c></rc>
    <rc><c>O </c><c>   3</c></rc>
    <rc><c>O </c><c>   3</c></rc>
    <rc><c>O </c><c>   3</c></rc>
    <rc><c>O </c><c>   3</c></rc>
    <rc><c>O </c><c>   3</c></rc>
    <rc><c>O </c><c>   3</c></rc>
    <rc><c>O </c><c>   3</c></rc>
    <rc><c>O </c><c>   3</c></rc>
    <rc><c>O </c><c>   3</c></rc>
    <rc><c>O </c><c>   3</c></rc>
    <rc><c>O </c><c>   3</c></rc>
    <rc><c>O </c><c>   3</c></rc>
    <rc><c>O </c><c>   3</c></rc>
    <rc><c>O </c><c>   3</c></rc>
    <rc><c>O </c><c>   3</c></rc>
    <rc><c>O </c><c>   3</c></rc>
    <rc><c>O </c><c>   3</c></rc>
    <rc><c>O </c><c>   3</c></rc>
    <rc><c>O </c><c>   3</c></rc>
    <rc><c>O </c><c>   3</c></rc>
    <rc><c>O </c><c>   3</c></rc>
    <rc><c>O </c><c>   3</c></rc>
    <rc><c>O </c><c>   3</c></rc>
    <rc><c>O </c><c>   3</c></rc>
    <rc><c>O </c><c>   3</c></rc>
    <rc><c>O </c><c>   3</c></rc>
    <rc><c>O </c><c>   3</c></rc>
    <rc><c>O </c><c>   3</c></rc>
    <rc><c>O </c><c>   3</c></rc>
    <rc><c>O </c><c>   3</c></rc>
    <rc><c>O </c><c>   3</c></rc>
    <rc><c>O </c><c>   3</c></rc>
    <rc><c>O </c><c>   3</c></rc>
    <rc><c>O </c><c>   3</c></rc>
    <rc><c>O </c><c>   3</c></rc>
    <rc><c>O </c><c>   3</c></rc>
    <rc><c>O </c><c>   3</c></rc>
    <rc><c>O </c><c>   3</c></rc>
    <rc><c>O </c><c>   3</c></rc>
    <rc><c>O </c><c>   3</c></rc>
    <rc><c>O </c><c>   3</c></rc>
    <rc><c>O </c><c>   3</c></rc>
    <rc><c>O </c><c>   3</c></rc>
    <rc><c>O </c><c>   3</c></rc>
    <rc><c>O </c><c>   3</c></rc>
    <rc><c>O </c><c>   3</c></rc>
    <rc><c>O </c><c>   3</c></rc>
    <rc><c>O </c><c>   3</c></rc>
    <rc><c>O </c><c>   3</c></rc>
    <rc><c>O </c><c>   3</c></rc>
    <rc><c>O </c><c>   3</c></rc>
    <rc><c>O </c><c>   3</c></rc>
    <rc><c>O </c><c>   3</c></rc>
    <rc><c>O </c><c>   3</c></rc>
    <rc><c>O </c><c>   3</c></rc>
    <rc><c>O </c><c>   3</c></rc>
    <rc><c>O </c><c>   3</c></rc>
    <rc><c>O </c><c>   3</c></rc>
    <rc><c>O </c><c>   3</c></rc>
    <rc><c>O </c><c>   3</c></rc>
    <rc><c>O </c><c>   3</c></rc>
    <rc><c>O </c><c>   3</c></rc>
    <rc><c>O </c><c>   3</c></rc>
    <rc><c>O </c><c>   3</c></rc>
    <rc><c>O </c><c>   3</c></rc>
    <rc><c>O </c><c>   3</c></rc>
    <rc><c>O </c><c>   3</c></rc>
    <rc><c>O </c><c>   3</c></rc>
    <rc><c>O </c><c>   3</c></rc>
   </set>
  </array>
  <array name="atomtypes" >
   <dimension dim="1">type</dimension>
   <field type="int">atomspertype</field>
   <field type="string">element</field>
   <field>mass</field>
   <field>valence</field>
   <field type="string">pseudopotential</field>
   <set>
    <rc><c>  27</c><c>Ca</c><c>     40.07800000</c><c>     10.00000000</c><c>  PAW_PBE Ca_sv 06Sep2000               </c></rc>
    <rc><c>  27</c><c>Si</c><c>     28.08500000</c><c>      4.00000000</c><c>  PAW_PBE Si 05Jan2001                  </c></rc>
    <rc><c>  81</c><c>O </c><c>     16.00000000</c><c>      6.00000000</c><c>  PAW_PBE O 08Apr2002                   </c></rc>
   </set>
  </array>
 </atominfo>
 <structure name="initialpos" >
  <crystal>
   <varray name="basis" >
    <v>      12.52607000       0.00000000       0.00000000 </v>
    <v>       0.00000000      12.52607000       0.00000000 </v>
    <v>       0.00000000       0.00000000      12.52607000 </v>
   </varray>
   <i name="volume">   1965.37081690 </i>
   <varray name="rec_basis" >
    <v>       0.07983350       0.00000000       0.00000000 </v>
    <v>       0.00000000       0.07983350       0.00000000 </v>
    <v>       0.00000000       0.00000000       0.07983350 </v>
   </varray>
  </crystal>
  <varray name="positions" >
   <v>       0.74997125       0.54484717       0.77418369 </v>
   <v>       0.66591258       0.86006219       0.76863269 </v>
   <v>       0.51905836       0.23122855       0.17777090 </v>
   <v>       0.13714296       0.86717846       0.62864829 </v>
   <v>       0.00677861       0.58538287       0.19694468 </v>
   <v>       0.02184624       0.19879977       0.52390240 </v>
   <v>       0.17244324       0.53282299       0.38929727 </v>
   <v>       0.19295047       0.90072660       0.08549797 </v>
   <v>       0.38572370       0.32617324       0.42974651 </v>
   <v>       0.76202382       0.39077164       0.25514502 </v>
   <v>       0.94817792       0.63814972       0.45854028 </v>
   <v>       0.31478717       0.11796449       0.61051140 </v>
   <v>       0.47937805       0.38952925       0.66133572 </v>
   <v>       0.94102593       0.11564137       0.27280663 </v>
   <v>       0.54727575       0.86761794       0.26232836 </v>
   <v>       0.15078824       0.63079154       0.63984620 </v>
   <v>       0.55805136       0.07860967       0.77645997 </v>
   <v>       0.87356813       0.29727291       0.01948862 </v>
   <v>       0.86563371       0.78163601       0.17627915 </v>
   <v>       0.64540744       0.65670031       0.54372837 </v>
   <v>       0.48318055       0.54779754       0.32759945 </v>
   <v>       0.78662626       0.25454526       0.75422600 </v>
   <v>       0.07070407       0.36722190       0.83484885 </v>
   <v>       0.67067629       0.12087432       0.38901271 </v>
   <v>       0.81246269       0.94431580       0.42666294 </v>
   <v>       0.33249628       0.43023363       0.88001486 </v>
   <v>       0.36598658       0.80258774       0.92731250 </v>
   <v>       0.94115338       0.96119561       0.02579088 </v>
   <v>       0.67695140       0.94015542       0.02098912 </v>
   <v>       0.50439605       0.61329287       0.75030349 </v>
   <v>       0.90472251       0.43511241       0.52580314 </v>
   <v>       0.09421344       0.33459699       0.27132776 </v>
   <v>       0.38426489       0.68506266       0.55345368 </v>
   <v>       0.04678570       0.75920603       0.88089055 </v>
   <v>       0.31471302       0.67571664       0.17295735 </v>
   <v>       0.50532347       0.93830370       0.52113606 </v>
   <v>       0.57507255       0.45709731       0.04357925 </v>
   <v>       0.23377006       0.35127139       0.62889018 </v>
   <v>       0.34255545       0.05791776       0.97797629 </v>
   <v>       0.66348722       0.36533418       0.51509605 </v>
   <v>       0.57356314       0.28293611       0.89805233 </v>
   <v>       0.91393235       0.77209059       0.67865063 </v>
   <v>       0.83287878       0.03138629       0.65803029 </v>
   <v>       0.12604001       0.77487340       0.32922977 </v>
   <v>       0.72292371       0.68699930       0.97360226 </v>
   <v>       0.75230450       0.08520915       0.17821175 </v>
   <v>       0.21751056       0.06424245       0.81450992 </v>
   <v>       0.99862157       0.13036826       0.82978743 </v>
   <v>       0.13987340       0.99490272       0.40782744 </v>
   <v>       0.37420615       0.07250349       0.35357732 </v>
   <v>       0.36714092       0.44347112       0.17328011 </v>
   <v>       0.74762415       0.64705898       0.31572394 </v>
   <v>       0.23801727       0.26639440       0.06982015 </v>
   <v>       0.93916121       0.54851644       0.97469761 </v>
   <v>       0.95581723       0.46643420       0.06495765 </v>
   <v>       0.55990730       0.72139668       0.78262577 </v>
   <v>       0.99174718       0.48970084       0.60270528 </v>
   <v>       0.76931481       0.68224501       0.44000838 </v>
   <v>       0.24744695       0.40703422       0.50712569 </v>
   <v>       0.00912376       0.75351902       0.59426758 </v>
   <v>       0.54610597       0.18731888       0.98965907 </v>
   <v>       0.27219076       0.74573420       0.59190176 </v>
   <v>       0.65903594       0.79365505       0.02504809 </v>
   <v>       0.42060222       0.58270143       0.83898093 </v>
   <v>       0.22171304       0.28684704       0.94128399 </v>
   <v>       0.15930662       0.01736209       0.52758881 </v>
   <v>       0.37713657       0.95715735       0.05735727 </v>
   <v>       0.01462257       0.00320188       0.39839911 </v>
   <v>       0.21816929       0.99508710       0.70902453 </v>
   <v>       0.86049697       0.32329523       0.57662302 </v>
   <v>       0.19767709       0.21997168       0.62012909 </v>
   <v>       0.68724650       0.19541737       0.23287344 </v>
   <v>       0.31382698       0.54490478       0.23116222 </v>
   <v>       0.66734028       0.29560283       0.62799508 </v>
   <v>       0.63041797       0.96304387       0.48647608 </v>
   <v>       0.23154594       0.06833163       0.33273745 </v>
   <v>       0.71184764       0.31739328       0.90594771 </v>
   <v>       0.16619433       0.89351158       0.31552214 </v>
   <v>       0.72782904       0.03873292       0.74457482 </v>
   <v>       0.58776921       0.50563638       0.73078905 </v>
   <v>       0.85417243       0.89264953       0.64149531 </v>
   <v>       0.29022658       0.14880352       0.05962737 </v>
   <v>       0.02471880       0.86469101       0.97288191 </v>
   <v>       0.45728615       0.58217987       0.62118109 </v>
   <v>       0.93420750       0.10170919       0.70246385 </v>
   <v>       0.84702275       0.13839212       0.12195785 </v>
   <v>       0.66747038       0.39375546       0.12124713 </v>
   <v>       0.50965299       0.25349807       0.80032028 </v>
   <v>       0.35969662       0.63361527       0.43509953 </v>
   <v>       0.50625355       0.79538329       0.50019954 </v>
   <v>       0.81015154       0.69093408       0.69168082 </v>
   <v>       0.11838989       0.46635692       0.23196045 </v>
   <v>       0.45816547       0.50993544       0.10978205 </v>
   <v>       0.84684246       0.61235168       0.23757924 </v>
   <v>       0.02778252       0.64319182       0.92394115 </v>
   <v>       0.64716667       0.56544399       0.33953604 </v>
   <v>       0.97873751       0.31119433       0.23026559 </v>
   <v>       0.81217228       0.00864383       0.27395212 </v>
   <v>       0.13302373       0.72206577       0.44998605 </v>
   <v>       0.72565848       0.29382494       0.42439233 </v>
   <v>       0.33381459       0.37856395       0.06192199 </v>
   <v>       0.19364943       0.26465334       0.18206873 </v>
   <v>       0.64006915       0.56969733       0.99935981 </v>
   <v>       0.93872971       0.47463158       0.86314952 </v>
   <v>       0.97683334       0.97618497       0.15126167 </v>
   <v>       0.38184601       0.36144248       0.26644637 </v>
   <v>       0.22152421       0.98195650       0.93079874 </v>
   <v>       0.50005382       0.09440963       0.28252239 </v>
   <v>       0.81215480       0.08261837       0.53092464 </v>
   <v>       0.75346991       0.72031203       0.85603422 </v>
   <v>       0.42197168       0.73475625       0.23097927 </v>
   <v>       0.59923138       0.96843445       0.90875812 </v>
   <v>       0.47802179       0.96567063       0.65021203 </v>
   <v>       0.75103130       0.47352827       0.57138649 </v>
   <v>       0.20608632       0.73475063       0.23164907 </v>
   <v>       0.91412136       0.46259938       0.41120962 </v>
   <v>       0.52672807       0.41191919       0.92669426 </v>
   <v>       0.39845156       0.15661988       0.44722881 </v>
   <v>       0.09132020       0.26041942       0.38318254 </v>
   <v>       0.94446081       0.26825083       0.83949210 </v>
   <v>       0.19358025       0.44953753       0.70769834 </v>
   <v>       0.95570210       0.80338456       0.80953939 </v>
   <v>       0.33451368       0.34781836       0.71048027 </v>
   <v>       0.98097042       0.05292810       0.94561292 </v>
   <v>       0.80725765       0.95466473       0.01348163 </v>
   <v>       0.29815685       0.68791219       0.04565999 </v>
   <v>       0.35923624       0.08694303       0.83546277 </v>
   <v>       0.85031493       0.65714842       0.02374866 </v>
   <v>       0.53991947       0.38475914       0.46932365 </v>
   <v>       0.41084699       0.96654492       0.41752365 </v>
   <v>       0.99765699       0.74564036       0.29529254 </v>
   <v>       0.65513235       0.99797674       0.13445641 </v>
   <v>       0.17872079       0.78112103       0.85459661 </v>
   <v>       0.12652979       0.15231631       0.81543228 </v>
   <v>       0.70034556       0.77351993       0.27608645 </v>
  </varray>
  <varray name="velocities" >
   <v>       0.00000000       0.00000000       0.00000000 </v>
   <v>       0.00000000       0.00000000       0.00000000 </v>
   <v>       0.00000000       0.00000000       0.00000000 </v>
   <v>       0.00000000       0.00000000       0.00000000 </v>
   <v>       0.00000000       0.00000000       0.00000000 </v>
   <v>       0.00000000       0.00000000       0.00000000 </v>
   <v>       0.00000000       0.00000000       0.00000000 </v>
   <v>       0.00000000       0.00000000       0.00000000 </v>
   <v>       0.00000000       0.00000000       0.00000000 </v>
   <v>       0.00000000       0.00000000       0.00000000 </v>
   <v>       0.00000000       0.00000000       0.00000000 </v>
   <v>       0.00000000       0.00000000       0.00000000 </v>
   <v>       0.00000000       0.00000000       0.00000000 </v>
   <v>       0.00000000       0.00000000       0.00000000 </v>
   <v>       0.00000000       0.00000000       0.00000000 </v>
   <v>       0.00000000       0.00000000       0.00000000 </v>
   <v>       0.00000000       0.00000000       0.00000000 </v>
   <v>       0.00000000       0.00000000       0.00000000 </v>
   <v>       0.00000000       0.00000000       0.00000000 </v>
   <v>       0.00000000       0.00000000       0.00000000 </v>
   <v>       0.00000000       0.00000000       0.00000000 </v>
   <v>       0.00000000       0.00000000       0.00000000 </v>
   <v>       0.00000000       0.00000000       0.00000000 </v>
   <v>       0.00000000       0.00000000       0.00000000 </v>
   <v>       0.00000000       0.00000000       0.00000000 </v>
   <v>       0.00000000       0.00000000       0.00000000 </v>
   <v>       0.00000000       0.00000000       0.00000000 </v>
   <v>       0.00000000       0.00000000       0.00000000 </v>
   <v>       0.00000000       0.00000000       0.00000000 </v>
   <v>       0.00000000       0.00000000       0.00000000 </v>
   <v>       0.00000000       0.00000000       0.00000000 </v>
   <v>       0.00000000       0.00000000       0.00000000 </v>
   <v>       0.00000000       0.00000000       0.00000000 </v>
   <v>       0.00000000       0.00000000       0.00000000 </v>
   <v>       0.00000000       0.00000000       0.00000000 </v>
   <v>       0.00000000       0.00000000       0.00000000 </v>
   <v>       0.00000000       0.00000000       0.00000000 </v>
   <v>       0.00000000       0.00000000       0.00000000 </v>
   <v>       0.00000000       0.00000000       0.00000000 </v>
   <v>       0.00000000       0.00000000       0.00000000 </v>
   <v>       0.00000000       0.00000000       0.00000000 </v>
   <v>       0.00000000       0.00000000       0.00000000 </v>
   <v>       0.00000000       0.00000000       0.00000000 </v>
   <v>       0.00000000       0.00000000       0.00000000 </v>
   <v>       0.00000000       0.00000000       0.00000000 </v>
   <v>       0.00000000       0.00000000       0.00000000 </v>
   <v>       0.00000000       0.00000000       0.00000000 </v>
   <v>       0.00000000       0.00000000       0.00000000 </v>
   <v>       0.00000000       0.00000000       0.00000000 </v>
   <v>       0.00000000       0.00000000       0.00000000 </v>
   <v>       0.00000000       0.00000000       0.00000000 </v>
   <v>       0.00000000       0.00000000       0.00000000 </v>
   <v>       0.00000000       0.00000000       0.00000000 </v>
   <v>       0.00000000       0.00000000       0.00000000 </v>
   <v>       0.00000000       0.00000000       0.00000000 </v>
   <v>       0.00000000       0.00000000       0.00000000 </v>
   <v>       0.00000000       0.00000000       0.00000000 </v>
   <v>       0.00000000       0.00000000       0.00000000 </v>
   <v>       0.00000000       0.00000000       0.00000000 </v>
   <v>       0.00000000       0.00000000       0.00000000 </v>
   <v>       0.00000000       0.00000000       0.00000000 </v>
   <v>       0.00000000       0.00000000       0.00000000 </v>
   <v>       0.00000000       0.00000000       0.00000000 </v>
   <v>       0.00000000       0.00000000       0.00000000 </v>
   <v>       0.00000000       0.00000000       0.00000000 </v>
   <v>       0.00000000       0.00000000       0.00000000 </v>
   <v>       0.00000000       0.00000000       0.00000000 </v>
   <v>       0.00000000       0.00000000       0.00000000 </v>
   <v>       0.00000000       0.00000000       0.00000000 </v>
   <v>       0.00000000       0.00000000       0.00000000 </v>
   <v>       0.00000000       0.00000000       0.00000000 </v>
   <v>       0.00000000       0.00000000       0.00000000 </v>
   <v>       0.00000000       0.00000000       0.00000000 </v>
   <v>       0.00000000       0.00000000       0.00000000 </v>
   <v>       0.00000000       0.00000000       0.00000000 </v>
   <v>       0.00000000       0.00000000       0.00000000 </v>
   <v>       0.00000000       0.00000000       0.00000000 </v>
   <v>       0.00000000       0.00000000       0.00000000 </v>
   <v>       0.00000000       0.00000000       0.00000000 </v>
   <v>       0.00000000       0.00000000       0.00000000 </v>
   <v>       0.00000000       0.00000000       0.00000000 </v>
   <v>       0.00000000       0.00000000       0.00000000 </v>
   <v>       0.00000000       0.00000000       0.00000000 </v>
   <v>       0.00000000       0.00000000       0.00000000 </v>
   <v>       0.00000000       0.00000000       0.00000000 </v>
   <v>       0.00000000       0.00000000       0.00000000 </v>
   <v>       0.00000000       0.00000000       0.00000000 </v>
   <v>       0.00000000       0.00000000       0.00000000 </v>
   <v>       0.00000000       0.00000000       0.00000000 </v>
   <v>       0.00000000       0.00000000       0.00000000 </v>
   <v>       0.00000000       0.00000000       0.00000000 </v>
   <v>       0.00000000       0.00000000       0.00000000 </v>
   <v>       0.00000000       0.00000000       0.00000000 </v>
   <v>       0.00000000       0.00000000       0.00000000 </v>
   <v>       0.00000000       0.00000000       0.00000000 </v>
   <v>       0.00000000       0.00000000       0.00000000 </v>
   <v>       0.00000000       0.00000000       0.00000000 </v>
   <v>       0.00000000       0.00000000       0.00000000 </v>
   <v>       0.00000000       0.00000000       0.00000000 </v>
   <v>       0.00000000       0.00000000       0.00000000 </v>
   <v>       0.00000000       0.00000000       0.00000000 </v>
   <v>       0.00000000       0.00000000       0.00000000 </v>
   <v>       0.00000000       0.00000000       0.00000000 </v>
   <v>       0.00000000       0.00000000       0.00000000 </v>
   <v>       0.00000000       0.00000000       0.00000000 </v>
   <v>       0.00000000       0.00000000       0.00000000 </v>
   <v>       0.00000000       0.00000000       0.00000000 </v>
   <v>       0.00000000       0.00000000       0.00000000 </v>
   <v>       0.00000000       0.00000000       0.00000000 </v>
   <v>       0.00000000       0.00000000       0.00000000 </v>
   <v>       0.00000000       0.00000000       0.00000000 </v>
   <v>       0.00000000       0.00000000       0.00000000 </v>
   <v>       0.00000000       0.00000000       0.00000000 </v>
   <v>       0.00000000       0.00000000       0.00000000 </v>
   <v>       0.00000000       0.00000000       0.00000000 </v>
   <v>       0.00000000       0.00000000       0.00000000 </v>
   <v>       0.00000000       0.00000000       0.00000000 </v>
   <v>       0.00000000       0.00000000       0.00000000 </v>
   <v>       0.00000000       0.00000000       0.00000000 </v>
   <v>       0.00000000       0.00000000       0.00000000 </v>
   <v>       0.00000000       0.00000000       0.00000000 </v>
   <v>       0.00000000       0.00000000       0.00000000 </v>
   <v>       0.00000000       0.00000000       0.00000000 </v>
   <v>       0.00000000       0.00000000       0.00000000 </v>
   <v>       0.00000000       0.00000000       0.00000000 </v>
   <v>       0.00000000       0.00000000       0.00000000 </v>
   <v>       0.00000000       0.00000000       0.00000000 </v>
   <v>       0.00000000       0.00000000       0.00000000 </v>
   <v>       0.00000000       0.00000000       0.00000000 </v>
   <v>       0.00000000       0.00000000       0.00000000 </v>
   <v>       0.00000000       0.00000000       0.00000000 </v>
   <v>       0.00000000       0.00000000       0.00000000 </v>
   <v>       0.00000000       0.00000000       0.00000000 </v>
   <v>       0.00000000       0.00000000       0.00000000 </v>
   <v>       0.00000000       0.00000000       0.00000000 </v>
  </varray>
 </structure>
 <calculation>
  <scstep>
   <time name="dav">   43.83   43.93</time>
   <time name="total">   44.27   44.38</time>
   <energy>
    <i name="alphaZ">   2431.37857233 </i>
    <i name="ewald"> -43173.59803538 </i>
    <i name="hartreedc"> -19225.21885734 </i>
    <i name="XCdc">   3149.59955302 </i>
    <i name="pawpsdc">  50594.51003143 </i>
    <i name="pawaedc"> -49994.65612350 </i>
    <i name="eentropy">     -0.02883677 </i>
    <i name="bandstr">    601.14843807 </i>
    <i name="atom">  64968.54023382 </i>
    <i name="e_fr_energy">   9351.67497568 </i>
    <i name="e_wo_entrp">   9351.70381245 </i>
    <i name="e_0_energy">   9351.68939406 </i>
   </energy>
  </scstep>
  <scstep>
   <time name="dav">   50.86   50.99</time>
   <time name="total">   50.86   50.99</time>
   <energy>
    <i name="e_fr_energy">    -30.05982120 </i>
    <i name="e_wo_entrp">    -30.05982120 </i>
    <i name="e_0_energy">    -30.05982120 </i>
   </energy>
  </scstep>
  <scstep>
   <time name="dav">   52.13   52.43</time>
   <time name="total">   52.14   52.43</time>
   <energy>
    <i name="e_fr_energy">  -1037.01125865 </i>
    <i name="e_wo_entrp">  -1037.01125865 </i>
    <i name="e_0_energy">  -1037.01125865 </i>
   </energy>
  </scstep>
  <scstep>
   <time name="dav">   54.77   54.89</time>
   <time name="total">   54.77   54.89</time>
   <energy>
    <i name="e_fr_energy">  -1086.31750530 </i>
    <i name="e_wo_entrp">  -1086.31750530 </i>
    <i name="e_0_energy">  -1086.31750530 </i>
   </energy>
  </scstep>
  <scstep>
   <time name="dav">   70.63   70.88</time>
   <time name="total">   72.42   72.68</time>
   <energy>
    <i name="e_fr_energy">  -1092.16370250 </i>
    <i name="e_wo_entrp">  -1092.16370250 </i>
    <i name="e_0_energy">  -1092.16370250 </i>
   </energy>
  </scstep>
  <scstep>
   <time name="dav">   51.25   51.36</time>
   <time name="total">   53.48   53.60</time>
   <energy>
    <i name="e_fr_energy">   -940.90254094 </i>
    <i name="e_wo_entrp">   -940.90254094 </i>
    <i name="e_0_energy">   -940.90254094 </i>
   </energy>
  </scstep>
  <scstep>
   <time name="dav">   55.24   55.31</time>
   <time name="total">   57.46   57.55</time>
   <energy>
    <i name="e_fr_energy">   -943.65592169 </i>
    <i name="e_wo_entrp">   -943.65592169 </i>
    <i name="e_0_energy">   -943.65592169 </i>
   </energy>
  </scstep>
  <scstep>
   <time name="dav">   51.17   51.28</time>
   <time name="total">   53.41   53.53</time>
   <energy>
    <i name="e_fr_energy">   -942.40386975 </i>
    <i name="e_wo_entrp">   -942.40386975 </i>
    <i name="e_0_energy">   -942.40386975 </i>
   </energy>
  </scstep>
  <scstep>
   <time name="dav">   54.39   54.50</time>
   <time name="total">   56.64   56.76</time>
   <energy>
    <i name="e_fr_energy">   -942.03278066 </i>
    <i name="e_wo_entrp">   -942.03278066 </i>
    <i name="e_0_energy">   -942.03278066 </i>
   </energy>
  </scstep>
  <scstep>
   <time name="dav">   56.89   57.00</time>
   <time name="total">   59.13   59.25</time>
   <energy>
    <i name="e_fr_energy">   -942.15493578 </i>
    <i name="e_wo_entrp">   -942.15493578 </i>
    <i name="e_0_energy">   -942.15493578 </i>
   </energy>
  </scstep>
  <scstep>
   <time name="dav">   56.82   56.95</time>
   <time name="total">   59.05   59.18</time>
   <energy>
    <i name="e_fr_energy">   -942.15697066 </i>
    <i name="e_wo_entrp">   -942.15697066 </i>
    <i name="e_0_energy">   -942.15697066 </i>
   </energy>
  </scstep>
  <scstep>
   <time name="dav">   49.61   49.74</time>
   <time name="total">   51.85   51.99</time>
   <energy>
    <i name="e_fr_energy">   -942.16866757 </i>
    <i name="e_wo_entrp">   -942.16866757 </i>
    <i name="e_0_energy">   -942.16866757 </i>
   </energy>
  </scstep>
  <scstep>
   <time name="dav">   56.92   57.05</time>
   <time name="total">   59.15   59.29</time>
   <energy>
    <i name="e_fr_energy">   -942.17138900 </i>
    <i name="e_wo_entrp">   -942.17138900 </i>
    <i name="e_0_energy">   -942.17138900 </i>
   </energy>
  </scstep>
  <scstep>
   <time name="dav">   55.36   55.60</time>
   <time name="total">   57.59   57.86</time>
   <energy>
    <i name="e_fr_energy">   -942.17167023 </i>
    <i name="e_wo_entrp">   -942.17167023 </i>
    <i name="e_0_energy">   -942.17167023 </i>
   </energy>
  </scstep>
  <scstep>
   <time name="dav">   50.45   50.57</time>
   <time name="total">   52.68   52.80</time>
   <energy>
    <i name="e_fr_energy">   -942.17168348 </i>
    <i name="e_wo_entrp">   -942.17168348 </i>
    <i name="e_0_energy">   -942.17168348 </i>
   </energy>
  </scstep>
  <scstep>
   <time name="dav">   52.79   52.97</time>
   <time name="total">   55.01   55.20</time>
   <energy>
    <i name="e_fr_energy">   -942.17162219 </i>
    <i name="e_wo_entrp">   -942.17162219 </i>
    <i name="e_0_energy">   -942.17162219 </i>
   </energy>
  </scstep>
  <scstep>
   <time name="dav">   66.74   67.26</time>
   <time name="total">   68.98   69.50</time>
   <energy>
    <i name="e_fr_energy">   -942.17164734 </i>
    <i name="e_wo_entrp">   -942.17164734 </i>
    <i name="e_0_energy">   -942.17164734 </i>
   </energy>
  </scstep>
  <scstep>
   <time name="dav">   51.34   51.43</time>
   <time name="total">   53.56   53.66</time>
   <energy>
    <i name="e_fr_energy">   -942.17164611 </i>
    <i name="e_wo_entrp">   -942.17164611 </i>
    <i name="e_0_energy">   -942.17164611 </i>
   </energy>
  </scstep>
  <scstep>
   <time name="dav">   48.05   48.12</time>
   <time name="total">   50.28   50.36</time>
   <energy>
    <i name="e_fr_energy">   -942.17164607 </i>
    <i name="e_wo_entrp">   -942.17164607 </i>
    <i name="e_0_energy">   -942.17164607 </i>
   </energy>
  </scstep>
  <scstep>
   <time name="dav">   50.99   51.10</time>
   <time name="total">   53.23   53.35</time>
   <energy>
    <i name="e_fr_energy">   -942.17164768 </i>
    <i name="e_wo_entrp">   -942.17164768 </i>
    <i name="e_0_energy">   -942.17164768 </i>
   </energy>
  </scstep>
  <scstep>
   <time name="dav">   36.50   36.58</time>
   <time name="total">   36.93   37.02</time>
   <energy>
    <i name="alphaZ">   2431.37857233 </i>
    <i name="ewald"> -43173.59803538 </i>
    <i name="hartreedc"> -20874.70493265 </i>
    <i name="XCdc">   3252.80169355 </i>
    <i name="pawpsdc">  89366.71465057 </i>
    <i name="pawaedc"> -89032.32339445 </i>
    <i name="eentropy">     -0.00000000 </i>
    <i name="bandstr">  -7880.98043591 </i>
    <i name="atom">  64968.54023382 </i>
    <i name="e_fr_energy">   -942.17164812 </i>
    <i name="e_wo_entrp">   -942.17164812 </i>
    <i name="e_0_energy">   -942.17164812 </i>
   </energy>
  </scstep>
  <structure>
   <crystal>
    <varray name="basis" >
     <v>      12.52607000       0.00000000       0.00000000 </v>
     <v>       0.00000000      12.52607000       0.00000000 </v>
     <v>       0.00000000       0.00000000      12.52607000 </v>
    </varray>
    <i name="volume">   1965.37081690 </i>
    <varray name="rec_basis" >
     <v>       0.07983350       0.00000000       0.00000000 </v>
     <v>       0.00000000       0.07983350       0.00000000 </v>
     <v>       0.00000000       0.00000000       0.07983350 </v>
    </varray>
   </crystal>
   <varray name="positions" >
    <v>       0.74997125       0.54484717       0.77418369 </v>
    <v>       0.66591258       0.86006219       0.76863269 </v>
    <v>       0.51905836       0.23122855       0.17777090 </v>
    <v>       0.13714296       0.86717846       0.62864829 </v>
    <v>       0.00677861       0.58538287       0.19694468 </v>
    <v>       0.02184624       0.19879977       0.52390240 </v>
    <v>       0.17244324       0.53282299       0.38929727 </v>
    <v>       0.19295047       0.90072660       0.08549797 </v>
    <v>       0.38572370       0.32617324       0.42974651 </v>
    <v>       0.76202382       0.39077164       0.25514502 </v>
    <v>       0.94817792       0.63814972       0.45854028 </v>
    <v>       0.31478717       0.11796449       0.61051140 </v>
    <v>       0.47937805       0.38952925       0.66133572 </v>
    <v>       0.94102593       0.11564137       0.27280663 </v>
    <v>       0.54727575       0.86761794       0.26232836 </v>
    <v>       0.15078824       0.63079154       0.63984620 </v>
    <v>       0.55805136       0.07860967       0.77645997 </v>
    <v>       0.87356813       0.29727291       0.01948862 </v>
    <v>       0.86563371       0.78163601       0.17627915 </v>
    <v>       0.64540744       0.65670031       0.54372837 </v>
    <v>       0.48318055       0.54779754       0.32759945 </v>
    <v>       0.78662626       0.25454526       0.75422600 </v>
    <v>       0.07070407       0.36722190       0.83484885 </v>
    <v>       0.67067629       0.12087432       0.38901271 </v>
    <v>       0.81246269       0.94431580       0.42666294 </v>
    <v>       0.33249628       0.43023363       0.88001486 </v>
    <v>       0.36598658       0.80258774       0.92731250 </v>
    <v>       0.94115338       0.96119561       0.02579088 </v>
    <v>       0.67695140       0.94015542       0.02098912 </v>
    <v>       0.50439605       0.61329287       0.75030349 </v>
    <v>       0.90472251       0.43511241       0.52580314 </v>
    <v>       0.09421344       0.33459699       0.27132776 </v>
    <v>       0.38426489       0.68506266       0.55345368 </v>
    <v>       0.04678570       0.75920603       0.88089055 </v>
    <v>       0.31471302       0.67571664       0.17295735 </v>
    <v>       0.50532347       0.93830370       0.52113606 </v>
    <v>       0.57507255       0.45709731       0.04357925 </v>
    <v>       0.23377006       0.35127139       0.62889018 </v>
    <v>       0.34255545       0.05791776       0.97797629 </v>
    <v>       0.66348722       0.36533418       0.51509605 </v>
    <v>       0.57356314       0.28293611       0.89805233 </v>
    <v>       0.91393235       0.77209059       0.67865063 </v>
    <v>       0.83287878       0.03138629       0.65803029 </v>
    <v>       0.12604001       0.77487340       0.32922977 </v>
    <v>       0.72292371       0.68699930       0.97360226 </v>
    <v>       0.75230450       0.08520915       0.17821175 </v>
    <v>       0.21751056       0.06424245       0.81450992 </v>
    <v>       0.99862157       0.13036826       0.82978743 </v>
    <v>       0.13987340       0.99490272       0.40782744 </v>
    <v>       0.37420615       0.07250349       0.35357732 </v>
    <v>       0.36714092       0.44347112       0.17328011 </v>
    <v>       0.74762415       0.64705898       0.31572394 </v>
    <v>       0.23801727       0.26639440       0.06982015 </v>
    <v>       0.93916121       0.54851644       0.97469761 </v>
    <v>       0.95581723       0.46643420       0.06495765 </v>
    <v>       0.55990730       0.72139668       0.78262577 </v>
    <v>       0.99174718       0.48970084       0.60270528 </v>
    <v>       0.76931481       0.68224501       0.44000838 </v>
    <v>       0.24744695       0.40703422       0.50712569 </v>
    <v>       0.00912376       0.75351902       0.59426758 </v>
    <v>       0.54610597       0.18731888       0.98965907 </v>
    <v>       0.27219076       0.74573420       0.59190176 </v>
    <v>       0.65903594       0.79365505       0.02504809 </v>
    <v>       0.42060222       0.58270143       0.83898093 </v>
    <v>       0.22171304       0.28684704       0.94128399 </v>
    <v>       0.15930662       0.01736209       0.52758881 </v>
    <v>       0.37713657       0.95715735       0.05735727 </v>
    <v>       0.01462257       0.00320188       0.39839911 </v>
    <v>       0.21816929       0.99508710       0.70902453 </v>
    <v>       0.86049697       0.32329523       0.57662302 </v>
    <v>       0.19767709       0.21997168       0.62012909 </v>
    <v>       0.68724650       0.19541737       0.23287344 </v>
    <v>       0.31382698       0.54490478       0.23116222 </v>
    <v>       0.66734028       0.29560283       0.62799508 </v>
    <v>       0.63041797       0.96304387       0.48647608 </v>
    <v>       0.23154594       0.06833163       0.33273745 </v>
    <v>       0.71184764       0.31739328       0.90594771 </v>
    <v>       0.16619433       0.89351158       0.31552214 </v>
    <v>       0.72782904       0.03873292       0.74457482 </v>
    <v>       0.58776921       0.50563638       0.73078905 </v>
    <v>       0.85417243       0.89264953       0.64149531 </v>
    <v>       0.29022658       0.14880352       0.05962737 </v>
    <v>       0.02471880       0.86469101       0.97288191 </v>
    <v>       0.45728615       0.58217987       0.62118109 </v>
    <v>       0.93420750       0.10170919       0.70246385 </v>
    <v>       0.84702275       0.13839212       0.12195785 </v>
    <v>       0.66747038       0.39375546       0.12124713 </v>
    <v>       0.50965299       0.25349807       0.80032028 </v>
    <v>       0.35969662       0.63361527       0.43509953 </v>
    <v>       0.50625355       0.79538329       0.50019954 </v>
    <v>       0.81015154       0.69093408       0.69168082 </v>
    <v>       0.11838989       0.46635692       0.23196045 </v>
    <v>       0.45816547       0.50993544       0.10978205 </v>
    <v>       0.84684246       0.61235168       0.23757924 </v>
    <v>       0.02778252       0.64319182       0.92394115 </v>
    <v>       0.64716667       0.56544399       0.33953604 </v>
    <v>       0.97873751       0.31119433       0.23026559 </v>
    <v>       0.81217228       0.00864383       0.27395212 </v>
    <v>       0.13302373       0.72206577       0.44998605 </v>
    <v>       0.72565848       0.29382494       0.42439233 </v>
    <v>       0.33381459       0.37856395       0.06192199 </v>
    <v>       0.19364943       0.26465334       0.18206873 </v>
    <v>       0.64006915       0.56969733       0.99935981 </v>
    <v>       0.93872971       0.47463158       0.86314952 </v>
    <v>       0.97683334       0.97618497       0.15126167 </v>
    <v>       0.38184601       0.36144248       0.26644637 </v>
    <v>       0.22152421       0.98195650       0.93079874 </v>
    <v>       0.50005382       0.09440963       0.28252239 </v>
    <v>       0.81215480       0.08261837       0.53092464 </v>
    <v>       0.75346991       0.72031203       0.85603422 </v>
    <v>       0.42197168       0.73475625       0.23097927 </v>
    <v>       0.59923138       0.96843445       0.90875812 </v>
    <v>       0.47802179       0.96567063       0.65021203 </v>
    <v>       0.75103130       0.47352827       0.57138649 </v>
    <v>       0.20608632       0.73475063       0.23164907 </v>
    <v>       0.91412136       0.46259938       0.41120962 </v>
    <v>       0.52672807       0.41191919       0.92669426 </v>
    <v>       0.39845156       0.15661988       0.44722881 </v>
    <v>       0.09132020       0.26041942       0.38318254 </v>
    <v>       0.94446081       0.26825083       0.83949210 </v>
    <v>       0.19358025       0.44953753       0.70769834 </v>
    <v>       0.95570210       0.80338456       0.80953939 </v>
    <v>       0.33451368       0.34781836       0.71048027 </v>
    <v>       0.98097042       0.05292810       0.94561292 </v>
    <v>       0.80725765       0.95466473       0.01348163 </v>
    <v>       0.29815685       0.68791219       0.04565999 </v>
    <v>       0.35923624       0.08694303       0.83546277 </v>
    <v>       0.85031493       0.65714842       0.02374866 </v>
    <v>       0.53991947       0.38475914       0.46932365 </v>
    <v>       0.41084699       0.96654492       0.41752365 </v>
    <v>       0.99765699       0.74564036       0.29529254 </v>
    <v>       0.65513235       0.99797674       0.13445641 </v>
    <v>       0.17872079       0.78112103       0.85459661 </v>
    <v>       0.12652979       0.15231631       0.81543228 </v>
    <v>       0.70034556       0.77351993       0.27608645 </v>
   </varray>
  </structure>
  <varray name="forces" >
   <v>       0.71532125      -0.46298403      -0.51246075 </v>
   <v>       0.59841309      -1.16979715       0.24668174 </v>
   <v>       0.48232519      -0.37743752      -1.36289368 </v>
   <v>       1.66912143       1.29683548      -0.26703776 </v>
   <v>       0.36733727      -0.72959988      -0.90936164 </v>
   <v>      -0.30510601      -0.20976673       0.87727829 </v>
   <v>       2.32608863      -0.16067159       0.88161752 </v>
   <v>      -0.87060223      -0.19248996       0.99567252 </v>
   <v>      -0.73870517      -0.59566239       0.41248841 </v>
   <v>       1.30806496      -0.45385641       2.80479640 </v>
   <v>      -0.98209168       1.09977783       0.35691388 </v>
   <v>       2.07891512      -2.77003763      -0.89226812 </v>
   <v>       3.67351154      -0.24245395      -0.36243815 </v>
   <v>       3.45854186       1.49000068      -0.28907641 </v>
   <v>      -0.71584894      -0.70392779       0.17417546 </v>
   <v>      -0.47845961      -2.41902003       0.82192859 </v>
   <v>      -1.17515179       0.83464831       0.07060441 </v>
   <v>      -0.84147654       0.11471264       0.14495876 </v>
   <v>      -0.84870797       1.35300350      -0.02015527 </v>
   <v>       0.07232162      -0.96860780       0.80512837 </v>
   <v>      -0.60182808       1.21620072       0.48599547 </v>
   <v>      -0.94688837       0.78345891      -2.23273001 </v>
   <v>       2.80418936       1.94279981      -0.93245106 </v>
   <v>      -1.10351396       1.76448565       2.02389338 </v>
   <v>       0.69431542      -2.67792580       1.75509789 </v>
   <v>       0.55322323       0.02232012      -0.39366105 </v>
   <v>      -0.08808851      -1.38599429      -0.72508142 </v>
   <v>       0.88667383      -0.66696451       0.92049895 </v>
   <v>      -1.79894347      -2.85291173      -4.30201925 </v>
   <v>       0.94084317      -3.57316377       0.70635826 </v>
   <v>      -4.17527120      -3.81181123       8.17892551 </v>
   <v>       0.35050704      -1.45005985      -1.14783290 </v>
   <v>       0.07951767       0.65551799      -3.05649377 </v>
   <v>       4.97117888       3.26981739       2.69537614 </v>
   <v>       2.18809340       1.43210818       2.01546193 </v>
   <v>      -0.05034732      -2.78320114       0.09962557 </v>
   <v>       1.55101095       3.07661627      -0.60932819 </v>
   <v>      -0.25043911       1.17347969       0.50063279 </v>
   <v>      -1.07060338      -0.70569659       0.00173079 </v>
   <v>       3.74852673      -1.01440273       2.19467906 </v>
   <v>       3.16629153       1.46485813       5.50599772 </v>
   <v>      -4.16912437       0.26372185       2.28937834 </v>
   <v>      -3.19234923      -1.29714372      -2.29201950 </v>
   <v>      -1.18138146      -1.43965282       0.86080020 </v>
   <v>      -1.35595709      -1.31994727       1.03788891 </v>
   <v>      -3.30736617       0.44887882       2.08395940 </v>
   <v>       3.60263644      -4.28724219       1.60727201 </v>
   <v>      -2.71579718       1.44127338       0.85833900 </v>
   <v>       1.89527335       0.30127203      -4.60770929 </v>
   <v>       0.52264875       0.81334525       0.17962230 </v>
   <v>      -1.33672442      -0.95043265      -3.66168796 </v>
   <v>      -3.05436734       2.38871520       0.89291516 </v>
   <v>       3.26069280       2.40042831      -5.72175380 </v>
   <v>      -0.71915976       2.87117596      -5.05537539 </v>
   <v>       0.37273951      -0.62258518       2.09832092 </v>
   <v>      -0.33208382       1.61235536      -1.46560062 </v>
   <v>       0.98928839       2.18272662      -0.73065576 </v>
   <v>       3.19390774       0.66371554      -0.18989862 </v>
   <v>      -0.12235861      -0.14890804       0.60949987 </v>
   <v>      -0.69689000      -0.69127674       1.38359761 </v>
   <v>       0.00679730       1.23697408       0.18611359 </v>
   <v>       2.65975300      -0.77385950       1.33858513 </v>
   <v>       0.70730426       1.97878079       1.30510744 </v>
   <v>      -2.24229834       0.16682678       0.35833813 </v>
   <v>      -2.73410185       0.99466084       0.22643345 </v>
   <v>       1.26431675      -0.43761036       1.77825794 </v>
   <v>       0.16151773       0.37683170      -1.60738663 </v>
   <v>      -2.64118186       1.05652544      -0.65374644 </v>
   <v>       0.03268470       0.60105112       1.40945807 </v>
   <v>       4.08112208      -1.56410308       0.03963877 </v>
   <v>      -2.80682587       4.34417172      -0.17459734 </v>
   <v>       1.01349835      -2.27034485      -1.18112347 </v>
   <v>      -1.37768398       2.62292193      -0.27471933 </v>
   <v>      -2.40534048      -0.01238969      -0.16494091 </v>
   <v>      -1.04369205       0.30039271      -0.86413622 </v>
   <v>       2.91416820       0.50410763       0.23925664 </v>
   <v>      -1.27349354      -1.33349831      -0.71109778 </v>
   <v>      -0.32754612       1.88633930       1.78660870 </v>
   <v>       2.68498480       0.41607463      -1.79539028 </v>
   <v>       0.08425373       2.34292997       0.76887712 </v>
   <v>       0.36678356       1.44773026       0.24455943 </v>
   <v>       1.97773066      -2.24981634      -0.21560007 </v>
   <v>      -0.73326820      -0.86941462       2.13039378 </v>
   <v>      -1.72771060       4.16910166      -0.88547812 </v>
   <v>       2.13905690       0.13208668       2.96883892 </v>
   <v>       1.62769930       1.93373328      -2.88931355 </v>
   <v>      -3.59588795       0.76882140      -1.96702290 </v>
   <v>      -1.00318403      -1.04078474      -4.33404922 </v>
   <v>       0.37772549      -0.74547108       1.25078989 </v>
   <v>      -1.39198522      -0.44206703       1.88415832 </v>
   <v>       2.22897649       1.16227950      -3.23891282 </v>
   <v>       0.71244927      -2.39222432       2.76990134 </v>
   <v>       4.67991946      -0.44563401      -0.06774931 </v>
   <v>      -2.05919045      -0.32514212       1.30019349 </v>
   <v>      -0.31274088      -2.59626019       2.17975102 </v>
   <v>       1.37338497      -0.46667674      -1.12884497 </v>
   <v>      -3.02111656      -1.01594778      -2.01842062 </v>
   <v>      -3.28715358       0.97889636      -0.59045152 </v>
   <v>      -0.16961175      -1.44715467      -2.11562694 </v>
   <v>      -0.92047543       0.78994320      -1.66141718 </v>
   <v>      -1.65042162      -1.46282421       2.16737125 </v>
   <v>      -3.65759121       1.36645377       4.44011274 </v>
   <v>       1.51891147       1.78347342      -0.22377691 </v>
   <v>      -2.06833609       1.57838078       1.38013728 </v>
   <v>       0.57405417      -1.48941987      -2.17763696 </v>
   <v>       1.78751596      -0.63555857       0.10399948 </v>
   <v>       0.72626463       2.99750742      -1.00825615 </v>
   <v>      -3.26349999      -1.01895668       0.16182498 </v>
   <v>       1.14463712      -1.08603542       2.62230122 </v>
   <v>      -0.80983263      -0.56876407       1.37380508 </v>
   <v>      -1.10135750      -1.01438177      -1.29488542 </v>
   <v>       2.06813281      -1.31870410       3.04547842 </v>
   <v>       0.34332273       0.55058605      -2.21063094 </v>
   <v>      -1.13146562       1.05255826      -2.11658269 </v>
   <v>      -0.20092940      -2.29802253      -1.25410161 </v>
   <v>       0.99875657       2.29719988      -6.62719396 </v>
   <v>       0.25316613      -1.46079255       2.29314373 </v>
   <v>      -0.77694069       1.61925199       1.33987721 </v>
   <v>       1.20915433       1.74197003      -1.23587195 </v>
   <v>       0.08757831      -6.15686701       1.18644515 </v>
   <v>      -3.49014697       1.40861168       0.52276180 </v>
   <v>      -1.88403212       0.14829027      -5.51804543 </v>
   <v>       0.84477621      -2.81728220      -0.29412702 </v>
   <v>       0.42725230       4.06039377      -4.37336680 </v>
   <v>       1.18191362      -1.00034938      -0.55042739 </v>
   <v>      -0.17186782       0.55821304       0.87314091 </v>
   <v>      -1.81218378       0.15695919       2.53323589 </v>
   <v>      -0.14578574      -1.35061947      -0.08199050 </v>
   <v>       0.32168866       1.34858194       0.80796540 </v>
   <v>       1.37235754      -2.87435094       1.90116189 </v>
   <v>       1.49547742      -0.00917346      -0.18657149 </v>
   <v>      -0.13111158       0.44434426       0.24628917 </v>
   <v>      -2.51318072      -0.98103041      -0.72933087 </v>
   <v>      -2.25026402       0.57908369       0.25457522 </v>
   <v>       1.38846186      -1.17412490      -0.83418741 </v>
  </varray>
  <varray name="stress" >
   <v>     -19.35633355       0.47228650       3.35471822 </v>
   <v>       0.47228651     -31.60579471      11.03730752 </v>
   <v>       3.35471823      11.03730753       5.20315711 </v>
  </varray>
  <energy>
   <i name="e_fr_energy">   -942.17164812 </i>
   <i name="e_wo_entrp">   -942.17164812 </i>
   <i name="e_0_energy">     -0.00000000 </i>
  </energy>
  <time name="totalsc"> 1203.04 1206.61</time>
  <eigenvalues>
   <array>
    <dimension dim="1">band</dimension>
    <dimension dim="2">kpoint</dimension>
    <dimension dim="3">spin</dimension>
    <field>eigene</field>
    <field>occ</field>
    <set>
     <set comment="spin 1">
      <set comment="kpoint 1">
       <r>  -38.1800    1.0000 </r>
       <r>  -37.9141    1.0000 </r>
       <r>  -37.8261    1.0000 </r>
       <r>  -37.7186    1.0000 </r>
       <r>  -37.6235    1.0000 </r>
       <r>  -37.5301    1.0000 </r>
       <r>  -37.3536    1.0000 </r>
       <r>  -37.0064    1.0000 </r>
       <r>  -36.9614    1.0000 </r>
       <r>  -36.8470    1.0000 </r>
       <r>  -36.8393    1.0000 </r>
       <r>  -36.7751    1.0000 </r>
       <r>  -36.7631    1.0000 </r>
       <r>  -36.7600    1.0000 </r>
       <r>  -36.7157    1.0000 </r>
       <r>  -36.7127    1.0000 </r>
       <r>  -36.7077    1.0000 </r>
       <r>  -36.5050    1.0000 </r>
       <r>  -36.4269    1.0000 </r>
[...]
       <r>     3.3169    14.3582   862.4771 </r>
       <r>     3.4881     8.8941   864.0000 </r>
       <r>     3.6593     0.0002   864.0000 </r>
       <r>     3.8305     0.0000   864.0000 </r>
       <r>     4.0018     0.0000   864.0000 </r>
       <r>     4.1730     0.0000   864.0000 </r>
       <r>     4.3442     0.0000   864.0000 </r>
       <r>     4.5154     0.1504   864.0258 </r>
       <r>     4.6866     1.3241   864.2525 </r>
       <r>     4.8578     4.6870   865.0550 </r>
       <r>     5.0291     5.8884   866.0632 </r>
       <r>     5.2003     7.8213   867.4023 </r>
       <r>     5.3715    13.8682   869.7768 </r>
       <r>     5.5427    10.1741   871.5188 </r>
       <r>     5.7139    16.2675   874.3041 </r>
       <r>     5.8851    17.7627   877.3453 </r>
       <r>     6.0564    17.5417   880.3488 </r>
       <r>     6.2276    23.4428   884.3626 </r>
       <r>     6.3988    30.5565   889.5944 </r>
       <r>     6.5700    47.7503   897.7701 </r>
       <r>     6.7412    45.6844   905.5921 </r>
       <r>     6.9125    50.6853   914.2703 </r>
       <r>     7.0837    57.8672   924.1782 </r>
       <r>     7.2549    67.6878   935.7676 </r>
       <r>     7.4261    70.3527   947.8132 </r>
       <r>     7.5973    66.9531   959.2767 </r>
       <r>     7.7685    89.0310   974.5204 </r>
       <r>     7.9398    81.0854   988.4037 </r>
       <r>     8.1110    91.4327  1004.0586 </r>
       <r>     8.2822    95.2692  1020.3703 </r>
       <r>     8.4534    91.0284  1035.9560 </r>
       <r>     8.6246    23.6145  1039.9992 </r>
       <r>     8.7958     0.0046  1040.0000 </r>
       <r>     8.9671     0.0000  1040.0000 </r>
       <r>     9.1383     0.0000  1040.0000 </r>
       <r>     9.3095     0.0000  1040.0000 </r>
       <r>     9.4807     0.0000  1040.0000 </r>
       <r>     9.6519     0.0000  1040.0000 </r>
       <r>     9.8232     0.0000  1040.0000 </r>
       <r>     9.9944     0.0000  1040.0000 </r>
       <r>    10.1656     0.0000  1040.0000 </r>
       <r>    10.3368     0.0000  1040.0000 </r>
       <r>    10.5080     0.0000  1040.0000 </r>
       <r>    10.6792     0.0000  1040.0000 </r>
       <r>    10.8505     0.0000  1040.0000 </r>
      </set>
     </set>
    </array>
   </total>
  </dos>
 </calculation>
 <structure name="finalpos" >
  <crystal>
   <varray name="basis" >
    <v>      12.52607000       0.00000000       0.00000000 </v>
    <v>       0.00000000      12.52607000       0.00000000 </v>
    <v>       0.00000000       0.00000000      12.52607000 </v>
   </varray>
   <i name="volume">   1965.37081690 </i>
   <varray name="rec_basis" >
    <v>       0.07983350       0.00000000       0.00000000 </v>
    <v>       0.00000000       0.07983350       0.00000000 </v>
    <v>       0.00000000       0.00000000       0.07983350 </v>
   </varray>
  </crystal>
  <varray name="positions" >
   <v>       0.74997125       0.54484717       0.77418369 </v>
   <v>       0.66591258       0.86006219       0.76863269 </v>
   <v>       0.51905836       0.23122855       0.17777090 </v>
   <v>       0.13714296       0.86717846       0.62864829 </v>
   <v>       0.00677861       0.58538287       0.19694468 </v>
   <v>       0.02184624       0.19879977       0.52390240 </v>
   <v>       0.17244324       0.53282299       0.38929727 </v>
   <v>       0.19295047       0.90072660       0.08549797 </v>
   <v>       0.38572370       0.32617324       0.42974651 </v>
   <v>       0.76202382       0.39077164       0.25514502 </v>
   <v>       0.94817792       0.63814972       0.45854028 </v>
   <v>       0.31478717       0.11796449       0.61051140 </v>
   <v>       0.47937805       0.38952925       0.66133572 </v>
   <v>       0.94102593       0.11564137       0.27280663 </v>
   <v>       0.54727575       0.86761794       0.26232836 </v>
   <v>       0.15078824       0.63079154       0.63984620 </v>
   <v>       0.55805136       0.07860967       0.77645997 </v>
   <v>       0.87356813       0.29727291       0.01948862 </v>
   <v>       0.86563371       0.78163601       0.17627915 </v>
   <v>       0.64540744       0.65670031       0.54372837 </v>
   <v>       0.48318055       0.54779754       0.32759945 </v>
   <v>       0.78662626       0.25454526       0.75422600 </v>
   <v>       0.07070407       0.36722190       0.83484885 </v>
   <v>       0.67067629       0.12087432       0.38901271 </v>
   <v>       0.81246269       0.94431580       0.42666294 </v>
   <v>       0.33249628       0.43023363       0.88001486 </v>
   <v>       0.36598658       0.80258774       0.92731250 </v>
   <v>       0.94115338       0.96119561       0.02579088 </v>
   <v>       0.67695140       0.94015542       0.02098912 </v>
   <v>       0.50439605       0.61329287       0.75030349 </v>
   <v>       0.90472251       0.43511241       0.52580314 </v>
   <v>       0.09421344       0.33459699       0.27132776 </v>
   <v>       0.38426489       0.68506266       0.55345368 </v>
   <v>       0.04678570       0.75920603       0.88089055 </v>
   <v>       0.31471302       0.67571664       0.17295735 </v>
   <v>       0.50532347       0.93830370       0.52113606 </v>
   <v>       0.57507255       0.45709731       0.04357925 </v>
   <v>       0.23377006       0.35127139       0.62889018 </v>
   <v>       0.34255545       0.05791776       0.97797629 </v>
   <v>       0.66348722       0.36533418       0.51509605 </v>
   <v>       0.57356314       0.28293611       0.89805233 </v>
   <v>       0.91393235       0.77209059       0.67865063 </v>
   <v>       0.83287878       0.03138629       0.65803029 </v>
   <v>       0.12604001       0.77487340       0.32922977 </v>
   <v>       0.72292371       0.68699930       0.97360226 </v>
   <v>       0.75230450       0.08520915       0.17821175 </v>
   <v>       0.21751056       0.06424245       0.81450992 </v>
   <v>       0.99862157       0.13036826       0.82978743 </v>
   <v>       0.13987340       0.99490272       0.40782744 </v>
   <v>       0.37420615       0.07250349       0.35357732 </v>
   <v>       0.36714092       0.44347112       0.17328011 </v>
   <v>       0.74762415       0.64705898       0.31572394 </v>
   <v>       0.23801727       0.26639440       0.06982015 </v>
   <v>       0.93916121       0.54851644       0.97469761 </v>
   <v>       0.95581723       0.46643420       0.06495765 </v>
   <v>       0.55990730       0.72139668       0.78262577 </v>
   <v>       0.99174718       0.48970084       0.60270528 </v>
   <v>       0.76931481       0.68224501       0.44000838 </v>
   <v>       0.24744695       0.40703422       0.50712569 </v>
   <v>       0.00912376       0.75351902       0.59426758 </v>
   <v>       0.54610597       0.18731888       0.98965907 </v>
   <v>       0.27219076       0.74573420       0.59190176 </v>
   <v>       0.65903594       0.79365505       0.02504809 </v>
   <v>       0.42060222       0.58270143       0.83898093 </v>
   <v>       0.22171304       0.28684704       0.94128399 </v>
   <v>       0.15930662       0.01736209       0.52758881 </v>
   <v>       0.37713657       0.95715735       0.05735727 </v>
   <v>       0.01462257       0.00320188       0.39839911 </v>
   <v>       0.21816929       0.99508710       0.70902453 </v>
   <v>       0.86049697       0.32329523       0.57662302 </v>
   <v>       0.19767709       0.21997168       0.62012909 </v>
   <v>       0.68724650       0.19541737       0.23287344 </v>
   <v>       0.31382698       0.54490478       0.23116222 </v>
   <v>       0.66734028       0.29560283       0.62799508 </v>
   <v>       0.63041797       0.96304387       0.48647608 </v>
   <v>       0.23154594       0.06833163       0.33273745 </v>
   <v>       0.71184764       0.31739328       0.90594771 </v>
   <v>       0.16619433       0.89351158       0.31552214 </v>
   <v>       0.72782904       0.03873292       0.74457482 </v>
   <v>       0.58776921       0.50563638       0.73078905 </v>
   <v>       0.85417243       0.89264953       0.64149531 </v>
   <v>       0.29022658       0.14880352       0.05962737 </v>
   <v>       0.02471880       0.86469101       0.97288191 </v>
   <v>       0.45728615       0.58217987       0.62118109 </v>
   <v>       0.93420750       0.10170919       0.70246385 </v>
   <v>       0.84702275       0.13839212       0.12195785 </v>
   <v>       0.66747038       0.39375546       0.12124713 </v>
   <v>       0.50965299       0.25349807       0.80032028 </v>
   <v>       0.35969662       0.63361527       0.43509953 </v>
   <v>       0.50625355       0.79538329       0.50019954 </v>
   <v>       0.81015154       0.69093408       0.69168082 </v>
   <v>       0.11838989       0.46635692       0.23196045 </v>
   <v>       0.45816547       0.50993544       0.10978205 </v>
   <v>       0.84684246       0.61235168       0.23757924 </v>
   <v>       0.02778252       0.64319182       0.92394115 </v>
   <v>       0.64716667       0.56544399       0.33953604 </v>
   <v>       0.97873751       0.31119433       0.23026559 </v>
   <v>       0.81217228       0.00864383       0.27395212 </v>
   <v>       0.13302373       0.72206577       0.44998605 </v>
   <v>       0.72565848       0.29382494       0.42439233 </v>
   <v>       0.33381459       0.37856395       0.06192199 </v>
   <v>       0.19364943       0.26465334       0.18206873 </v>
   <v>       0.64006915       0.56969733       0.99935981 </v>
   <v>       0.93872971       0.47463158       0.86314952 </v>
   <v>       0.97683334       0.97618497       0.15126167 </v>
   <v>       0.38184601       0.36144248       0.26644637 </v>
   <v>       0.22152421       0.98195650       0.93079874 </v>
   <v>       0.50005382       0.09440963       0.28252239 </v>
   <v>       0.81215480       0.08261837       0.53092464 </v>
   <v>       0.75346991       0.72031203       0.85603422 </v>
   <v>       0.42197168       0.73475625       0.23097927 </v>
   <v>       0.59923138       0.96843445       0.90875812 </v>
   <v>       0.47802179       0.96567063       0.65021203 </v>
   <v>       0.75103130       0.47352827       0.57138649 </v>
   <v>       0.20608632       0.73475063       0.23164907 </v>
   <v>       0.91412136       0.46259938       0.41120962 </v>
   <v>       0.52672807       0.41191919       0.92669426 </v>
   <v>       0.39845156       0.15661988       0.44722881 </v>
   <v>       0.09132020       0.26041942       0.38318254 </v>
   <v>       0.94446081       0.26825083       0.83949210 </v>
   <v>       0.19358025       0.44953753       0.70769834 </v>
   <v>       0.95570210       0.80338456       0.80953939 </v>
   <v>       0.33451368       0.34781836       0.71048027 </v>
   <v>       0.98097042       0.05292810       0.94561292 </v>
   <v>       0.80725765       0.95466473       0.01348163 </v>
   <v>       0.29815685       0.68791219       0.04565999 </v>
   <v>       0.35923624       0.08694303       0.83546277 </v>
   <v>       0.85031493       0.65714842       0.02374866 </v>
   <v>       0.53991947       0.38475914       0.46932365 </v>
   <v>       0.41084699       0.96654492       0.41752365 </v>
   <v>       0.99765699       0.74564036       0.29529254 </v>
   <v>       0.65513235       0.99797674       0.13445641 </v>
   <v>       0.17872079       0.78112103       0.85459661 </v>
   <v>       0.12652979       0.15231631       0.81543228 </v>
   <v>       0.70034556       0.77351993       0.27608645 </v>
  </varray>
  <varray name="velocities" >
   <v>       0.00000000       0.00000000       0.00000000 </v>
   <v>       0.00000000       0.00000000       0.00000000 </v>
   <v>       0.00000000       0.00000000       0.00000000 </v>
   <v>       0.00000000       0.00000000       0.00000000 </v>
   <v>       0.00000000       0.00000000       0.00000000 </v>
   <v>       0.00000000       0.00000000       0.00000000 </v>
   <v>       0.00000000       0.00000000       0.00000000 </v>
   <v>       0.00000000       0.00000000       0.00000000 </v>
   <v>       0.00000000       0.00000000       0.00000000 </v>
   <v>       0.00000000       0.00000000       0.00000000 </v>
   <v>       0.00000000       0.00000000       0.00000000 </v>
   <v>       0.00000000       0.00000000       0.00000000 </v>
   <v>       0.00000000       0.00000000       0.00000000 </v>
   <v>       0.00000000       0.00000000       0.00000000 </v>
   <v>       0.00000000       0.00000000       0.00000000 </v>
   <v>       0.00000000       0.00000000       0.00000000 </v>
   <v>       0.00000000       0.00000000       0.00000000 </v>
   <v>       0.00000000       0.00000000       0.00000000 </v>
   <v>       0.00000000       0.00000000       0.00000000 </v>
   <v>       0.00000000       0.00000000       0.00000000 </v>
   <v>       0.00000000       0.00000000       0.00000000 </v>
   <v>       0.00000000       0.00000000       0.00000000 </v>
   <v>       0.00000000       0.00000000       0.00000000 </v>
   <v>       0.00000000       0.00000000       0.00000000 </v>
   <v>       0.00000000       0.00000000       0.00000000 </v>
   <v>       0.00000000       0.00000000       0.00000000 </v>
   <v>       0.00000000       0.00000000       0.00000000 </v>
   <v>       0.00000000       0.00000000       0.00000000 </v>
   <v>       0.00000000       0.00000000       0.00000000 </v>
   <v>       0.00000000       0.00000000       0.00000000 </v>
   <v>       0.00000000       0.00000000       0.00000000 </v>
   <v>       0.00000000       0.00000000       0.00000000 </v>
   <v>       0.00000000       0.00000000       0.00000000 </v>
   <v>       0.00000000       0.00000000       0.00000000 </v>
   <v>       0.00000000       0.00000000       0.00000000 </v>
   <v>       0.00000000       0.00000000       0.00000000 </v>
   <v>       0.00000000       0.00000000       0.00000000 </v>
   <v>       0.00000000       0.00000000       0.00000000 </v>
   <v>       0.00000000       0.00000000       0.00000000 </v>
   <v>       0.00000000       0.00000000       0.00000000 </v>
   <v>       0.00000000       0.00000000       0.00000000 </v>
   <v>       0.00000000       0.00000000       0.00000000 </v>
   <v>       0.00000000       0.00000000       0.00000000 </v>
   <v>       0.00000000       0.00000000       0.00000000 </v>
   <v>       0.00000000       0.00000000       0.00000000 </v>
   <v>       0.00000000       0.00000000       0.00000000 </v>
   <v>       0.00000000       0.00000000       0.00000000 </v>
   <v>       0.00000000       0.00000000       0.00000000 </v>
   <v>       0.00000000       0.00000000       0.00000000 </v>
   <v>       0.00000000       0.00000000       0.00000000 </v>
   <v>       0.00000000       0.00000000       0.00000000 </v>
   <v>       0.00000000       0.00000000       0.00000000 </v>
   <v>       0.00000000       0.00000000       0.00000000 </v>
   <v>       0.00000000       0.00000000       0.00000000 </v>
   <v>       0.00000000       0.00000000       0.00000000 </v>
   <v>       0.00000000       0.00000000       0.00000000 </v>
   <v>       0.00000000       0.00000000       0.00000000 </v>
   <v>       0.00000000       0.00000000       0.00000000 </v>
   <v>       0.00000000       0.00000000       0.00000000 </v>
   <v>       0.00000000       0.00000000       0.00000000 </v>
   <v>       0.00000000       0.00000000       0.00000000 </v>
   <v>       0.00000000       0.00000000       0.00000000 </v>
   <v>       0.00000000       0.00000000       0.00000000 </v>
   <v>       0.00000000       0.00000000       0.00000000 </v>
   <v>       0.00000000       0.00000000       0.00000000 </v>
   <v>       0.00000000       0.00000000       0.00000000 </v>
   <v>       0.00000000       0.00000000       0.00000000 </v>
   <v>       0.00000000       0.00000000       0.00000000 </v>
   <v>       0.00000000       0.00000000       0.00000000 </v>
   <v>       0.00000000       0.00000000       0.00000000 </v>
   <v>       0.00000000       0.00000000       0.00000000 </v>
   <v>       0.00000000       0.00000000       0.00000000 </v>
   <v>       0.00000000       0.00000000       0.00000000 </v>
   <v>       0.00000000       0.00000000       0.00000000 </v>
   <v>       0.00000000       0.00000000       0.00000000 </v>
   <v>       0.00000000       0.00000000       0.00000000 </v>
   <v>       0.00000000       0.00000000       0.00000000 </v>
   <v>       0.00000000       0.00000000       0.00000000 </v>
   <v>       0.00000000       0.00000000       0.00000000 </v>
   <v>       0.00000000       0.00000000       0.00000000 </v>
   <v>       0.00000000       0.00000000       0.00000000 </v>
   <v>       0.00000000       0.00000000       0.00000000 </v>
   <v>       0.00000000       0.00000000       0.00000000 </v>
   <v>       0.00000000       0.00000000       0.00000000 </v>
   <v>       0.00000000       0.00000000       0.00000000 </v>
   <v>       0.00000000       0.00000000       0.00000000 </v>
   <v>       0.00000000       0.00000000       0.00000000 </v>
   <v>       0.00000000       0.00000000       0.00000000 </v>
   <v>       0.00000000       0.00000000       0.00000000 </v>
   <v>       0.00000000       0.00000000       0.00000000 </v>
   <v>       0.00000000       0.00000000       0.00000000 </v>
   <v>       0.00000000       0.00000000       0.00000000 </v>
   <v>       0.00000000       0.00000000       0.00000000 </v>
   <v>       0.00000000       0.00000000       0.00000000 </v>
   <v>       0.00000000       0.00000000       0.00000000 </v>
   <v>       0.00000000       0.00000000       0.00000000 </v>
   <v>       0.00000000       0.00000000       0.00000000 </v>
   <v>       0.00000000       0.00000000       0.00000000 </v>
   <v>       0.00000000       0.00000000       0.00000000 </v>
   <v>       0.00000000       0.00000000       0.00000000 </v>
   <v>       0.00000000       0.00000000       0.00000000 </v>
   <v>       0.00000000       0.00000000       0.00000000 </v>
   <v>       0.00000000       0.00000000       0.00000000 </v>
   <v>       0.00000000       0.00000000       0.00000000 </v>
   <v>       0.00000000       0.00000000       0.00000000 </v>
   <v>       0.00000000       0.00000000       0.00000000 </v>
   <v>       0.00000000       0.00000000       0.00000000 </v>
   <v>       0.00000000       0.00000000       0.00000000 </v>
   <v>       0.00000000       0.00000000       0.00000000 </v>
   <v>       0.00000000       0.00000000       0.00000000 </v>
   <v>       0.00000000       0.00000000       0.00000000 </v>
   <v>       0.00000000       0.00000000       0.00000000 </v>
   <v>       0.00000000       0.00000000       0.00000000 </v>
   <v>       0.00000000       0.00000000       0.00000000 </v>
   <v>       0.00000000       0.00000000       0.00000000 </v>
   <v>       0.00000000       0.00000000       0.00000000 </v>
   <v>       0.00000000       0.00000000       0.00000000 </v>
   <v>       0.00000000       0.00000000       0.00000000 </v>
   <v>       0.00000000       0.00000000       0.00000000 </v>
   <v>       0.00000000       0.00000000       0.00000000 </v>
   <v>       0.00000000       0.00000000       0.00000000 </v>
   <v>       0.00000000       0.00000000       0.00000000 </v>
   <v>       0.00000000       0.00000000       0.00000000 </v>
   <v>       0.00000000       0.00000000       0.00000000 </v>
   <v>       0.00000000       0.00000000       0.00000000 </v>
   <v>       0.00000000       0.00000000       0.00000000 </v>
   <v>       0.00000000       0.00000000       0.00000000 </v>
   <v>       0.00000000       0.00000000       0.00000000 </v>
   <v>       0.00000000       0.00000000       0.00000000 </v>
   <v>       0.00000000       0.00000000       0.00000000 </v>
   <v>       0.00000000       0.00000000       0.00000000 </v>
   <v>       0.00000000       0.00000000       0.00000000 </v>
   <v>       0.00000000       0.00000000       0.00000000 </v>
   <v>       0.00000000       0.00000000       0.00000000 </v>
   <v>       0.00000000       0.00000000       0.00000000 </v>
  </varray>
 </structure>
</modeling>
