<?xml version="1.0" encoding="ISO-8859-1"?>
<modeling>
 <generator>
  <i name="program" type="string">vasp </i>
  <i name="version" type="string">5.4.4.18Apr17-6-g9f103f2a35  </i>
  <i name="subversion" type="string">(build Mar 16 2023 09:39:13) complex            parallel </i>
  <i name="platform" type="string">LinuxIFC </i>
  <i name="date" type="string">2024 04 30 </i>
  <i name="time" type="string">15:45:55 </i>
 </generator>
 <incar>
  <i type="int" name="ISTART">     0</i>
  <i type="string" name="PREC">a</i>
  <i type="logical" name="ADDGRID"> T  </i>
  <i type="int" name="IBRION">    -1</i>
  <i name="EDIFF">      0.00000100</i>
  <i name="EDIFFG">     -0.01000000</i>
  <i type="int" name="NSW">     1</i>
  <i type="int" name="ISIF">     2</i>
  <i type="int" name="ISYM">     0</i>
  <i name="ENCUT">    600.00000000</i>
  <i name="POTIM">      1.00000000</i>
  <i type="string" name="LREAL">  A</i>
  <i type="int" name="ISMEAR">     0</i>
  <i name="SIGMA">      0.05000000</i>
  <i name="KSPACING">      0.30000000</i>
  <i type="logical" name="KGAMMA"> T  </i>
  <i type="logical" name="LWAVE"> F  </i>
  <i type="logical" name="LCHARG"> F  </i>
  <i type="logical" name="LSCALAPACK"> F  </i>
  <v type="int" name="KPOINT_BSE">    -1     0     0     0</v>
 </incar>
 <structure name="primitive_cell" >
  <crystal>
   <varray name="basis" >
    <v>      12.52607000       0.00000000       0.00000000 </v>
    <v>       0.00000000      12.52607000       0.00000000 </v>
    <v>       0.00000000       0.00000000      12.52607000 </v>
   </varray>
   <i name="volume">   1965.37081690 </i>
   <varray name="rec_basis" >
    <v>       0.07983350       0.00000000       0.00000000 </v>
    <v>       0.00000000       0.07983350       0.00000000 </v>
    <v>       0.00000000       0.00000000       0.07983350 </v>
   </varray>
  </crystal>
  <varray name="positions" >
   <v>       0.02265621       0.40686723      -0.34692694 </v>
   <v>      -0.05005115       0.26777442      -0.36265255 </v>
   <v>      -0.09624313       0.48932525      -0.27073987 </v>
   <v>       0.04081612       0.36268738      -0.19021799 </v>
   <v>       0.06357781       0.48797344       0.46966160 </v>
   <v>      -0.02597753       0.46570122      -0.15628847 </v>
   <v>       0.14742668       0.27403886      -0.45155148 </v>
   <v>       0.05082850       0.17252170      -0.40572107 </v>
   <v>       0.04055499      -0.39514497       0.49218287 </v>
   <v>       0.05419352      -0.43252047      -0.14279978 </v>
   <v>       0.09457045      -0.33761653      -0.40936787 </v>
   <v>       0.25791414       0.25247455      -0.37588132 </v>
   <v>       0.19116104       0.17725487      -0.28335851 </v>
   <v>      -0.26929205       0.39624426      -0.32292316 </v>
   <v>      -0.11999523       0.47846577      -0.07740570 </v>
   <v>       0.32991653       0.33863644      -0.32825778 </v>
   <v>       0.14865503       0.39653321      -0.05493003 </v>
   <v>       0.00245682       0.17255486      -0.13255305 </v>
   <v>      -0.00209347       0.08757424      -0.30448543 </v>
   <v>      -0.07007019      -0.33898955       0.46945525 </v>
   <v>       0.17226686       0.42746252       0.36119635 </v>
   <v>      -0.20807313       0.28668437      -0.12691633 </v>
   <v>      -0.24353785      -0.35618899      -0.30523497 </v>
   <v>       0.30073883      -0.45056788       0.46596379 </v>
   <v>       0.07044860       0.07801039       0.48303179 </v>
   <v>      -0.24895396       0.42621986      -0.07208232 </v>
   <v>      -0.32352529       0.46577660      -0.17442320 </v>
   <v>      -0.26476299      -0.39522727       0.47605423 </v>
   <v>       0.03637709       0.31877077       0.03421363 </v>
   <v>      -0.10196747      -0.46948169       0.29973821 </v>
   <v>      -0.17838814      -0.38670592       0.38109033 </v>
   <v>       0.19720128      -0.24600702      -0.24901375 </v>
   <v>       0.35003038       0.20828585      -0.46567131 </v>
   <v>       0.08230669      -0.36263317       0.32905844 </v>
   <v>      -0.28262586       0.15391394      -0.45012207 </v>
   <v>      -0.16817962       0.04059146      -0.38723066 </v>
   <v>       0.29793165       0.28703792       0.36297298 </v>
   <v>      -0.21916249       0.23138367       0.35233610 </v>
   <v>       0.11235753       0.30845491       0.25003176 </v>
   <v>       0.44902132       0.40299443      -0.30139122 </v>
   <v>       0.41898518       0.42841300      -0.17870825 </v>
   <v>      -0.14147920       0.06192620       0.44014890 </v>
   <v>      -0.24805101       0.13768423       0.43561336 </v>
   <v>       0.32958980       0.26394219      -0.06671111 </v>
   <v>       0.45318153      -0.48676861      -0.37233983 </v>
   <v>       0.26194613      -0.35035599      -0.06090386 </v>
   <v>       0.23988920      -0.24472057       0.47408573 </v>
   <v>       0.05540305      -0.29189741      -0.00951004 </v>
   <v>      -0.21045472      -0.23794394      -0.18452141 </v>
   <v>       0.42439229      -0.43396646      -0.49034818 </v>
   <v>       0.36966865      -0.31179374      -0.24485287 </v>
   <v>       0.00921170      -0.40112557       0.23127584 </v>
   <v>      -0.09156282       0.16286544       0.27193831 </v>
   <v>       0.05247888      -0.05891755      -0.29327541 </v>
   <v>      -0.28615927       0.18546432      -0.07001713 </v>
   <v>      -0.10017640       0.29689244       0.20905381 </v>
   <v>       0.39708230       0.23388609       0.41933905 </v>
   <v>      -0.44844210       0.33252090      -0.30100631 </v>
   <v>       0.39866984      -0.43027536      -0.08986658 </v>
   <v>       0.33003083       0.03212580      -0.35389572 </v>
   <v>      -0.00251680       0.11065914       0.03919854 </v>
   <v>       0.18438550       0.08198277      -0.01750103 </v>
   <v>       0.39761968       0.11006554      -0.23522178 </v>
   <v>       0.18838057      -0.47957909       0.10222396 </v>
   <v>       0.12525325      -0.04418442       0.48234180 </v>
   <v>       0.01936328       0.34452721       0.15785437 </v>
   <v>       0.01489231       0.48048183       0.15745125 </v>
   <v>      -0.19307401       0.09693980      -0.01705030 </v>
   <v>      -0.02918023      -0.09163340      -0.38174940 </v>
   <v>      -0.37258070       0.15238395      -0.16384792 </v>
   <v>      -0.27907169       0.46243063       0.05386308 </v>
   <v>       0.05535157      -0.13985159       0.42763625 </v>
   <v>       0.14968313      -0.08767406      -0.36660933 </v>
   <v>       0.30744750       0.15041888      -0.00584277 </v>
   <v>      -0.21598486      -0.26016621       0.33984610 </v>
   <v>      -0.35502532       0.44316086       0.30133757 </v>
   <v>       0.44417182      -0.30612097      -0.45550650 </v>
   <v>      -0.16282804      -0.12984897       0.48859455 </v>
   <v>       0.25069090      -0.36758585       0.07244736 </v>
   <v>      -0.26106229       0.35421330       0.20875629 </v>
   <v>      -0.49124924       0.47969208       0.45317875 </v>
   <v>       0.08993103      -0.09274163      -0.16687441 </v>
   <v>       0.40879450       0.48045104       0.28923113 </v>
   <v>      -0.45294863       0.16343757      -0.29098180 </v>
   <v>      -0.41232009      -0.27888927      -0.28455611 </v>
   <v>      -0.21151558      -0.20294746      -0.05563118 </v>
   <v>       0.29525431       0.35114313       0.18874469 </v>
   <v>       0.46893239       0.33107598      -0.03951546 </v>
   <v>       0.46276886      -0.26219146      -0.32883712 </v>
   <v>       0.26006957       0.09612562       0.26286389 </v>
   <v>       0.39594797       0.46034279       0.06107670 </v>
   <v>       0.26516348      -0.06357629       0.46639599 </v>
   <v>       0.39391946       0.10158762       0.36257592 </v>
   <v>      -0.29545452      -0.27928323      -0.00588888 </v>
   <v>       0.09596188       0.03584496       0.06922895 </v>
   <v>      -0.34455451       0.21166018       0.03329092 </v>
   <v>       0.33992689      -0.27705869       0.31037558 </v>
   <v>      -0.02589522      -0.31226611       0.14298316 </v>
   <v>      -0.49452334       0.27964588       0.37269248 </v>
   <v>       0.30748916      -0.07463142      -0.20256303 </v>
   <v>      -0.30818589       0.04731983       0.32720073 </v>
   <v>      -0.48584624       0.41638055       0.32900561 </v>
   <v>       0.47960540       0.04904120      -0.45335359 </v>
   <v>       0.40193936      -0.00224043      -0.15372900 </v>
   <v>      -0.10491687      -0.13520509       0.00329715 </v>
   <v>      -0.35277009      -0.15053401      -0.19764290 </v>
   <v>      -0.16903278      -0.01733658       0.03272744 </v>
   <v>       0.37966095       0.04208197      -0.02424299 </v>
   <v>      -0.31586236      -0.09191471      -0.39220604 </v>
   <v>      -0.39732309      -0.28155570       0.34502281 </v>
   <v>       0.20372798      -0.27503101       0.14581718 </v>
   <v>       0.32095142       0.16950783       0.14172824 </v>
   <v>       0.39974048      -0.33991194       0.07810215 </v>
   <v>       0.15309512       0.00652929       0.19476030 </v>
   <v>       0.10852642      -0.08193593       0.04068231 </v>
   <v>       0.05979946      -0.14967920       0.20691601 </v>
   <v>      -0.24316893      -0.31514552       0.15348958 </v>
   <v>       0.27811510      -0.11729016      -0.01234576 </v>
   <v>       0.46449698      -0.13397863      -0.35067595 </v>
   <v>      -0.27927017      -0.08218795      -0.05025612 </v>
   <v>       0.45296699      -0.49041999       0.17129122 </v>
   <v>      -0.18629784       0.01223829       0.16435953 </v>
   <v>      -0.48495981       0.36672100       0.20189448 </v>
   <v>      -0.43518791      -0.07391707      -0.43118341 </v>
   <v>       0.39445163      -0.26364505       0.19344033 </v>
   <v>      -0.45659365      -0.14681152       0.46238448 </v>
   <v>      -0.45294166      -0.36475006       0.21466021 </v>
   <v>      -0.47773537       0.18180929       0.21619399 </v>
   <v>      -0.32680080      -0.01910782       0.21648062 </v>
   <v>       0.45322671      -0.06398873       0.35182087 </v>
   <v>      -0.49668142      -0.07575563      -0.14305168 </v>
   <v>      -0.34632877      -0.14337736       0.22005111 </v>
   <v>       0.42118585      -0.14843829       0.15551559 </v>
   <v>      -0.45177823       0.02881956       0.16148195 </v>
   <v>      -0.46666676      -0.11452730       0.04509659 </v>
  </varray>
 </structure>
 <varray name="primitive_index" >
  <v type="int" >        1 </v>
  <v type="int" >      107 </v>
  <v type="int" >      127 </v>
  <v type="int" >       96 </v>
  <v type="int" >      134 </v>
  <v type="int" >       36 </v>
  <v type="int" >      125 </v>
  <v type="int" >       50 </v>
  <v type="int" >       30 </v>
  <v type="int" >      121 </v>
  <v type="int" >       80 </v>
  <v type="int" >       49 </v>
  <v type="int" >      122 </v>
  <v type="int" >       21 </v>
  <v type="int" >       59 </v>
  <v type="int" >       97 </v>
  <v type="int" >       23 </v>
  <v type="int" >       14 </v>
  <v type="int" >       81 </v>
  <v type="int" >       58 </v>
  <v type="int" >       12 </v>
  <v type="int" >       65 </v>
  <v type="int" >       26 </v>
  <v type="int" >       62 </v>
  <v type="int" >      104 </v>
  <v type="int" >       29 </v>
  <v type="int" >       77 </v>
  <v type="int" >      131 </v>
  <v type="int" >      124 </v>
  <v type="int" >       68 </v>
  <v type="int" >       34 </v>
  <v type="int" >       25 </v>
  <v type="int" >       98 </v>
  <v type="int" >      105 </v>
  <v type="int" >       91 </v>
  <v type="int" >        5 </v>
  <v type="int" >       64 </v>
  <v type="int" >      103 </v>
  <v type="int" >       86 </v>
  <v type="int" >       40 </v>
  <v type="int" >      101 </v>
  <v type="int" >      102 </v>
  <v type="int" >       42 </v>
  <v type="int" >       69 </v>
  <v type="int" >      111 </v>
  <v type="int" >       84 </v>
  <v type="int" >       11 </v>
  <v type="int" >       13 </v>
  <v type="int" >       83 </v>
  <v type="int" >       43 </v>
  <v type="int" >      106 </v>
  <v type="int" >       45 </v>
  <v type="int" >       22 </v>
  <v type="int" >       44 </v>
  <v type="int" >       41 </v>
  <v type="int" >       60 </v>
  <v type="int" >       46 </v>
  <v type="int" >       90 </v>
  <v type="int" >        4 </v>
  <v type="int" >       16 </v>
  <v type="int" >      116 </v>
  <v type="int" >       95 </v>
  <v type="int" >      128 </v>
  <v type="int" >      130 </v>
  <v type="int" >       51 </v>
  <v type="int" >       33 </v>
  <v type="int" >       73 </v>
  <v type="int" >      112 </v>
  <v type="int" >       85 </v>
  <v type="int" >       99 </v>
  <v type="int" >      133 </v>
  <v type="int" >       94 </v>
  <v type="int" >       88 </v>
  <v type="int" >       48 </v>
  <v type="int" >      113 </v>
  <v type="int" >      115 </v>
  <v type="int" >      126 </v>
  <v type="int" >       20 </v>
  <v type="int" >       37 </v>
  <v type="int" >       24 </v>
  <v type="int" >      117 </v>
  <v type="int" >      114 </v>
  <v type="int" >       56 </v>
  <v type="int" >        8 </v>
  <v type="int" >      100 </v>
  <v type="int" >       39 </v>
  <v type="int" >        3 </v>
  <v type="int" >        6 </v>
  <v type="int" >       54 </v>
  <v type="int" >       17 </v>
  <v type="int" >       76 </v>
  <v type="int" >      118 </v>
  <v type="int" >       78 </v>
  <v type="int" >       74 </v>
  <v type="int" >       47 </v>
  <v type="int" >      108 </v>
  <v type="int" >       61 </v>
  <v type="int" >       75 </v>
  <v type="int" >       70 </v>
  <v type="int" >       55 </v>
  <v type="int" >       63 </v>
  <v type="int" >       38 </v>
  <v type="int" >      120 </v>
  <v type="int" >       35 </v>
  <v type="int" >       66 </v>
  <v type="int" >       10 </v>
  <v type="int" >       52 </v>
  <v type="int" >      132 </v>
  <v type="int" >      119 </v>
  <v type="int" >        2 </v>
  <v type="int" >       89 </v>
  <v type="int" >       72 </v>
  <v type="int" >       67 </v>
  <v type="int" >       79 </v>
  <v type="int" >      129 </v>
  <v type="int" >        9 </v>
  <v type="int" >       19 </v>
  <v type="int" >       15 </v>
  <v type="int" >      135 </v>
  <v type="int" >       93 </v>
  <v type="int" >       28 </v>
  <v type="int" >      109 </v>
  <v type="int" >       57 </v>
  <v type="int" >       32 </v>
  <v type="int" >       31 </v>
  <v type="int" >       71 </v>
  <v type="int" >      110 </v>
  <v type="int" >        7 </v>
  <v type="int" >       53 </v>
  <v type="int" >       27 </v>
  <v type="int" >       92 </v>
  <v type="int" >       82 </v>
  <v type="int" >      123 </v>
  <v type="int" >       87 </v>
  <v type="int" >       18 </v>
 </varray>
 <kpoints>
  <generation param="Gamma">
   <v type="int" name="divisions">       2        2        2 </v>
   <v name="usershift">      0.00000000       0.00000000       0.00000000 </v>
   <v name="genvec1">      0.50000000       0.00000000       0.00000000 </v>
   <v name="genvec2">      0.00000000       0.50000000       0.00000000 </v>
   <v name="genvec3">      0.00000000       0.00000000       0.50000000 </v>
   <v name="shift">      0.00000000       0.00000000       0.00000000 </v>
  </generation>
  <varray name="kpointlist" >
   <v>       0.00000000       0.00000000       0.00000000 </v>
   <v>       0.50000000       0.00000000       0.00000000 </v>
   <v>       0.00000000       0.50000000       0.00000000 </v>
   <v>       0.50000000       0.50000000       0.00000000 </v>
   <v>       0.00000000       0.00000000       0.50000000 </v>
   <v>       0.50000000       0.00000000       0.50000000 </v>
   <v>       0.00000000       0.50000000       0.50000000 </v>
   <v>       0.50000000       0.50000000       0.50000000 </v>
  </varray>
  <varray name="weights" >
   <v>       0.12500000 </v>
   <v>       0.12500000 </v>
   <v>       0.12500000 </v>
   <v>       0.12500000 </v>
   <v>       0.12500000 </v>
   <v>       0.12500000 </v>
   <v>       0.12500000 </v>
   <v>       0.12500000 </v>
  </varray>
 </kpoints>
 <parameters>
  <separator name="general" >
   <i type="string" name="SYSTEM">unknown system</i>
   <i type="logical" name="LCOMPAT"> F  </i>
  </separator>
  <separator name="electronic" >
   <i type="string" name="PREC">a</i>
   <i name="ENMAX">    600.00000000</i>
   <i name="ENAUG">    605.39200000</i>
   <i name="EDIFF">      0.00000100</i>
   <i type="int" name="IALGO">    38</i>
   <i type="int" name="IWAVPR">    10</i>
   <i type="int" name="NBANDS">   520</i>
   <i name="NELECT">    864.00000000</i>
   <i type="int" name="TURBO">     0</i>
   <i type="int" name="IRESTART">     0</i>
   <i type="int" name="NREBOOT">     0</i>
   <i type="int" name="NMIN">     0</i>
   <i name="EREF">      0.00000000</i>
   <separator name="electronic smearing" >
    <i type="int" name="ISMEAR">     0</i>
    <i name="SIGMA">      0.05000000</i>
    <i name="KSPACING">      0.30000000</i>
    <i type="logical" name="KGAMMA"> T  </i>
   </separator>
   <separator name="electronic projectors" >
    <i type="logical" name="LREAL"> T  </i>
    <v name="ROPT">     -0.00025000     -0.00025000     -0.00025000</v>
    <i type="int" name="LMAXPAW">  -100</i>
    <i type="int" name="LMAXMIX">     2</i>
    <i type="logical" name="NLSPLINE"> F  </i>
   </separator>
   <separator name="electronic startup" >
    <i type="int" name="ISTART">     0</i>
    <i type="int" name="ICHARG">     2</i>
    <i type="int" name="INIWAV">     1</i>
   </separator>
   <separator name="electronic spin" >
    <i type="int" name="ISPIN">     1</i>
    <i type="logical" name="LNONCOLLINEAR"> F  </i>
    <v name="MAGMOM">      1.00000000      1.00000000      1.00000000      1.00000000      1.00000000      1.00000000      1.00000000      1.00000000      1.00000000      1.00000000      1.00000000      1.00000000      1.00000000      1.00000000      1.00000000      1.00000000      1.00000000      1.00000000      1.00000000      1.00000000
      1.00000000      1.00000000      1.00000000      1.00000000      1.00000000      1.00000000      1.00000000      1.00000000      1.00000000      1.00000000      1.00000000      1.00000000      1.00000000      1.00000000      1.00000000      1.00000000      1.00000000      1.00000000      1.00000000      1.00000000
      1.00000000      1.00000000      1.00000000      1.00000000      1.00000000      1.00000000      1.00000000      1.00000000      1.00000000      1.00000000      1.00000000      1.00000000      1.00000000      1.00000000      1.00000000      1.00000000      1.00000000      1.00000000      1.00000000      1.00000000
      1.00000000      1.00000000      1.00000000      1.00000000      1.00000000      1.00000000      1.00000000      1.00000000      1.00000000      1.00000000      1.00000000      1.00000000      1.00000000      1.00000000      1.00000000      1.00000000      1.00000000      1.00000000      1.00000000      1.00000000
      1.00000000      1.00000000      1.00000000      1.00000000      1.00000000      1.00000000      1.00000000      1.00000000      1.00000000      1.00000000      1.00000000      1.00000000      1.00000000      1.00000000      1.00000000      1.00000000      1.00000000      1.00000000      1.00000000      1.00000000
      1.00000000      1.00000000      1.00000000      1.00000000      1.00000000      1.00000000      1.00000000      1.00000000      1.00000000      1.00000000      1.00000000      1.00000000      1.00000000      1.00000000      1.00000000      1.00000000      1.00000000      1.00000000      1.00000000      1.00000000
      1.00000000      1.00000000      1.00000000      1.00000000      1.00000000      1.00000000      1.00000000      1.00000000      1.00000000      1.00000000      1.00000000      1.00000000      1.00000000      1.00000000      1.00000000</v>
    <i name="NUPDOWN">     -1.00000000</i>
    <i type="logical" name="LSORBIT"> F  </i>
    <v name="SAXIS">      0.00000000      0.00000000      1.00000000</v>
    <i type="logical" name="LSPIRAL"> F  </i>
    <v name="QSPIRAL">      0.00000000      0.00000000      0.00000000</v>
    <i type="logical" name="LZEROZ"> F  </i>
   </separator>
   <separator name="electronic exchange-correlation" >
    <i type="logical" name="LASPH"> F  </i>
    <i type="logical" name="LMETAGGA"> F  </i>
   </separator>
   <separator name="electronic convergence" >
    <i type="int" name="NELM">    60</i>
    <i type="int" name="NELMDL">    -5</i>
    <i type="int" name="NELMIN">     2</i>
    <i name="ENINI">    600.00000000</i>
    <separator name="electronic convergence detail" >
     <i type="logical" name="LDIAG"> T  </i>
     <i type="logical" name="LSUBROT"> F  </i>
     <i name="WEIMIN">      0.00000000</i>
     <i name="EBREAK">      0.00000000</i>
     <i name="DEPER">      0.30000000</i>
     <i type="int" name="NRMM">     4</i>
     <i name="TIME">      0.40000000</i>
    </separator>
   </separator>
   <separator name="electronic mixer" >
    <i name="AMIX">      0.40000000</i>
    <i name="BMIX">      1.00000000</i>
    <i name="AMIN">      0.10000000</i>
    <i name="AMIX_MAG">      1.60000000</i>
    <i name="BMIX_MAG">      1.00000000</i>
    <separator name="electronic mixer details" >
     <i type="int" name="IMIX">     4</i>
     <i type="logical" name="MIXFIRST"> F  </i>
     <i type="int" name="MAXMIX">   -45</i>
     <i name="WC">    100.00000000</i>
     <i type="int" name="INIMIX">     1</i>
     <i type="int" name="MIXPRE">     1</i>
     <i type="int" name="MREMOVE">     5</i>
    </separator>
   </separator>
   <separator name="electronic dipolcorrection" >
    <i type="logical" name="LDIPOL"> F  </i>
    <i type="logical" name="LMONO"> F  </i>
    <i type="int" name="IDIPOL">     0</i>
    <i name="EPSILON">      1.00000000</i>
    <v name="DIPOL">   -100.00000000   -100.00000000   -100.00000000</v>
    <i name="EFIELD">      0.00000000</i>
   </separator>
  </separator>
  <separator name="grids" >
   <i type="int" name="NGX">   100</i>
   <i type="int" name="NGY">   100</i>
   <i type="int" name="NGZ">   100</i>
   <i type="int" name="NGXF">   200</i>
   <i type="int" name="NGYF">   200</i>
   <i type="int" name="NGZF">   200</i>
   <i type="logical" name="ADDGRID"> T  </i>
  </separator>
  <separator name="ionic" >
   <i type="int" name="NSW">     1</i>
   <i type="int" name="IBRION">    -1</i>
   <i type="int" name="MDALGO">     0</i>
   <i type="int" name="ISIF">     2</i>
   <i name="PSTRESS">      0.00000000</i>
   <i name="EDIFFG">     -0.01000000</i>
   <i type="int" name="NFREE">     0</i>
   <i name="POTIM">      1.00000000</i>
   <i name="SMASS">     -3.00000000</i>
   <i name="SCALEE">      1.00000000</i>
  </separator>
  <separator name="ionic md" >
   <i name="TEBEG">      0.00010000</i>
   <i name="TEEND">      0.00010000</i>
   <i type="int" name="NBLOCK">     1</i>
   <i type="int" name="KBLOCK">     1</i>
   <i type="int" name="NPACO">   256</i>
   <i name="APACO">     16.00000000</i>
  </separator>
  <separator name="symmetry" >
   <i type="int" name="ISYM">     0</i>
   <i name="SYMPREC">      0.00001000</i>
  </separator>
  <separator name="dos" >
   <i type="int" name="LORBIT">     0</i>
   <v name="RWIGS">     -1.00000000     -1.00000000     -1.00000000</v>
   <i type="int" name="NEDOS">   301</i>
   <i name="EMIN">     10.00000000</i>
   <i name="EMAX">    -10.00000000</i>
   <i name="EFERMI">      0.00000000</i>
  </separator>
  <separator name="writing" >
   <i type="int" name="NWRITE">     2</i>
   <i type="logical" name="LWAVE"> F  </i>
   <i type="logical" name="LDOWNSAMPLE"> F  </i>
   <i type="logical" name="LCHARG"> F  </i>
   <i type="logical" name="LPARD"> F  </i>
   <i type="logical" name="LVTOT"> F  </i>
   <i type="logical" name="LVHAR"> F  </i>
   <i type="logical" name="LELF"> F  </i>
   <i type="logical" name="LOPTICS"> F  </i>
   <v name="STM">      0.00000000      0.00000000      0.00000000      0.00000000      0.00000000      0.00000000      0.00000000</v>
  </separator>
  <separator name="performance" >
   <i type="int" name="NPAR">     4</i>
   <i type="int" name="NSIM">     4</i>
   <i type="int" name="NBLK">    -1</i>
   <i type="logical" name="LPLANE"> T  </i>
   <i type="logical" name="LSCALAPACK"> F  </i>
   <i type="logical" name="LSCAAWARE"> F  </i>
   <i type="logical" name="LSCALU"> F  </i>
   <i type="logical" name="LASYNC"> F  </i>
   <i type="logical" name="LORBITALREAL"> F  </i>
  </separator>
  <separator name="miscellaneous" >
   <i type="int" name="IDIOT">     3</i>
   <i type="int" name="ISPECIAL">     0</i>
   <i type="logical" name="LMUSIC"> F  </i>
   <v name="POMASS">     40.07800000     28.08500000     16.00000000</v>
   <v name="DARWINR">      0.00000000      0.00000000      0.00000000</v>
   <v name="DARWINV">      1.00000000      1.00000000      1.00000000</v>
   <i type="logical" name="LCORR"> T  </i>
  </separator>
  <i type="logical" name="GGA_COMPAT"> T  </i>
  <i type="logical" name="LBERRY"> F  </i>
  <i type="int" name="ICORELEVEL">     0</i>
  <i type="logical" name="LDAU"> F  </i>
  <i type="int" name="I_CONSTRAINED_M">     0</i>
  <separator name="electronic exchange-correlation" >
   <i type="string" name="GGA">--</i>
   <i type="int" name="VOSKOWN">     0</i>
   <i type="logical" name="LHFCALC"> F  </i>
   <i type="string" name="PRECFOCK"></i>
   <i type="logical" name="LSYMGRAD"> F  </i>
   <i type="logical" name="LHFONE"> F  </i>
   <i type="logical" name="LRHFCALC"> F  </i>
   <i type="logical" name="LTHOMAS"> F  </i>
   <i type="logical" name="LMODELHF"> F  </i>
   <i name="ENCUT4O">     -1.00000000</i>
   <i type="int" name="EXXOEP">     0</i>
   <i type="int" name="FOURORBIT">     0</i>
   <i name="AEXX">      0.00000000</i>
   <i name="HFALPHA">      0.00000000</i>
   <i name="MCALPHA">      0.00000000</i>
   <i name="ALDAX">      1.00000000</i>
   <i name="AGGAX">      1.00000000</i>
   <i name="ALDAC">      1.00000000</i>
   <i name="AGGAC">      1.00000000</i>
   <i type="int" name="NKREDX">     1</i>
   <i type="int" name="NKREDY">     1</i>
   <i type="int" name="NKREDZ">     1</i>
   <i type="logical" name="SHIFTRED"> F  </i>
   <i type="logical" name="ODDONLY"> F  </i>
   <i type="logical" name="EVENONLY"> F  </i>
   <i type="int" name="LMAXFOCK">     0</i>
   <i type="int" name="NMAXFOCKAE">     0</i>
   <i type="logical" name="LFOCKAEDFT"> F  </i>
   <i name="HFSCREEN">      0.00000000</i>
   <i name="HFSCREENC">      0.00000000</i>
   <i type="int" name="NBANDSGWLOW">     0</i>
  </separator>
  <separator name="vdW DFT" >
   <i type="logical" name="LUSE_VDW"> F  </i>
   <i name="Zab_VDW">     -0.84910000</i>
   <i name="PARAM1">      0.12340000</i>
   <i name="PARAM2">      1.00000000</i>
   <i name="PARAM3">      0.00000000</i>
  </separator>
  <separator name="model GW" >
   <i type="int" name="MODEL_GW">     0</i>
   <i name="MODEL_EPS0">      8.73498141</i>
   <i name="MODEL_ALPHA">      1.00000000</i>
  </separator>
  <separator name="linear response parameters" >
   <i type="logical" name="LEPSILON"> F  </i>
   <i type="logical" name="LRPA"> F  </i>
   <i type="logical" name="LNABLA"> F  </i>
   <i type="logical" name="LVEL"> F  </i>
   <i type="int" name="KINTER">     0</i>
   <i name="CSHIFT">      0.10000000</i>
   <i name="OMEGAMAX">     -1.00000000</i>
   <i name="DEG_THRESHOLD">      0.00200000</i>
   <i name="RTIME">     -0.10000000</i>
   <i name="WPLASMAI">      0.00000000</i>
   <v name="DFIELD">      0.00000000      0.00000000      0.00000000</v>
   <v name="WPLASMA">      0.00000000      0.00000000      0.00000000      0.00000000      0.00000000      0.00000000      0.00000000      0.00000000      0.00000000</v>
  </separator>
  <separator name="orbital magnetization" >
   <i type="logical" name="NUCIND"> F  </i>
   <v name="MAGPOS">      0.00000000      0.00000000      0.00000000</v>
   <i type="logical" name="LNICSALL"> T  </i>
   <i type="logical" name="ORBITALMAG"> F  </i>
   <i type="logical" name="LMAGBLOCH"> F  </i>
   <i type="logical" name="LCHIMAG"> F  </i>
   <i type="logical" name="LGAUGE"> T  </i>
   <i type="int" name="MAGATOM">     0</i>
   <v name="MAGDIPOL">      0.00000000      0.00000000      0.00000000</v>
   <v name="AVECCONST">      0.00000000      0.00000000      0.00000000</v>
  </separator>
  <separator name="response functions" >
   <i type="logical" name="LADDER"> F  </i>
   <i type="logical" name="LRPAFORCE"> F  </i>
   <i type="logical" name="LFXC"> F  </i>
   <i type="logical" name="LHARTREE"> T  </i>
   <i type="int" name="IBSE">     0</i>
   <v type="int" name="KPOINT">    -1     0     0     0</v>
   <i type="logical" name="LTCTE"> F  </i>
   <i type="logical" name="LTETE"> F  </i>
   <i type="logical" name="LTRIPLET"> F  </i>
   <i type="logical" name="LFXCEPS"> F  </i>
   <i type="logical" name="LFXHEG"> F  </i>
   <i type="int" name="NATURALO">     2</i>
   <i type="logical" name="L2ORDER"> F  </i>
   <i type="logical" name="LMP2LT"> F  </i>
   <i type="logical" name="LUSEW"> F  </i>
   <i name="ENCUTGW">     -2.00000000</i>
   <i name="ENCUTGWSOFT">     -2.00000000</i>
   <i name="ENCUTLF">     -1.00000000</i>
   <i type="int" name="LMAXMP2">    -1</i>
   <i name="SCISSOR">      0.00000000</i>
   <i type="int" name="NOMEGA">     0</i>
   <i type="int" name="NOMEGAR">     0</i>
   <i type="int" name="NBANDSGW">    -1</i>
   <i type="int" name="NBANDSO">    -1</i>
   <i type="int" name="NBANDSV">    -1</i>
   <i type="int" name="NELM">     1</i>
   <i type="int" name="NELMHF">     1</i>
   <i type="int" name="DIM">     3</i>
   <i type="int" name="ANTIRES">     0</i>
   <i name="OMEGAMAX">    -30.00000000</i>
   <i name="OMEGAMIN">    -30.00000000</i>
   <i name="OMEGATL">   -200.00000000</i>
   <i type="int" name="OMEGAGRID">   140</i>
   <i name="CSHIFT">     -0.10000000</i>
   <i type="logical" name="SELFENERGY"> F  </i>
   <i type="logical" name="LSPECTRAL"> F  </i>
   <i type="logical" name="LSPECTRALGW"> F  </i>
   <i type="logical" name="LSINGLES"> F  </i>
   <i type="logical" name="LFERMIGW"> F  </i>
   <i type="logical" name="ODDONLYGW"> F  </i>
   <i type="logical" name="EVENONLYGW"> F  </i>
   <i type="int" name="NKREDLFX">     1</i>
   <i type="int" name="NKREDLFY">     1</i>
   <i type="int" name="NKREDLFZ">     1</i>
   <i type="int" name="MAXMEM">  2800</i>
   <i type="int" name="TELESCOPE">     0</i>
   <i type="int" name="TAUPAR">     1</i>
   <i type="int" name="OMEGAPAR">    -1</i>
   <i name="LAMBDA">      1.00000000</i>
  </separator>
  <separator name="External order field" >
   <i name="OFIELD_KAPPA">      0.00000000</i>
   <v name="OFIELD_K">      0.00000000      0.00000000      0.00000000</v>
   <i name="OFIELD_Q6_NEAR">      0.00000000</i>
   <i name="OFIELD_Q6_FAR">      0.00000000</i>
   <i name="OFIELD_A">      0.00000000</i>
  </separator>
 </parameters>
 <atominfo>
  <atoms>     135 </atoms>
  <types>       3 </types>
  <array name="atoms" >
   <dimension dim="1">ion</dimension>
   <field type="string">element</field>
   <field type="int">atomtype</field>
   <set>
    <rc><c>Ca</c><c>   1</c></rc>
    <rc><c>Ca</c><c>   1</c></rc>
    <rc><c>Ca</c><c>   1</c></rc>
    <rc><c>Ca</c><c>   1</c></rc>
    <rc><c>Ca</c><c>   1</c></rc>
    <rc><c>Ca</c><c>   1</c></rc>
    <rc><c>Ca</c><c>   1</c></rc>
    <rc><c>Ca</c><c>   1</c></rc>
    <rc><c>Ca</c><c>   1</c></rc>
    <rc><c>Ca</c><c>   1</c></rc>
    <rc><c>Ca</c><c>   1</c></rc>
    <rc><c>Ca</c><c>   1</c></rc>
    <rc><c>Ca</c><c>   1</c></rc>
    <rc><c>Ca</c><c>   1</c></rc>
    <rc><c>Ca</c><c>   1</c></rc>
    <rc><c>Ca</c><c>   1</c></rc>
    <rc><c>Ca</c><c>   1</c></rc>
    <rc><c>Ca</c><c>   1</c></rc>
    <rc><c>Ca</c><c>   1</c></rc>
    <rc><c>Ca</c><c>   1</c></rc>
    <rc><c>Ca</c><c>   1</c></rc>
    <rc><c>Ca</c><c>   1</c></rc>
    <rc><c>Ca</c><c>   1</c></rc>
    <rc><c>Ca</c><c>   1</c></rc>
    <rc><c>Ca</c><c>   1</c></rc>
    <rc><c>Ca</c><c>   1</c></rc>
    <rc><c>Ca</c><c>   1</c></rc>
    <rc><c>Si</c><c>   2</c></rc>
    <rc><c>Si</c><c>   2</c></rc>
    <rc><c>Si</c><c>   2</c></rc>
    <rc><c>Si</c><c>   2</c></rc>
    <rc><c>Si</c><c>   2</c></rc>
    <rc><c>Si</c><c>   2</c></rc>
    <rc><c>Si</c><c>   2</c></rc>
    <rc><c>Si</c><c>   2</c></rc>
    <rc><c>Si</c><c>   2</c></rc>
    <rc><c>Si</c><c>   2</c></rc>
    <rc><c>Si</c><c>   2</c></rc>
    <rc><c>Si</c><c>   2</c></rc>
    <rc><c>Si</c><c>   2</c></rc>
    <rc><c>Si</c><c>   2</c></rc>
    <rc><c>Si</c><c>   2</c></rc>
    <rc><c>Si</c><c>   2</c></rc>
    <rc><c>Si</c><c>   2</c></rc>
    <rc><c>Si</c><c>   2</c></rc>
    <rc><c>Si</c><c>   2</c></rc>
    <rc><c>Si</c><c>   2</c></rc>
    <rc><c>Si</c><c>   2</c></rc>
    <rc><c>Si</c><c>   2</c></rc>
    <rc><c>Si</c><c>   2</c></rc>
    <rc><c>Si</c><c>   2</c></rc>
    <rc><c>Si</c><c>   2</c></rc>
    <rc><c>Si</c><c>   2</c></rc>
    <rc><c>Si</c><c>   2</c></rc>
    <rc><c>O </c><c>   3</c></rc>
    <rc><c>O </c><c>   3</c></rc>
    <rc><c>O </c><c>   3</c></rc>
    <rc><c>O </c><c>   3</c></rc>
    <rc><c>O </c><c>   3</c></rc>
    <rc><c>O </c><c>   3</c></rc>
    <rc><c>O </c><c>   3</c></rc>
    <rc><c>O </c><c>   3</c></rc>
    <rc><c>O </c><c>   3</c></rc>
    <rc><c>O </c><c>   3</c></rc>
    <rc><c>O </c><c>   3</c></rc>
    <rc><c>O </c><c>   3</c></rc>
    <rc><c>O </c><c>   3</c></rc>
    <rc><c>O </c><c>   3</c></rc>
    <rc><c>O </c><c>   3</c></rc>
    <rc><c>O </c><c>   3</c></rc>
    <rc><c>O </c><c>   3</c></rc>
    <rc><c>O </c><c>   3</c></rc>
    <rc><c>O </c><c>   3</c></rc>
    <rc><c>O </c><c>   3</c></rc>
    <rc><c>O </c><c>   3</c></rc>
    <rc><c>O </c><c>   3</c></rc>
    <rc><c>O </c><c>   3</c></rc>
    <rc><c>O </c><c>   3</c></rc>
    <rc><c>O </c><c>   3</c></rc>
    <rc><c>O </c><c>   3</c></rc>
    <rc><c>O </c><c>   3</c></rc>
    <rc><c>O </c><c>   3</c></rc>
    <rc><c>O </c><c>   3</c></rc>
    <rc><c>O </c><c>   3</c></rc>
    <rc><c>O </c><c>   3</c></rc>
    <rc><c>O </c><c>   3</c></rc>
    <rc><c>O </c><c>   3</c></rc>
    <rc><c>O </c><c>   3</c></rc>
    <rc><c>O </c><c>   3</c></rc>
    <rc><c>O </c><c>   3</c></rc>
    <rc><c>O </c><c>   3</c></rc>
    <rc><c>O </c><c>   3</c></rc>
    <rc><c>O </c><c>   3</c></rc>
    <rc><c>O </c><c>   3</c></rc>
    <rc><c>O </c><c>   3</c></rc>
    <rc><c>O </c><c>   3</c></rc>
    <rc><c>O </c><c>   3</c></rc>
    <rc><c>O </c><c>   3</c></rc>
    <rc><c>O </c><c>   3</c></rc>
    <rc><c>O </c><c>   3</c></rc>
    <rc><c>O </c><c>   3</c></rc>
    <rc><c>O </c><c>   3</c></rc>
    <rc><c>O </c><c>   3</c></rc>
    <rc><c>O </c><c>   3</c></rc>
    <rc><c>O </c><c>   3</c></rc>
    <rc><c>O </c><c>   3</c></rc>
    <rc><c>O </c><c>   3</c></rc>
    <rc><c>O </c><c>   3</c></rc>
    <rc><c>O </c><c>   3</c></rc>
    <rc><c>O </c><c>   3</c></rc>
    <rc><c>O </c><c>   3</c></rc>
    <rc><c>O </c><c>   3</c></rc>
    <rc><c>O </c><c>   3</c></rc>
    <rc><c>O </c><c>   3</c></rc>
    <rc><c>O </c><c>   3</c></rc>
    <rc><c>O </c><c>   3</c></rc>
    <rc><c>O </c><c>   3</c></rc>
    <rc><c>O </c><c>   3</c></rc>
    <rc><c>O </c><c>   3</c></rc>
    <rc><c>O </c><c>   3</c></rc>
    <rc><c>O </c><c>   3</c></rc>
    <rc><c>O </c><c>   3</c></rc>
    <rc><c>O </c><c>   3</c></rc>
    <rc><c>O </c><c>   3</c></rc>
    <rc><c>O </c><c>   3</c></rc>
    <rc><c>O </c><c>   3</c></rc>
    <rc><c>O </c><c>   3</c></rc>
    <rc><c>O </c><c>   3</c></rc>
    <rc><c>O </c><c>   3</c></rc>
    <rc><c>O </c><c>   3</c></rc>
    <rc><c>O </c><c>   3</c></rc>
    <rc><c>O </c><c>   3</c></rc>
    <rc><c>O </c><c>   3</c></rc>
    <rc><c>O </c><c>   3</c></rc>
    <rc><c>O </c><c>   3</c></rc>
   </set>
  </array>
  <array name="atomtypes" >
   <dimension dim="1">type</dimension>
   <field type="int">atomspertype</field>
   <field type="string">element</field>
   <field>mass</field>
   <field>valence</field>
   <field type="string">pseudopotential</field>
   <set>
    <rc><c>  27</c><c>Ca</c><c>     40.07800000</c><c>     10.00000000</c><c>  PAW_PBE Ca_sv 06Sep2000               </c></rc>
    <rc><c>  27</c><c>Si</c><c>     28.08500000</c><c>      4.00000000</c><c>  PAW_PBE Si 05Jan2001                  </c></rc>
    <rc><c>  81</c><c>O </c><c>     16.00000000</c><c>      6.00000000</c><c>  PAW_PBE O 08Apr2002                   </c></rc>
   </set>
  </array>
 </atominfo>
 <structure name="initialpos" >
  <crystal>
   <varray name="basis" >
    <v>      12.52607000       0.00000000       0.00000000 </v>
    <v>       0.00000000      12.52607000       0.00000000 </v>
    <v>       0.00000000       0.00000000      12.52607000 </v>
   </varray>
   <i name="volume">   1965.37081690 </i>
   <varray name="rec_basis" >
    <v>       0.07983350       0.00000000       0.00000000 </v>
    <v>       0.00000000       0.07983350       0.00000000 </v>
    <v>       0.00000000       0.00000000       0.07983350 </v>
   </varray>
  </crystal>
  <varray name="positions" >
   <v>       0.02265621       0.40686723       0.65307306 </v>
   <v>       0.60267691       0.71844430       0.34502281 </v>
   <v>       0.29525431       0.35114313       0.18874469 </v>
   <v>       0.39866984       0.56972464       0.91013342 </v>
   <v>       0.83182038       0.04059146       0.61276934 </v>
   <v>       0.46893239       0.33107598       0.96048454 </v>
   <v>       0.52226463       0.18180929       0.21619399 </v>
   <v>       0.54705137       0.16343757       0.70901820 </v>
   <v>       0.05979946       0.85032080       0.20691601 </v>
   <v>       0.64722991       0.84946599       0.80235710 </v>
   <v>       0.23988920       0.75527943       0.47408573 </v>
   <v>       0.17226686       0.42746252       0.36119635 </v>
   <v>       0.05540305       0.70810259       0.99048996 </v>
   <v>       0.00245682       0.17255486       0.86744695 </v>
   <v>       0.27811510       0.88270984       0.98765424 </v>
   <v>       0.33003083       0.03212580       0.64610428 </v>
   <v>       0.26006957       0.09612562       0.26286389 </v>
   <v>       0.53333324       0.88547270       0.04509659 </v>
   <v>       0.75683107       0.68485448       0.15348958 </v>
   <v>       0.83717196       0.87015103       0.48859455 </v>
   <v>       0.73070795       0.39624426       0.67707684 </v>
   <v>       0.90843718       0.16286544       0.27193831 </v>
   <v>       0.14865503       0.39653321       0.94506997 </v>
   <v>       0.73893771       0.35421330       0.20875629 </v>
   <v>       0.19720128       0.75399298       0.75098625 </v>
   <v>       0.75646215       0.64381101       0.69476503 </v>
   <v>       0.45322671       0.93601127       0.35182087 </v>
   <v>       0.45296699       0.50958001       0.17129122 </v>
   <v>       0.75104604       0.42621986       0.92791768 </v>
   <v>       0.04055499       0.60485503       0.49218287 </v>
   <v>       0.39445163       0.73635495       0.19344033 </v>
   <v>       0.56481209       0.92608293       0.56881659 </v>
   <v>       0.01936328       0.34452721       0.15785437 </v>
   <v>       0.82161186       0.61329408       0.38109033 </v>
   <v>       0.40193936       0.99775957       0.84627100 </v>
   <v>       0.97402247       0.46570122       0.84371153 </v>
   <v>       0.25069090       0.63241415       0.07244736 </v>
   <v>       0.51415376       0.41638055       0.32900561 </v>
   <v>       0.78848442       0.79705254       0.94436882 </v>
   <v>       0.44902132       0.40299443       0.69860878 </v>
   <v>       0.71384073       0.18546432       0.92998287 </v>
   <v>       0.75194899       0.13768423       0.43561336 </v>
   <v>       0.42439229       0.56603354       0.50965182 </v>
   <v>       0.05247888       0.94108245       0.70672459 </v>
   <v>       0.00921170       0.59887443       0.23127584 </v>
   <v>       0.39708230       0.23388609       0.41933905 </v>
   <v>       0.09596188       0.03584496       0.06922895 </v>
   <v>       0.30744750       0.15041888       0.99415723 </v>
   <v>       0.25791414       0.25247455       0.62411868 </v>
   <v>       0.05082850       0.17252170       0.59427893 </v>
   <v>       0.12525325       0.95581558       0.48234180 </v>
   <v>       0.83096722       0.98266342       0.03272744 </v>
   <v>       0.67319920       0.98089218       0.21648062 </v>
   <v>       0.46276886       0.73780854       0.67116288 </v>
   <v>       0.30748916       0.92536858       0.79743697 </v>
   <v>       0.40879450       0.48045104       0.28923113 </v>
   <v>       0.51504019       0.36672100       0.20189448 </v>
   <v>       0.92992981       0.66101045       0.46945525 </v>
   <v>       0.88000477       0.47846577       0.92259430 </v>
   <v>       0.89982360       0.29689244       0.20905381 </v>
   <v>       0.33992689       0.72294131       0.31037558 </v>
   <v>       0.30073883       0.54943212       0.46596379 </v>
   <v>       0.69181411       0.04731983       0.32720073 </v>
   <v>       0.29793165       0.28703792       0.36297298 </v>
   <v>       0.79192687       0.28668437       0.87308367 </v>
   <v>       0.89508313       0.86479491       0.00329715 </v>
   <v>       0.39974048       0.66008806       0.07810215 </v>
   <v>       0.89803253       0.53051831       0.29973821 </v>
   <v>       0.32958980       0.26394219       0.93328889 </v>
   <v>       0.50547666       0.27964588       0.37269248 </v>
   <v>       0.54340635       0.85318848       0.46238448 </v>
   <v>       0.32095142       0.16950783       0.14172824 </v>
   <v>       0.01489231       0.48048183       0.15745125 </v>
   <v>       0.70454548       0.72071677       0.99411112 </v>
   <v>       0.97410478       0.68773389       0.14298316 </v>
   <v>       0.39594797       0.46034279       0.06107670 </v>
   <v>       0.67647471       0.46577660       0.82557680 </v>
   <v>       0.39391946       0.10158762       0.36257592 </v>
   <v>       0.15309512       0.00652929       0.19476030 </v>
   <v>       0.09457045       0.66238347       0.59063213 </v>
   <v>       0.99790653       0.08757424       0.69551457 </v>
   <v>       0.65367123       0.85662264       0.22005111 </v>
   <v>       0.78954528       0.76205606       0.81547859 </v>
   <v>       0.26194613       0.64964401       0.93909614 </v>
   <v>       0.97081977       0.90836660       0.61825060 </v>
   <v>       0.11235753       0.30845491       0.25003176 </v>
   <v>       0.54822177       0.02881956       0.16148195 </v>
   <v>       0.14968313       0.91232594       0.63339067 </v>
   <v>       0.20372798       0.72496899       0.14581718 </v>
   <v>       0.55155790       0.33252090       0.69899369 </v>
   <v>       0.71737414       0.15391394       0.54987793 </v>
   <v>       0.50331858       0.92424437       0.85694832 </v>
   <v>       0.72072983       0.91781205       0.94974388 </v>
   <v>       0.05535157       0.86014841       0.42763625 </v>
   <v>       0.18438550       0.08198277       0.98249897 </v>
   <v>       0.04081612       0.36268738       0.80978201 </v>
   <v>       0.32991653       0.33863644       0.67174222 </v>
   <v>       0.35003038       0.20828585       0.53432869 </v>
   <v>       0.62741930       0.15238395       0.83615208 </v>
   <v>       0.58767991       0.72111073       0.71544389 </v>
   <v>       0.41898518       0.42841300       0.82129175 </v>
   <v>       0.85852080       0.06192620       0.44014890 </v>
   <v>       0.78083751       0.23138367       0.35233610 </v>
   <v>       0.07044860       0.07801039       0.48303179 </v>
   <v>       0.08230669       0.63736683       0.32905844 </v>
   <v>       0.36966865       0.68820626       0.75514713 </v>
   <v>       0.94994885       0.26777442       0.63734745 </v>
   <v>       0.65544549       0.21166018       0.03329092 </v>
   <v>       0.81370216       0.01223829       0.16435953 </v>
   <v>       0.54705834       0.63524994       0.21466021 </v>
   <v>       0.45318153       0.51323139       0.62766017 </v>
   <v>       0.80692599       0.09693980       0.98294970 </v>
   <v>       0.78401514       0.73983379       0.33984610 </v>
   <v>       0.08993103       0.90725837       0.83312559 </v>
   <v>       0.64497468       0.44316086       0.30133757 </v>
   <v>       0.99748320       0.11065914       0.03919854 </v>
   <v>       0.50875076       0.47969208       0.45317875 </v>
   <v>       0.26516348       0.93642371       0.46639599 </v>
   <v>       0.68413764       0.90808529       0.60779396 </v>
   <v>       0.47960540       0.04904120       0.54664641 </v>
   <v>       0.05419352       0.56747953       0.85720022 </v>
   <v>       0.19116104       0.17725487       0.71664149 </v>
   <v>       0.42118585       0.85156171       0.15551559 </v>
   <v>       0.03637709       0.31877077       0.03421363 </v>
   <v>       0.14742668       0.27403886       0.54844852 </v>
   <v>       0.44417182       0.69387903       0.54449350 </v>
   <v>       0.90375687       0.48932525       0.72926013 </v>
   <v>       0.39761968       0.11006554       0.76477822 </v>
   <v>       0.10852642       0.91806407       0.04068231 </v>
   <v>       0.18838057       0.52042091       0.10222396 </v>
   <v>       0.73523701       0.60477273       0.47605423 </v>
   <v>       0.37966095       0.04208197       0.97575701 </v>
   <v>       0.72092831       0.46243063       0.05386308 </v>
   <v>       0.06357781       0.48797344       0.46966160 </v>
   <v>       0.46449698       0.86602137       0.64932405 </v>
  </varray>
  <varray name="velocities" >
   <v>       0.00000000       0.00000000       0.00000000 </v>
   <v>       0.00000000       0.00000000       0.00000000 </v>
   <v>       0.00000000       0.00000000       0.00000000 </v>
   <v>       0.00000000       0.00000000       0.00000000 </v>
   <v>       0.00000000       0.00000000       0.00000000 </v>
   <v>       0.00000000       0.00000000       0.00000000 </v>
   <v>       0.00000000       0.00000000       0.00000000 </v>
   <v>       0.00000000       0.00000000       0.00000000 </v>
   <v>       0.00000000       0.00000000       0.00000000 </v>
   <v>       0.00000000       0.00000000       0.00000000 </v>
   <v>       0.00000000       0.00000000       0.00000000 </v>
   <v>       0.00000000       0.00000000       0.00000000 </v>
   <v>       0.00000000       0.00000000       0.00000000 </v>
   <v>       0.00000000       0.00000000       0.00000000 </v>
   <v>       0.00000000       0.00000000       0.00000000 </v>
   <v>       0.00000000       0.00000000       0.00000000 </v>
   <v>       0.00000000       0.00000000       0.00000000 </v>
   <v>       0.00000000       0.00000000       0.00000000 </v>
   <v>       0.00000000       0.00000000       0.00000000 </v>
   <v>       0.00000000       0.00000000       0.00000000 </v>
   <v>       0.00000000       0.00000000       0.00000000 </v>
   <v>       0.00000000       0.00000000       0.00000000 </v>
   <v>       0.00000000       0.00000000       0.00000000 </v>
   <v>       0.00000000       0.00000000       0.00000000 </v>
   <v>       0.00000000       0.00000000       0.00000000 </v>
   <v>       0.00000000       0.00000000       0.00000000 </v>
   <v>       0.00000000       0.00000000       0.00000000 </v>
   <v>       0.00000000       0.00000000       0.00000000 </v>
   <v>       0.00000000       0.00000000       0.00000000 </v>
   <v>       0.00000000       0.00000000       0.00000000 </v>
   <v>       0.00000000       0.00000000       0.00000000 </v>
   <v>       0.00000000       0.00000000       0.00000000 </v>
   <v>       0.00000000       0.00000000       0.00000000 </v>
   <v>       0.00000000       0.00000000       0.00000000 </v>
   <v>       0.00000000       0.00000000       0.00000000 </v>
   <v>       0.00000000       0.00000000       0.00000000 </v>
   <v>       0.00000000       0.00000000       0.00000000 </v>
   <v>       0.00000000       0.00000000       0.00000000 </v>
   <v>       0.00000000       0.00000000       0.00000000 </v>
   <v>       0.00000000       0.00000000       0.00000000 </v>
   <v>       0.00000000       0.00000000       0.00000000 </v>
   <v>       0.00000000       0.00000000       0.00000000 </v>
   <v>       0.00000000       0.00000000       0.00000000 </v>
   <v>       0.00000000       0.00000000       0.00000000 </v>
   <v>       0.00000000       0.00000000       0.00000000 </v>
   <v>       0.00000000       0.00000000       0.00000000 </v>
   <v>       0.00000000       0.00000000       0.00000000 </v>
   <v>       0.00000000       0.00000000       0.00000000 </v>
   <v>       0.00000000       0.00000000       0.00000000 </v>
   <v>       0.00000000       0.00000000       0.00000000 </v>
   <v>       0.00000000       0.00000000       0.00000000 </v>
   <v>       0.00000000       0.00000000       0.00000000 </v>
   <v>       0.00000000       0.00000000       0.00000000 </v>
   <v>       0.00000000       0.00000000       0.00000000 </v>
   <v>       0.00000000       0.00000000       0.00000000 </v>
   <v>       0.00000000       0.00000000       0.00000000 </v>
   <v>       0.00000000       0.00000000       0.00000000 </v>
   <v>       0.00000000       0.00000000       0.00000000 </v>
   <v>       0.00000000       0.00000000       0.00000000 </v>
   <v>       0.00000000       0.00000000       0.00000000 </v>
   <v>       0.00000000       0.00000000       0.00000000 </v>
   <v>       0.00000000       0.00000000       0.00000000 </v>
   <v>       0.00000000       0.00000000       0.00000000 </v>
   <v>       0.00000000       0.00000000       0.00000000 </v>
   <v>       0.00000000       0.00000000       0.00000000 </v>
   <v>       0.00000000       0.00000000       0.00000000 </v>
   <v>       0.00000000       0.00000000       0.00000000 </v>
   <v>       0.00000000       0.00000000       0.00000000 </v>
   <v>       0.00000000       0.00000000       0.00000000 </v>
   <v>       0.00000000       0.00000000       0.00000000 </v>
   <v>       0.00000000       0.00000000       0.00000000 </v>
   <v>       0.00000000       0.00000000       0.00000000 </v>
   <v>       0.00000000       0.00000000       0.00000000 </v>
   <v>       0.00000000       0.00000000       0.00000000 </v>
   <v>       0.00000000       0.00000000       0.00000000 </v>
   <v>       0.00000000       0.00000000       0.00000000 </v>
   <v>       0.00000000       0.00000000       0.00000000 </v>
   <v>       0.00000000       0.00000000       0.00000000 </v>
   <v>       0.00000000       0.00000000       0.00000000 </v>
   <v>       0.00000000       0.00000000       0.00000000 </v>
   <v>       0.00000000       0.00000000       0.00000000 </v>
   <v>       0.00000000       0.00000000       0.00000000 </v>
   <v>       0.00000000       0.00000000       0.00000000 </v>
   <v>       0.00000000       0.00000000       0.00000000 </v>
   <v>       0.00000000       0.00000000       0.00000000 </v>
   <v>       0.00000000       0.00000000       0.00000000 </v>
   <v>       0.00000000       0.00000000       0.00000000 </v>
   <v>       0.00000000       0.00000000       0.00000000 </v>
   <v>       0.00000000       0.00000000       0.00000000 </v>
   <v>       0.00000000       0.00000000       0.00000000 </v>
   <v>       0.00000000       0.00000000       0.00000000 </v>
   <v>       0.00000000       0.00000000       0.00000000 </v>
   <v>       0.00000000       0.00000000       0.00000000 </v>
   <v>       0.00000000       0.00000000       0.00000000 </v>
   <v>       0.00000000       0.00000000       0.00000000 </v>
   <v>       0.00000000       0.00000000       0.00000000 </v>
   <v>       0.00000000       0.00000000       0.00000000 </v>
   <v>       0.00000000       0.00000000       0.00000000 </v>
   <v>       0.00000000       0.00000000       0.00000000 </v>
   <v>       0.00000000       0.00000000       0.00000000 </v>
   <v>       0.00000000       0.00000000       0.00000000 </v>
   <v>       0.00000000       0.00000000       0.00000000 </v>
   <v>       0.00000000       0.00000000       0.00000000 </v>
   <v>       0.00000000       0.00000000       0.00000000 </v>
   <v>       0.00000000       0.00000000       0.00000000 </v>
   <v>       0.00000000       0.00000000       0.00000000 </v>
   <v>       0.00000000       0.00000000       0.00000000 </v>
   <v>       0.00000000       0.00000000       0.00000000 </v>
   <v>       0.00000000       0.00000000       0.00000000 </v>
   <v>       0.00000000       0.00000000       0.00000000 </v>
   <v>       0.00000000       0.00000000       0.00000000 </v>
   <v>       0.00000000       0.00000000       0.00000000 </v>
   <v>       0.00000000       0.00000000       0.00000000 </v>
   <v>       0.00000000       0.00000000       0.00000000 </v>
   <v>       0.00000000       0.00000000       0.00000000 </v>
   <v>       0.00000000       0.00000000       0.00000000 </v>
   <v>       0.00000000       0.00000000       0.00000000 </v>
   <v>       0.00000000       0.00000000       0.00000000 </v>
   <v>       0.00000000       0.00000000       0.00000000 </v>
   <v>       0.00000000       0.00000000       0.00000000 </v>
   <v>       0.00000000       0.00000000       0.00000000 </v>
   <v>       0.00000000       0.00000000       0.00000000 </v>
   <v>       0.00000000       0.00000000       0.00000000 </v>
   <v>       0.00000000       0.00000000       0.00000000 </v>
   <v>       0.00000000       0.00000000       0.00000000 </v>
   <v>       0.00000000       0.00000000       0.00000000 </v>
   <v>       0.00000000       0.00000000       0.00000000 </v>
   <v>       0.00000000       0.00000000       0.00000000 </v>
   <v>       0.00000000       0.00000000       0.00000000 </v>
   <v>       0.00000000       0.00000000       0.00000000 </v>
   <v>       0.00000000       0.00000000       0.00000000 </v>
   <v>       0.00000000       0.00000000       0.00000000 </v>
   <v>       0.00000000       0.00000000       0.00000000 </v>
   <v>       0.00000000       0.00000000       0.00000000 </v>
   <v>       0.00000000       0.00000000       0.00000000 </v>
  </varray>
 </structure>
 <calculation>
  <scstep>
   <time name="dav">   43.83   43.92</time>
   <time name="total">   44.26   44.38</time>
   <energy>
    <i name="alphaZ">   2431.37857233 </i>
    <i name="ewald"> -42007.87093264 </i>
    <i name="hartreedc"> -20299.38658247 </i>
    <i name="XCdc">   3154.13141154 </i>
    <i name="pawpsdc">  50594.51003143 </i>
    <i name="pawaedc"> -49994.65612350 </i>
    <i name="eentropy">     -0.03484162 </i>
    <i name="bandstr">    592.52841114 </i>
    <i name="atom">  64968.54023382 </i>
    <i name="e_fr_energy">   9439.14018003 </i>
    <i name="e_wo_entrp">   9439.17502166 </i>
    <i name="e_0_energy">   9439.15760084 </i>
   </energy>
  </scstep>
  <scstep>
   <time name="dav">   50.62   50.71</time>
   <time name="total">   50.62   50.71</time>
   <energy>
    <i name="e_fr_energy">     -7.66405669 </i>
    <i name="e_wo_entrp">     -7.66405669 </i>
    <i name="e_0_energy">     -7.66405669 </i>
   </energy>
  </scstep>
  <scstep>
   <time name="dav">   51.58   51.72</time>
   <time name="total">   51.58   51.72</time>
   <energy>
    <i name="e_fr_energy">  -1028.15437926 </i>
    <i name="e_wo_entrp">  -1028.15437926 </i>
    <i name="e_0_energy">  -1028.15437926 </i>
   </energy>
  </scstep>
  <scstep>
   <time name="dav">   55.80   55.89</time>
   <time name="total">   55.80   55.89</time>
   <energy>
    <i name="e_fr_energy">  -1078.44470712 </i>
    <i name="e_wo_entrp">  -1078.44470712 </i>
    <i name="e_0_energy">  -1078.44470712 </i>
   </energy>
  </scstep>
  <scstep>
   <time name="dav">   70.58   70.70</time>
   <time name="total">   72.38   72.50</time>
   <energy>
    <i name="e_fr_energy">  -1084.42765691 </i>
    <i name="e_wo_entrp">  -1084.42765691 </i>
    <i name="e_0_energy">  -1084.42765691 </i>
   </energy>
  </scstep>
  <scstep>
   <time name="dav">   50.16   50.23</time>
   <time name="total">   52.38   52.47</time>
   <energy>
    <i name="e_fr_energy">   -930.64185288 </i>
    <i name="e_wo_entrp">   -930.64185288 </i>
    <i name="e_0_energy">   -930.64185288 </i>
   </energy>
  </scstep>
  <scstep>
   <time name="dav">   54.99   55.05</time>
   <time name="total">   57.22   57.29</time>
   <energy>
    <i name="e_fr_energy">   -932.44659904 </i>
    <i name="e_wo_entrp">   -932.44659904 </i>
    <i name="e_0_energy">   -932.44659904 </i>
   </energy>
  </scstep>
  <scstep>
   <time name="dav">   53.29   53.36</time>
   <time name="total">   55.52   55.59</time>
   <energy>
    <i name="e_fr_energy">   -930.98732791 </i>
    <i name="e_wo_entrp">   -930.98732791 </i>
    <i name="e_0_energy">   -930.98732791 </i>
   </energy>
  </scstep>
  <scstep>
   <time name="dav">   54.99   55.05</time>
   <time name="total">   57.21   57.28</time>
   <energy>
    <i name="e_fr_energy">   -930.66229438 </i>
    <i name="e_wo_entrp">   -930.66229438 </i>
    <i name="e_0_energy">   -930.66229438 </i>
   </energy>
  </scstep>
  <scstep>
   <time name="dav">   56.87   56.99</time>
   <time name="total">   59.09   59.22</time>
   <energy>
    <i name="e_fr_energy">   -930.78828615 </i>
    <i name="e_wo_entrp">   -930.78828615 </i>
    <i name="e_0_energy">   -930.78828615 </i>
   </energy>
  </scstep>
  <scstep>
   <time name="dav">   55.54   55.62</time>
   <time name="total">   57.77   57.85</time>
   <energy>
    <i name="e_fr_energy">   -930.80641509 </i>
    <i name="e_wo_entrp">   -930.80641509 </i>
    <i name="e_0_energy">   -930.80641509 </i>
   </energy>
  </scstep>
  <scstep>
   <time name="dav">   50.38   50.47</time>
   <time name="total">   52.61   52.71</time>
   <energy>
    <i name="e_fr_energy">   -930.82477625 </i>
    <i name="e_wo_entrp">   -930.82477625 </i>
    <i name="e_0_energy">   -930.82477625 </i>
   </energy>
  </scstep>
  <scstep>
   <time name="dav">   58.84   59.01</time>
   <time name="total">   61.07   61.25</time>
   <energy>
    <i name="e_fr_energy">   -930.82972357 </i>
    <i name="e_wo_entrp">   -930.82972357 </i>
    <i name="e_0_energy">   -930.82972357 </i>
   </energy>
  </scstep>
  <scstep>
   <time name="dav">   56.65   56.85</time>
   <time name="total">   58.94   59.14</time>
   <energy>
    <i name="e_fr_energy">   -930.83050024 </i>
    <i name="e_wo_entrp">   -930.83050024 </i>
    <i name="e_0_energy">   -930.83050024 </i>
   </energy>
  </scstep>
  <scstep>
   <time name="dav">   59.55   60.25</time>
   <time name="total">   61.77   62.49</time>
   <energy>
    <i name="e_fr_energy">   -930.83065888 </i>
    <i name="e_wo_entrp">   -930.83065888 </i>
    <i name="e_0_energy">   -930.83065888 </i>
   </energy>
  </scstep>
  <scstep>
   <time name="dav">   50.65   50.75</time>
   <time name="total">   52.90   53.02</time>
   <energy>
    <i name="e_fr_energy">   -930.83074265 </i>
    <i name="e_wo_entrp">   -930.83074265 </i>
    <i name="e_0_energy">   -930.83074265 </i>
   </energy>
  </scstep>
  <scstep>
   <time name="dav">   56.46   56.63</time>
   <time name="total">   58.70   58.88</time>
   <energy>
    <i name="e_fr_energy">   -930.83076044 </i>
    <i name="e_wo_entrp">   -930.83076044 </i>
    <i name="e_0_energy">   -930.83076044 </i>
   </energy>
  </scstep>
  <scstep>
   <time name="dav">   50.19   50.36</time>
   <time name="total">   52.41   52.59</time>
   <energy>
    <i name="e_fr_energy">   -930.83076197 </i>
    <i name="e_wo_entrp">   -930.83076197 </i>
    <i name="e_0_energy">   -930.83076197 </i>
   </energy>
  </scstep>
  <scstep>
   <time name="dav">   47.82   47.92</time>
   <time name="total">   48.25   48.36</time>
   <energy>
    <i name="alphaZ">   2431.37857233 </i>
    <i name="ewald"> -42007.87093264 </i>
    <i name="hartreedc"> -22029.85733779 </i>
    <i name="XCdc">   3260.02120697 </i>
    <i name="pawpsdc">  90679.88295959 </i>
    <i name="pawaedc"> -90340.97863894 </i>
    <i name="eentropy">     -0.00000000 </i>
    <i name="bandstr">  -7891.94682508 </i>
    <i name="atom">  64968.54023382 </i>
    <i name="e_fr_energy">   -930.83076174 </i>
    <i name="e_wo_entrp">   -930.83076174 </i>
    <i name="e_0_energy">   -930.83076174 </i>
   </energy>
  </scstep>
  <structure>
   <crystal>
    <varray name="basis" >
     <v>      12.52607000       0.00000000       0.00000000 </v>
     <v>       0.00000000      12.52607000       0.00000000 </v>
     <v>       0.00000000       0.00000000      12.52607000 </v>
    </varray>
    <i name="volume">   1965.37081690 </i>
    <varray name="rec_basis" >
     <v>       0.07983350       0.00000000       0.00000000 </v>
     <v>       0.00000000       0.07983350       0.00000000 </v>
     <v>       0.00000000       0.00000000       0.07983350 </v>
    </varray>
   </crystal>
   <varray name="positions" >
    <v>       0.02265621       0.40686723       0.65307306 </v>
    <v>       0.60267691       0.71844430       0.34502281 </v>
    <v>       0.29525431       0.35114313       0.18874469 </v>
    <v>       0.39866984       0.56972464       0.91013342 </v>
    <v>       0.83182038       0.04059146       0.61276934 </v>
    <v>       0.46893239       0.33107598       0.96048454 </v>
    <v>       0.52226463       0.18180929       0.21619399 </v>
    <v>       0.54705137       0.16343757       0.70901820 </v>
    <v>       0.05979946       0.85032080       0.20691601 </v>
    <v>       0.64722991       0.84946599       0.80235710 </v>
    <v>       0.23988920       0.75527943       0.47408573 </v>
    <v>       0.17226686       0.42746252       0.36119635 </v>
    <v>       0.05540305       0.70810259       0.99048996 </v>
    <v>       0.00245682       0.17255486       0.86744695 </v>
    <v>       0.27811510       0.88270984       0.98765424 </v>
    <v>       0.33003083       0.03212580       0.64610428 </v>
    <v>       0.26006957       0.09612562       0.26286389 </v>
    <v>       0.53333324       0.88547270       0.04509659 </v>
    <v>       0.75683107       0.68485448       0.15348958 </v>
    <v>       0.83717196       0.87015103       0.48859455 </v>
    <v>       0.73070795       0.39624426       0.67707684 </v>
    <v>       0.90843718       0.16286544       0.27193831 </v>
    <v>       0.14865503       0.39653321       0.94506997 </v>
    <v>       0.73893771       0.35421330       0.20875629 </v>
    <v>       0.19720128       0.75399298       0.75098625 </v>
    <v>       0.75646215       0.64381101       0.69476503 </v>
    <v>       0.45322671       0.93601127       0.35182087 </v>
    <v>       0.45296699       0.50958001       0.17129122 </v>
    <v>       0.75104604       0.42621986       0.92791768 </v>
    <v>       0.04055499       0.60485503       0.49218287 </v>
    <v>       0.39445163       0.73635495       0.19344033 </v>
    <v>       0.56481209       0.92608293       0.56881659 </v>
    <v>       0.01936328       0.34452721       0.15785437 </v>
    <v>       0.82161186       0.61329408       0.38109033 </v>
    <v>       0.40193936       0.99775957       0.84627100 </v>
    <v>       0.97402247       0.46570122       0.84371153 </v>
    <v>       0.25069090       0.63241415       0.07244736 </v>
    <v>       0.51415376       0.41638055       0.32900561 </v>
    <v>       0.78848442       0.79705254       0.94436882 </v>
    <v>       0.44902132       0.40299443       0.69860878 </v>
    <v>       0.71384073       0.18546432       0.92998287 </v>
    <v>       0.75194899       0.13768423       0.43561336 </v>
    <v>       0.42439229       0.56603354       0.50965182 </v>
    <v>       0.05247888       0.94108245       0.70672459 </v>
    <v>       0.00921170       0.59887443       0.23127584 </v>
    <v>       0.39708230       0.23388609       0.41933905 </v>
    <v>       0.09596188       0.03584496       0.06922895 </v>
    <v>       0.30744750       0.15041888       0.99415723 </v>
    <v>       0.25791414       0.25247455       0.62411868 </v>
    <v>       0.05082850       0.17252170       0.59427893 </v>
    <v>       0.12525325       0.95581558       0.48234180 </v>
    <v>       0.83096722       0.98266342       0.03272744 </v>
    <v>       0.67319920       0.98089218       0.21648062 </v>
    <v>       0.46276886       0.73780854       0.67116288 </v>
    <v>       0.30748916       0.92536858       0.79743697 </v>
    <v>       0.40879450       0.48045104       0.28923113 </v>
    <v>       0.51504019       0.36672100       0.20189448 </v>
    <v>       0.92992981       0.66101045       0.46945525 </v>
    <v>       0.88000477       0.47846577       0.92259430 </v>
    <v>       0.89982360       0.29689244       0.20905381 </v>
    <v>       0.33992689       0.72294131       0.31037558 </v>
    <v>       0.30073883       0.54943212       0.46596379 </v>
    <v>       0.69181411       0.04731983       0.32720073 </v>
    <v>       0.29793165       0.28703792       0.36297298 </v>
    <v>       0.79192687       0.28668437       0.87308367 </v>
    <v>       0.89508313       0.86479491       0.00329715 </v>
    <v>       0.39974048       0.66008806       0.07810215 </v>
    <v>       0.89803253       0.53051831       0.29973821 </v>
    <v>       0.32958980       0.26394219       0.93328889 </v>
    <v>       0.50547666       0.27964588       0.37269248 </v>
    <v>       0.54340635       0.85318848       0.46238448 </v>
    <v>       0.32095142       0.16950783       0.14172824 </v>
    <v>       0.01489231       0.48048183       0.15745125 </v>
    <v>       0.70454548       0.72071677       0.99411112 </v>
    <v>       0.97410478       0.68773389       0.14298316 </v>
    <v>       0.39594797       0.46034279       0.06107670 </v>
    <v>       0.67647471       0.46577660       0.82557680 </v>
    <v>       0.39391946       0.10158762       0.36257592 </v>
    <v>       0.15309512       0.00652929       0.19476030 </v>
    <v>       0.09457045       0.66238347       0.59063213 </v>
    <v>       0.99790653       0.08757424       0.69551457 </v>
    <v>       0.65367123       0.85662264       0.22005111 </v>
    <v>       0.78954528       0.76205606       0.81547859 </v>
    <v>       0.26194613       0.64964401       0.93909614 </v>
    <v>       0.97081977       0.90836660       0.61825060 </v>
    <v>       0.11235753       0.30845491       0.25003176 </v>
    <v>       0.54822177       0.02881956       0.16148195 </v>
    <v>       0.14968313       0.91232594       0.63339067 </v>
    <v>       0.20372798       0.72496899       0.14581718 </v>
    <v>       0.55155790       0.33252090       0.69899369 </v>
    <v>       0.71737414       0.15391394       0.54987793 </v>
    <v>       0.50331858       0.92424437       0.85694832 </v>
    <v>       0.72072983       0.91781205       0.94974388 </v>
    <v>       0.05535157       0.86014841       0.42763625 </v>
    <v>       0.18438550       0.08198277       0.98249897 </v>
    <v>       0.04081612       0.36268738       0.80978201 </v>
    <v>       0.32991653       0.33863644       0.67174222 </v>
    <v>       0.35003038       0.20828585       0.53432869 </v>
    <v>       0.62741930       0.15238395       0.83615208 </v>
    <v>       0.58767991       0.72111073       0.71544389 </v>
    <v>       0.41898518       0.42841300       0.82129175 </v>
    <v>       0.85852080       0.06192620       0.44014890 </v>
    <v>       0.78083751       0.23138367       0.35233610 </v>
    <v>       0.07044860       0.07801039       0.48303179 </v>
    <v>       0.08230669       0.63736683       0.32905844 </v>
    <v>       0.36966865       0.68820626       0.75514713 </v>
    <v>       0.94994885       0.26777442       0.63734745 </v>
    <v>       0.65544549       0.21166018       0.03329092 </v>
    <v>       0.81370216       0.01223829       0.16435953 </v>
    <v>       0.54705834       0.63524994       0.21466021 </v>
    <v>       0.45318153       0.51323139       0.62766017 </v>
    <v>       0.80692599       0.09693980       0.98294970 </v>
    <v>       0.78401514       0.73983379       0.33984610 </v>
    <v>       0.08993103       0.90725837       0.83312559 </v>
    <v>       0.64497468       0.44316086       0.30133757 </v>
    <v>       0.99748320       0.11065914       0.03919854 </v>
    <v>       0.50875076       0.47969208       0.45317875 </v>
    <v>       0.26516348       0.93642371       0.46639599 </v>
    <v>       0.68413764       0.90808529       0.60779396 </v>
    <v>       0.47960540       0.04904120       0.54664641 </v>
    <v>       0.05419352       0.56747953       0.85720022 </v>
    <v>       0.19116104       0.17725487       0.71664149 </v>
    <v>       0.42118585       0.85156171       0.15551559 </v>
    <v>       0.03637709       0.31877077       0.03421363 </v>
    <v>       0.14742668       0.27403886       0.54844852 </v>
    <v>       0.44417182       0.69387903       0.54449350 </v>
    <v>       0.90375687       0.48932525       0.72926013 </v>
    <v>       0.39761968       0.11006554       0.76477822 </v>
    <v>       0.10852642       0.91806407       0.04068231 </v>
    <v>       0.18838057       0.52042091       0.10222396 </v>
    <v>       0.73523701       0.60477273       0.47605423 </v>
    <v>       0.37966095       0.04208197       0.97575701 </v>
    <v>       0.72092831       0.46243063       0.05386308 </v>
    <v>       0.06357781       0.48797344       0.46966160 </v>
    <v>       0.46449698       0.86602137       0.64932405 </v>
   </varray>
  </structure>
  <varray name="forces" >
   <v>       2.97838341       1.65779664      -4.63822901 </v>
   <v>       0.47293015       0.40446633       3.12532365 </v>
   <v>      -0.45742175      -1.11508995      -0.32638936 </v>
   <v>       2.51361878       0.57219517      -2.27723477 </v>
   <v>       0.62299050       1.38686150       2.33673645 </v>
   <v>       4.07646386       0.61080007      -0.28243036 </v>
   <v>      -0.19196267       0.83902725       0.10609440 </v>
   <v>      -0.89558589      -0.25971637      -4.91383811 </v>
   <v>       0.80816729      -0.67673726       1.32851959 </v>
   <v>      -1.85790681       2.11828891      -2.02185314 </v>
   <v>       0.28463072      -1.58482602      -0.88367970 </v>
   <v>       0.88818865       0.72769486       1.80922217 </v>
   <v>      -0.47227305      -0.26863390      -1.33290920 </v>
   <v>      -0.00737622       0.96980872       0.14015309 </v>
   <v>      -1.80765154       0.14223760       0.05157983 </v>
   <v>      -2.01984159      -2.40725919      -3.68633673 </v>
   <v>      -0.70352079       1.26433099       4.66349656 </v>
   <v>       2.83276322       1.39048084      -1.30007323 </v>
   <v>      -0.07971114      -1.06963714       0.60626605 </v>
   <v>       1.34959234      -2.00807456      -1.80828675 </v>
   <v>      -0.05552398      -1.49540441       0.22641442 </v>
   <v>       1.54935309      -4.86337198       1.40068429 </v>
   <v>       2.33064558       1.09600086       0.04556773 </v>
   <v>       0.18763545      -0.09765705      -1.45563082 </v>
   <v>       0.31314513      -0.30146356      -0.29567508 </v>
   <v>      -0.10278184      -0.59868936      -0.23933483 </v>
   <v>      -1.19712108       1.42009595       0.05472906 </v>
   <v>       4.06913507       0.23223445      -1.60900464 </v>
   <v>       1.80148806       0.88509328       0.86433441 </v>
   <v>       0.23925640       2.81262392      -0.73828000 </v>
   <v>      -0.46716354      -2.57554144       2.26262589 </v>
   <v>      -6.10964542       1.30860414      -1.74408738 </v>
   <v>      -1.90223825       1.21666162       2.39042163 </v>
   <v>       2.41245298       1.80571694       3.02490084 </v>
   <v>      -0.11551587       2.68012730      -2.40856488 </v>
   <v>      -2.07093098       3.93187266      -2.91976642 </v>
   <v>       0.29795708      -2.27416220      -1.15559303 </v>
   <v>       6.38605200      -1.20485456       3.79341643 </v>
   <v>       0.39551563       2.26533582      -2.60204818 </v>
   <v>      -3.03638982       1.57357480      -0.05048318 </v>
   <v>       1.19632023      -0.23241732      -2.55542904 </v>
   <v>       1.06194553      -0.33136366      -6.21480720 </v>
   <v>      -2.30724294      -2.85934658       0.44410693 </v>
   <v>      -0.79809165       1.73110179       3.75514506 </v>
   <v>      -1.89118399      -4.76433165       0.02745647 </v>
   <v>      -1.95989905      -5.08817484      -1.21834561 </v>
   <v>       1.80310193       2.32666530       1.36969822 </v>
   <v>      -2.62705588      -0.11370031       3.13470862 </v>
   <v>      -2.28379952      -1.92630898      -0.99395752 </v>
   <v>       0.20840511       2.08329030       1.71491362 </v>
   <v>       1.71016635      -1.61685861       1.69947157 </v>
   <v>      -1.69496671       0.65682646      -0.46034850 </v>
   <v>      -0.16717892       2.82413399       0.70938030 </v>
   <v>       0.54977149      -1.90760042       1.25103273 </v>
   <v>      -0.70497878      -0.58593888       1.85854398 </v>
   <v>      -4.43223294       2.56652403      -1.09205801 </v>
   <v>      -1.50470327      -0.06489552      -3.62277746 </v>
   <v>      -2.85661669       0.14798052      -0.71160978 </v>
   <v>      -3.28521634      -0.82240293       2.90609777 </v>
   <v>       3.33329823       4.39978160      -3.63796006 </v>
   <v>       1.73901174       0.65339724      -1.40972140 </v>
   <v>       1.12827360       1.06773419       0.65341403 </v>
   <v>      -1.27348501       0.09865792       0.67014140 </v>
   <v>      -1.15524945       1.81280764      -2.17149884 </v>
   <v>      -1.21466946       0.48710698       1.65842004 </v>
   <v>      -0.17359476      -0.76841547       0.42622179 </v>
   <v>      -1.95286095      -0.10705678       2.61706838 </v>
   <v>      -2.15759769       3.30233139       0.36329408 </v>
   <v>      -3.36084959      -2.84123163       1.20813985 </v>
   <v>       1.44228691       1.88832039       0.80625378 </v>
   <v>       1.78495138      -0.01527476      -0.69071330 </v>
   <v>       1.87480003       2.25155733      -6.37715656 </v>
   <v>      -0.03462187       0.95810313       1.32370705 </v>
   <v>      -0.67967209      -1.22568600       1.87283405 </v>
   <v>      -0.69420474       0.76164252       0.46214715 </v>
   <v>       0.64673405       0.73424679       1.27625740 </v>
   <v>       1.03826108       0.29286202       1.08696985 </v>
   <v>       2.16358079       2.11407173      -0.12970802 </v>
   <v>      -4.06627920      -0.11388714      -1.64127268 </v>
   <v>       1.86987076       0.91525279       0.37169050 </v>
   <v>       1.51895567      -1.52458501       0.23175180 </v>
   <v>      -0.07948756      -1.37953848      -0.97042924 </v>
   <v>       2.60136925       0.32551292       1.77770161 </v>
   <v>      -3.77507524       2.15845851       1.68612614 </v>
   <v>      -5.38487340      -1.28130590      -0.76636391 </v>
   <v>      -0.60154853      -0.21570394      -2.34795672 </v>
   <v>       3.58229926      -2.40023285       0.28240404 </v>
   <v>       4.05445205       0.49190699      -3.09550379 </v>
   <v>       0.11630075       1.71152619      -1.17674707 </v>
   <v>       1.83957270      -0.28285055      -1.24197449 </v>
   <v>      -2.47191033       0.89540150       3.77371370 </v>
   <v>       0.78682109      -0.39322792       2.19639164 </v>
   <v>       1.29840154       0.25971074       1.95882169 </v>
   <v>       1.03901340       1.34581623      -0.99496226 </v>
   <v>       3.22226740       2.95406866      -0.57617607 </v>
   <v>       1.13883557      -2.04424344       2.77583343 </v>
   <v>       1.89435888       3.21902960       1.34208206 </v>
   <v>      -0.77186063      -0.82196442       2.93290164 </v>
   <v>       3.68282289      -0.83424989       3.70716770 </v>
   <v>      -0.68269707      -1.96304540      -0.72924921 </v>
   <v>       0.23237355       0.47246564       1.28413316 </v>
   <v>       0.41431436      -1.70740586       0.66547229 </v>
   <v>      -1.90575530       0.55169771       1.07168061 </v>
   <v>       0.70067410       0.91941143       1.89814408 </v>
   <v>       0.75991040       0.27953780       0.01753843 </v>
   <v>       0.87710596       1.37594544      -1.36666721 </v>
   <v>       0.50961055      -4.71996708      -2.50252962 </v>
   <v>      -2.75738717       2.08075520       3.70666237 </v>
   <v>      -1.75999320      -2.14272537      -1.00753008 </v>
   <v>      -3.22554753      -1.92380371      -2.60906900 </v>
   <v>      -0.22906249      -0.75408399       1.78387159 </v>
   <v>       0.20435434       0.96873251      -2.79082060 </v>
   <v>       0.95154468      -1.58737013      -1.53085142 </v>
   <v>      -1.79772486      -0.41917522      -3.00270984 </v>
   <v>      -1.80812895       1.99080645       2.40518368 </v>
   <v>      -1.01477388      -1.73962835       1.39779472 </v>
   <v>      -0.01919628       0.42032374      -1.66887188 </v>
   <v>      -3.04169919       0.58294147      -0.66780947 </v>
   <v>       2.28225588       0.82138450       1.01087973 </v>
   <v>       4.20794570      -3.28317803       1.38500182 </v>
   <v>       0.92734223       0.14289004       1.40784210 </v>
   <v>       0.43608110       0.07665091      -2.66948831 </v>
   <v>      -1.57667225       1.34774992       0.38428516 </v>
   <v>       0.46891175      -0.92722675      -0.32244413 </v>
   <v>      -0.85996510      -0.79137050       0.48973329 </v>
   <v>      -0.38613698      -0.59859228      -0.38563209 </v>
   <v>      -2.07337298       0.82611678      -0.58863075 </v>
   <v>       1.26174617      -1.35225146       4.64665535 </v>
   <v>      -0.88126513      -6.56677744      -1.38917945 </v>
   <v>       2.56833682       0.80798891      -0.69933422 </v>
   <v>      -0.68496457      -1.14899613       0.70823712 </v>
   <v>       0.98065932      -0.53522152      -0.88167985 </v>
   <v>      -0.23448987      -1.16843565      -2.29956313 </v>
   <v>      -0.73082052      -3.27769475       1.27074596 </v>
   <v>       0.66144069       1.55770600      -0.19709149 </v>
  </varray>
  <varray name="stress" >
   <v>      23.74106449       3.36758911      -4.80674940 </v>
   <v>       3.36758910      11.96529899      -2.02363382 </v>
   <v>      -4.80674935      -2.02363383      17.32528370 </v>
  </varray>
  <energy>
   <i name="e_fr_energy">   -930.83076174 </i>
   <i name="e_wo_entrp">   -930.83076174 </i>
   <i name="e_0_energy">     -0.00000000 </i>
  </energy>
  <time name="totalsc"> 1110.32 1113.34</time>
  <eigenvalues>
   <array>
    <dimension dim="1">band</dimension>
    <dimension dim="2">kpoint</dimension>
    <dimension dim="3">spin</dimension>
    <field>eigene</field>
    <field>occ</field>
    <set>
     <set comment="spin 1">
      <set comment="kpoint 1">
       <r>  -38.3781    1.0000 </r>
       <r>  -38.2245    1.0000 </r>
       <r>  -38.1674    1.0000 </r>
       <r>  -37.9047    1.0000 </r>
       <r>  -37.8285    1.0000 </r>
       <r>  -37.8045    1.0000 </r>
       <r>  -37.7763    1.0000 </r>
       <r>  -37.6781    1.0000 </r>
       <r>  -37.6313    1.0000 </r>
       <r>  -37.4750    1.0000 </r>
       <r>  -37.4232    1.0000 </r>
       <r>  -37.1172    1.0000 </r>
       <r>  -36.9995    1.0000 </r>
       <r>  -36.9186    1.0000 </r>
       <r>  -36.7491    1.0000 </r>
       <r>  -36.6674    1.0000 </r>
       <r>  -36.5996    1.0000 </r>
       <r>  -36.5605    1.0000 </r>
       <r>  -36.4027    1.0000 </r>
       <r>  -36.1067    1.0000 </r>
       <r>  -36.0378    1.0000 </r>
       <r>  -35.6434    1.0000 </r>
       <r>  -35.2714    1.0000 </r>
       <r>  -35.2674    1.0000 </r>
       <r>  -35.0019    1.0000 </r>
       <r>  -34.7911    1.0000 </r>
       <r>  -34.7865    1.0000 </r>
       <r>  -19.7679    1.0000 </r>
       <r>  -19.5703    1.0000 </r>
       <r>  -19.5541    1.0000 </r>
       <r>  -19.4917    1.0000 </r>
       <r>  -19.4731    1.0000 </r>
       <r>  -19.4293    1.0000 </r>
       <r>  -19.3290    1.0000 </r>
       <r>  -19.2871    1.0000 </r>
[...]
       <r>     3.2359     7.6619   863.3156 </r>
       <r>     3.4076     3.9862   864.0000 </r>
       <r>     3.5793     0.0000   864.0000 </r>
       <r>     3.7510     0.0000   864.0000 </r>
       <r>     3.9227     0.0000   864.0000 </r>
       <r>     4.0944     0.0493   864.0085 </r>
       <r>     4.2661     2.8798   864.5029 </r>
       <r>     4.4378     6.1733   865.5629 </r>
       <r>     4.6095     8.6754   867.0524 </r>
       <r>     4.7812     5.5048   867.9976 </r>
       <r>     4.9529     0.0138   868.0000 </r>
       <r>     5.1246     1.7740   868.3046 </r>
       <r>     5.2963     9.6178   869.9560 </r>
       <r>     5.4680    12.6313   872.1248 </r>
       <r>     5.6397    17.2274   875.0827 </r>
       <r>     5.8114    21.9770   878.8562 </r>
       <r>     5.9831    24.7111   883.0991 </r>
       <r>     6.1549    32.3753   888.6580 </r>
       <r>     6.3266    40.0108   895.5279 </r>
       <r>     6.4983    43.3274   902.9673 </r>
       <r>     6.6700    45.7815   910.8280 </r>
       <r>     6.8417    53.8788   920.0790 </r>
       <r>     7.0134    60.9751   930.5485 </r>
       <r>     7.1851    70.2628   942.6127 </r>
       <r>     7.3568    64.5692   953.6993 </r>
       <r>     7.5285    78.6579   967.2049 </r>
       <r>     7.7002    81.5067   981.1997 </r>
       <r>     7.8719    88.7973   996.4463 </r>
       <r>     8.0436    82.8281  1010.6680 </r>
       <r>     8.2153    86.0044  1025.4350 </r>
       <r>     8.3870    68.4962  1037.1959 </r>
       <r>     8.5587    16.3284  1039.9995 </r>
       <r>     8.7304     0.0029  1040.0000 </r>
       <r>     8.9021     0.0000  1040.0000 </r>
       <r>     9.0738     0.0000  1040.0000 </r>
       <r>     9.2455     0.0000  1040.0000 </r>
       <r>     9.4172     0.0000  1040.0000 </r>
       <r>     9.5889     0.0000  1040.0000 </r>
       <r>     9.7606     0.0000  1040.0000 </r>
       <r>     9.9323     0.0000  1040.0000 </r>
       <r>    10.1040     0.0000  1040.0000 </r>
       <r>    10.2757     0.0000  1040.0000 </r>
       <r>    10.4474     0.0000  1040.0000 </r>
       <r>    10.6191     0.0000  1040.0000 </r>
       <r>    10.7908     0.0000  1040.0000 </r>
      </set>
     </set>
    </array>
   </total>
  </dos>
 </calculation>
 <structure name="finalpos" >
  <crystal>
   <varray name="basis" >
    <v>      12.52607000       0.00000000       0.00000000 </v>
    <v>       0.00000000      12.52607000       0.00000000 </v>
    <v>       0.00000000       0.00000000      12.52607000 </v>
   </varray>
   <i name="volume">   1965.37081690 </i>
   <varray name="rec_basis" >
    <v>       0.07983350       0.00000000       0.00000000 </v>
    <v>       0.00000000       0.07983350       0.00000000 </v>
    <v>       0.00000000       0.00000000       0.07983350 </v>
   </varray>
  </crystal>
  <varray name="positions" >
   <v>       0.02265621       0.40686723       0.65307306 </v>
   <v>       0.60267691       0.71844430       0.34502281 </v>
   <v>       0.29525431       0.35114313       0.18874469 </v>
   <v>       0.39866984       0.56972464       0.91013342 </v>
   <v>       0.83182038       0.04059146       0.61276934 </v>
   <v>       0.46893239       0.33107598       0.96048454 </v>
   <v>       0.52226463       0.18180929       0.21619399 </v>
   <v>       0.54705137       0.16343757       0.70901820 </v>
   <v>       0.05979946       0.85032080       0.20691601 </v>
   <v>       0.64722991       0.84946599       0.80235710 </v>
   <v>       0.23988920       0.75527943       0.47408573 </v>
   <v>       0.17226686       0.42746252       0.36119635 </v>
   <v>       0.05540305       0.70810259       0.99048996 </v>
   <v>       0.00245682       0.17255486       0.86744695 </v>
   <v>       0.27811510       0.88270984       0.98765424 </v>
   <v>       0.33003083       0.03212580       0.64610428 </v>
   <v>       0.26006957       0.09612562       0.26286389 </v>
   <v>       0.53333324       0.88547270       0.04509659 </v>
   <v>       0.75683107       0.68485448       0.15348958 </v>
   <v>       0.83717196       0.87015103       0.48859455 </v>
   <v>       0.73070795       0.39624426       0.67707684 </v>
   <v>       0.90843718       0.16286544       0.27193831 </v>
   <v>       0.14865503       0.39653321       0.94506997 </v>
   <v>       0.73893771       0.35421330       0.20875629 </v>
   <v>       0.19720128       0.75399298       0.75098625 </v>
   <v>       0.75646215       0.64381101       0.69476503 </v>
   <v>       0.45322671       0.93601127       0.35182087 </v>
   <v>       0.45296699       0.50958001       0.17129122 </v>
   <v>       0.75104604       0.42621986       0.92791768 </v>
   <v>       0.04055499       0.60485503       0.49218287 </v>
   <v>       0.39445163       0.73635495       0.19344033 </v>
   <v>       0.56481209       0.92608293       0.56881659 </v>
   <v>       0.01936328       0.34452721       0.15785437 </v>
   <v>       0.82161186       0.61329408       0.38109033 </v>
   <v>       0.40193936       0.99775957       0.84627100 </v>
   <v>       0.97402247       0.46570122       0.84371153 </v>
   <v>       0.25069090       0.63241415       0.07244736 </v>
   <v>       0.51415376       0.41638055       0.32900561 </v>
   <v>       0.78848442       0.79705254       0.94436882 </v>
   <v>       0.44902132       0.40299443       0.69860878 </v>
   <v>       0.71384073       0.18546432       0.92998287 </v>
   <v>       0.75194899       0.13768423       0.43561336 </v>
   <v>       0.42439229       0.56603354       0.50965182 </v>
   <v>       0.05247888       0.94108245       0.70672459 </v>
   <v>       0.00921170       0.59887443       0.23127584 </v>
   <v>       0.39708230       0.23388609       0.41933905 </v>
   <v>       0.09596188       0.03584496       0.06922895 </v>
   <v>       0.30744750       0.15041888       0.99415723 </v>
   <v>       0.25791414       0.25247455       0.62411868 </v>
   <v>       0.05082850       0.17252170       0.59427893 </v>
   <v>       0.12525325       0.95581558       0.48234180 </v>
   <v>       0.83096722       0.98266342       0.03272744 </v>
   <v>       0.67319920       0.98089218       0.21648062 </v>
   <v>       0.46276886       0.73780854       0.67116288 </v>
   <v>       0.30748916       0.92536858       0.79743697 </v>
   <v>       0.40879450       0.48045104       0.28923113 </v>
   <v>       0.51504019       0.36672100       0.20189448 </v>
   <v>       0.92992981       0.66101045       0.46945525 </v>
   <v>       0.88000477       0.47846577       0.92259430 </v>
   <v>       0.89982360       0.29689244       0.20905381 </v>
   <v>       0.33992689       0.72294131       0.31037558 </v>
   <v>       0.30073883       0.54943212       0.46596379 </v>
   <v>       0.69181411       0.04731983       0.32720073 </v>
   <v>       0.29793165       0.28703792       0.36297298 </v>
   <v>       0.79192687       0.28668437       0.87308367 </v>
   <v>       0.89508313       0.86479491       0.00329715 </v>
   <v>       0.39974048       0.66008806       0.07810215 </v>
   <v>       0.89803253       0.53051831       0.29973821 </v>
   <v>       0.32958980       0.26394219       0.93328889 </v>
   <v>       0.50547666       0.27964588       0.37269248 </v>
   <v>       0.54340635       0.85318848       0.46238448 </v>
   <v>       0.32095142       0.16950783       0.14172824 </v>
   <v>       0.01489231       0.48048183       0.15745125 </v>
   <v>       0.70454548       0.72071677       0.99411112 </v>
   <v>       0.97410478       0.68773389       0.14298316 </v>
   <v>       0.39594797       0.46034279       0.06107670 </v>
   <v>       0.67647471       0.46577660       0.82557680 </v>
   <v>       0.39391946       0.10158762       0.36257592 </v>
   <v>       0.15309512       0.00652929       0.19476030 </v>
   <v>       0.09457045       0.66238347       0.59063213 </v>
   <v>       0.99790653       0.08757424       0.69551457 </v>
   <v>       0.65367123       0.85662264       0.22005111 </v>
   <v>       0.78954528       0.76205606       0.81547859 </v>
   <v>       0.26194613       0.64964401       0.93909614 </v>
   <v>       0.97081977       0.90836660       0.61825060 </v>
   <v>       0.11235753       0.30845491       0.25003176 </v>
   <v>       0.54822177       0.02881956       0.16148195 </v>
   <v>       0.14968313       0.91232594       0.63339067 </v>
   <v>       0.20372798       0.72496899       0.14581718 </v>
   <v>       0.55155790       0.33252090       0.69899369 </v>
   <v>       0.71737414       0.15391394       0.54987793 </v>
   <v>       0.50331858       0.92424437       0.85694832 </v>
   <v>       0.72072983       0.91781205       0.94974388 </v>
   <v>       0.05535157       0.86014841       0.42763625 </v>
   <v>       0.18438550       0.08198277       0.98249897 </v>
   <v>       0.04081612       0.36268738       0.80978201 </v>
   <v>       0.32991653       0.33863644       0.67174222 </v>
   <v>       0.35003038       0.20828585       0.53432869 </v>
   <v>       0.62741930       0.15238395       0.83615208 </v>
   <v>       0.58767991       0.72111073       0.71544389 </v>
   <v>       0.41898518       0.42841300       0.82129175 </v>
   <v>       0.85852080       0.06192620       0.44014890 </v>
   <v>       0.78083751       0.23138367       0.35233610 </v>
   <v>       0.07044860       0.07801039       0.48303179 </v>
   <v>       0.08230669       0.63736683       0.32905844 </v>
   <v>       0.36966865       0.68820626       0.75514713 </v>
   <v>       0.94994885       0.26777442       0.63734745 </v>
   <v>       0.65544549       0.21166018       0.03329092 </v>
   <v>       0.81370216       0.01223829       0.16435953 </v>
   <v>       0.54705834       0.63524994       0.21466021 </v>
   <v>       0.45318153       0.51323139       0.62766017 </v>
   <v>       0.80692599       0.09693980       0.98294970 </v>
   <v>       0.78401514       0.73983379       0.33984610 </v>
   <v>       0.08993103       0.90725837       0.83312559 </v>
   <v>       0.64497468       0.44316086       0.30133757 </v>
   <v>       0.99748320       0.11065914       0.03919854 </v>
   <v>       0.50875076       0.47969208       0.45317875 </v>
   <v>       0.26516348       0.93642371       0.46639599 </v>
   <v>       0.68413764       0.90808529       0.60779396 </v>
   <v>       0.47960540       0.04904120       0.54664641 </v>
   <v>       0.05419352       0.56747953       0.85720022 </v>
   <v>       0.19116104       0.17725487       0.71664149 </v>
   <v>       0.42118585       0.85156171       0.15551559 </v>
   <v>       0.03637709       0.31877077       0.03421363 </v>
   <v>       0.14742668       0.27403886       0.54844852 </v>
   <v>       0.44417182       0.69387903       0.54449350 </v>
   <v>       0.90375687       0.48932525       0.72926013 </v>
   <v>       0.39761968       0.11006554       0.76477822 </v>
   <v>       0.10852642       0.91806407       0.04068231 </v>
   <v>       0.18838057       0.52042091       0.10222396 </v>
   <v>       0.73523701       0.60477273       0.47605423 </v>
   <v>       0.37966095       0.04208197       0.97575701 </v>
   <v>       0.72092831       0.46243063       0.05386308 </v>
   <v>       0.06357781       0.48797344       0.46966160 </v>
   <v>       0.46449698       0.86602137       0.64932405 </v>
  </varray>
  <varray name="velocities" >
   <v>       0.00000000       0.00000000       0.00000000 </v>
   <v>       0.00000000       0.00000000       0.00000000 </v>
   <v>       0.00000000       0.00000000       0.00000000 </v>
   <v>       0.00000000       0.00000000       0.00000000 </v>
   <v>       0.00000000       0.00000000       0.00000000 </v>
   <v>       0.00000000       0.00000000       0.00000000 </v>
   <v>       0.00000000       0.00000000       0.00000000 </v>
   <v>       0.00000000       0.00000000       0.00000000 </v>
   <v>       0.00000000       0.00000000       0.00000000 </v>
   <v>       0.00000000       0.00000000       0.00000000 </v>
   <v>       0.00000000       0.00000000       0.00000000 </v>
   <v>       0.00000000       0.00000000       0.00000000 </v>
   <v>       0.00000000       0.00000000       0.00000000 </v>
   <v>       0.00000000       0.00000000       0.00000000 </v>
   <v>       0.00000000       0.00000000       0.00000000 </v>
   <v>       0.00000000       0.00000000       0.00000000 </v>
   <v>       0.00000000       0.00000000       0.00000000 </v>
   <v>       0.00000000       0.00000000       0.00000000 </v>
   <v>       0.00000000       0.00000000       0.00000000 </v>
   <v>       0.00000000       0.00000000       0.00000000 </v>
   <v>       0.00000000       0.00000000       0.00000000 </v>
   <v>       0.00000000       0.00000000       0.00000000 </v>
   <v>       0.00000000       0.00000000       0.00000000 </v>
   <v>       0.00000000       0.00000000       0.00000000 </v>
   <v>       0.00000000       0.00000000       0.00000000 </v>
   <v>       0.00000000       0.00000000       0.00000000 </v>
   <v>       0.00000000       0.00000000       0.00000000 </v>
   <v>       0.00000000       0.00000000       0.00000000 </v>
   <v>       0.00000000       0.00000000       0.00000000 </v>
   <v>       0.00000000       0.00000000       0.00000000 </v>
   <v>       0.00000000       0.00000000       0.00000000 </v>
   <v>       0.00000000       0.00000000       0.00000000 </v>
   <v>       0.00000000       0.00000000       0.00000000 </v>
   <v>       0.00000000       0.00000000       0.00000000 </v>
   <v>       0.00000000       0.00000000       0.00000000 </v>
   <v>       0.00000000       0.00000000       0.00000000 </v>
   <v>       0.00000000       0.00000000       0.00000000 </v>
   <v>       0.00000000       0.00000000       0.00000000 </v>
   <v>       0.00000000       0.00000000       0.00000000 </v>
   <v>       0.00000000       0.00000000       0.00000000 </v>
   <v>       0.00000000       0.00000000       0.00000000 </v>
   <v>       0.00000000       0.00000000       0.00000000 </v>
   <v>       0.00000000       0.00000000       0.00000000 </v>
   <v>       0.00000000       0.00000000       0.00000000 </v>
   <v>       0.00000000       0.00000000       0.00000000 </v>
   <v>       0.00000000       0.00000000       0.00000000 </v>
   <v>       0.00000000       0.00000000       0.00000000 </v>
   <v>       0.00000000       0.00000000       0.00000000 </v>
   <v>       0.00000000       0.00000000       0.00000000 </v>
   <v>       0.00000000       0.00000000       0.00000000 </v>
   <v>       0.00000000       0.00000000       0.00000000 </v>
   <v>       0.00000000       0.00000000       0.00000000 </v>
   <v>       0.00000000       0.00000000       0.00000000 </v>
   <v>       0.00000000       0.00000000       0.00000000 </v>
   <v>       0.00000000       0.00000000       0.00000000 </v>
   <v>       0.00000000       0.00000000       0.00000000 </v>
   <v>       0.00000000       0.00000000       0.00000000 </v>
   <v>       0.00000000       0.00000000       0.00000000 </v>
   <v>       0.00000000       0.00000000       0.00000000 </v>
   <v>       0.00000000       0.00000000       0.00000000 </v>
   <v>       0.00000000       0.00000000       0.00000000 </v>
   <v>       0.00000000       0.00000000       0.00000000 </v>
   <v>       0.00000000       0.00000000       0.00000000 </v>
   <v>       0.00000000       0.00000000       0.00000000 </v>
   <v>       0.00000000       0.00000000       0.00000000 </v>
   <v>       0.00000000       0.00000000       0.00000000 </v>
   <v>       0.00000000       0.00000000       0.00000000 </v>
   <v>       0.00000000       0.00000000       0.00000000 </v>
   <v>       0.00000000       0.00000000       0.00000000 </v>
   <v>       0.00000000       0.00000000       0.00000000 </v>
   <v>       0.00000000       0.00000000       0.00000000 </v>
   <v>       0.00000000       0.00000000       0.00000000 </v>
   <v>       0.00000000       0.00000000       0.00000000 </v>
   <v>       0.00000000       0.00000000       0.00000000 </v>
   <v>       0.00000000       0.00000000       0.00000000 </v>
   <v>       0.00000000       0.00000000       0.00000000 </v>
   <v>       0.00000000       0.00000000       0.00000000 </v>
   <v>       0.00000000       0.00000000       0.00000000 </v>
   <v>       0.00000000       0.00000000       0.00000000 </v>
   <v>       0.00000000       0.00000000       0.00000000 </v>
   <v>       0.00000000       0.00000000       0.00000000 </v>
   <v>       0.00000000       0.00000000       0.00000000 </v>
   <v>       0.00000000       0.00000000       0.00000000 </v>
   <v>       0.00000000       0.00000000       0.00000000 </v>
   <v>       0.00000000       0.00000000       0.00000000 </v>
   <v>       0.00000000       0.00000000       0.00000000 </v>
   <v>       0.00000000       0.00000000       0.00000000 </v>
   <v>       0.00000000       0.00000000       0.00000000 </v>
   <v>       0.00000000       0.00000000       0.00000000 </v>
   <v>       0.00000000       0.00000000       0.00000000 </v>
   <v>       0.00000000       0.00000000       0.00000000 </v>
   <v>       0.00000000       0.00000000       0.00000000 </v>
   <v>       0.00000000       0.00000000       0.00000000 </v>
   <v>       0.00000000       0.00000000       0.00000000 </v>
   <v>       0.00000000       0.00000000       0.00000000 </v>
   <v>       0.00000000       0.00000000       0.00000000 </v>
   <v>       0.00000000       0.00000000       0.00000000 </v>
   <v>       0.00000000       0.00000000       0.00000000 </v>
   <v>       0.00000000       0.00000000       0.00000000 </v>
   <v>       0.00000000       0.00000000       0.00000000 </v>
   <v>       0.00000000       0.00000000       0.00000000 </v>
   <v>       0.00000000       0.00000000       0.00000000 </v>
   <v>       0.00000000       0.00000000       0.00000000 </v>
   <v>       0.00000000       0.00000000       0.00000000 </v>
   <v>       0.00000000       0.00000000       0.00000000 </v>
   <v>       0.00000000       0.00000000       0.00000000 </v>
   <v>       0.00000000       0.00000000       0.00000000 </v>
   <v>       0.00000000       0.00000000       0.00000000 </v>
   <v>       0.00000000       0.00000000       0.00000000 </v>
   <v>       0.00000000       0.00000000       0.00000000 </v>
   <v>       0.00000000       0.00000000       0.00000000 </v>
   <v>       0.00000000       0.00000000       0.00000000 </v>
   <v>       0.00000000       0.00000000       0.00000000 </v>
   <v>       0.00000000       0.00000000       0.00000000 </v>
   <v>       0.00000000       0.00000000       0.00000000 </v>
   <v>       0.00000000       0.00000000       0.00000000 </v>
   <v>       0.00000000       0.00000000       0.00000000 </v>
   <v>       0.00000000       0.00000000       0.00000000 </v>
   <v>       0.00000000       0.00000000       0.00000000 </v>
   <v>       0.00000000       0.00000000       0.00000000 </v>
   <v>       0.00000000       0.00000000       0.00000000 </v>
   <v>       0.00000000       0.00000000       0.00000000 </v>
   <v>       0.00000000       0.00000000       0.00000000 </v>
   <v>       0.00000000       0.00000000       0.00000000 </v>
   <v>       0.00000000       0.00000000       0.00000000 </v>
   <v>       0.00000000       0.00000000       0.00000000 </v>
   <v>       0.00000000       0.00000000       0.00000000 </v>
   <v>       0.00000000       0.00000000       0.00000000 </v>
   <v>       0.00000000       0.00000000       0.00000000 </v>
   <v>       0.00000000       0.00000000       0.00000000 </v>
   <v>       0.00000000       0.00000000       0.00000000 </v>
   <v>       0.00000000       0.00000000       0.00000000 </v>
   <v>       0.00000000       0.00000000       0.00000000 </v>
   <v>       0.00000000       0.00000000       0.00000000 </v>
   <v>       0.00000000       0.00000000       0.00000000 </v>
  </varray>
 </structure>
</modeling>
