135
Time=99999.99999996 pbc="T T T" Lattice="13.31093562 0.00000000 0.00000000 0.00000000 13.31093562 0.00000000 0.00000000 0.00000000 13.31093562" energy=-884.35001131 virial="4.63307272 -14.57816663 -19.22469324 -14.57816663 -8.66333427 20.01297847 -19.22469324 20.01297847 -39.10410238" stress="0.02169511 -0.00618126 -0.00815143 -0.00618126 0.01605733 0.00848567 -0.00815143 0.00848567 0.00315019" Properties=species:S:1:pos:R:3
Ca 6.95845150 2.04108688 3.84969217
Ca 7.00449157 5.34918762 10.53822133
Ca 8.01407615 0.45724214 6.62200529
Ca 2.39095882 4.27477857 9.56727148
Ca 2.59395257 11.72463401 13.12407429
Ca 6.96189127 6.89773155 0.11506440
Ca 2.23438384 5.89058669 1.76091874
Ca 1.36871908 1.42082423 2.93630193
Ca 12.17553411 10.83596097 8.46168365
Ca 4.10488610 12.98691654 5.31093891
Ca 5.27396042 3.26388690 12.69890121
Ca 0.46315901 7.56971208 10.69915716
Ca 10.12164985 3.01636228 11.16882351
Ca 2.46646750 10.27836496 8.11493686
Ca 8.79484771 0.84554629 0.06085907
Ca 9.97621927 8.61930498 2.96063498
Ca 11.52793499 5.79162663 3.98949083
Ca 10.10064978 10.35722386 11.74179351
Ca 11.22762097 2.96324589 5.01859118
Ca 2.31471239 0.30799824 8.33668691
Ca 4.97604440 12.52915301 11.18686019
Ca 12.42288821 0.70377964 0.34903960
Ca 6.34878392 8.52357326 9.00149283
Ca 1.08066889 8.12249807 4.47916879
Ca 9.01841069 4.83207541 7.58547006
Ca 9.56176950 9.06255221 6.20705442
Ca 4.30989939 5.03073036 4.71902957
Si 8.77776733 9.09648499 9.09912093
Si 5.55842333 0.83460180 0.86338866
Si 7.70742679 2.70240507 9.64995483
Si 13.23434841 3.04778620 10.53146584
Si 3.84443009 6.62005812 11.12952137
Si 5.14450919 11.34039234 8.02959708
Si 1.12411705 4.97417323 5.83557322
Si 12.69280750 5.99932053 0.02756921
Si 0.65147811 3.67208286 13.02078155
Si 0.31043307 2.09831132 5.39676901
Si 8.01726223 10.37189222 1.16143012
Si 10.77434913 0.19647395 3.85423601
Si 2.65229539 9.34340101 2.72782468
Si 13.16842634 8.66136279 1.51675663
Si 8.88175929 4.77367166 3.40839100
Si 4.04078883 11.07184966 1.94898233
Si 11.84974031 11.72534642 5.35677179
Si 12.60551503 7.53948056 7.05693617
Si 12.82732843 11.77830236 12.02996319
Si 1.83059671 0.94999097 11.64651345
Si 3.76237902 9.24494743 10.89724113
Si 12.07149244 3.29418769 8.01595198
Si 0.16999537 11.20206370 1.76186704
Si 4.67298967 2.51306267 7.16907152
Si 7.34768172 7.30509558 6.06455007
Si 9.24189809 4.61616950 0.11472463
Si 4.76859588 3.83385499 2.13144646
O 0.20909139 9.03020378 6.57158827
O 8.56172216 11.77367810 0.37793384
O 12.49017817 3.36126205 12.50567358
O 11.05862958 5.65263083 0.41942435
O 4.47538451 12.16571858 0.70250374
O 3.39815277 4.09159251 2.93658416
O 3.18277475 1.45671401 10.44721283
O 9.91636049 9.94577483 9.74942291
O 4.02112598 1.40419520 7.84755047
O 10.76632859 4.50145067 7.65142110
O 1.33908751 3.38061130 11.42433151
O 7.26071115 9.17244200 0.62015138
O 4.63902455 9.99362709 8.31243842
O 4.70215676 8.37538041 10.18870698
O 5.09427800 5.79175712 11.82569899
O 13.23793683 4.15069624 9.34768099
O 13.13240347 1.99417568 3.85841461
O 13.14940910 11.23551052 4.79565711
O 6.10912237 12.72606636 6.77006273
O 9.25702428 6.42224997 3.37971168
O 7.57115615 7.08534844 7.72740960
O 9.30089327 0.81598892 4.53944216
O 2.61498003 12.45594328 10.96208690
O 12.93891627 11.17049575 10.51346128
O 8.21810199 9.67160155 7.73660739
O 13.18749870 11.18694127 0.16037443
O 12.95657688 7.45013915 8.57941290
O 8.09398452 8.22155756 10.16945382
O 2.15876870 6.21185291 5.83324975
O 12.79534941 6.02237945 11.57132069
O 13.09472246 6.68070163 2.28804624
O 6.12793719 6.18974141 5.64409858
O 5.82546166 11.90798962 9.39462580
O 12.64913556 2.22230989 6.89222636
O 0.68057783 12.55528204 2.57219581
O 6.20009312 3.04587249 10.64101305
O 11.59454938 1.95958965 9.03879010
O 4.75158736 2.02526824 1.79402505
O 0.67891543 5.05660992 0.04898157
O 4.84532331 11.45219091 3.53336696
O 8.14697532 4.34360001 9.48457599
O 11.51769403 12.44088909 12.09990140
O 11.64780955 0.41509325 5.51074303
O 13.04602362 9.86866101 2.84109412
O 12.98214680 8.08344546 0.13025505
O 4.91926676 3.93826229 6.93668354
O 8.53007351 1.63011690 10.73969440
O 11.21855962 11.02739031 6.59716140
O 10.34699941 11.72193156 4.19871435
O 8.13380780 8.45803849 5.00618087
O 0.06422926 1.36683613 10.60226841
O 8.49753846 9.80780607 2.58593246
O 8.60794022 3.99504355 4.79083823
O 6.30719883 0.99966872 12.64531646
O 1.82529922 8.54390590 1.56653570
O 4.80300989 1.94784041 5.56593248
O 2.94198957 7.58882904 11.92597725
O 1.55362446 4.00897059 4.65404151
O 11.23585636 0.30093752 1.85133623
O 6.06718508 4.22271649 2.89269486
O 6.85965023 0.38355681 1.99335721
O 3.60444717 12.05904112 7.71958475
O 12.78023614 5.24582766 6.02214085
O 4.38619522 9.57149501 1.59436787
O 4.48164220 10.32236626 11.79852516
O 10.37309022 3.95464927 3.25258365
O 1.14771838 2.93209266 1.11555673
O 4.20965165 4.52014864 0.54140714
O 1.47717847 0.94887078 5.73270792
O 3.48375721 6.20729972 9.60621556
O 11.32665120 9.32044540 1.31624490
O 2.38615930 9.42874953 10.02953550
O 3.26070707 8.41684570 3.98287103
O 2.32787745 10.93522533 2.75695861
O 1.44670977 4.64938553 7.38957754
O 8.35780658 4.99075321 12.28164790
O 9.35147387 2.99736429 13.20209783
O 8.45881477 5.30286669 1.34462088
O 1.31318927 0.38162158 12.92516877
O 7.76850317 2.59395153 7.83256757
O 11.69864961 7.80794219 5.77488494
135
Time=199999.99999918 pbc="T T T" Lattice="13.31093562 0.00000000 0.00000000 0.00000000 13.31093562 0.00000000 0.00000000 0.00000000 13.31093562" energy=-909.04608240 virial="-25.87143580 1.25089984 2.69219396 1.25089984 -2.44562761 2.10875979 2.69219396 2.10875979 -20.68228252" stress="0.00876095 0.00053039 0.00114151 0.00053039 0.01869368 0.00089413 0.00114151 0.00089413 0.01096119" Properties=species:S:1:pos:R:3
Ca 0.63567312 8.98435515 4.77396512
Ca 3.91284619 11.56920659 6.29371879
Ca 3.74568804 1.72224395 11.42546367
Ca 10.27312214 5.58407184 7.13679622
Ca 0.50697574 3.35453924 0.43970207
Ca 5.04638471 12.14954202 9.68995603
Ca 12.46126393 3.63942752 9.07483893
Ca 3.58865767 4.66772300 2.21235887
Ca 11.53174645 7.24315809 3.18799827
Ca 1.61169456 10.11928260 10.02239607
Ca 0.46476945 13.15250876 9.26955792
Ca 5.89653092 0.45075330 0.67353160
Ca 11.92381798 8.58252044 11.45707730
Ca 0.17013060 12.62439105 2.22312982
Ca 11.64563369 10.03097406 7.29310953
Ca 9.88410566 12.29236857 5.80692229
Ca 5.16493777 1.75657323 5.94594753
Ca 7.54590141 12.90122477 7.76498939
Ca 4.68656498 8.27020727 0.81927234
Ca 9.40722339 3.61489022 12.95880604
Ca 7.31161216 9.57895585 7.50679232
Ca 2.50035395 6.82826316 9.43034222
Ca 6.73195118 7.00862990 3.13775060
Ca 3.51254074 3.99133310 5.37065606
Ca 7.72132142 8.79609596 11.82753175
Ca 9.92045004 11.44433691 0.27840519
Ca 13.17457983 1.45507680 5.67027453
Si 13.10429728 3.93347853 4.56712843
Si 8.23400792 0.32924301 2.26746461
Si 9.34946983 7.58353154 9.89450126
Si 6.16843088 1.74971642 9.54726099
Si 11.50779622 2.18089603 11.22476792
Si 2.14043128 4.59078388 11.85128023
Si 0.80569167 11.77431297 7.06178402
Si 13.20959453 6.72205989 7.36719116
Si 9.17445859 2.59545381 8.24110732
Si 6.37172530 3.60744225 0.31313258
Si 2.43752252 1.57797993 7.71477808
Si 4.19896424 11.30157179 13.06214937
Si 1.24803407 6.78798032 1.48898692
Si 2.99091751 7.14260064 6.48885297
Si 7.47412631 10.84191207 4.23033754
Si 2.09369303 13.08819798 13.10359255
Si 1.97115995 7.76063264 11.91509558
Si 5.16211963 4.30346435 10.76992004
Si 7.59049450 4.59345816 5.23522333
Si 3.16480067 7.46704385 3.47679153
Si 6.18517080 7.08934887 10.10434972
Si 8.32641810 9.17850203 1.84877039
Si 4.76205793 8.81022024 8.35538285
Si 9.48683007 10.78746056 9.32057263
Si 11.27101819 0.49730670 3.40015017
Si 0.07543918 11.30888728 12.80380380
Si 11.90680296 10.54161403 3.57181412
O 3.51871395 0.44922592 6.69560866
O 0.37038241 7.71296359 10.84400154
O 4.10409224 8.59749943 6.74641404
O 6.23721882 3.79314115 11.92194232
O 7.75230144 7.07009907 10.20351353
O 1.36160042 3.32712713 4.73295932
O 5.30937205 5.77437258 10.17066280
O 9.38358473 9.12495855 9.07400274
O 8.43459228 5.62734655 4.26533345
O 9.99887171 1.81986667 11.52619718
O 1.08880470 3.34449391 11.27382079
O 3.47069782 1.27070079 8.93737474
O 7.17431470 9.91857470 2.87336661
O 3.69914529 4.10390341 11.65520950
O 5.92933787 1.06717971 10.93362575
O 6.66127940 3.39357910 4.79617488
O 7.95117308 2.96392879 0.70817420
O 1.00180141 7.63972502 0.02811366
O 7.15127179 5.35774655 6.58668983
O 12.92811223 1.20203892 2.96994975
O 3.40538758 2.97198092 7.27941340
O 1.98943394 13.00346530 11.58146241
O 3.45437231 5.84374757 3.93130979
O 6.93366565 8.24771237 1.11581344
O 11.94335680 9.41066489 2.68077264
O 9.30856596 8.33582747 2.69029744
O 3.68809814 8.46997571 9.38445452
O 1.90470974 12.28255445 5.74877162
O 1.85894888 6.73789253 7.51656868
O 2.10702510 5.42536844 0.78184141
O 4.09530090 10.26124350 1.02218594
O 4.08354155 5.99232069 6.67567823
O 11.57401848 3.90472047 5.09250120
O 12.62838153 1.55428414 10.00175213
O 3.63502474 12.88389909 0.31977107
O 11.48147985 3.87618223 11.41715471
O 7.98237256 12.39362274 0.74926890
O 9.69843232 8.19506044 11.28454344
O 9.21445566 9.63529577 0.33140811
O 4.60333114 8.14754251 3.16415787
O 13.03729570 6.91235522 5.59040809
O 3.35637945 8.49674804 12.17440848
O 7.84659898 9.55412582 5.49985168
O 12.66866590 5.36256414 8.04338111
O 5.00550534 10.64052423 8.23558734
O 8.42697745 12.23595574 4.04450254
O 4.96562123 2.58201300 0.75618916
O 0.16593119 10.96881724 3.83934961
O 12.94357309 4.51151120 3.08362401
O 11.20306973 12.21489083 2.98848197
O 5.88150866 8.46503605 11.05532712
O 5.75290857 7.45973620 8.48731564
O 0.96824722 1.56894842 7.55304905
O 6.09527152 11.32036904 5.44886367
O 1.83107501 11.84072711 8.36546710
O 5.79537509 0.71070564 8.22205765
O 1.57878246 0.89120101 0.67096820
O 0.81793696 10.16490460 6.77735892
O 7.61439037 2.41490120 8.94806442
O 5.89599512 4.75146775 1.56435149
O 9.75016757 1.10227308 2.30669321
O 2.06049307 7.90956403 2.40760493
O 2.49335324 6.13738360 11.41068270
O 0.03010915 10.69310395 11.40850258
O 12.60052801 8.39493173 8.09282925
O 1.41391186 11.43640679 0.27002945
O 10.79805624 0.75094474 4.85050061
O 13.22147551 6.48235794 2.34714234
O 9.74298329 1.18114837 7.83737406
O 9.59678022 11.13742144 7.61310108
O 2.30410134 7.66667195 4.92886785
O 11.94834478 11.23604895 0.29889295
O 4.36211085 11.15176634 11.47079539
O 6.99988400 1.00552601 2.89713775
O 10.90262003 10.94583238 9.98392072
O 5.46723858 3.34961058 9.45782302
O 10.14093989 3.72161129 7.93313299
O 12.60952599 12.30134863 7.41424606
O 11.37025203 10.49056504 5.08498856
O 9.57510743 6.59324311 8.75219136
O 7.99356169 10.92726464 10.11271827
135
Time=299999.99999840 pbc="T T T" Lattice="13.31093562 0.00000000 0.00000000 0.00000000 13.31093562 0.00000000 0.00000000 0.00000000 13.31093562" energy=-886.12716231 virial="-8.02619929 11.96505769 41.41451468 11.96505769 -77.21247400 -21.75454720 41.41451468 -21.75454720 -55.43893813" stress="0.01632748 0.00507328 0.01756009 0.00507328 -0.01300807 -0.00922411 0.01756009 -0.00922411 -0.00377591" Properties=species:S:1:pos:R:3
Ca 12.33206825 12.68835613 5.12820689
Ca 3.65274380 4.82631315 9.13770637
Ca 1.87174529 10.36816457 1.26982782
Ca 5.26213072 3.74682559 5.85780047
Ca 1.01435049 10.67053828 7.66870008
Ca 9.40738722 12.21656571 2.04393120
Ca 12.19981342 9.25199405 0.86189101
Ca 5.06042219 13.04369053 3.74109470
Ca 10.16680726 10.80217323 9.34299146
Ca 3.53518399 7.72746018 1.61126754
Ca 10.84750675 2.75497537 7.84710275
Ca 0.74814154 7.32874320 3.36727441
Ca 6.90157792 5.26508550 2.60420171
Ca 8.25792341 2.19870957 7.32832726
Ca 1.76288551 3.10005272 0.40937146
Ca 4.17038015 12.77175855 10.68783796
Ca 1.16788323 4.77325021 6.15259044
Ca 2.88178739 7.82417023 11.06762457
Ca 10.80524078 0.00608439 12.35171163
Ca 11.70032329 6.39746057 6.52770280
Ca 0.41555395 8.01917555 11.14963764
Ca 11.52238421 4.07250283 0.68742922
Ca 6.18771133 9.91904009 5.10469317
Ca 8.33908331 5.78101385 5.78353397
Ca 8.31212391 9.48071511 13.04993413
Ca 11.94162768 2.66051865 3.65181862
Ca 7.11690186 12.00042690 8.55155238
Si 4.71658176 9.63511345 12.43354490
Si 7.00671279 12.82754722 0.67299972
Si 6.30296560 10.26896089 1.55798424
Si 6.61337800 6.91621474 8.81628790
Si 8.02562423 7.21861507 10.93656580
Si 10.84698058 5.49146540 4.03061369
Si 3.34204749 7.36240267 5.45134686
Si 5.28790117 5.30751092 13.09501490
Si 12.99892496 12.93945924 1.16382625
Si 1.34784273 6.44404670 0.22777170
Si 12.06350472 1.19391290 10.10373713
Si 9.21519682 0.32050648 9.95679893
Si 5.30967404 8.29779158 7.40592485
Si 6.54287681 1.04600659 9.75381260
Si 12.87894152 11.70460138 10.54135579
Si 13.23886928 3.65323264 9.12267356
Si 10.76041245 7.44862137 10.49738234
Si 4.21604658 12.00698233 6.91053707
Si 3.06941306 1.10961114 6.40509510
Si 4.87865617 2.35841113 8.90490694
Si 12.32231562 9.73195548 4.95963017
Si 8.74791107 9.43036624 3.37768653
Si 0.46599950 6.20190491 8.88268482
Si 5.48658590 2.15058582 1.16404645
Si 9.48730637 11.14877035 5.66869550
Si 1.95475307 10.19317111 4.54673024
Si 8.32249341 2.66853591 3.72621609
O 5.24954153 9.97166855 8.01823240
O 13.08677423 6.83435474 0.90766711
O 2.97357309 6.06797106 6.05707042
O 5.61860490 9.06080242 0.59818861
O 6.63113254 13.23498798 2.29872111
O 2.46247324 10.50154405 3.07384545
O 4.74510533 8.40507469 5.98363263
O 13.04146107 9.55033456 3.45100151
O 4.59826561 5.36669842 11.75193378
O 3.15784497 9.59940540 12.30840510
O 10.39292397 1.50328831 10.60447236
O 3.97234392 11.96811585 8.42113281
O 8.09035317 1.88268258 10.09257000
O 12.17391828 4.99474472 9.60011830
O 4.37308180 1.33571665 5.31339406
O 5.76939672 12.08502679 6.70377793
O 12.30506893 7.51046644 9.55870023
O 1.53084438 7.28392758 9.61370078
O 7.11416209 5.70915995 10.09538922
O 5.24931870 2.01811964 10.46970443
O 8.61314787 4.37220849 4.40549876
O 10.96346342 4.72929817 5.63706403
O 6.51975464 0.99464106 0.15249766
O 8.70774973 10.12579119 4.79370622
O 9.50600712 8.38257634 10.14136552
O 0.36370009 6.68086494 7.45900476
O 12.68815402 0.24701769 11.26294618
O 3.02578571 7.17883835 3.84411696
O 1.23688569 4.49430986 8.74540579
O 11.63999990 12.13411710 0.64042308
O 7.71271473 10.21211821 2.14546117
O 6.21950484 1.18260308 8.04986298
O 6.43045196 11.42320677 0.32423123
O 12.72879807 0.00146100 2.86331390
O 8.84807477 2.06955462 2.33528115
O 8.56157909 12.45876435 13.22998068
O 9.54510016 6.21249554 10.86932191
O 7.38408642 7.75906432 7.47734825
O 11.29488799 10.56408631 5.78654460
O 2.31544724 8.91812583 5.55762229
O 3.90841190 11.32612898 5.36602191
O 6.39281802 13.01323394 10.59773319
O 9.12544197 0.20425394 8.38993035
O 7.28828656 7.88928908 12.45084104
O 0.88306601 12.26554685 0.06468822
O 2.12722521 7.99232354 0.05195045
O 9.97242229 9.97628636 2.62159896
O 5.63831168 3.81166760 0.28567058
O 0.73424777 11.04564661 11.36585304
O 2.54970742 12.80381717 6.52777333
O 10.15331877 7.18034800 4.50734487
O 12.55387211 11.82682248 8.62083454
O 12.23975806 2.72077660 11.00697020
O 7.14435705 2.18913675 4.72765911
O 12.44905574 2.20739692 1.18445963
O 8.80722155 11.48357101 7.12034663
O 2.61128621 2.70320346 6.28279649
O 12.64998237 6.09000487 4.27839802
O 11.51975655 10.99798538 11.02407892
O 0.40176223 11.09556064 5.51193915
O 6.28231928 2.49629253 2.78786753
O 5.39701917 10.30864907 2.90421756
O 1.10283527 5.87372168 11.95004139
O 2.02539400 5.33920691 1.44086621
O 10.73862244 4.48184398 2.65688457
O 9.00151135 12.10609755 10.60040208
O 3.64132787 1.51818299 8.44664448
O 4.91973714 6.89046888 8.50206346
O 5.14988919 3.70577976 8.33466464
O 11.24212761 8.11276017 11.97037937
O 12.97992784 3.68581479 7.35594142
O 6.81836988 7.86213480 10.04802298
O 5.50331657 6.21297655 1.05909899
O 12.83487493 8.12378880 5.29676212
O 12.77553410 1.76173028 8.73235445
O 7.30379887 4.36951015 7.46007461
O 5.13241418 10.94877968 11.50215059
O 7.64756569 8.11297458 3.52742138
O 9.90717273 12.17774787 4.56211751
O 11.84588956 1.53986873 6.57198540
O 3.96082204 2.06923376 1.39810534
135
Time=400000.00000008 pbc="T T T" Lattice="13.31093562 0.00000000 0.00000000 0.00000000 13.31093562 0.00000000 0.00000000 0.00000000 13.31093562" energy=-890.91006463 virial="-28.63588390 -11.43071668 9.71583269 -11.43071668 -26.09194478 49.81913922 9.71583269 49.81913922 -12.46863719" stress="0.00758880 -0.00484672 0.00411959 -0.00484672 0.00866745 0.02112372 0.00411959 0.02112372 0.01444385" Properties=species:S:1:pos:R:3
Ca 2.27121161 0.81991449 2.38632774
Ca 0.42093660 10.96679162 5.02515460
Ca 11.51164314 1.09516503 3.20395332
Ca 1.29963083 3.20627138 7.60485170
Ca 9.36204836 0.63869150 9.89840314
Ca 5.40885781 12.57653510 4.82180305
Ca 11.46561741 8.22646173 6.01847569
Ca 10.84784199 3.92558860 7.70741013
Ca 10.97972165 9.43275503 10.59861764
Ca 2.74885793 8.27047734 5.64043947
Ca 7.70374268 1.87736897 1.55205550
Ca 11.66091000 10.13657279 0.92257722
Ca 6.75805802 10.33824491 9.61279303
Ca 4.48721757 2.45955754 11.79293424
Ca 2.80761094 5.17645510 3.24993204
Ca 5.66931696 7.98670825 12.17908513
Ca 12.85805160 2.45635904 11.69484773
Ca 8.59334789 10.93110278 0.32152861
Ca 3.95989938 2.34342182 5.45357747
Ca 4.26173762 7.21432670 8.60865563
Ca 13.04881926 6.92684041 10.05255006
Ca 7.30234475 3.77357603 8.73719840
Ca 6.25467441 9.32708619 6.46300567
Ca 1.72515867 10.64369184 2.43861570
Ca 3.83009212 12.20681987 9.87056419
Ca 9.47698185 4.48070677 4.18599369
Ca 8.54850975 6.67415256 0.14208558
Si 12.75011461 0.35795540 9.22470010
Si 0.96779944 9.16152003 7.87254193
Si 7.54074266 2.44149642 6.36435252
Si 0.72818440 3.37433200 2.58614542
Si 0.88218843 6.19190869 6.01305464
Si 7.30951119 2.86895965 11.83471319
Si 9.68333930 6.76972854 8.48650245
Si 1.46811639 12.96714445 7.11266733
Si 5.20681014 7.44290617 3.67787227
Si 5.88839691 4.78632884 6.61237622
Si 6.96164142 13.03240563 7.92007486
Si 6.22620496 12.39096826 1.85461467
Si 7.63463584 7.93021759 10.15990997
Si 11.40983667 4.10102717 1.14764043
Si 3.24843434 10.95729157 7.05556035
Si 1.27488779 12.34295838 12.65440923
Si 11.52980744 6.93029363 1.24219556
Si 13.11628978 8.81193653 3.80779221
Si 4.94149316 5.22329153 1.26605081
Si 6.04666307 3.65817571 3.67133262
Si 9.95964115 4.30431270 10.76795552
Si 11.60691335 12.36550991 11.79604713
Si 7.01222197 0.19718527 11.50766506
Si 6.13810898 9.76968483 1.90207954
Si 9.58887316 11.29073741 3.57995389
Si 2.83685333 9.99769939 11.61487928
Si 2.53303557 4.86768228 10.90490622
O 12.85439577 4.44951887 1.63659945
O 5.49767465 6.17330570 2.37726010
O 3.00413797 12.54405538 7.27478775
O 0.12222900 8.70287503 9.30974177
O 11.93390677 7.38313001 2.76021860
O 8.62291397 3.97550410 11.69843903
O 2.30348390 5.56941355 5.99914037
O 8.65684719 2.91604415 5.35434385
O 8.05132337 12.08871862 11.20042046
O 11.00319144 0.65768452 11.61435591
O 1.93972438 3.20264993 1.57605812
O 4.98706230 3.93155805 2.41607807
O 5.36981793 13.13640136 11.43166386
O 5.32298606 8.58043094 9.48354797
O 1.82848332 10.76485646 12.89141052
O 8.14712886 1.25821556 11.74772468
O 9.88156946 10.66334288 2.27327572
O 8.28491725 9.23155066 10.44195884
O 6.04198028 12.84200453 9.36530166
O 0.59741978 12.83347617 5.85648933
O 7.46090615 12.88541934 0.68449760
O 3.23013175 3.26894565 10.34727311
O 10.35155364 8.75916084 0.49160513
O 0.04895873 1.91076180 9.76292385
O 0.09031517 7.34566094 5.16523338
O 7.25008991 9.43350963 0.95730438
O 2.09577109 10.03181926 6.58791419
O 13.00983868 11.97348028 12.60875261
O 7.50729347 11.68601211 7.24331866
O 1.35285359 9.27082770 4.01467623
O 7.89879232 6.73905748 11.26000894
O 4.41942740 9.67274078 12.04571049
O 1.53485368 0.01426683 0.53954207
O 2.43392296 13.03447615 11.37561759
O 10.15640960 12.77527384 3.54598155
O 2.22612347 7.99577312 7.43014339
O 11.91471074 9.67393641 4.29422568
O 5.16937572 4.29741475 5.20936265
O 7.56533735 3.91915612 3.20214681
O 2.06654219 1.19138801 7.41131497
O 12.49917477 12.33554310 10.34672148
O 5.58700207 11.20476414 1.12602200
O 2.90706394 6.24819439 10.13955758
O 2.53794948 10.17993096 10.07093649
O 3.54164110 0.37862724 4.37204082
O 1.03793263 4.64986163 11.87981234
O 10.52978904 7.59552005 9.47517612
O 5.12816252 3.31587698 7.39197934
O 9.07245186 10.89390510 5.06821003
O 11.11492122 0.41272708 8.57581357
O 4.46376055 11.12628188 8.35303550
O 10.31684639 3.19345301 9.76165627
O 0.24898291 1.56523368 3.17107979
O 0.11063501 9.38662483 2.16828183
O 6.23180345 0.53550406 2.56802661
O 9.94569891 6.51201646 6.98628557
O 4.25377586 10.90960879 5.62805773
O 10.86785269 3.19272531 13.12162963
O 10.82375223 10.91256556 11.98285588
O 7.88227639 1.86162451 7.80669178
O 6.51883434 2.02646719 13.16512893
O 5.45357677 5.94601609 7.64055809
O 7.43355123 4.62463345 6.30658110
O 12.77834009 6.77297616 0.17699129
O 6.55736277 5.14848865 0.28880465
O 3.31581742 5.80376274 0.97992441
O 13.17672272 5.90547170 7.64044264
O 9.08731256 5.33806659 9.18772791
O 0.49333297 12.61259833 8.53755123
O 1.05660949 4.29859374 4.06039323
O 0.11309098 9.49559260 6.63470248
O 6.09441424 2.19997302 4.80394797
O 6.11296306 0.94523598 6.76379638
O 6.48943920 3.05946086 10.69490475
O 10.46591739 3.08682319 2.29891709
O 6.66074691 11.13806687 3.01229415
O 4.75065186 9.06856064 2.49207050
O 7.69904244 7.35631041 8.55971568
O 10.50615757 5.51562497 1.01002474
O 6.48836706 8.22065097 4.48845517
O 4.17997468 6.90616585 4.68146552
135
Time=500000.00000301 pbc="T T T" Lattice="13.31093562 0.00000000 0.00000000 0.00000000 13.31093562 0.00000000 0.00000000 0.00000000 13.31093562" energy=-882.22172083 virial="-13.52299180 25.35612248 9.90974116 25.35612248 -19.44904159 18.83874193 9.90974116 18.83874193 8.91330824" stress="0.01399679 0.01075120 0.00420181 0.01075120 0.01148410 0.00798778 0.00420181 0.00798778 0.02350997" Properties=species:S:1:pos:R:3
Ca 6.18644941 11.98363893 7.75534662
Ca 3.31530608 8.75381703 1.06967890
Ca 0.61824427 2.68974010 10.01512913
Ca 7.73894090 10.84446822 4.14138468
Ca 2.97580533 1.00286834 4.28143274
Ca 1.67945219 7.17844821 3.72415446
Ca 10.48260634 5.34405771 7.32196163
Ca 9.19250314 6.65461102 10.83840128
Ca 7.21285473 8.16297186 8.26156999
Ca 7.48903843 5.00736070 4.91289684
Ca 10.13588979 5.51065857 0.49662086
Ca 12.85264824 1.20369963 6.79298277
Ca 10.48996942 9.70361490 2.10344917
Ca 13.02895236 8.28262071 12.92420450
Ca 4.02413870 4.29366863 10.99858371
Ca 4.45553651 5.36039172 4.07327403
Ca 1.26531307 3.98342047 6.66584111
Ca 11.98491034 2.96933992 1.31178169
Ca 1.20101644 10.64224897 1.88064611
Ca 2.44582915 0.99664213 13.22222709
Ca 3.48797761 10.06972617 8.07898812
Ca 1.20297524 11.85796118 5.78322233
Ca 10.56466786 1.09550403 9.91516019
Ca 11.50656860 13.08617150 3.68841175
Ca 12.46587864 11.25873241 8.97140247
Ca 8.26322839 0.61880229 1.21798394
Ca 8.07888991 1.49614942 5.37064301
Si 2.59396771 0.61254294 7.72451536
Si 3.72623460 7.20090321 6.57319777
Si 1.98499410 10.32666268 11.39192720
Si 10.86410795 4.02160084 10.83701344
Si 0.73001703 8.63350505 9.75984134
Si 5.40747123 2.72285723 2.22501876
Si 8.23518352 3.16193412 2.29417652
Si 9.96908867 12.62426143 7.50268960
Si 10.21431467 4.56690546 4.38541558
Si 8.84368441 8.33224226 0.49332339
Si 6.46133003 8.26656239 2.57469267
Si 4.37881032 11.50077844 12.60210085
Si 9.85519477 8.51606443 8.49449617
Si 10.49337167 10.10647791 6.27285902
Si 4.04566964 9.48372286 3.78994444
Si 1.52916713 5.74067013 10.73167053
Si 6.83358360 10.96819093 10.61415721
Si 12.69004092 8.94813237 6.67217832
Si 12.49565563 2.88380589 4.60442668
Si 6.31688443 5.19912445 8.40847732
Si 12.44545684 6.65814703 10.60214397
Si 8.91568843 10.29001538 11.90066962
Si 4.93439407 2.58246248 7.24246641
Si 0.48747529 0.10568415 2.06628498
Si 8.09393054 0.29141360 9.01520700
Si 0.82263768 5.50577540 1.76647433
Si 5.95771808 3.07768096 13.08807103
O 0.65060980 6.41446237 9.57174701
O 3.80158781 10.67420394 11.11029226
O 0.54846654 7.02363268 1.54867287
O 2.24924736 8.80549344 10.18545329
O 3.15675205 6.14736835 5.55326431
O 13.26418082 8.78209190 8.52710248
O 5.50824988 8.40637757 1.41462950
O 6.21387967 1.51997516 7.07323848
O 3.73879041 7.82210103 3.37422032
O 0.30918161 8.14493014 5.20508855
O 8.87578751 10.19671098 0.20947345
O 3.89525532 3.40840263 6.22006380
O 0.17846784 6.05968927 11.87478440
O 8.40767969 13.14257100 7.30959511
O 2.67258673 10.36816393 3.63468472
O 0.30568566 12.20068431 3.26059411
O 5.53480008 11.82504366 11.63705999
O 11.34608301 4.14145793 3.17599594
O 5.59243877 3.69839404 8.30405404
O 8.92969055 9.21866173 9.41046322
O 0.74931839 4.21705541 0.78169650
O 2.00821772 5.38022036 3.08138043
O 0.85518768 11.17769549 7.70937233
O 6.84500835 13.02933023 4.52930790
O 6.67427989 12.49151376 9.65313030
O 8.48668682 7.14581096 12.74710518
O 9.20196048 3.44708999 0.65740497
O 4.51361313 1.66761656 2.93307475
O 0.57146167 3.42295096 4.73369052
O 12.17105617 8.22462007 10.23664139
O 5.62127482 9.69558855 3.68179907
O 0.09591937 3.65096173 8.05150903
O 10.73211903 5.28553189 11.72144385
O 13.09419131 1.17915103 0.95900819
O 10.23970772 7.54886489 1.07953334
O 4.91566666 6.36471241 7.33343093
O 8.10281704 8.53813782 2.08701856
O 8.56282695 11.56413034 11.14520091
O 9.54228692 12.37932805 2.89644219
O 8.58373453 1.71415021 9.25188602
O 7.36918721 9.40411717 10.85693176
O 7.10048932 5.19800495 6.92974731
O 8.58440715 1.63579038 2.97705191
O 1.55937580 9.66857379 12.88100011
O 6.82721226 2.37004588 1.39321309
O 6.04448223 4.49694263 11.98601391
O 4.08882485 10.63712537 0.40833205
O 4.19843893 13.25249305 12.86919986
O 9.70504415 12.47416106 9.21666568
O 10.39756234 11.68301198 6.45512006
O 6.85008964 1.74779662 12.52899760
O 11.39595110 0.34535081 8.18620124
O 6.64315351 5.88137128 9.79661236
O 9.65713133 8.46688099 6.56667583
O 9.80975397 10.44329304 4.84879616
O 10.64742128 7.11508634 9.14512012
O 1.55060476 0.97575933 2.86423065
O 9.69262580 5.67005824 5.34266172
O 9.78659113 8.90038317 11.75079978
O 5.85215528 10.13151030 8.51915367
O 12.34467467 10.62117664 6.44998469
O 1.29205106 12.57999124 0.87448386
O 1.88443641 4.09876331 10.81213424
O 9.16843206 3.99513448 3.58574875
O 0.58434087 10.72953993 10.67060014
O 11.11615591 9.51147374 8.00388133
O 2.08557759 1.60820780 6.39219900
O 4.68236587 8.69750885 5.38049564
O 3.53752591 2.09808502 8.47111555
O 4.68731780 3.39749174 0.94554195
O 2.83748838 6.47543609 11.15329009
O 10.62529275 3.46859265 5.55921307
O 11.66580074 1.55214892 4.91591952
O 11.69744600 2.65846385 11.35998553
O 1.14980486 0.50575064 8.82139725
O 2.89760577 7.94205769 7.92493765
O 3.41181643 12.73506573 6.89604922
O 12.73311463 9.55078846 1.67454502
O 6.75528500 6.87407111 3.45687816
O 11.24255757 5.01535530 9.71821124
O 6.44926911 3.62123333 3.36605888
135
Time=600000.00000594 pbc="T T T" Lattice="13.31093562 0.00000000 0.00000000 0.00000000 13.31093562 0.00000000 0.00000000 0.00000000 13.31093562" energy=-904.12437157 virial="-43.51220988 -7.40402434 -0.27612515 -7.40402434 -10.50250937 2.25221798 -0.27612515 2.25221798 -44.49925788" stress="0.00128112 -0.00313937 -0.00011708 -0.00313937 0.01527750 0.00095496 -0.00011708 0.00095496 0.00086260" Properties=species:S:1:pos:R:3
Ca 7.15912445 4.95169585 10.03499252
Ca 12.24802197 10.59814432 4.82934947
Ca 5.98056598 13.17426682 2.87261908
Ca 11.49369873 1.21885494 5.65265786
Ca 10.66496480 4.21864452 8.05655746
Ca 11.44278518 6.80086487 4.24916274
Ca 4.83713963 6.17136335 7.81925745
Ca 3.50336119 10.57720039 7.43090947
Ca 12.26455908 12.72273388 1.73941919
Ca 2.55942115 2.84857633 9.31912099
Ca 4.40413587 10.24203388 10.90364522
Ca 4.31833217 7.78989809 3.31627882
Ca 0.73074125 1.01404885 7.45775944
Ca 1.03929056 4.56176848 11.97143524
Ca 2.97094358 8.76449804 13.30030497
Ca 8.43205248 9.48517621 9.33249736
Ca 0.91142039 10.38174203 9.77123956
Ca 3.12104371 1.29280359 0.50335362
Ca 9.53265027 7.39577183 0.69143284
Ca 7.62123521 7.84946859 4.82555517
Ca 7.67450696 1.30871886 7.98359662
Ca 11.19192277 1.18028612 12.03453505
Ca 6.83558069 12.89635526 12.48360090
Ca 1.72793372 7.50951936 9.06114596
Ca 7.93938468 4.68922203 5.53213081
Ca 8.44311110 11.60242075 6.00598001
Ca 2.99613826 3.00011222 4.50237979
Si 8.20696479 1.85033333 4.72763676
Si 11.24112138 11.64961949 7.59405451
Si 2.65406562 5.09363206 6.42171697
Si 3.85875760 11.62241410 0.16479653
Si 13.06273177 4.01999503 5.22447431
Si 4.12261613 4.27416623 11.99834320
Si 1.02160487 9.01370012 6.20260182
Si 10.61397543 0.89103968 8.73992089
Si 11.63149945 4.52824225 1.72299859
Si 5.06282287 6.99650666 11.62992400
Si 7.25454549 2.12506637 1.93687152
Si 2.68786454 11.20652375 3.54954334
Si 12.39840110 7.55419540 11.49212590
Si 8.04886614 10.52274564 1.21581658
Si 10.28685718 2.29368754 2.29637849
Si 5.27985530 2.17315087 10.15148132
Si 6.10373079 9.02527919 6.32763712
Si 12.34488165 9.96516767 12.69513626
Si 9.78592555 4.65756561 11.04217095
Si 3.57302570 5.04263108 1.42581119
Si 8.59596713 7.07274508 7.32923664
Si 9.32376230 11.11989258 12.25208939
Si 3.42933643 12.89839673 10.17366340
Si 3.69801750 13.09208288 5.63068754
Si 9.95451731 9.93311065 3.12438155
Si 6.74750876 5.40475875 2.21102287
Si 13.30640963 2.58394943 2.17484838
O 5.43363697 7.10742674 10.05306699
O 9.97892649 2.29520505 7.72385855
O 9.19409744 4.44849285 9.45091968
O 11.67250439 4.64465168 4.61801910
O 9.61451879 7.51803969 8.62048285
O 5.23780754 8.59887433 7.44446358
O 3.77817935 1.23555789 9.90584954
O 7.85445915 6.21437319 1.44543300
O 3.67564929 0.98124778 3.32408546
O 9.47451513 12.64422987 13.17429903
O 12.84657062 4.04575170 1.00576644
O 3.29512600 8.65256091 10.73582668
O 7.90014625 11.07857655 11.07172564
O 5.59518349 5.42216122 11.93121487
O 1.79684705 12.86142703 9.57592950
O 2.49278182 5.96723187 0.25565937
O 4.05957483 11.86276317 9.02914607
O 1.10059160 1.68522130 1.57370553
O 0.31578466 3.09415723 3.60865547
O 6.41365854 1.02965356 10.33518223
O 3.51227752 11.53634233 4.96369849
O 7.26868415 3.03838550 5.95142942
O 12.88254953 10.87597673 7.43895612
O 12.72790760 2.78095186 6.48803440
O 0.61720023 6.92254181 11.27704022
O 10.76138560 3.96805531 12.02136624
O 11.87678412 12.58063312 6.30669408
O 1.96676797 9.92673521 5.19127154
O 8.18996668 9.29819347 2.25794857