<?xml version="1.0" encoding="ISO-8859-1"?>
<modeling>
 <generator>
  <i name="program" type="string">vasp </i>
  <i name="version" type="string">5.4.4.18Apr17-6-g9f103f2a35  </i>
  <i name="subversion" type="string">(build Oct 31 2019 15:01:46) complex            parallel </i>
  <i name="platform" type="string">LinuxIFC </i>
  <i name="date" type="string">2024 04 19 </i>
  <i name="time" type="string">02:56:37 </i>
 </generator>
 <incar>
  <i type="int" name="ISTART">     0</i>
  <i type="string" name="PREC">anormal</i>
  <i type="logical" name="ADDGRID"> T  </i>
  <i type="int" name="IBRION">    -1</i>
  <i name="EDIFF">      0.00000100</i>
  <i name="EDIFFG">     -0.01000000</i>
  <i type="int" name="NSW">     1</i>
  <i type="int" name="ISIF">     2</i>
  <i type="int" name="ISYM">     2</i>
  <i name="ENCUT">    600.00000000</i>
  <i name="POTIM">      1.00000000</i>
  <i type="string" name="LREAL"> Auto.</i>
  <i type="int" name="ISMEAR">     0</i>
  <i name="SIGMA">      0.05000000</i>
  <i name="KSPACING">      0.25000000</i>
  <i type="logical" name="LWAVE"> F  </i>
  <i type="logical" name="LCHARG"> F  </i>
  <i type="logical" name="LSCALAPACK"> F  </i>
  <v type="int" name="KPOINT_BSE">    -1     0     0     0</v>
 </incar>
 <structure name="primitive_cell" >
  <crystal>
   <varray name="basis" >
    <v>      13.12862340       0.00000000       0.00000000 </v>
    <v>      -6.56431170      11.36972138       0.00000000 </v>
    <v>       0.00000000       0.00000000      26.82809424 </v>
   </varray>
   <i name="volume">   4004.59716953 </i>
   <varray name="rec_basis" >
    <v>       0.07616945       0.04397645       0.00000000 </v>
    <v>       0.00000000       0.08795290       0.00000000 </v>
    <v>       0.00000000       0.00000000       0.03727436 </v>
   </varray>
  </crystal>
  <varray name="positions" >
   <v>       0.08545004       0.17050916       0.45743374 </v>
   <v>       0.16740086       0.33054727       0.41241442 </v>
   <v>       0.25331969       0.24347239      -0.49839514 </v>
   <v>       0.00195370       0.25831691      -0.49959592 </v>
   <v>       0.00296818      -0.00273518      -0.49709045 </v>
   <v>       0.16468840       0.08254077       0.40722630 </v>
   <v>      -0.09175997       0.09557105       0.41090796 </v>
   <v>      -0.08522965       0.08747215      -0.45062229 </v>
   <v>       0.17637047       0.08240877      -0.45247008 </v>
   <v>       0.17336632       0.33969178      -0.44837163 </v>
   <v>       0.08624058      -0.07407266       0.45571193 </v>
   <v>      -0.15852309      -0.07777899       0.45358753 </v>
   <v>       0.33361234       0.17067444       0.45092919 </v>
   <v>       0.08966818       0.42216500       0.45418864 </v>
   <v>       0.33838820       0.42502029       0.45237594 </v>
   <v>      -0.17293639       0.16142907       0.45310767 </v>
   <v>       0.07977761       0.15895052      -0.40954966 </v>
   <v>       0.25769979       0.49996672       0.49756874 </v>
   <v>       0.24629326       0.00056371      -0.49968653 </v>
   <v>      -0.24891831      -0.00386147      -0.49893873 </v>
   <v>      -0.08659886       0.33485071       0.41384643 </v>
   <v>      -0.07793069      -0.16582361       0.40745399 </v>
   <v>       0.42906527       0.34889094       0.40847522 </v>
   <v>      -0.08321085       0.33613263      -0.45388088 </v>
   <v>      -0.08575434      -0.16312181      -0.44814722 </v>
   <v>       0.42184617       0.33312548      -0.44960110 </v>
   <v>       0.33241848       0.41059676      -0.41000164 </v>
   <v>       0.08394519       0.42322284      -0.41346729 </v>
   <v>      -0.17586064       0.16647819      -0.41401075 </v>
   <v>       0.33859400       0.17083066      -0.40641527 </v>
   <v>       0.07897560      -0.09609161      -0.40778072 </v>
   <v>       0.49837874       0.25264785       0.49665440 </v>
   <v>      -0.17986382      -0.09289510      -0.40343372 </v>
   <v>       0.16607032      -0.15902929       0.41045419 </v>
   <v>       0.41504459      -0.41945866       0.40920153 </v>
   <v>      -0.49578166      -0.49806721      -0.49980628 </v>
   <v>      -0.00075692      -0.49700693      -0.49985648 </v>
   <v>       0.40912070       0.07997235       0.40351785 </v>
   <v>      -0.33605952      -0.16334933       0.41086289 </v>
   <v>      -0.26274730       0.24377755       0.49420608 </v>
   <v>      -0.33742222       0.07635405       0.40846256 </v>
   <v>      -0.24918344      -0.25438989      -0.49757068 </v>
   <v>       0.17582299      -0.40482078       0.41145634 </v>
   <v>      -0.00661135      -0.25609602      -0.49940001 </v>
   <v>       0.41592591      -0.42052001      -0.45260842 </v>
   <v>       0.16951478      -0.16582597      -0.45461542 </v>
   <v>       0.41600429       0.08206780      -0.45174758 </v>
   <v>      -0.34209409       0.07388621      -0.45645645 </v>
   <v>       0.16317666      -0.41242044      -0.45150112 </v>
   <v>       0.33158112      -0.33531602       0.44936538 </v>
   <v>      -0.16298601      -0.32571141       0.45375442 </v>
   <v>       0.33178440      -0.08101125       0.44936932 </v>
   <v>      -0.33256928      -0.17934379      -0.44733149 </v>
   <v>      -0.41225359       0.41835275       0.45278700 </v>
   <v>      -0.16987140       0.42041234       0.45309906 </v>
   <v>      -0.42337652      -0.09227106       0.45428453 </v>
   <v>       0.08079494      -0.32498264       0.45498891 </v>
   <v>      -0.41217683       0.16799890       0.44824667 </v>
   <v>      -0.41215844      -0.32985033       0.45017558 </v>
   <v>      -0.17085771       0.40810819      -0.41447058 </v>
   <v>       0.33313582      -0.33072188      -0.41444775 </v>
   <v>      -0.42196850       0.39823693      -0.40576898 </v>
   <v>      -0.42232828      -0.09437103      -0.41212393 </v>
   <v>       0.33437473      -0.09134361      -0.41226428 </v>
   <v>       0.24284426      -0.25562080       0.49800249 </v>
   <v>      -0.08128509      -0.40963438       0.41288214 </v>
   <v>      -0.49988447      -0.24753101       0.49851330 </v>
   <v>       0.49897384      -0.00130704       0.49571800 </v>
   <v>      -0.33470733       0.33769287       0.40689878 </v>
   <v>      -0.17386527      -0.35061840      -0.40917441 </v>
   <v>      -0.32486178      -0.41642588       0.40883131 </v>
   <v>      -0.33855200      -0.42630434      -0.45277639 </v>
   <v>      -0.33897221       0.32529831      -0.45397207 </v>
   <v>      -0.07781774      -0.41376221      -0.45404817 </v>
   <v>      -0.42005834       0.16362946      -0.41598441 </v>
   <v>       0.08230444      -0.34020535      -0.40451401 </v>
   <v>      -0.41054193      -0.33363445      -0.40833232 </v>
   <v>       0.40918284      -0.17044613       0.40536682 </v>
   <v>      -0.24712818      -0.49705407      -0.49854461 </v>
   <v>       0.41651023      -0.16822215      -0.45736199 </v>
  </varray>
 </structure>
 <varray name="primitive_index" >
  <v type="int" >        1 </v>
  <v type="int" >       50 </v>
  <v type="int" >       70 </v>
  <v type="int" >       66 </v>
  <v type="int" >       65 </v>
  <v type="int" >       49 </v>
  <v type="int" >       61 </v>
  <v type="int" >       29 </v>
  <v type="int" >       17 </v>
  <v type="int" >       18 </v>
  <v type="int" >        4 </v>
  <v type="int" >       16 </v>
  <v type="int" >        5 </v>
  <v type="int" >        2 </v>
  <v type="int" >        6 </v>
  <v type="int" >       13 </v>
  <v type="int" >       33 </v>
  <v type="int" >       71 </v>
  <v type="int" >       69 </v>
  <v type="int" >       77 </v>
  <v type="int" >       62 </v>
  <v type="int" >       64 </v>
  <v type="int" >       54 </v>
  <v type="int" >       30 </v>
  <v type="int" >       32 </v>
  <v type="int" >       22 </v>
  <v type="int" >       38 </v>
  <v type="int" >       34 </v>
  <v type="int" >       45 </v>
  <v type="int" >       37 </v>
  <v type="int" >       36 </v>
  <v type="int" >       74 </v>
  <v type="int" >       48 </v>
  <v type="int" >       52 </v>
  <v type="int" >       55 </v>
  <v type="int" >       75 </v>
  <v type="int" >       67 </v>
  <v type="int" >       53 </v>
  <v type="int" >       60 </v>
  <v type="int" >       78 </v>
  <v type="int" >       57 </v>
  <v type="int" >       80 </v>
  <v type="int" >       51 </v>
  <v type="int" >       68 </v>
  <v type="int" >       23 </v>
  <v type="int" >       20 </v>
  <v type="int" >       21 </v>
  <v type="int" >       25 </v>
  <v type="int" >       19 </v>
  <v type="int" >        7 </v>
  <v type="int" >       15 </v>
  <v type="int" >        8 </v>
  <v type="int" >       28 </v>
  <v type="int" >       10 </v>
  <v type="int" >       14 </v>
  <v type="int" >       12 </v>
  <v type="int" >        3 </v>
  <v type="int" >        9 </v>
  <v type="int" >       11 </v>
  <v type="int" >       46 </v>
  <v type="int" >       39 </v>
  <v type="int" >       42 </v>
  <v type="int" >       44 </v>
  <v type="int" >       40 </v>
  <v type="int" >       72 </v>
  <v type="int" >       63 </v>
  <v type="int" >       76 </v>
  <v type="int" >       73 </v>
  <v type="int" >       58 </v>
  <v type="int" >       47 </v>
  <v type="int" >       59 </v>
  <v type="int" >       27 </v>
  <v type="int" >       26 </v>
  <v type="int" >       31 </v>
  <v type="int" >       41 </v>
  <v type="int" >       35 </v>
  <v type="int" >       43 </v>
  <v type="int" >       56 </v>
  <v type="int" >       79 </v>
  <v type="int" >       24 </v>
 </varray>
 <kpoints>
  <generation param="Gamma">
   <v type="int" name="divisions">       3        3        1 </v>
   <v name="usershift">      0.00000000       0.00000000       0.00000000 </v>
   <v name="genvec1">      0.33333333       0.00000000       0.00000000 </v>
   <v name="genvec2">      0.00000000       0.33333333       0.00000000 </v>
   <v name="genvec3">      0.00000000       0.00000000       1.00000000 </v>
   <v name="shift">      0.00000000       0.00000000       0.00000000 </v>
  </generation>
  <varray name="kpointlist" >
   <v>       0.00000000       0.00000000       0.00000000 </v>
   <v>       0.33333333      -0.00000000       0.00000000 </v>
   <v>       0.00000000       0.33333333       0.00000000 </v>
   <v>       0.33333333       0.33333333       0.00000000 </v>
   <v>      -0.33333333       0.33333333       0.00000000 </v>
  </varray>
  <varray name="weights" >
   <v>       0.11111111 </v>
   <v>       0.22222222 </v>
   <v>       0.22222222 </v>
   <v>       0.22222222 </v>
   <v>       0.22222222 </v>
  </varray>
 </kpoints>
 <parameters>
  <separator name="general" >
   <i type="string" name="SYSTEM">unknown system</i>
   <i type="logical" name="LCOMPAT"> F  </i>
  </separator>
  <separator name="electronic" >
   <i type="string" name="PREC">anorma</i>
   <i name="ENMAX">    600.00000000</i>
   <i name="ENAUG">    644.87300000</i>
   <i name="EDIFF">      0.00000100</i>
   <i type="int" name="IALGO">    38</i>
   <i type="int" name="IWAVPR">    10</i>
   <i type="int" name="NBANDS">   384</i>
   <i name="NELECT">    640.00000000</i>
   <i type="int" name="TURBO">     0</i>
   <i type="int" name="IRESTART">     0</i>
   <i type="int" name="NREBOOT">     0</i>
   <i type="int" name="NMIN">     0</i>
   <i name="EREF">      0.00000000</i>
   <separator name="electronic smearing" >
    <i type="int" name="ISMEAR">     0</i>
    <i name="SIGMA">      0.05000000</i>
    <i name="KSPACING">      0.25000000</i>
    <i type="logical" name="KGAMMA"> T  </i>
   </separator>
   <separator name="electronic projectors" >
    <i type="logical" name="LREAL"> T  </i>
    <v name="ROPT">     -0.00025000     -0.00025000     -0.00025000</v>
    <i type="int" name="LMAXPAW">  -100</i>
    <i type="int" name="LMAXMIX">     2</i>
    <i type="logical" name="NLSPLINE"> F  </i>
   </separator>
   <separator name="electronic startup" >
    <i type="int" name="ISTART">     0</i>
    <i type="int" name="ICHARG">     2</i>
    <i type="int" name="INIWAV">     1</i>
   </separator>
   <separator name="electronic spin" >
    <i type="int" name="ISPIN">     1</i>
    <i type="logical" name="LNONCOLLINEAR"> F  </i>
    <v name="MAGMOM">      1.00000000      1.00000000      1.00000000      1.00000000      1.00000000      1.00000000      1.00000000      1.00000000      1.00000000      1.00000000      1.00000000      1.00000000      1.00000000      1.00000000      1.00000000      1.00000000      1.00000000      1.00000000      1.00000000      1.00000000
      1.00000000      1.00000000      1.00000000      1.00000000      1.00000000      1.00000000      1.00000000      1.00000000      1.00000000      1.00000000      1.00000000      1.00000000      1.00000000      1.00000000      1.00000000      1.00000000      1.00000000      1.00000000      1.00000000      1.00000000
      1.00000000      1.00000000      1.00000000      1.00000000      1.00000000      1.00000000      1.00000000      1.00000000      1.00000000      1.00000000      1.00000000      1.00000000      1.00000000      1.00000000      1.00000000      1.00000000      1.00000000      1.00000000      1.00000000      1.00000000
      1.00000000      1.00000000      1.00000000      1.00000000      1.00000000      1.00000000      1.00000000      1.00000000      1.00000000      1.00000000      1.00000000      1.00000000      1.00000000      1.00000000      1.00000000      1.00000000      1.00000000      1.00000000      1.00000000      1.00000000
</v>
    <i name="NUPDOWN">     -1.00000000</i>
    <i type="logical" name="LSORBIT"> F  </i>
    <v name="SAXIS">      0.00000000      0.00000000      1.00000000</v>
    <i type="logical" name="LSPIRAL"> F  </i>
    <v name="QSPIRAL">      0.00000000      0.00000000      0.00000000</v>
    <i type="logical" name="LZEROZ"> F  </i>
   </separator>
   <separator name="electronic exchange-correlation" >
    <i type="logical" name="LASPH"> F  </i>
    <i type="logical" name="LMETAGGA"> F  </i>
   </separator>
   <separator name="electronic convergence" >
    <i type="int" name="NELM">    60</i>
    <i type="int" name="NELMDL">    -5</i>
    <i type="int" name="NELMIN">     2</i>
    <i name="ENINI">    600.00000000</i>
    <separator name="electronic convergence detail" >
     <i type="logical" name="LDIAG"> T  </i>
     <i type="logical" name="LSUBROT"> F  </i>
     <i name="WEIMIN">      0.00000000</i>
     <i name="EBREAK">      0.00000000</i>
     <i name="DEPER">      0.30000000</i>
     <i type="int" name="NRMM">     4</i>
     <i name="TIME">      0.40000000</i>
    </separator>
   </separator>
   <separator name="electronic mixer" >
    <i name="AMIX">      0.40000000</i>
    <i name="BMIX">      1.00000000</i>
    <i name="AMIN">      0.10000000</i>
    <i name="AMIX_MAG">      1.60000000</i>
    <i name="BMIX_MAG">      1.00000000</i>
    <separator name="electronic mixer details" >
     <i type="int" name="IMIX">     4</i>
     <i type="logical" name="MIXFIRST"> F  </i>
     <i type="int" name="MAXMIX">   -45</i>
     <i name="WC">    100.00000000</i>
     <i type="int" name="INIMIX">     1</i>
     <i type="int" name="MIXPRE">     1</i>
     <i type="int" name="MREMOVE">     5</i>
    </separator>
   </separator>
   <separator name="electronic dipolcorrection" >
    <i type="logical" name="LDIPOL"> F  </i>
    <i type="logical" name="LMONO"> F  </i>
    <i type="int" name="IDIPOL">     0</i>
    <i name="EPSILON">      1.00000000</i>
    <v name="DIPOL">   -100.00000000   -100.00000000   -100.00000000</v>
    <i name="EFIELD">      0.00000000</i>
   </separator>
  </separator>
  <separator name="grids" >
   <i type="int" name="NGX">   108</i>
   <i type="int" name="NGY">   108</i>
   <i type="int" name="NGZ">   216</i>
   <i type="int" name="NGXF">   216</i>
   <i type="int" name="NGYF">   216</i>
   <i type="int" name="NGZF">   432</i>
   <i type="logical" name="ADDGRID"> T  </i>
  </separator>
  <separator name="ionic" >
   <i type="int" name="NSW">     1</i>
   <i type="int" name="IBRION">    -1</i>
   <i type="int" name="MDALGO">     0</i>
   <i type="int" name="ISIF">     2</i>
   <i name="PSTRESS">      0.00000000</i>
   <i name="EDIFFG">     -0.01000000</i>
   <i type="int" name="NFREE">     0</i>
   <i name="POTIM">      1.00000000</i>
   <i name="SMASS">     -3.00000000</i>
   <i name="SCALEE">      1.00000000</i>
  </separator>
  <separator name="ionic md" >
   <i name="TEBEG">      0.00010000</i>
   <i name="TEEND">      0.00010000</i>
   <i type="int" name="NBLOCK">     1</i>
   <i type="int" name="KBLOCK">     1</i>
   <i type="int" name="NPACO">   256</i>
   <i name="APACO">     16.00000000</i>
  </separator>
  <separator name="symmetry" >
   <i type="int" name="ISYM">     2</i>
   <i name="SYMPREC">      0.00001000</i>
  </separator>
  <separator name="dos" >
   <i type="int" name="LORBIT">     0</i>
   <v name="RWIGS">     -1.00000000     -1.00000000     -1.00000000</v>
   <i type="int" name="NEDOS">   301</i>
   <i name="EMIN">     10.00000000</i>
   <i name="EMAX">    -10.00000000</i>
   <i name="EFERMI">      0.00000000</i>
  </separator>
  <separator name="writing" >
   <i type="int" name="NWRITE">     2</i>
   <i type="logical" name="LWAVE"> F  </i>
   <i type="logical" name="LDOWNSAMPLE"> F  </i>
   <i type="logical" name="LCHARG"> F  </i>
   <i type="logical" name="LPARD"> F  </i>
   <i type="logical" name="LVTOT"> F  </i>
   <i type="logical" name="LVHAR"> F  </i>
   <i type="logical" name="LELF"> F  </i>
   <i type="logical" name="LOPTICS"> F  </i>
   <v name="STM">      0.00000000      0.00000000      0.00000000      0.00000000      0.00000000      0.00000000      0.00000000</v>
  </separator>
  <separator name="performance" >
   <i type="int" name="NPAR">     4</i>
   <i type="int" name="NSIM">     4</i>
   <i type="int" name="NBLK">    -1</i>
   <i type="logical" name="LPLANE"> T  </i>
   <i type="logical" name="LSCALAPACK"> F  </i>
   <i type="logical" name="LSCAAWARE"> F  </i>
   <i type="logical" name="LSCALU"> F  </i>
   <i type="logical" name="LASYNC"> F  </i>
   <i type="logical" name="LORBITALREAL"> F  </i>
  </separator>
  <separator name="miscellaneous" >
   <i type="int" name="IDIOT">     3</i>
   <i type="int" name="ISPECIAL">     0</i>
   <i type="logical" name="LMUSIC"> F  </i>
   <v name="POMASS">     44.95600000     18.99800000     12.01100000</v>
   <v name="DARWINR">      0.00000000      0.00000000      0.00000000</v>
   <v name="DARWINV">      1.00000000      1.00000000      1.00000000</v>
   <i type="logical" name="LCORR"> T  </i>
  </separator>
  <i type="logical" name="GGA_COMPAT"> T  </i>
  <i type="logical" name="LBERRY"> F  </i>
  <i type="int" name="ICORELEVEL">     0</i>
  <i type="logical" name="LDAU"> F  </i>
  <i type="int" name="I_CONSTRAINED_M">     0</i>
  <separator name="electronic exchange-correlation" >
   <i type="string" name="GGA">--</i>
   <i type="int" name="VOSKOWN">     0</i>
   <i type="logical" name="LHFCALC"> F  </i>
   <i type="string" name="PRECFOCK"></i>
   <i type="logical" name="LSYMGRAD"> F  </i>
   <i type="logical" name="LHFONE"> F  </i>
   <i type="logical" name="LRHFCALC"> F  </i>
   <i type="logical" name="LTHOMAS"> F  </i>
   <i type="logical" name="LMODELHF"> F  </i>
   <i name="ENCUT4O">     -1.00000000</i>
   <i type="int" name="EXXOEP">     0</i>
   <i type="int" name="FOURORBIT">     0</i>
   <i name="AEXX">      0.00000000</i>
   <i name="HFALPHA">      0.00000000</i>
   <i name="MCALPHA">      0.00000000</i>
   <i name="ALDAX">      1.00000000</i>
   <i name="AGGAX">      1.00000000</i>
   <i name="ALDAC">      1.00000000</i>
   <i name="AGGAC">      1.00000000</i>
   <i type="int" name="NKREDX">     1</i>
   <i type="int" name="NKREDY">     1</i>
   <i type="int" name="NKREDZ">     1</i>
   <i type="logical" name="SHIFTRED"> F  </i>
   <i type="logical" name="ODDONLY"> F  </i>
   <i type="logical" name="EVENONLY"> F  </i>
   <i type="int" name="LMAXFOCK">     0</i>
   <i type="int" name="NMAXFOCKAE">     0</i>
   <i type="logical" name="LFOCKAEDFT"> F  </i>
   <i name="HFSCREEN">      0.00000000</i>
   <i name="HFSCREENC">      0.00000000</i>
   <i type="int" name="NBANDSGWLOW">     0</i>
  </separator>
  <separator name="vdW DFT" >
   <i type="logical" name="LUSE_VDW"> F  </i>
   <i name="Zab_VDW">     -0.84910000</i>
   <i name="PARAM1">      0.12340000</i>
   <i name="PARAM2">      1.00000000</i>
   <i name="PARAM3">      0.00000000</i>
  </separator>
  <separator name="model GW" >
   <i type="int" name="MODEL_GW">     0</i>
   <i name="MODEL_EPS0">     30.03447877</i>
   <i name="MODEL_ALPHA">      1.00000000</i>
  </separator>
  <separator name="linear response parameters" >
   <i type="logical" name="LEPSILON"> F  </i>
   <i type="logical" name="LRPA"> F  </i>
   <i type="logical" name="LNABLA"> F  </i>
   <i type="logical" name="LVEL"> F  </i>
   <i type="int" name="KINTER">     0</i>
   <i name="CSHIFT">      0.10000000</i>
   <i name="OMEGAMAX">     -1.00000000</i>
   <i name="DEG_THRESHOLD">      0.00200000</i>
   <i name="RTIME">     -0.10000000</i>
   <i name="WPLASMAI">      0.00000000</i>
   <v name="DFIELD">      0.00000000      0.00000000      0.00000000</v>
   <v name="WPLASMA">      0.00000000      0.00000000      0.00000000      0.00000000      0.00000000      0.00000000      0.00000000      0.00000000      0.00000000</v>
  </separator>
  <separator name="orbital magnetization" >
   <i type="logical" name="NUCIND"> F  </i>
   <v name="MAGPOS">      0.00000000      0.00000000      0.00000000</v>
   <i type="logical" name="LNICSALL"> T  </i>
   <i type="logical" name="ORBITALMAG"> F  </i>
   <i type="logical" name="LMAGBLOCH"> F  </i>
   <i type="logical" name="LCHIMAG"> F  </i>
   <i type="logical" name="LGAUGE"> T  </i>
   <i type="int" name="MAGATOM">     0</i>
   <v name="MAGDIPOL">      0.00000000      0.00000000      0.00000000</v>
   <v name="AVECCONST">      0.00000000      0.00000000      0.00000000</v>
  </separator>
  <separator name="response functions" >
   <i type="logical" name="LADDER"> F  </i>
   <i type="logical" name="LRPAFORCE"> F  </i>
   <i type="logical" name="LFXC"> F  </i>
   <i type="logical" name="LHARTREE"> T  </i>
   <i type="int" name="IBSE">     0</i>
   <v type="int" name="KPOINT">    -1     0     0     0</v>
   <i type="logical" name="LTCTE"> F  </i>
   <i type="logical" name="LTETE"> F  </i>
   <i type="logical" name="LTRIPLET"> F  </i>
   <i type="logical" name="LFXCEPS"> F  </i>
   <i type="logical" name="LFXHEG"> F  </i>
   <i type="int" name="NATURALO">     2</i>
   <i type="logical" name="L2ORDER"> F  </i>
   <i type="logical" name="LMP2LT"> F  </i>
   <i type="logical" name="LUSEW"> F  </i>
   <i name="ENCUTGW">     -2.00000000</i>
   <i name="ENCUTGWSOFT">     -2.00000000</i>
   <i name="ENCUTLF">     -1.00000000</i>
   <i type="int" name="LMAXMP2">    -1</i>
   <i name="SCISSOR">      0.00000000</i>
   <i type="int" name="NOMEGA">     0</i>
   <i type="int" name="NOMEGAR">     0</i>
   <i type="int" name="NBANDSGW">    -1</i>
   <i type="int" name="NBANDSO">    -1</i>
   <i type="int" name="NBANDSV">    -1</i>
   <i type="int" name="NELM">     1</i>
   <i type="int" name="NELMHF">     1</i>
   <i type="int" name="DIM">     3</i>
   <i type="int" name="ANTIRES">     0</i>
   <i name="OMEGAMAX">    -30.00000000</i>
   <i name="OMEGAMIN">    -30.00000000</i>
   <i name="OMEGATL">   -200.00000000</i>
   <i type="int" name="OMEGAGRID">   140</i>
   <i name="CSHIFT">     -0.10000000</i>
   <i type="logical" name="SELFENERGY"> F  </i>
   <i type="logical" name="LSPECTRAL"> F  </i>
   <i type="logical" name="LSPECTRALGW"> F  </i>
   <i type="logical" name="LSINGLES"> F  </i>
   <i type="logical" name="LFERMIGW"> F  </i>
   <i type="logical" name="ODDONLYGW"> F  </i>
   <i type="logical" name="EVENONLYGW"> F  </i>
   <i type="int" name="NKREDLFX">     1</i>
   <i type="int" name="NKREDLFY">     1</i>
   <i type="int" name="NKREDLFZ">     1</i>
   <i type="int" name="MAXMEM">  2800</i>
   <i type="int" name="TELESCOPE">     0</i>
   <i type="int" name="TAUPAR">     1</i>
   <i type="int" name="OMEGAPAR">    -1</i>
   <i name="LAMBDA">      1.00000000</i>
  </separator>
  <separator name="External order field" >
   <i name="OFIELD_KAPPA">      0.00000000</i>
   <v name="OFIELD_K">      0.00000000      0.00000000      0.00000000</v>
   <i name="OFIELD_Q6_NEAR">      0.00000000</i>
   <i name="OFIELD_Q6_FAR">      0.00000000</i>
   <i name="OFIELD_A">      0.00000000</i>
  </separator>
 </parameters>
 <atominfo>
  <atoms>      80 </atoms>
  <types>       3 </types>
  <array name="atoms" >
   <dimension dim="1">ion</dimension>
   <field type="string">element</field>
   <field type="int">atomtype</field>
   <set>
    <rc><c>Sc</c><c>   1</c></rc>
    <rc><c>Sc</c><c>   1</c></rc>
    <rc><c>Sc</c><c>   1</c></rc>
    <rc><c>Sc</c><c>   1</c></rc>
    <rc><c>Sc</c><c>   1</c></rc>
    <rc><c>Sc</c><c>   1</c></rc>
    <rc><c>Sc</c><c>   1</c></rc>
    <rc><c>Sc</c><c>   1</c></rc>
    <rc><c>Sc</c><c>   1</c></rc>
    <rc><c>Sc</c><c>   1</c></rc>
    <rc><c>Sc</c><c>   1</c></rc>
    <rc><c>Sc</c><c>   1</c></rc>
    <rc><c>Sc</c><c>   1</c></rc>
    <rc><c>Sc</c><c>   1</c></rc>
    <rc><c>Sc</c><c>   1</c></rc>
    <rc><c>Sc</c><c>   1</c></rc>
    <rc><c>Sc</c><c>   1</c></rc>
    <rc><c>Sc</c><c>   1</c></rc>
    <rc><c>Sc</c><c>   1</c></rc>
    <rc><c>Sc</c><c>   1</c></rc>
    <rc><c>Sc</c><c>   1</c></rc>
    <rc><c>Sc</c><c>   1</c></rc>
    <rc><c>Sc</c><c>   1</c></rc>
    <rc><c>Sc</c><c>   1</c></rc>
    <rc><c>Sc</c><c>   1</c></rc>
    <rc><c>Sc</c><c>   1</c></rc>
    <rc><c>Sc</c><c>   1</c></rc>
    <rc><c>Sc</c><c>   1</c></rc>
    <rc><c>Sc</c><c>   1</c></rc>
    <rc><c>Sc</c><c>   1</c></rc>
    <rc><c>Sc</c><c>   1</c></rc>
    <rc><c>Sc</c><c>   1</c></rc>
    <rc><c>F </c><c>   2</c></rc>
    <rc><c>F </c><c>   2</c></rc>
    <rc><c>F </c><c>   2</c></rc>
    <rc><c>F </c><c>   2</c></rc>
    <rc><c>F </c><c>   2</c></rc>
    <rc><c>F </c><c>   2</c></rc>
    <rc><c>F </c><c>   2</c></rc>
    <rc><c>F </c><c>   2</c></rc>
    <rc><c>F </c><c>   2</c></rc>
    <rc><c>F </c><c>   2</c></rc>
    <rc><c>F </c><c>   2</c></rc>
    <rc><c>F </c><c>   2</c></rc>
    <rc><c>F </c><c>   2</c></rc>
    <rc><c>F </c><c>   2</c></rc>
    <rc><c>F </c><c>   2</c></rc>
    <rc><c>F </c><c>   2</c></rc>
    <rc><c>F </c><c>   2</c></rc>
    <rc><c>F </c><c>   2</c></rc>
    <rc><c>F </c><c>   2</c></rc>
    <rc><c>F </c><c>   2</c></rc>
    <rc><c>F </c><c>   2</c></rc>
    <rc><c>F </c><c>   2</c></rc>
    <rc><c>F </c><c>   2</c></rc>
    <rc><c>F </c><c>   2</c></rc>
    <rc><c>F </c><c>   2</c></rc>
    <rc><c>F </c><c>   2</c></rc>
    <rc><c>F </c><c>   2</c></rc>
    <rc><c>F </c><c>   2</c></rc>
    <rc><c>F </c><c>   2</c></rc>
    <rc><c>F </c><c>   2</c></rc>
    <rc><c>F </c><c>   2</c></rc>
    <rc><c>F </c><c>   2</c></rc>
    <rc><c>C </c><c>   3</c></rc>
    <rc><c>C </c><c>   3</c></rc>
    <rc><c>C </c><c>   3</c></rc>
    <rc><c>C </c><c>   3</c></rc>
    <rc><c>C </c><c>   3</c></rc>
    <rc><c>C </c><c>   3</c></rc>
    <rc><c>C </c><c>   3</c></rc>
    <rc><c>C </c><c>   3</c></rc>
    <rc><c>C </c><c>   3</c></rc>
    <rc><c>C </c><c>   3</c></rc>
    <rc><c>C </c><c>   3</c></rc>
    <rc><c>C </c><c>   3</c></rc>
    <rc><c>C </c><c>   3</c></rc>
    <rc><c>C </c><c>   3</c></rc>
    <rc><c>C </c><c>   3</c></rc>
    <rc><c>C </c><c>   3</c></rc>
   </set>
  </array>
  <array name="atomtypes" >
   <dimension dim="1">type</dimension>
   <field type="int">atomspertype</field>
   <field type="string">element</field>
   <field>mass</field>
   <field>valence</field>
   <field type="string">pseudopotential</field>
   <set>
    <rc><c>  32</c><c>Sc</c><c>     44.95600000</c><c>     11.00000000</c><c>  PAW_PBE Sc_sv 07Sep2000               </c></rc>
    <rc><c>  32</c><c>F </c><c>     18.99800000</c><c>      7.00000000</c><c>  PAW_PBE F 08Apr2002                   </c></rc>
    <rc><c>  16</c><c>C </c><c>     12.01100000</c><c>      4.00000000</c><c>  PAW_PBE C 08Apr2002                   </c></rc>
   </set>
  </array>
 </atominfo>
 <structure name="initialpos" >
  <crystal>
   <varray name="basis" >
    <v>      13.12862340       0.00000000       0.00000000 </v>
    <v>      -6.56431170      11.36972138       0.00000000 </v>
    <v>       0.00000000       0.00000000      26.82809424 </v>
   </varray>
   <i name="volume">   4004.59716953 </i>
   <varray name="rec_basis" >
    <v>       0.07616945       0.04397645       0.00000000 </v>
    <v>       0.00000000       0.08795290       0.00000000 </v>
    <v>       0.00000000       0.00000000       0.03727436 </v>
   </varray>
  </crystal>
  <varray name="positions" >
   <v>       0.08545004       0.17050916       0.45743374 </v>
   <v>       0.08966818       0.42216500       0.45418864 </v>
   <v>       0.08079494       0.67501736       0.45498891 </v>
   <v>       0.08624058       0.92592734       0.45571193 </v>
   <v>       0.33361234       0.17067444       0.45092919 </v>
   <v>       0.33838820       0.42502029       0.45237594 </v>
   <v>       0.33158112       0.66468398       0.44936538 </v>
   <v>       0.33178440       0.91898875       0.44936932 </v>
   <v>       0.58782317       0.16799890       0.44824667 </v>
   <v>       0.58774641       0.41835275       0.45278700 </v>
   <v>       0.58784156       0.67014967       0.45017558 </v>
   <v>       0.57662348       0.90772894       0.45428453 </v>
   <v>       0.82706361       0.16142907       0.45310767 </v>
   <v>       0.83012860       0.42041234       0.45309906 </v>
   <v>       0.83701399       0.67428859       0.45375442 </v>
   <v>       0.84147691       0.92222101       0.45358753 </v>
   <v>       0.17637047       0.08240877       0.54752992 </v>
   <v>       0.17336632       0.33969178       0.55162837 </v>
   <v>       0.16317666       0.58757956       0.54849888 </v>
   <v>       0.16951478       0.83417403       0.54538458 </v>
   <v>       0.41600429       0.08206780       0.54825242 </v>
   <v>       0.42184617       0.33312548       0.55039890 </v>
   <v>       0.41592591       0.57947999       0.54739158 </v>
   <v>       0.41651023       0.83177785       0.54263801 </v>
   <v>       0.65790591       0.07388621       0.54354355 </v>
   <v>       0.66102779       0.32529831       0.54602793 </v>
   <v>       0.66144800       0.57369566       0.54722361 </v>
   <v>       0.66743072       0.82065621       0.55266851 </v>
   <v>       0.91477035       0.08747215       0.54937771 </v>
   <v>       0.91678915       0.33613263       0.54611912 </v>
   <v>       0.92218226       0.58623779       0.54595183 </v>
   <v>       0.91424566       0.83687819       0.55185278 </v>
   <v>       0.07977761       0.15895052       0.59045034 </v>
   <v>       0.08394519       0.42322284       0.58653271 </v>
   <v>       0.08230444       0.65979465       0.59548599 </v>
   <v>       0.07897560       0.90390839       0.59221928 </v>
   <v>       0.33859400       0.17083066       0.59358473 </v>
   <v>       0.33241848       0.41059676       0.58999836 </v>
   <v>       0.33313582       0.66927812       0.58555225 </v>
   <v>       0.33437473       0.90865639       0.58773572 </v>
   <v>       0.57994166       0.16362946       0.58401559 </v>
   <v>       0.57803150       0.39823693       0.59423102 </v>
   <v>       0.58945807       0.66636555       0.59166768 </v>
   <v>       0.57767172       0.90562897       0.58787607 </v>
   <v>       0.82413936       0.16647819       0.58598925 </v>
   <v>       0.82914229       0.40810819       0.58552942 </v>
   <v>       0.82613473       0.64938160       0.59082559 </v>
   <v>       0.82013618       0.90710490       0.59656628 </v>
   <v>       0.16468840       0.08254077       0.40722630 </v>
   <v>       0.16740086       0.33054727       0.41241442 </v>
   <v>       0.17582299       0.59517922       0.41145634 </v>
   <v>       0.16607032       0.84097071       0.41045419 </v>
   <v>       0.40912070       0.07997235       0.40351785 </v>
   <v>       0.42906527       0.34889094       0.40847522 </v>
   <v>       0.41504459       0.58054134       0.40920153 </v>
   <v>       0.40918284       0.82955387       0.40536682 </v>
   <v>       0.66257778       0.07635405       0.40846256 </v>
   <v>       0.66529267       0.33769287       0.40689878 </v>
   <v>       0.67513822       0.58357412       0.40883131 </v>
   <v>       0.66394048       0.83665067       0.41086289 </v>
   <v>       0.90824003       0.09557105       0.41090796 </v>
   <v>       0.91340114       0.33485071       0.41384643 </v>
   <v>       0.91871491       0.59036562       0.41288214 </v>
   <v>       0.92206931       0.83417639       0.40745399 </v>
   <v>       0.00296818       0.99726482       0.50290955 </v>
   <v>       0.00195370       0.25831691       0.50040408 </v>
   <v>       0.99924308       0.50299307       0.50014352 </v>
   <v>       0.99338865       0.74390398       0.50059999 </v>
   <v>       0.24629326       0.00056371       0.50031347 </v>
   <v>       0.25331969       0.24347239       0.50160486 </v>
   <v>       0.25769979       0.49996672       0.49756874 </v>
   <v>       0.24284426       0.74437920       0.49800249 </v>
   <v>       0.49897384       0.99869296       0.49571800 </v>
   <v>       0.49837874       0.25264785       0.49665440 </v>
   <v>       0.50421834       0.50193279       0.50019372 </v>
   <v>       0.50011553       0.75246899       0.49851330 </v>
   <v>       0.75108169       0.99613853       0.50106127 </v>
   <v>       0.73725270       0.24377755       0.49420608 </v>
   <v>       0.75287182       0.50294593       0.50145539 </v>
   <v>       0.75081656       0.74561011       0.50242932 </v>
  </varray>
  <varray name="velocities" >
   <v>       0.00000000       0.00000000       0.00000000 </v>
   <v>       0.00000000       0.00000000       0.00000000 </v>
   <v>       0.00000000       0.00000000       0.00000000 </v>
   <v>       0.00000000       0.00000000       0.00000000 </v>
   <v>       0.00000000       0.00000000       0.00000000 </v>
   <v>       0.00000000       0.00000000       0.00000000 </v>
   <v>       0.00000000       0.00000000       0.00000000 </v>
   <v>       0.00000000       0.00000000       0.00000000 </v>
   <v>       0.00000000       0.00000000       0.00000000 </v>
   <v>       0.00000000       0.00000000       0.00000000 </v>
   <v>       0.00000000       0.00000000       0.00000000 </v>
   <v>       0.00000000       0.00000000       0.00000000 </v>
   <v>       0.00000000       0.00000000       0.00000000 </v>
   <v>       0.00000000       0.00000000       0.00000000 </v>
   <v>       0.00000000       0.00000000       0.00000000 </v>
   <v>       0.00000000       0.00000000       0.00000000 </v>
   <v>       0.00000000       0.00000000       0.00000000 </v>
   <v>       0.00000000       0.00000000       0.00000000 </v>
   <v>       0.00000000       0.00000000       0.00000000 </v>
   <v>       0.00000000       0.00000000       0.00000000 </v>
   <v>       0.00000000       0.00000000       0.00000000 </v>
   <v>       0.00000000       0.00000000       0.00000000 </v>
   <v>       0.00000000       0.00000000       0.00000000 </v>
   <v>       0.00000000       0.00000000       0.00000000 </v>
   <v>       0.00000000       0.00000000       0.00000000 </v>
   <v>       0.00000000       0.00000000       0.00000000 </v>
   <v>       0.00000000       0.00000000       0.00000000 </v>
   <v>       0.00000000       0.00000000       0.00000000 </v>
   <v>       0.00000000       0.00000000       0.00000000 </v>
   <v>       0.00000000       0.00000000       0.00000000 </v>
   <v>       0.00000000       0.00000000       0.00000000 </v>
   <v>       0.00000000       0.00000000       0.00000000 </v>
   <v>       0.00000000       0.00000000       0.00000000 </v>
   <v>       0.00000000       0.00000000       0.00000000 </v>
   <v>       0.00000000       0.00000000       0.00000000 </v>
   <v>       0.00000000       0.00000000       0.00000000 </v>
   <v>       0.00000000       0.00000000       0.00000000 </v>
   <v>       0.00000000       0.00000000       0.00000000 </v>
   <v>       0.00000000       0.00000000       0.00000000 </v>
   <v>       0.00000000       0.00000000       0.00000000 </v>
   <v>       0.00000000       0.00000000       0.00000000 </v>
   <v>       0.00000000       0.00000000       0.00000000 </v>
   <v>       0.00000000       0.00000000       0.00000000 </v>
   <v>       0.00000000       0.00000000       0.00000000 </v>
   <v>       0.00000000       0.00000000       0.00000000 </v>
   <v>       0.00000000       0.00000000       0.00000000 </v>
   <v>       0.00000000       0.00000000       0.00000000 </v>
   <v>       0.00000000       0.00000000       0.00000000 </v>
   <v>       0.00000000       0.00000000       0.00000000 </v>
   <v>       0.00000000       0.00000000       0.00000000 </v>
   <v>       0.00000000       0.00000000       0.00000000 </v>
   <v>       0.00000000       0.00000000       0.00000000 </v>
   <v>       0.00000000       0.00000000       0.00000000 </v>
   <v>       0.00000000       0.00000000       0.00000000 </v>
   <v>       0.00000000       0.00000000       0.00000000 </v>
   <v>       0.00000000       0.00000000       0.00000000 </v>
   <v>       0.00000000       0.00000000       0.00000000 </v>
   <v>       0.00000000       0.00000000       0.00000000 </v>
   <v>       0.00000000       0.00000000       0.00000000 </v>
   <v>       0.00000000       0.00000000       0.00000000 </v>
   <v>       0.00000000       0.00000000       0.00000000 </v>
   <v>       0.00000000       0.00000000       0.00000000 </v>
   <v>       0.00000000       0.00000000       0.00000000 </v>
   <v>       0.00000000       0.00000000       0.00000000 </v>
   <v>       0.00000000       0.00000000       0.00000000 </v>
   <v>       0.00000000       0.00000000       0.00000000 </v>
   <v>       0.00000000       0.00000000       0.00000000 </v>
   <v>       0.00000000       0.00000000       0.00000000 </v>
   <v>       0.00000000       0.00000000       0.00000000 </v>
   <v>       0.00000000       0.00000000       0.00000000 </v>
   <v>       0.00000000       0.00000000       0.00000000 </v>
   <v>       0.00000000       0.00000000       0.00000000 </v>
   <v>       0.00000000       0.00000000       0.00000000 </v>
   <v>       0.00000000       0.00000000       0.00000000 </v>
   <v>       0.00000000       0.00000000       0.00000000 </v>
   <v>       0.00000000       0.00000000       0.00000000 </v>
   <v>       0.00000000       0.00000000       0.00000000 </v>
   <v>       0.00000000       0.00000000       0.00000000 </v>
   <v>       0.00000000       0.00000000       0.00000000 </v>
   <v>       0.00000000       0.00000000       0.00000000 </v>
  </varray>
 </structure>
 <calculation>
  <scstep>
   <time name="dav">   46.51   46.51</time>
   <time name="total">   47.38   47.39</time>
   <energy>
    <i name="alphaZ">    871.83850952 </i>
    <i name="ewald"> 287327.39310032 </i>
    <i name="hartreedc">-341670.18080619 </i>
    <i name="XCdc">   3043.42473886 </i>
    <i name="pawpsdc">  50525.51240023 </i>
    <i name="pawaedc"> -50422.77561733 </i>
    <i name="eentropy">     -0.07166488 </i>
    <i name="bandstr">   -181.58347811 </i>
    <i name="atom">  64207.43592568 </i>
    <i name="e_fr_energy">  13700.99310809 </i>
    <i name="e_wo_entrp">  13701.06477297 </i>
    <i name="e_0_energy">  13701.02894053 </i>
   </energy>
  </scstep>
  <scstep>
   <time name="dav">   49.82   49.84</time>
   <time name="total">   49.82   49.84</time>
   <energy>
    <i name="e_fr_energy">   2503.68849699 </i>
    <i name="e_wo_entrp">   2503.73579767 </i>
    <i name="e_0_energy">   2503.71214733 </i>
   </energy>
  </scstep>
  <scstep>
   <time name="dav">   68.31   68.32</time>
   <time name="total">   68.31   68.32</time>
   <energy>
    <i name="e_fr_energy">   -381.64734467 </i>
    <i name="e_wo_entrp">   -381.64734467 </i>
    <i name="e_0_energy">   -381.64734467 </i>
   </energy>
  </scstep>
  <scstep>
   <time name="dav">   62.04   62.05</time>
   <time name="total">   62.04   62.05</time>
   <energy>
    <i name="e_fr_energy">   -741.26060813 </i>
    <i name="e_wo_entrp">   -741.26060813 </i>
    <i name="e_0_energy">   -741.26060813 </i>
   </energy>
  </scstep>
  <scstep>
   <time name="dav">   62.25   62.26</time>
   <time name="total">   65.85   65.86</time>
   <energy>
    <i name="e_fr_energy">   -755.78202496 </i>
    <i name="e_wo_entrp">   -755.78202496 </i>
    <i name="e_0_energy">   -755.78202496 </i>
   </energy>
  </scstep>
  <scstep>
   <time name="dav">   59.09   59.10</time>
   <time name="total">   63.54   63.56</time>
   <energy>
    <i name="e_fr_energy">   -599.81586057 </i>
    <i name="e_wo_entrp">   -599.81586057 </i>
    <i name="e_0_energy">   -599.81586057 </i>
   </energy>
  </scstep>
  <scstep>
   <time name="dav">   60.64   60.65</time>
   <time name="total">   65.08   65.09</time>
   <energy>
    <i name="e_fr_energy">   -599.81323188 </i>
    <i name="e_wo_entrp">   -599.81323188 </i>
    <i name="e_0_energy">   -599.81323188 </i>
   </energy>
  </scstep>
  <scstep>
   <time name="dav">   57.84   57.85</time>
   <time name="total">   62.29   62.31</time>
   <energy>
    <i name="e_fr_energy">   -598.20790036 </i>
    <i name="e_wo_entrp">   -598.20790036 </i>
    <i name="e_0_energy">   -598.20790036 </i>
   </energy>
  </scstep>
  <scstep>
   <time name="dav">   57.19   57.19</time>
   <time name="total">   61.70   61.72</time>
   <energy>
    <i name="e_fr_energy">   -597.66693339 </i>
    <i name="e_wo_entrp">   -597.66693339 </i>
    <i name="e_0_energy">   -597.66693339 </i>
   </energy>
  </scstep>
  <scstep>
   <time name="dav">   60.62   60.63</time>
   <time name="total">   65.06   65.08</time>
   <energy>
    <i name="e_fr_energy">   -597.62929720 </i>
    <i name="e_wo_entrp">   -597.62929720 </i>
    <i name="e_0_energy">   -597.62929720 </i>
   </energy>
  </scstep>
  <scstep>
   <time name="dav">   58.11   58.12</time>
   <time name="total">   62.55   62.56</time>
   <energy>
    <i name="e_fr_energy">   -597.49617622 </i>
    <i name="e_wo_entrp">   -597.49617622 </i>
    <i name="e_0_energy">   -597.49617622 </i>
   </energy>
  </scstep>
  <scstep>
   <time name="dav">   59.89   59.89</time>
   <time name="total">   64.29   64.30</time>
   <energy>
    <i name="e_fr_energy">   -597.47130818 </i>
    <i name="e_wo_entrp">   -597.47130818 </i>
    <i name="e_0_energy">   -597.47130818 </i>
   </energy>
  </scstep>
  <scstep>
   <time name="dav">   57.75   57.75</time>
   <time name="total">   62.18   62.20</time>
   <energy>
    <i name="e_fr_energy">   -597.46104649 </i>
    <i name="e_wo_entrp">   -597.46104649 </i>
    <i name="e_0_energy">   -597.46104649 </i>
   </energy>
  </scstep>
  <scstep>
   <time name="dav">   59.84   59.84</time>
   <time name="total">   64.25   64.26</time>
   <energy>
    <i name="e_fr_energy">   -597.45684908 </i>
    <i name="e_wo_entrp">   -597.45684908 </i>
    <i name="e_0_energy">   -597.45684908 </i>
   </energy>
  </scstep>
  <scstep>
   <time name="dav">   57.77   57.78</time>
   <time name="total">   62.17   62.19</time>
   <energy>
    <i name="e_fr_energy">   -597.46223894 </i>
    <i name="e_wo_entrp">   -597.46223894 </i>
    <i name="e_0_energy">   -597.46223894 </i>
   </energy>
  </scstep>
  <scstep>
   <time name="dav">   56.34   56.34</time>
   <time name="total">   60.81   60.82</time>
   <energy>
    <i name="e_fr_energy">   -597.46602217 </i>
    <i name="e_wo_entrp">   -597.46602217 </i>
    <i name="e_0_energy">   -597.46602217 </i>
   </energy>
  </scstep>
  <scstep>
   <time name="dav">   60.92   60.93</time>
   <time name="total">   65.36   65.37</time>
   <energy>
    <i name="e_fr_energy">   -597.47077144 </i>
    <i name="e_wo_entrp">   -597.47077144 </i>
    <i name="e_0_energy">   -597.47077144 </i>
   </energy>
  </scstep>
  <scstep>
   <time name="dav">   57.22   57.23</time>
   <time name="total">   61.73   61.75</time>
   <energy>
    <i name="e_fr_energy">   -597.47478953 </i>
    <i name="e_wo_entrp">   -597.47478953 </i>
    <i name="e_0_energy">   -597.47478953 </i>
   </energy>
  </scstep>
  <scstep>
   <time name="dav">   58.67   58.67</time>
   <time name="total">   63.13   63.15</time>
   <energy>
    <i name="e_fr_energy">   -597.47676470 </i>
    <i name="e_wo_entrp">   -597.47676470 </i>
    <i name="e_0_energy">   -597.47676470 </i>
   </energy>
  </scstep>
  <scstep>
   <time name="dav">   59.09   59.10</time>
   <time name="total">   63.50   63.52</time>
   <energy>
    <i name="e_fr_energy">   -597.47970419 </i>
    <i name="e_wo_entrp">   -597.47970419 </i>
    <i name="e_0_energy">   -597.47970419 </i>
   </energy>
  </scstep>
  <scstep>
   <time name="dav">   53.66   53.66</time>
   <time name="total">   58.06   58.08</time>
   <energy>
    <i name="e_fr_energy">   -597.48205348 </i>
    <i name="e_wo_entrp">   -597.48205348 </i>
    <i name="e_0_energy">   -597.48205348 </i>
   </energy>
  </scstep>
  <scstep>
   <time name="dav">   51.30   51.31</time>
   <time name="total">   55.69   55.70</time>
   <energy>
    <i name="e_fr_energy">   -597.48350373 </i>
    <i name="e_wo_entrp">   -597.48350373 </i>
    <i name="e_0_energy">   -597.48350373 </i>
   </energy>
  </scstep>
  <scstep>
   <time name="dav">   53.36   53.36</time>
   <time name="total">   57.76   57.77</time>
   <energy>
    <i name="e_fr_energy">   -597.48401280 </i>
    <i name="e_wo_entrp">   -597.48401280 </i>
    <i name="e_0_energy">   -597.48401280 </i>
   </energy>
  </scstep>
  <scstep>
   <time name="dav">   49.04   49.05</time>
   <time name="total">   53.50   53.51</time>
   <energy>
    <i name="e_fr_energy">   -597.48434070 </i>
    <i name="e_wo_entrp">   -597.48434070 </i>
    <i name="e_0_energy">   -597.48434070 </i>
   </energy>
  </scstep>
  <scstep>
   <time name="dav">   46.21   46.22</time>
   <time name="total">   50.61   50.63</time>
   <energy>
    <i name="e_fr_energy">   -597.48455561 </i>
    <i name="e_wo_entrp">   -597.48455561 </i>
    <i name="e_0_energy">   -597.48455561 </i>
   </energy>
  </scstep>
  <scstep>
   <time name="dav">   39.44   39.44</time>
   <time name="total">   43.83   43.83</time>
   <energy>
    <i name="e_fr_energy">   -597.48465473 </i>
    <i name="e_wo_entrp">   -597.48465473 </i>
    <i name="e_0_energy">   -597.48465473 </i>
   </energy>
  </scstep>
  <scstep>
   <time name="dav">   34.14   34.14</time>
   <time name="total">   38.59   38.61</time>
   <energy>
    <i name="e_fr_energy">   -597.48469167 </i>
    <i name="e_wo_entrp">   -597.48469167 </i>
    <i name="e_0_energy">   -597.48469167 </i>
   </energy>
  </scstep>
  <scstep>
   <time name="dav">   33.98   33.98</time>
   <time name="total">   38.36   38.37</time>
   <energy>
    <i name="e_fr_energy">   -597.48471268 </i>
    <i name="e_wo_entrp">   -597.48471268 </i>
    <i name="e_0_energy">   -597.48471268 </i>
   </energy>
  </scstep>
  <scstep>
   <time name="dav">   33.69   33.70</time>
   <time name="total">   38.12   38.13</time>
   <energy>
    <i name="e_fr_energy">   -597.48472570 </i>
    <i name="e_wo_entrp">   -597.48472570 </i>
    <i name="e_0_energy">   -597.48472570 </i>
   </energy>
  </scstep>
  <scstep>
   <time name="dav">   33.13   33.13</time>
   <time name="total">   37.52   37.53</time>
   <energy>
    <i name="e_fr_energy">   -597.48473327 </i>
    <i name="e_wo_entrp">   -597.48473327 </i>
    <i name="e_0_energy">   -597.48473327 </i>
   </energy>
  </scstep>
  <scstep>
   <time name="dav">   32.36   32.36</time>
   <time name="total">   36.83   36.84</time>
   <energy>
    <i name="e_fr_energy">   -597.48473529 </i>
    <i name="e_wo_entrp">   -597.48473529 </i>
    <i name="e_0_energy">   -597.48473529 </i>
   </energy>
  </scstep>
  <scstep>
   <time name="dav">   32.36   32.37</time>
   <time name="total">   36.76   36.77</time>
   <energy>
    <i name="e_fr_energy">   -597.48473634 </i>
    <i name="e_wo_entrp">   -597.48473634 </i>
    <i name="e_0_energy">   -597.48473634 </i>
   </energy>
  </scstep>
  <scstep>
   <time name="dav">   32.36   32.36</time>
   <time name="total">   33.19   33.21</time>
   <energy>
    <i name="alphaZ">    871.83850952 </i>
    <i name="ewald"> 287327.39310032 </i>
    <i name="hartreedc">-342917.01348566 </i>
    <i name="XCdc">   3054.77208389 </i>
    <i name="pawpsdc">  66250.25332199 </i>
    <i name="pawaedc"> -66243.31284326 </i>
    <i name="eentropy">     -0.00000000 </i>
    <i name="bandstr"> -13148.85134978 </i>
    <i name="atom">  64207.43592568 </i>
    <i name="e_fr_energy">   -597.48473729 </i>
    <i name="e_wo_entrp">   -597.48473729 </i>
    <i name="e_0_energy">   -597.48473729 </i>
   </energy>
  </scstep>
  <structure>
   <crystal>
    <varray name="basis" >
     <v>      13.12862340       0.00000000       0.00000000 </v>
     <v>      -6.56431170      11.36972138       0.00000000 </v>
     <v>       0.00000000       0.00000000      26.82809424 </v>
    </varray>
    <i name="volume">   4004.59716953 </i>
    <varray name="rec_basis" >
     <v>       0.07616945       0.04397645       0.00000000 </v>
     <v>       0.00000000       0.08795290       0.00000000 </v>
     <v>       0.00000000       0.00000000       0.03727436 </v>
    </varray>
   </crystal>
   <varray name="positions" >
    <v>       0.08545004       0.17050916       0.45743374 </v>
    <v>       0.08966818       0.42216500       0.45418864 </v>
    <v>       0.08079494       0.67501736       0.45498891 </v>
    <v>       0.08624058       0.92592734       0.45571193 </v>
    <v>       0.33361234       0.17067444       0.45092919 </v>
    <v>       0.33838820       0.42502029       0.45237594 </v>
    <v>       0.33158112       0.66468398       0.44936538 </v>
    <v>       0.33178440       0.91898875       0.44936932 </v>
    <v>       0.58782317       0.16799890       0.44824667 </v>
    <v>       0.58774641       0.41835275       0.45278700 </v>
    <v>       0.58784156       0.67014967       0.45017558 </v>
    <v>       0.57662348       0.90772894       0.45428453 </v>
    <v>       0.82706361       0.16142907       0.45310767 </v>
    <v>       0.83012860       0.42041234       0.45309906 </v>
    <v>       0.83701399       0.67428859       0.45375442 </v>
    <v>       0.84147691       0.92222101       0.45358753 </v>
    <v>       0.17637047       0.08240877       0.54752992 </v>
    <v>       0.17336632       0.33969178       0.55162837 </v>
    <v>       0.16317666       0.58757956       0.54849888 </v>
    <v>       0.16951478       0.83417403       0.54538458 </v>
    <v>       0.41600429       0.08206780       0.54825242 </v>
    <v>       0.42184617       0.33312548       0.55039890 </v>
    <v>       0.41592591       0.57947999       0.54739158 </v>
    <v>       0.41651023       0.83177785       0.54263801 </v>
    <v>       0.65790591       0.07388621       0.54354355 </v>
    <v>       0.66102779       0.32529831       0.54602793 </v>
    <v>       0.66144800       0.57369566       0.54722361 </v>
    <v>       0.66743072       0.82065621       0.55266851 </v>
    <v>       0.91477035       0.08747215       0.54937771 </v>
    <v>       0.91678915       0.33613263       0.54611912 </v>
    <v>       0.92218226       0.58623779       0.54595183 </v>
    <v>       0.91424566       0.83687819       0.55185278 </v>
    <v>       0.07977761       0.15895052       0.59045034 </v>
    <v>       0.08394519       0.42322284       0.58653271 </v>
    <v>       0.08230444       0.65979465       0.59548599 </v>
    <v>       0.07897560       0.90390839       0.59221928 </v>
    <v>       0.33859400       0.17083066       0.59358473 </v>
    <v>       0.33241848       0.41059676       0.58999836 </v>
    <v>       0.33313582       0.66927812       0.58555225 </v>
    <v>       0.33437473       0.90865639       0.58773572 </v>
    <v>       0.57994166       0.16362946       0.58401559 </v>
    <v>       0.57803150       0.39823693       0.59423102 </v>
    <v>       0.58945807       0.66636555       0.59166768 </v>
    <v>       0.57767172       0.90562897       0.58787607 </v>
    <v>       0.82413936       0.16647819       0.58598925 </v>
    <v>       0.82914229       0.40810819       0.58552942 </v>
    <v>       0.82613473       0.64938160       0.59082559 </v>
    <v>       0.82013618       0.90710490       0.59656628 </v>
    <v>       0.16468840       0.08254077       0.40722630 </v>
    <v>       0.16740086       0.33054727       0.41241442 </v>
    <v>       0.17582299       0.59517922       0.41145634 </v>
    <v>       0.16607032       0.84097071       0.41045419 </v>
    <v>       0.40912070       0.07997235       0.40351785 </v>
    <v>       0.42906527       0.34889094       0.40847522 </v>
    <v>       0.41504459       0.58054134       0.40920153 </v>
    <v>       0.40918284       0.82955387       0.40536682 </v>
    <v>       0.66257778       0.07635405       0.40846256 </v>
    <v>       0.66529267       0.33769287       0.40689878 </v>
    <v>       0.67513822       0.58357412       0.40883131 </v>
    <v>       0.66394048       0.83665067       0.41086289 </v>
    <v>       0.90824003       0.09557105       0.41090796 </v>
    <v>       0.91340114       0.33485071       0.41384643 </v>
    <v>       0.91871491       0.59036562       0.41288214 </v>
    <v>       0.92206931       0.83417639       0.40745399 </v>
    <v>       0.00296818       0.99726482       0.50290955 </v>
    <v>       0.00195370       0.25831691       0.50040408 </v>
    <v>       0.99924308       0.50299307       0.50014352 </v>
    <v>       0.99338865       0.74390398       0.50059999 </v>
    <v>       0.24629326       0.00056371       0.50031347 </v>
    <v>       0.25331969       0.24347239       0.50160486 </v>
    <v>       0.25769979       0.49996672       0.49756874 </v>
    <v>       0.24284426       0.74437920       0.49800249 </v>
    <v>       0.49897384       0.99869296       0.49571800 </v>
    <v>       0.49837874       0.25264785       0.49665440 </v>
    <v>       0.50421834       0.50193279       0.50019372 </v>
    <v>       0.50011553       0.75246899       0.49851330 </v>
    <v>       0.75108169       0.99613853       0.50106127 </v>
    <v>       0.73725270       0.24377755       0.49420608 </v>
    <v>       0.75287182       0.50294593       0.50145539 </v>
    <v>       0.75081656       0.74561011       0.50242932 </v>
   </varray>
  </structure>
  <varray name="forces" >
   <v>       0.13130151       0.34052121      -0.52030092 </v>
   <v>      -0.82225815      -0.49514217      -0.37995169 </v>
   <v>       0.45309467      -0.68870325      -1.11187090 </v>
   <v>      -0.04683914      -0.93930218      -1.14106387 </v>
   <v>       0.36941897       0.24681748      -0.13522343 </v>
   <v>       0.58920419      -1.18609805       0.02052836 </v>
   <v>       0.04078035       0.56899841       0.59997150 </v>
   <v>       0.22973212      -0.02849974      -0.24901668 </v>
   <v>      -0.84419892      -0.33887657      -0.35162243 </v>
   <v>      -0.19257708       0.07807592      -0.29631574 </v>
   <v>       0.17519984      -0.16749403       0.82904318 </v>
   <v>       0.58294132       0.82505692      -1.21285706 </v>
   <v>      -0.30524842       0.75748430      -0.05882008 </v>
   <v>       0.52192870      -0.13640340      -0.40062182 </v>
   <v>       0.05949742      -0.63464523      -0.11836800 </v>
   <v>      -0.80041110      -0.33466051       0.39855744 </v>
   <v>      -1.28823590       0.41397685       0.79199035 </v>
   <v>      -0.47765221      -1.01257931      -1.43276148 </v>
   <v>       0.23283950       0.18892693      -0.66412270 </v>
   <v>      -0.40602268      -0.29539366       0.60291737 </v>
   <v>       0.02144132      -0.09544774      -1.30697800 </v>
   <v>      -0.21861241      -0.41628264      -1.32962937 </v>
   <v>       0.03276778       0.72057480      -0.73748910 </v>
   <v>      -0.21980175      -0.33741287       0.43888309 </v>
   <v>       0.59557690       0.40110785       0.11987648 </v>
   <v>       0.43692817       0.89196079      -0.65075377 </v>
   <v>       1.08204874       0.75053946       0.20956989 </v>
   <v>      -0.85443111       1.23411457      -1.50583988 </v>
   <v>       0.02307105      -0.13033650      -0.33518044 </v>
   <v>      -0.18314552      -0.08721954      -0.46367217 </v>
   <v>      -1.15537272      -0.47372953       1.02146555 </v>
   <v>       0.77697513      -0.86756641      -0.39611787 </v>
   <v>      -0.02339210       0.41998561       0.12799566 </v>
   <v>       0.22703947      -0.33295085       0.73920282 </v>
   <v>       0.04700121       0.20775032      -0.68090724 </v>
   <v>       0.08966875       0.34214998      -0.14837873 </v>
   <v>       0.16675858      -0.36231875      -0.21660189 </v>
   <v>       0.04906874       0.47184013       0.51348911 </v>
   <v>       0.18464100      -0.23218097       0.48523838 </v>
   <v>      -0.22306625       0.43807791       0.09884382 </v>
   <v>       0.14091349      -0.26469272       0.93778240 </v>
   <v>      -0.10935784       0.39117634      -0.29917947 </v>
   <v>      -0.38312463      -0.65869501       0.33959353 </v>
   <v>      -0.19750431       0.34604139       0.17987667 </v>
   <v>       0.15287342       0.05243176       0.41871067 </v>
   <v>      -0.11015279       0.05045411       0.55780921 </v>
   <v>      -0.11582486       0.55983530       0.13087099 </v>
   <v>       0.49230737       0.29374276      -0.30185022 </v>
   <v>      -0.14099264       0.10271612       0.64952711 </v>
   <v>      -0.01066213       0.09879361      -0.05049495 </v>
   <v>      -0.45939411      -0.70292248      -0.45856571 </v>
   <v>      -0.03442109      -0.15650716       0.05164332 </v>
   <v>      -0.03029561      -0.01473397       0.71613477 </v>
   <v>      -0.33131233      -0.43871304       0.16098382 </v>
   <v>       0.21286543       0.27339216      -0.23184336 </v>
   <v>       0.13397786       0.03402653       0.53466376 </v>
   <v>       0.10300292       0.09744774       0.04215324 </v>
   <v>       0.16693757       0.01467618       0.19072768 </v>
   <v>      -0.43168942       0.22820351       0.14710461 </v>
   <v>       0.50415998      -0.24685051      -0.12798098 </v>
   <v>       1.23221634      -0.78126837      -0.25307528 </v>
   <v>       0.27814094       0.09348794      -0.30516171 </v>
   <v>      -0.04170787      -0.29217927      -0.44785909 </v>
   <v>      -0.30988379       0.22700309       0.61279390 </v>
   <v>      -0.97918544       0.38459974      -0.09327885 </v>
   <v>       0.59029119      -0.86027095       0.70336224 </v>
   <v>       0.58328461      -0.25756845       0.02275220 </v>
   <v>       0.42573980       1.57031125       0.55731009 </v>
   <v>       1.21745834      -0.10043711       0.10309573 </v>
   <v>      -0.77939495       0.74769745       0.06336361 </v>
   <v>      -0.63098930       0.05443971       1.13482182 </v>
   <v>       0.49881894       0.92199746       0.48571318 </v>
   <v>      -0.68991470      -0.17699831       0.69951604 </v>
   <v>       0.12225586      -0.63227031       0.86909053 </v>
   <v>      -0.58073072      -0.07803591       0.28662462 </v>
   <v>       0.45679898      -1.17876892       0.20984522 </v>
   <v>       0.07138665       0.19060242       0.07699092 </v>
   <v>       0.82576471       0.44281497       1.25443446 </v>
   <v>      -0.34010171      -0.73359555      -0.43766457 </v>
   <v>      -0.56021418       0.69390101      -0.28344993 </v>
  </varray>
  <varray name="stress" >
   <v>       3.27561707       0.34421538      -1.36144318 </v>
   <v>       0.34421538       2.01326335       4.61189072 </v>
   <v>      -1.36144317       4.61189072      -1.04004379 </v>
  </varray>
  <energy>
   <i name="e_fr_energy">   -597.48473729 </i>
   <i name="e_wo_entrp">   -597.48473729 </i>
   <i name="e_0_energy">     -0.00000000 </i>
  </energy>
  <time name="totalsc"> 1884.77 1885.27</time>
  <eigenvalues>
   <array>
    <dimension dim="1">band</dimension>
    <dimension dim="2">kpoint</dimension>
    <dimension dim="3">spin</dimension>
    <field>eigene</field>
    <field>occ</field>
    <set>
     <set comment="spin 1">
      <set comment="kpoint 1">
       <r>  -51.9613    1.0000 </r>
       <r>  -51.8521    1.0000 </r>
       <r>  -51.7187    1.0000 </r>
       <r>  -51.6840    1.0000 </r>
       <r>  -51.6509    1.0000 </r>
       <r>  -51.6305    1.0000 </r>
       <r>  -51.6242    1.0000 </r>
       <r>  -51.5889    1.0000 </r>
       <r>  -51.5878    1.0000 </r>
       <r>  -51.5755    1.0000 </r>
       <r>  -51.5394    1.0000 </r>
       <r>  -51.5274    1.0000 </r>
       <r>  -51.4416    1.0000 </r>
       <r>  -51.4211    1.0000 </r>
       <r>  -51.4084    1.0000 </r>
       <r>  -51.4001    1.0000 </r>
       <r>  -51.3785    1.0000 </r>
       <r>  -51.3688    1.0000 </r>
       <r>  -51.3296    1.0000 </r>
       <r>  -51.3049    1.0000 </r>
       <r>  -51.2613    1.0000 </r>
       <r>  -51.2348    1.0000 </r>
       <r>  -51.2122    1.0000 </r>
       <r>  -51.2121    1.0000 </r>
       <r>  -51.2071    1.0000 </r>
       <r>  -51.1746    1.0000 </r>
       <r>  -51.1453    1.0000 </r>
       <r>  -51.1229    1.0000 </r>
       <r>  -51.0597    1.0000 </r>
       <r>  -51.0517    1.0000 </r>
       <r>  -50.9436    1.0000 </r>
       <r>  -50.8953    1.0000 </r>
       <r>  -30.9423    1.0000 </r>
       <r>  -30.8378    1.0000 </r>
       <r>  -30.7932    1.0000 </r>
       <r>  -30.7053    1.0000 </r>
       <r>  -30.6813    1.0000 </r>
       <r>  -30.6600    1.0000 </r>
       <r>  -30.6344    1.0000 </r>
       <r>  -30.6158    1.0000 </r>
       <r>  -30.5938    1.0000 </r>
       <r>  -30.5722    1.0000 </r>
       <r>  -30.5438    1.0000 </r>
       <r>  -30.5194    1.0000 </r>
       <r>  -30.4991    1.0000 </r>
       <r>  -30.4876    1.0000 </r>
       <r>  -30.4663    1.0000 </r>
       <r>  -30.4593    1.0000 </r>
       <r>  -30.4483    1.0000 </r>
       <r>  -30.4391    1.0000 </r>
       <r>  -30.4273    1.0000 </r>
       <r>  -30.4146    1.0000 </r>
       <r>  -30.3967    1.0000 </r>
       <r>  -30.3883    1.0000 </r>
       <r>  -30.3845    1.0000 </r>
       <r>  -30.3721    1.0000 </r>
       <r>  -30.3572    1.0000 </r>
       <r>  -30.3511    1.0000 </r>
       <r>  -30.3364    1.0000 </r>
       <r>  -30.3262    1.0000 </r>
       <r>  -30.3194    1.0000 </r>
       <r>  -30.3136    1.0000 </r>
       <r>  -30.3107    1.0000 </r>
       <r>  -30.2926    1.0000 </r>
       <r>  -30.2864    1.0000 </r>
       <r>  -30.2736    1.0000 </r>
       <r>  -30.2641    1.0000 </r>
       <r>  -30.2564    1.0000 </r>
       <r>  -30.2377    1.0000 </r>
       <r>  -30.2358    1.0000 </r>
       <r>  -30.2231    1.0000 </r>
       <r>  -30.2175    1.0000 </r>
       <r>  -30.2111    1.0000 </r>
       <r>  -30.1933    1.0000 </r>
       <r>  -30.1861    1.0000 </r>
       <r>  -30.1771    1.0000 </r>
       <r>  -30.1745    1.0000 </r>
       <r>  -30.1454    1.0000 </r>
       <r>  -30.1388    1.0000 </r>
       <r>  -30.1317    1.0000 </r>
       <r>  -30.1260    1.0000 </r>
       <r>  -30.1093    1.0000 </r>
       <r>  -30.1007    1.0000 </r>
       <r>  -30.0951    1.0000 </r>
       <r>  -30.0856    1.0000 </r>
       <r>  -30.0785    1.0000 </r>
       <r>  -30.0666    1.0000 </r>
       <r>  -30.0587    1.0000 </r>
       <r>  -30.0493    1.0000 </r>
       <r>  -30.0432    1.0000 </r>
       <r>  -30.0286    1.0000 </r>
       <r>  -30.0170    1.0000 </r>
       <r>  -30.0112    1.0000 </r>
       <r>  -30.0073    1.0000 </r>
       <r>  -29.9957    1.0000 </r>
       <r>  -29.9854    1.0000 </r>
       <r>  -29.9789    1.0000 </r>
       <r>  -29.9702    1.0000 </r>
       <r>  -29.9544    1.0000 </r>
       <r>  -29.9386    1.0000 </r>
       <r>  -29.9305    1.0000 </r>
       <r>  -29.9256    1.0000 </r>
       <r>  -29.9137    1.0000 </r>
       <r>  -29.9020    1.0000 </r>
       <r>  -29.8935    1.0000 </r>
       <r>  -29.8872    1.0000 </r>
       <r>  -29.8803    1.0000 </r>
       <r>  -29.8710    1.0000 </r>
       <r>  -29.8592    1.0000 </r>
       <r>  -29.8503    1.0000 </r>
       <r>  -29.8477    1.0000 </r>
       <r>  -29.8407    1.0000 </r>
       <r>  -29.8270    1.0000 </r>
       <r>  -29.8138    1.0000 </r>
       <r>  -29.7915    1.0000 </r>
       <r>  -29.7801    1.0000 </r>
       <r>  -29.7669    1.0000 </r>
       <r>  -29.7622    1.0000 </r>
       <r>  -29.7554    1.0000 </r>
       <r>  -29.7426    1.0000 </r>
       <r>  -29.7220    1.0000 </r>
       <r>  -29.7042    1.0000 </r>
       <r>  -29.6872    1.0000 </r>
       <r>  -29.6419    1.0000 </r>
       <r>  -29.6051    1.0000 </r>
       <r>  -29.6000    1.0000 </r>
       <r>  -29.5870    1.0000 </r>
       <r>  -29.5388    1.0000 </r>
       <r>  -27.2784    1.0000 </r>
       <r>  -27.1445    1.0000 </r>
       <r>  -27.0722    1.0000 </r>
       <r>  -26.9256    1.0000 </r>
       <r>  -26.8803    1.0000 </r>
       <r>  -26.8283    1.0000 </r>
       <r>  -26.7971    1.0000 </r>
       <r>  -26.7850    1.0000 </r>
       <r>  -26.7528    1.0000 </r>
       <r>  -26.7246    1.0000 </r>
       <r>  -26.6255    1.0000 </r>
       <r>  -26.5967    1.0000 </r>
       <r>  -26.5580    1.0000 </r>
       <r>  -26.5570    1.0000 </r>
       <r>  -26.5187    1.0000 </r>
       <r>  -26.5155    1.0000 </r>
       <r>  -26.5076    1.0000 </r>
       <r>  -26.4657    1.0000 </r>
       <r>  -26.4516    1.0000 </r>
       <r>  -26.4382    1.0000 </r>
       <r>  -26.4059    1.0000 </r>
       <r>  -26.3666    1.0000 </r>
       <r>  -26.3568    1.0000 </r>
       <r>  -26.3314    1.0000 </r>
       <r>  -26.3229    1.0000 </r>
       <r>  -26.3103    1.0000 </r>
       <r>  -26.2852    1.0000 </r>
       <r>  -26.2619    1.0000 </r>
       <r>  -26.2459    1.0000 </r>
       <r>  -26.1559    1.0000 </r>
       <r>  -26.1399    1.0000 </r>
       <r>  -26.0722    1.0000 </r>
       <r>  -12.0005    1.0000 </r>
       <r>  -11.6543    1.0000 </r>
       <r>  -11.5775    1.0000 </r>
       <r>  -11.5586    1.0000 </r>
       <r>  -11.5424    1.0000 </r>
       <r>  -11.4936    1.0000 </r>
       <r>  -11.4676    1.0000 </r>
       <r>  -11.0591    1.0000 </r>
       <r>  -11.0196    1.0000 </r>
       <r>  -10.9754    1.0000 </r>
       <r>  -10.9536    1.0000 </r>
       <r>  -10.9275    1.0000 </r>
       <r>  -10.8874    1.0000 </r>
       <r>  -10.8661    1.0000 </r>
       <r>  -10.8445    1.0000 </r>
       <r>  -10.7702    1.0000 </r>
       <r>   -9.5722    1.0000 </r>
       <r>   -9.5282    1.0000 </r>
       <r>   -9.5074    1.0000 </r>
       <r>   -9.4752    1.0000 </r>
       <r>   -9.3225    1.0000 </r>
       <r>   -9.3054    1.0000 </r>
       <r>   -9.1994    1.0000 </r>
       <r>   -9.1773    1.0000 </r>
       <r>   -9.1603    1.0000 </r>
       <r>   -9.1204    1.0000 </r>
       <r>   -9.1060    1.0000 </r>
       <r>   -9.0966    1.0000 </r>
       <r>   -9.0594    1.0000 </r>
       <r>   -9.0355    1.0000 </r>
       <r>   -8.9754    1.0000 </r>
       <r>   -8.9439    1.0000 </r>
       <r>   -8.9176    1.0000 </r>
       <r>   -8.8929    1.0000 </r>
       <r>   -8.8921    1.0000 </r>
       <r>   -8.8611    1.0000 </r>
       <r>   -8.8538    1.0000 </r>
       <r>   -8.8314    1.0000 </r>
       <r>   -8.8168    1.0000 </r>
       <r>   -8.8081    1.0000 </r>
       <r>   -8.7995    1.0000 </r>
       <r>   -8.7862    1.0000 </r>
       <r>   -8.7709    1.0000 </r>
       <r>   -8.7554    1.0000 </r>
       <r>   -8.7406    1.0000 </r>
       <r>   -8.7194    1.0000 </r>
       <r>   -8.7063    1.0000 </r>
       <r>   -8.6997    1.0000 </r>
       <r>   -8.6679    1.0000 </r>
       <r>   -8.6543    1.0000 </r>
       <r>   -8.6341    1.0000 </r>
       <r>   -8.6142    1.0000 </r>
       <r>   -8.6076    1.0000 </r>
       <r>   -8.5927    1.0000 </r>
       <r>   -8.5753    1.0000 </r>
       <r>   -8.5650    1.0000 </r>
       <r>   -8.5594    1.0000 </r>
       <r>   -8.5467    1.0000 </r>
       <r>   -8.5277    1.0000 </r>
       <r>   -8.5189    1.0000 </r>
       <r>   -8.5178    1.0000 </r>
       <r>   -8.4946    1.0000 </r>
       <r>   -8.4895    1.0000 </r>
       <r>   -8.4724    1.0000 </r>
       <r>   -8.4664    1.0000 </r>
       <r>   -8.4545    1.0000 </r>
       <r>   -8.4429    1.0000 </r>
       <r>   -8.4187    1.0000 </r>
       <r>   -8.4109    1.0000 </r>
       <r>   -8.4022    1.0000 </r>
       <r>   -8.3872    1.0000 </r>
       <r>   -8.3767    1.0000 </r>
       <r>   -8.3658    1.0000 </r>
       <r>   -8.3519    1.0000 </r>
       <r>   -8.3426    1.0000 </r>
       <r>   -8.3227    1.0000 </r>
       <r>   -8.3113    1.0000 </r>
       <r>   -8.2916    1.0000 </r>
       <r>   -8.2663    1.0000 </r>
       <r>   -8.2551    1.0000 </r>
       <r>   -8.2402    1.0000 </r>
       <r>   -8.2204    1.0000 </r>
       <r>   -8.2071    1.0000 </r>
       <r>   -8.2011    1.0000 </r>
       <r>   -8.2008    1.0000 </r>
       <r>   -8.1770    1.0000 </r>
       <r>   -8.1646    1.0000 </r>
       <r>   -8.1483    1.0000 </r>
       <r>   -8.1365    1.0000 </r>
       <r>   -8.1285    1.0000 </r>
       <r>   -8.1166    1.0000 </r>
       <r>   -8.1017    1.0000 </r>
       <r>   -8.0950    1.0000 </r>
       <r>   -8.0817    1.0000 </r>
       <r>   -8.0667    1.0000 </r>
       <r>   -8.0544    1.0000 </r>
       <r>   -8.0500    1.0000 </r>
       <r>   -8.0476    1.0000 </r>
       <r>   -8.0441    1.0000 </r>
       <r>   -8.0305    1.0000 </r>
       <r>   -8.0264    1.0000 </r>
       <r>   -8.0089    1.0000 </r>
       <r>   -7.9998    1.0000 </r>
       <r>   -7.9944    1.0000 </r>
       <r>   -7.9806    1.0000 </r>
       <r>   -7.9644    1.0000 </r>
       <r>   -7.9586    1.0000 </r>
       <r>   -7.9214    1.0000 </r>
       <r>   -7.8806    1.0000 </r>
       <r>   -7.8400    1.0000 </r>
       <r>   -7.8146    1.0000 </r>
       <r>   -7.7525    1.0000 </r>
       <r>   -5.1141    1.0000 </r>
       <r>   -5.0504    1.0000 </r>
       <r>   -5.0392    1.0000 </r>
       <r>   -4.8172    1.0000 </r>
       <r>   -4.7799    1.0000 </r>
       <r>   -4.7663    1.0000 </r>
       <r>   -4.7248    1.0000 </r>
       <r>   -4.7226    1.0000 </r>
       <r>   -4.6502    1.0000 </r>
       <r>   -4.4234    1.0000 </r>
       <r>   -4.3165    1.0000 </r>
       <r>   -4.2798    1.0000 </r>
       <r>   -4.2679    1.0000 </r>
       <r>   -4.2181    1.0000 </r>
       <r>   -4.1922    1.0000 </r>
       <r>   -4.1791    1.0000 </r>
       <r>   -4.1491    1.0000 </r>
       <r>   -4.1441    1.0000 </r>
       <r>   -4.1204    1.0000 </r>
       <r>   -4.0956    1.0000 </r>
       <r>   -4.0721    1.0000 </r>
       <r>   -4.0409    1.0000 </r>
       <r>   -4.0388    1.0000 </r>
       <r>   -4.0011    1.0000 </r>
       <r>   -3.9981    1.0000 </r>
       <r>   -3.9871    1.0000 </r>
       <r>   -3.9391    1.0000 </r>
       <r>   -3.9013    1.0000 </r>
       <r>   -3.8984    1.0000 </r>
       <r>   -3.8653    1.0000 </r>
       <r>   -3.8441    1.0000 </r>
       <r>   -3.8155    1.0000 </r>
       <r>   -3.7736    1.0000 </r>
       <r>   -3.7005    1.0000 </r>
       <r>   -3.6844    1.0000 </r>
       <r>   -3.6643    1.0000 </r>
       <r>   -3.5709    1.0000 </r>
       <r>   -3.2476    1.0000 </r>
       <r>   -3.2314    1.0000 </r>
       <r>   -3.1981    1.0000 </r>
       <r>   -3.1634    1.0000 </r>
       <r>   -3.1182    1.0000 </r>
       <r>   -3.0773    1.0000 </r>
       <r>   -3.0234    1.0000 </r>
       <r>   -3.0166    1.0000 </r>
       <r>   -2.9594    1.0000 </r>
       <r>   -2.7851    1.0000 </r>
       <r>   -2.7552    1.0000 </r>
       <r>   -1.8039    0.0000 </r>
       <r>   -1.7894    0.0000 </r>
       <r>   -1.7281    0.0000 </r>
       <r>   -1.2068    0.0000 </r>
       <r>   -1.1666    0.0000 </r>
       <r>   -1.1499    0.0000 </r>
       <r>   -1.1096    0.0000 </r>
       <r>   -1.0876    0.0000 </r>
       <r>   -1.0376    0.0000 </r>
       <r>   -0.4804    0.0000 </r>
       <r>   -0.4495    0.0000 </r>
       <r>   -0.3818    0.0000 </r>
       <r>   -0.3278    0.0000 </r>
       <r>   -0.2981    0.0000 </r>
       <r>   -0.2723    0.0000 </r>
       <r>   -0.2188    0.0000 </r>
       <r>   -0.2089    0.0000 </r>
       <r>   -0.1395    0.0000 </r>
       <r>   -0.0729    0.0000 </r>
       <r>   -0.0477    0.0000 </r>
       <r>   -0.0271    0.0000 </r>
       <r>    0.0204    0.0000 </r>
       <r>    0.0433    0.0000 </r>
       <r>    0.0840    0.0000 </r>
       <r>    0.3601    0.0000 </r>
       <r>    0.3937    0.0000 </r>
       <r>    0.4209    0.0000 </r>
       <r>    0.4609    0.0000 </r>
       <r>    0.4811    0.0000 </r>
       <r>    0.4993    0.0000 </r>
       <r>    0.5253    0.0000 </r>
       <r>    0.5438    0.0000 </r>
       <r>    0.5620    0.0000 </r>
       <r>    0.5817    0.0000 </r>
       <r>    0.6097    0.0000 </r>
       <r>    0.6199    0.0000 </r>
       <r>    0.6360    0.0000 </r>
       <r>    0.6575    0.0000 </r>
       <r>    0.6711    0.0000 </r>
       <r>    0.7135    0.0000 </r>
       <r>    0.7383    0.0000 </r>
       <r>    0.7556    0.0000 </r>
       <r>    0.7804    0.0000 </r>
       <r>    0.8261    0.0000 </r>
       <r>    0.8596    0.0000 </r>
       <r>    0.8621    0.0000 </r>
       <r>    0.8950    0.0000 </r>
       <r>    0.9411    0.0000 </r>
       <r>    0.9617    0.0000 </r>
       <r>    0.9845    0.0000 </r>
       <r>    1.0067    0.0000 </r>
       <r>    1.0284    0.0000 </r>
       <r>    1.0573    0.0000 </r>
       <r>    1.0680    0.0000 </r>
       <r>    1.0842    0.0000 </r>
       <r>    1.1068    0.0000 </r>
       <r>    1.1388    0.0000 </r>
       <r>    1.1571    0.0000 </r>
       <r>    1.1664    0.0000 </r>
       <r>    1.2009    0.0000 </r>
       <r>    1.2166    0.0000 </r>
       <r>    1.2282    0.0000 </r>
       <r>    1.2568    0.0000 </r>
       <r>    1.2721    0.0000 </r>
      </set>
      <set comment="kpoint 2">
       <r>  -51.9613    1.0000 </r>
       <r>  -51.8521    1.0000 </r>
       <r>  -51.7187    1.0000 </r>
       <r>  -51.6840    1.0000 </r>
       <r>  -51.6509    1.0000 </r>
       <r>  -51.6305    1.0000 </r>
       <r>  -51.6242    1.0000 </r>
       <r>  -51.5889    1.0000 </r>
       <r>  -51.5878    1.0000 </r>
       <r>  -51.5755    1.0000 </r>
       <r>  -51.5394    1.0000 </r>
       <r>  -51.5274    1.0000 </r>
       <r>  -51.4416    1.0000 </r>
       <r>  -51.4211    1.0000 </r>
       <r>  -51.4084    1.0000 </r>
       <r>  -51.4001    1.0000 </r>
       <r>  -51.3785    1.0000 </r>
       <r>  -51.3688    1.0000 </r>
       <r>  -51.3296    1.0000 </r>
       <r>  -51.3049    1.0000 </r>
       <r>  -51.2613    1.0000 </r>
       <r>  -51.2348    1.0000 </r>
       <r>  -51.2122    1.0000 </r>
       <r>  -51.2121    1.0000 </r>
       <r>  -51.2071    1.0000 </r>
       <r>  -51.1746    1.0000 </r>
       <r>  -51.1453    1.0000 </r>
       <r>  -51.1229    1.0000 </r>
       <r>  -51.0597    1.0000 </r>
       <r>  -51.0517    1.0000 </r>
       <r>  -50.9436    1.0000 </r>
       <r>  -50.8953    1.0000 </r>
       <r>  -30.9406    1.0000 </r>
       <r>  -30.8368    1.0000 </r>
       <r>  -30.7919    1.0000 </r>
       <r>  -30.7040    1.0000 </r>
       <r>  -30.6791    1.0000 </r>
       <r>  -30.6658    1.0000 </r>
       <r>  -30.6314    1.0000 </r>
       <r>  -30.6145    1.0000 </r>
       <r>  -30.5949    1.0000 </r>
       <r>  -30.5742    1.0000 </r>
       <r>  -30.5458    1.0000 </r>
       <r>  -30.5191    1.0000 </r>
       <r>  -30.4971    1.0000 </r>
       <r>  -30.4878    1.0000 </r>
       <r>  -30.4766    1.0000 </r>
       <r>  -30.4595    1.0000 </r>
       <r>  -30.4491    1.0000 </r>
       <r>  -30.4398    1.0000 </r>
       <r>  -30.4269    1.0000 </r>
       <r>  -30.4131    1.0000 </r>
       <r>  -30.4003    1.0000 </r>
       <r>  -30.3892    1.0000 </r>
       <r>  -30.3857    1.0000 </r>
       <r>  -30.3674    1.0000 </r>
       <r>  -30.3545    1.0000 </r>
       <r>  -30.3493    1.0000 </r>
       <r>  -30.3386    1.0000 </r>
       <r>  -30.3249    1.0000 </r>
       <r>  -30.3205    1.0000 </r>
       <r>  -30.3151    1.0000 </r>
       <r>  -30.3092    1.0000 </r>
       <r>  -30.2988    1.0000 </r>
       <r>  -30.2833    1.0000 </r>
       <r>  -30.2751    1.0000 </r>
       <r>  -30.2589    1.0000 </r>
       <r>  -30.2544    1.0000 </r>
       <r>  -30.2438    1.0000 </r>
       <r>  -30.2335    1.0000 </r>
       <r>  -30.2215    1.0000 </r>
       <r>  -30.2147    1.0000 </r>
       <r>  -30.2100    1.0000 </r>
       <r>  -30.2006    1.0000 </r>
       <r>  -30.1935    1.0000 </r>
       <r>  -30.1821    1.0000 </r>
       <r>  -30.1639    1.0000 </r>
       <r>  -30.1500    1.0000 </r>
       <r>  -30.1461    1.0000 </r>
       <r>  -30.1371    1.0000 </r>
       <r>  -30.1156    1.0000 </r>
       <r>  -30.1068    1.0000 </r>
       <r>  -30.1003    1.0000 </r>
       <r>  -30.0970    1.0000 </r>
       <r>  -30.0893    1.0000 </r>
       <r>  -30.0774    1.0000 </r>
       <r>  -30.0666    1.0000 </r>
       <r>  -30.0567    1.0000 </r>
       <r>  -30.0466    1.0000 </r>
       <r>  -30.0399    1.0000 </r>
       <r>  -30.0327    1.0000 </r>
       <r>  -30.0132    1.0000 </r>
       <r>  -30.0071    1.0000 </r>
       <r>  -30.0041    1.0000 </r>
       <r>  -29.9918    1.0000 </r>
       <r>  -29.9831    1.0000 </r>
       <r>  -29.9760    1.0000 </r>
       <r>  -29.9711    1.0000 </r>
       <r>  -29.9598    1.0000 </r>
       <r>  -29.9364    1.0000 </r>
       <r>  -29.9299    1.0000 </r>
       <r>  -29.9156    1.0000 </r>
       <r>  -29.9095    1.0000 </r>
       <r>  -29.8997    1.0000 </r>
       <r>  -29.8920    1.0000 </r>
       <r>  -29.8838    1.0000 </r>
       <r>  -29.8774    1.0000 </r>
       <r>  -29.8710    1.0000 </r>
       <r>  -29.8622    1.0000 </r>
       <r>  -29.8506    1.0000 </r>
       <r>  -29.8464    1.0000 </r>
       <r>  -29.8392    1.0000 </r>
       <r>  -29.8277    1.0000 </r>
       <r>  -29.8176    1.0000 </r>
       <r>  -29.7920    1.0000 </r>
       <r>  -29.7812    1.0000 </r>
       <r>  -29.7731    1.0000 </r>
       <r>  -29.7645    1.0000 </r>
       <r>  -29.7529    1.0000 </r>
       <r>  -29.7440    1.0000 </r>
       <r>  -29.7255    1.0000 </r>
       <r>  -29.7084    1.0000 </r>
       <r>  -29.6877    1.0000 </r>
       <r>  -29.6433    1.0000 </r>
       <r>  -29.6057    1.0000 </r>
       <r>  -29.6007    1.0000 </r>
       <r>  -29.5876    1.0000 </r>
       <r>  -29.5395    1.0000 </r>
       <r>  -27.2781    1.0000 </r>
       <r>  -27.1444    1.0000 </r>
       <r>  -27.0722    1.0000 </r>
       <r>  -26.9254    1.0000 </r>
       <r>  -26.8801    1.0000 </r>
       <r>  -26.8281    1.0000 </r>
       <r>  -26.7979    1.0000 </r>
       <r>  -26.7846    1.0000 </r>
       <r>  -26.7521    1.0000 </r>
       <r>  -26.7253    1.0000 </r>
       <r>  -26.6255    1.0000 </r>
       <r>  -26.5964    1.0000 </r>
       <r>  -26.5580    1.0000 </r>
       <r>  -26.5570    1.0000 </r>
       <r>  -26.5188    1.0000 </r>
       <r>  -26.5154    1.0000 </r>
       <r>  -26.5077    1.0000 </r>
       <r>  -26.4656    1.0000 </r>
       <r>  -26.4516    1.0000 </r>
       <r>  -26.4374    1.0000 </r>
       <r>  -26.4080    1.0000 </r>
       <r>  -26.3652    1.0000 </r>
       <r>  -26.3566    1.0000 </r>
       <r>  -26.3315    1.0000 </r>
       <r>  -26.3232    1.0000 </r>
       <r>  -26.3110    1.0000 </r>
       <r>  -26.2850    1.0000 </r>
       <r>  -26.2618    1.0000 </r>
       <r>  -26.2459    1.0000 </r>
[...]
       <r>   -32.3642     0.0000    64.0000 </r>
       <r>   -32.1690     0.0000    64.0000 </r>
       <r>   -31.9737     0.0000    64.0000 </r>
       <r>   -31.7785     0.0000    64.0000 </r>
       <r>   -31.5832     0.0000    64.0000 </r>
       <r>   -31.3879     0.0000    64.0000 </r>
       <r>   -31.1927     0.0000    64.0000 </r>
       <r>   -30.9974     0.5656    64.1104 </r>
       <r>   -30.8022    22.2518    68.4553 </r>
       <r>   -30.6069    57.6674    79.7155 </r>
       <r>   -30.4116   122.1429   103.5652 </r>
       <r>   -30.2164   200.9007   142.7932 </r>
       <r>   -30.0211   204.9620   182.8143 </r>
       <r>   -29.8259   211.0517   224.0244 </r>
       <r>   -29.6306   124.0877   248.2538 </r>
       <r>   -29.4353    39.6539   255.9967 </r>
       <r>   -29.2401     0.0170   256.0000 </r>
       <r>   -29.0448     0.0000   256.0000 </r>
       <r>   -28.8495     0.0000   256.0000 </r>
       <r>   -28.6543     0.0000   256.0000 </r>
       <r>   -28.4590     0.0000   256.0000 </r>
       <r>   -28.2638     0.0000   256.0000 </r>
       <r>   -28.0685     0.0000   256.0000 </r>
       <r>   -27.8732     0.0000   256.0000 </r>
       <r>   -27.6780     0.0000   256.0000 </r>
       <r>   -27.4827     0.0000   256.0000 </r>
       <r>   -27.2875     4.0535   256.7915 </r>
       <r>   -27.0922    18.6423   260.4316 </r>
       <r>   -26.8969    19.6756   264.2735 </r>
       <r>   -26.7017    56.7159   275.3479 </r>
       <r>   -26.5064    62.8715   287.6242 </r>
       <r>   -26.3112    94.3740   306.0517 </r>
       <r>   -26.1159    58.4247   317.4598 </r>
       <r>   -25.9206    13.0093   320.0000 </r>
       <r>   -25.7254     0.0001   320.0000 </r>
       <r>   -25.5301     0.0000   320.0000 </r>
       <r>   -25.3349     0.0000   320.0000 </r>
       <r>   -25.1396     0.0000   320.0000 </r>
       <r>   -24.9443     0.0000   320.0000 </r>
       <r>   -24.7491     0.0000   320.0000 </r>
       <r>   -24.5538     0.0000   320.0000 </r>
       <r>   -24.3586     0.0000   320.0000 </r>
       <r>   -24.1633     0.0000   320.0000 </r>
       <r>   -23.9680     0.0000   320.0000 </r>
       <r>   -23.7728     0.0000   320.0000 </r>
       <r>   -23.5775     0.0000   320.0000 </r>
       <r>   -23.3822     0.0000   320.0000 </r>
       <r>   -23.1870     0.0000   320.0000 </r>
       <r>   -22.9917     0.0000   320.0000 </r>
       <r>   -22.7965     0.0000   320.0000 </r>
       <r>   -22.6012     0.0000   320.0000 </r>
       <r>   -22.4059     0.0000   320.0000 </r>
       <r>   -22.2107     0.0000   320.0000 </r>
       <r>   -22.0154     0.0000   320.0000 </r>
       <r>   -21.8202     0.0000   320.0000 </r>
       <r>   -21.6249     0.0000   320.0000 </r>
       <r>   -21.4296     0.0000   320.0000 </r>
       <r>   -21.2344     0.0000   320.0000 </r>
       <r>   -21.0391     0.0000   320.0000 </r>
       <r>   -20.8439     0.0000   320.0000 </r>
       <r>   -20.6486     0.0000   320.0000 </r>
       <r>   -20.4533     0.0000   320.0000 </r>
       <r>   -20.2581     0.0000   320.0000 </r>
       <r>   -20.0628     0.0000   320.0000 </r>
       <r>   -19.8676     0.0000   320.0000 </r>
       <r>   -19.6723     0.0000   320.0000 </r>
       <r>   -19.4770     0.0000   320.0000 </r>
       <r>   -19.2818     0.0000   320.0000 </r>
       <r>   -19.0865     0.0000   320.0000 </r>
       <r>   -18.8913     0.0000   320.0000 </r>
       <r>   -18.6960     0.0000   320.0000 </r>
       <r>   -18.5007     0.0000   320.0000 </r>
       <r>   -18.3055     0.0000   320.0000 </r>
       <r>   -18.1102     0.0000   320.0000 </r>
       <r>   -17.9149     0.0000   320.0000 </r>
       <r>   -17.7197     0.0000   320.0000 </r>
       <r>   -17.5244     0.0000   320.0000 </r>
       <r>   -17.3292     0.0000   320.0000 </r>
       <r>   -17.1339     0.0000   320.0000 </r>
       <r>   -16.9386     0.0000   320.0000 </r>
       <r>   -16.7434     0.0000   320.0000 </r>
       <r>   -16.5481     0.0000   320.0000 </r>
       <r>   -16.3529     0.0000   320.0000 </r>
       <r>   -16.1576     0.0000   320.0000 </r>
       <r>   -15.9623     0.0000   320.0000 </r>
       <r>   -15.7671     0.0000   320.0000 </r>
       <r>   -15.5718     0.0000   320.0000 </r>
       <r>   -15.3766     0.0000   320.0000 </r>
       <r>   -15.1813     0.0000   320.0000 </r>
       <r>   -14.9860     0.0000   320.0000 </r>
       <r>   -14.7908     0.0000   320.0000 </r>
       <r>   -14.5955     0.0000   320.0000 </r>
       <r>   -14.4003     0.0000   320.0000 </r>
       <r>   -14.2050     0.0000   320.0000 </r>
       <r>   -14.0097     0.0000   320.0000 </r>
       <r>   -13.8145     0.0000   320.0000 </r>
       <r>   -13.6192     0.0000   320.0000 </r>
       <r>   -13.4239     0.0000   320.0000 </r>
       <r>   -13.2287     0.0000   320.0000 </r>
       <r>   -13.0334     0.0000   320.0000 </r>
       <r>   -12.8382     0.0000   320.0000 </r>
       <r>   -12.6429     0.0000   320.0000 </r>
       <r>   -12.4476     0.0000   320.0000 </r>
       <r>   -12.2524     0.0000   320.0000 </r>
       <r>   -12.0571     0.0720   320.0141 </r>
       <r>   -11.8619    10.7345   322.1101 </r>
       <r>   -11.6666    14.2856   324.8995 </r>
       <r>   -11.4713    17.4604   328.3088 </r>
       <r>   -11.2761    23.1744   332.8339 </r>
       <r>   -11.0808    26.6944   338.0463 </r>
       <r>   -10.8856    38.2035   345.5059 </r>
       <r>   -10.6903    31.4108   351.6392 </r>
       <r>   -10.4950     1.8478   352.0000 </r>
       <r>   -10.2998     0.0000   352.0000 </r>
       <r>   -10.1045     0.0000   352.0000 </r>
       <r>    -9.9093     0.0000   352.0000 </r>
       <r>    -9.7140     0.0001   352.0000 </r>
       <r>    -9.5187    17.3741   355.3925 </r>
       <r>    -9.3235    31.2643   361.4972 </r>
       <r>    -9.1282    49.0118   371.0673 </r>
       <r>    -8.9330    66.2986   384.0128 </r>
       <r>    -8.7377   126.7846   408.7688 </r>
       <r>    -8.5424   137.8887   435.6931 </r>
       <r>    -8.3472   162.3030   467.3845 </r>
       <r>    -8.1519   143.9413   495.4905 </r>
       <r>    -7.9566   179.5574   530.5511 </r>
       <r>    -7.7614    60.3829   542.3415 </r>
       <r>    -7.5661     8.4940   544.0000 </r>
       <r>    -7.3709     0.0000   544.0000 </r>
       <r>    -7.1756     0.0000   544.0000 </r>
       <r>    -6.9803     0.0000   544.0000 </r>
       <r>    -6.7851     0.0000   544.0000 </r>
       <r>    -6.5898     0.0000   544.0000 </r>
       <r>    -6.3946     0.0000   544.0000 </r>
       <r>    -6.1993     0.0000   544.0000 </r>
       <r>    -6.0040     0.0000   544.0000 </r>
       <r>    -5.8088     0.0000   544.0000 </r>
       <r>    -5.6135     0.0000   544.0000 </r>
       <r>    -5.4183     0.0000   544.0000 </r>
       <r>    -5.2230     0.0012   544.0002 </r>
       <r>    -5.0277    12.0776   546.3585 </r>
       <r>    -4.8325    35.9657   553.3812 </r>
       <r>    -4.6372    38.2913   560.8580 </r>
       <r>    -4.4420    24.2377   565.5907 </r>
       <r>    -4.2467    39.2539   573.2554 </r>
       <r>    -4.0514    43.7746   581.8029 </r>
       <r>    -3.8562    76.3960   596.7200 </r>
       <r>    -3.6609    72.4370   610.8641 </r>
       <r>    -3.4657    38.6908   618.4189 </r>
       <r>    -3.2704    38.0182   625.8424 </r>
       <r>    -3.0751    36.2695   632.9244 </r>
       <r>    -2.8799    26.1506   638.0306 </r>
       <r>    -2.6846    10.0530   639.9935 </r>
       <r>    -2.4893     0.0331   640.0000 </r>
       <r>    -2.2941     0.0000   640.0000 </r>
       <r>    -2.0988     0.0000   640.0000 </r>
       <r>    -1.9036     0.0035   640.0007 </r>
       <r>    -1.7083     6.4186   641.2540 </r>
       <r>    -1.5130    10.6031   643.3243 </r>
       <r>    -1.3178    22.6769   647.7523 </r>
       <r>    -1.1225    13.5097   650.3902 </r>
       <r>    -0.9273    20.6527   654.4228 </r>
       <r>    -0.7320    24.6356   659.2332 </r>
       <r>    -0.5367    24.2080   663.9601 </r>
       <r>    -0.3415    30.1193   669.8412 </r>
       <r>    -0.1462    31.2859   675.9501 </r>
       <r>     0.0490    36.3133   683.0407 </r>
       <r>     0.2443    25.9299   688.1038 </r>
       <r>     0.4396    31.2919   694.2138 </r>
       <r>     0.6348    58.5061   705.6378 </r>
       <r>     0.8301    92.2550   723.6516 </r>
       <r>     1.0253    96.2021   742.4360 </r>
       <r>     1.2206   100.0107   761.9642 </r>
       <r>     1.4159    30.9101   767.9997 </r>
       <r>     1.6111     0.0014   768.0000 </r>
       <r>     1.8064     0.0000   768.0000 </r>
       <r>     2.0016     0.0000   768.0000 </r>
       <r>     2.1969     0.0000   768.0000 </r>
       <r>     2.3922     0.0000   768.0000 </r>
       <r>     2.5874     0.0000   768.0000 </r>
       <r>     2.7827     0.0000   768.0000 </r>
       <r>     2.9780     0.0000   768.0000 </r>
       <r>     3.1732     0.0000   768.0000 </r>
       <r>     3.3685     0.0000   768.0000 </r>
       <r>     3.5637     0.0000   768.0000 </r>
       <r>     3.7590     0.0000   768.0000 </r>
       <r>     3.9543     0.0000   768.0000 </r>
      </set>
     </set>
    </array>
   </total>
  </dos>
 </calculation>
 <structure name="finalpos" >
  <crystal>
   <varray name="basis" >
    <v>      13.12862340       0.00000000       0.00000000 </v>
    <v>      -6.56431170      11.36972138       0.00000000 </v>
    <v>       0.00000000       0.00000000      26.82809424 </v>
   </varray>
   <i name="volume">   4004.59716953 </i>
   <varray name="rec_basis" >
    <v>       0.07616945       0.04397645       0.00000000 </v>
    <v>       0.00000000       0.08795290       0.00000000 </v>
    <v>       0.00000000       0.00000000       0.03727436 </v>
   </varray>
  </crystal>
  <varray name="positions" >
   <v>       0.08545004       0.17050916       0.45743374 </v>
   <v>       0.08966818       0.42216500       0.45418864 </v>
   <v>       0.08079494       0.67501736       0.45498891 </v>
   <v>       0.08624058       0.92592734       0.45571193 </v>
   <v>       0.33361234       0.17067444       0.45092919 </v>
   <v>       0.33838820       0.42502029       0.45237594 </v>
   <v>       0.33158112       0.66468398       0.44936538 </v>
   <v>       0.33178440       0.91898875       0.44936932 </v>
   <v>       0.58782317       0.16799890       0.44824667 </v>
   <v>       0.58774641       0.41835275       0.45278700 </v>
   <v>       0.58784156       0.67014967       0.45017558 </v>
   <v>       0.57662348       0.90772894       0.45428453 </v>
   <v>       0.82706361       0.16142907       0.45310767 </v>
   <v>       0.83012860       0.42041234       0.45309906 </v>
   <v>       0.83701399       0.67428859       0.45375442 </v>
   <v>       0.84147691       0.92222101       0.45358753 </v>
   <v>       0.17637047       0.08240877       0.54752992 </v>
   <v>       0.17336632       0.33969178       0.55162837 </v>
   <v>       0.16317666       0.58757956       0.54849888 </v>
   <v>       0.16951478       0.83417403       0.54538458 </v>
   <v>       0.41600429       0.08206780       0.54825242 </v>
   <v>       0.42184617       0.33312548       0.55039890 </v>
   <v>       0.41592591       0.57947999       0.54739158 </v>
   <v>       0.41651023       0.83177785       0.54263801 </v>
   <v>       0.65790591       0.07388621       0.54354355 </v>
   <v>       0.66102779       0.32529831       0.54602793 </v>
   <v>       0.66144800       0.57369566       0.54722361 </v>
   <v>       0.66743072       0.82065621       0.55266851 </v>
   <v>       0.91477035       0.08747215       0.54937771 </v>
   <v>       0.91678915       0.33613263       0.54611912 </v>
   <v>       0.92218226       0.58623779       0.54595183 </v>
   <v>       0.91424566       0.83687819       0.55185278 </v>
   <v>       0.07977761       0.15895052       0.59045034 </v>
   <v>       0.08394519       0.42322284       0.58653271 </v>
   <v>       0.08230444       0.65979465       0.59548599 </v>
   <v>       0.07897560       0.90390839       0.59221928 </v>
   <v>       0.33859400       0.17083066       0.59358473 </v>
   <v>       0.33241848       0.41059676       0.58999836 </v>
   <v>       0.33313582       0.66927812       0.58555225 </v>
   <v>       0.33437473       0.90865639       0.58773572 </v>
   <v>       0.57994166       0.16362946       0.58401559 </v>
   <v>       0.57803150       0.39823693       0.59423102 </v>
   <v>       0.58945807       0.66636555       0.59166768 </v>
   <v>       0.57767172       0.90562897       0.58787607 </v>
   <v>       0.82413936       0.16647819       0.58598925 </v>
   <v>       0.82914229       0.40810819       0.58552942 </v>
   <v>       0.82613473       0.64938160       0.59082559 </v>
   <v>       0.82013618       0.90710490       0.59656628 </v>
   <v>       0.16468840       0.08254077       0.40722630 </v>
   <v>       0.16740086       0.33054727       0.41241442 </v>
   <v>       0.17582299       0.59517922       0.41145634 </v>
   <v>       0.16607032       0.84097071       0.41045419 </v>
   <v>       0.40912070       0.07997235       0.40351785 </v>
   <v>       0.42906527       0.34889094       0.40847522 </v>
   <v>       0.41504459       0.58054134       0.40920153 </v>
   <v>       0.40918284       0.82955387       0.40536682 </v>
   <v>       0.66257778       0.07635405       0.40846256 </v>
   <v>       0.66529267       0.33769287       0.40689878 </v>
   <v>       0.67513822       0.58357412       0.40883131 </v>
   <v>       0.66394048       0.83665067       0.41086289 </v>
   <v>       0.90824003       0.09557105       0.41090796 </v>
   <v>       0.91340114       0.33485071       0.41384643 </v>
   <v>       0.91871491       0.59036562       0.41288214 </v>
   <v>       0.92206931       0.83417639       0.40745399 </v>
   <v>       0.00296818       0.99726482       0.50290955 </v>
   <v>       0.00195370       0.25831691       0.50040408 </v>
   <v>       0.99924308       0.50299307       0.50014352 </v>
   <v>       0.99338865       0.74390398       0.50059999 </v>
   <v>       0.24629326       0.00056371       0.50031347 </v>
   <v>       0.25331969       0.24347239       0.50160486 </v>
   <v>       0.25769979       0.49996672       0.49756874 </v>
   <v>       0.24284426       0.74437920       0.49800249 </v>
   <v>       0.49897384       0.99869296       0.49571800 </v>
   <v>       0.49837874       0.25264785       0.49665440 </v>
   <v>       0.50421834       0.50193279       0.50019372 </v>
   <v>       0.50011553       0.75246899       0.49851330 </v>
   <v>       0.75108169       0.99613853       0.50106127 </v>
   <v>       0.73725270       0.24377755       0.49420608 </v>
   <v>       0.75287182       0.50294593       0.50145539 </v>
   <v>       0.75081656       0.74561011       0.50242932 </v>
  </varray>
  <varray name="velocities" >
   <v>       0.00000000       0.00000000       0.00000000 </v>
   <v>       0.00000000       0.00000000       0.00000000 </v>
   <v>       0.00000000       0.00000000       0.00000000 </v>
   <v>       0.00000000       0.00000000       0.00000000 </v>
   <v>       0.00000000       0.00000000       0.00000000 </v>
   <v>       0.00000000       0.00000000       0.00000000 </v>
   <v>       0.00000000       0.00000000       0.00000000 </v>
   <v>       0.00000000       0.00000000       0.00000000 </v>
   <v>       0.00000000       0.00000000       0.00000000 </v>
   <v>       0.00000000       0.00000000       0.00000000 </v>
   <v>       0.00000000       0.00000000       0.00000000 </v>
   <v>       0.00000000       0.00000000       0.00000000 </v>
   <v>       0.00000000       0.00000000       0.00000000 </v>
   <v>       0.00000000       0.00000000       0.00000000 </v>
   <v>       0.00000000       0.00000000       0.00000000 </v>
   <v>       0.00000000       0.00000000       0.00000000 </v>
   <v>       0.00000000       0.00000000       0.00000000 </v>
   <v>       0.00000000       0.00000000       0.00000000 </v>
   <v>       0.00000000       0.00000000       0.00000000 </v>
   <v>       0.00000000       0.00000000       0.00000000 </v>
   <v>       0.00000000       0.00000000       0.00000000 </v>
   <v>       0.00000000       0.00000000       0.00000000 </v>
   <v>       0.00000000       0.00000000       0.00000000 </v>
   <v>       0.00000000       0.00000000       0.00000000 </v>
   <v>       0.00000000       0.00000000       0.00000000 </v>
   <v>       0.00000000       0.00000000       0.00000000 </v>
   <v>       0.00000000       0.00000000       0.00000000 </v>
   <v>       0.00000000       0.00000000       0.00000000 </v>
   <v>       0.00000000       0.00000000       0.00000000 </v>
   <v>       0.00000000       0.00000000       0.00000000 </v>
   <v>       0.00000000       0.00000000       0.00000000 </v>
   <v>       0.00000000       0.00000000       0.00000000 </v>
   <v>       0.00000000       0.00000000       0.00000000 </v>
   <v>       0.00000000       0.00000000       0.00000000 </v>
   <v>       0.00000000       0.00000000       0.00000000 </v>
   <v>       0.00000000       0.00000000       0.00000000 </v>
   <v>       0.00000000       0.00000000       0.00000000 </v>
   <v>       0.00000000       0.00000000       0.00000000 </v>
   <v>       0.00000000       0.00000000       0.00000000 </v>
   <v>       0.00000000       0.00000000       0.00000000 </v>
   <v>       0.00000000       0.00000000       0.00000000 </v>
   <v>       0.00000000       0.00000000       0.00000000 </v>
   <v>       0.00000000       0.00000000       0.00000000 </v>
   <v>       0.00000000       0.00000000       0.00000000 </v>
   <v>       0.00000000       0.00000000       0.00000000 </v>
   <v>       0.00000000       0.00000000       0.00000000 </v>
   <v>       0.00000000       0.00000000       0.00000000 </v>
   <v>       0.00000000       0.00000000       0.00000000 </v>
   <v>       0.00000000       0.00000000       0.00000000 </v>
   <v>       0.00000000       0.00000000       0.00000000 </v>
   <v>       0.00000000       0.00000000       0.00000000 </v>
   <v>       0.00000000       0.00000000       0.00000000 </v>
   <v>       0.00000000       0.00000000       0.00000000 </v>
   <v>       0.00000000       0.00000000       0.00000000 </v>
   <v>       0.00000000       0.00000000       0.00000000 </v>
   <v>       0.00000000       0.00000000       0.00000000 </v>
   <v>       0.00000000       0.00000000       0.00000000 </v>
   <v>       0.00000000       0.00000000       0.00000000 </v>
   <v>       0.00000000       0.00000000       0.00000000 </v>
   <v>       0.00000000       0.00000000       0.00000000 </v>
   <v>       0.00000000       0.00000000       0.00000000 </v>
   <v>       0.00000000       0.00000000       0.00000000 </v>
   <v>       0.00000000       0.00000000       0.00000000 </v>
   <v>       0.00000000       0.00000000       0.00000000 </v>
   <v>       0.00000000       0.00000000       0.00000000 </v>
   <v>       0.00000000       0.00000000       0.00000000 </v>
   <v>       0.00000000       0.00000000       0.00000000 </v>
   <v>       0.00000000       0.00000000       0.00000000 </v>
   <v>       0.00000000       0.00000000       0.00000000 </v>
   <v>       0.00000000       0.00000000       0.00000000 </v>
   <v>       0.00000000       0.00000000       0.00000000 </v>
   <v>       0.00000000       0.00000000       0.00000000 </v>
   <v>       0.00000000       0.00000000       0.00000000 </v>
   <v>       0.00000000       0.00000000       0.00000000 </v>
   <v>       0.00000000       0.00000000       0.00000000 </v>
   <v>       0.00000000       0.00000000       0.00000000 </v>
   <v>       0.00000000       0.00000000       0.00000000 </v>
   <v>       0.00000000       0.00000000       0.00000000 </v>
   <v>       0.00000000       0.00000000       0.00000000 </v>
   <v>       0.00000000       0.00000000       0.00000000 </v>
  </varray>
 </structure>
</modeling>
