 running on   52 total cores
 distrk:  each k-point on   52 cores,    1 groups
 distr:  one band on   13 cores,    4 groups
 using from now: INCAR     
 vasp.5.4.4.18Apr17-6-g9f103f2a35 (build Oct 31 2019 15:01:46) complex          
  
 POSCAR found type information on POSCAR  Sc F  C 
 POSCAR found :  3 types and      80 ions
 scaLAPACK is switched off
 LDA part: xc-table for Pade appr. of Perdew
 generate k-points for:    3    3    1
 POSCAR, INCAR and KPOINTS ok, starting setup
 FFT: planning ...
 WAVECAR not read
 entering main loop
       N       E                     dE             d eps       ncg     rms          rms(c)
DAV:   1     0.137025670749E+05    0.13703E+05   -0.27867E+05  4240   0.156E+03
DAV:   2     0.247865635269E+04   -0.11224E+05   -0.10929E+05  4680   0.534E+02
DAV:   3    -0.387682461970E+03   -0.28663E+04   -0.27513E+04  6800   0.296E+02
DAV:   4    -0.740033431492E+03   -0.35235E+03   -0.34824E+03  6048   0.138E+02
DAV:   5    -0.754242611560E+03   -0.14209E+02   -0.14150E+02  6080   0.350E+01    0.772E+01
DAV:   6    -0.598572114466E+03    0.15567E+03   -0.83662E+02  5736   0.644E+01    0.254E+01
DAV:   7    -0.598579505969E+03   -0.73915E-02   -0.53918E+01  5904   0.212E+01    0.164E+01
DAV:   8    -0.596996117190E+03    0.15834E+01   -0.10264E+01  5552   0.787E+00    0.449E+00
DAV:   9    -0.596488290109E+03    0.50783E+00   -0.26921E+00  5536   0.504E+00    0.211E+00
DAV:  10    -0.596448182657E+03    0.40107E-01   -0.26066E-01  5952   0.166E+00    0.119E+00
DAV:  11    -0.596317982499E+03    0.13020E+00   -0.16447E-01  5464   0.105E+00    0.820E-01
DAV:  12    -0.596292804232E+03    0.25178E-01   -0.52518E-02  5912   0.598E-01    0.334E-01
DAV:  13    -0.596284865948E+03    0.79383E-02   -0.37354E-02  5720   0.464E-01    0.328E-01
DAV:  14    -0.596282068593E+03    0.27974E-02   -0.14125E-02  5720   0.275E-01    0.141E-01
DAV:  15    -0.596288115657E+03   -0.60471E-02   -0.88995E-03  6048   0.194E-01    0.102E-01
DAV:  16    -0.596291378366E+03   -0.32627E-02   -0.18015E-03  5880   0.123E-01    0.734E-02
DAV:  17    -0.596296891865E+03   -0.55135E-02   -0.17484E-03  5960   0.966E-02    0.833E-02
DAV:  18    -0.596300023261E+03   -0.31314E-02   -0.78091E-04  5352   0.758E-02    0.429E-02
DAV:  19    -0.596301497122E+03   -0.14739E-02   -0.27191E-04  5688   0.402E-02    0.199E-02
DAV:  20    -0.596304748051E+03   -0.32509E-02   -0.14575E-04  5296   0.231E-02    0.208E-02
DAV:  21    -0.596307214995E+03   -0.24669E-02   -0.12973E-04  4400   0.181E-02    0.117E-02
DAV:  22    -0.596308244829E+03   -0.10298E-02   -0.10463E-04  4752   0.161E-02    0.909E-03
DAV:  23    -0.596308622101E+03   -0.37727E-03   -0.10788E-05  4648   0.895E-03    0.537E-03
DAV:  24    -0.596308959435E+03   -0.33733E-03   -0.18407E-05  4456   0.725E-03    0.360E-03
DAV:  25    -0.596309094929E+03   -0.13549E-03   -0.31173E-06  3352   0.461E-03    0.176E-03
DAV:  26    -0.596309179372E+03   -0.84443E-04   -0.48613E-06  3920   0.395E-03    0.275E-03
DAV:  27    -0.596309202485E+03   -0.23113E-04   -0.28948E-07  2616   0.232E-03    0.199E-03
DAV:  28    -0.596309223232E+03   -0.20747E-04   -0.13866E-06  3024   0.280E-03    0.121E-03
DAV:  29    -0.596309234743E+03   -0.11512E-04   -0.39110E-07  2616   0.191E-03    0.152E-03
DAV:  30    -0.596309240097E+03   -0.53540E-05   -0.19960E-07  2616   0.151E-03    0.123E-03
DAV:  31    -0.596309243800E+03   -0.37025E-05   -0.17554E-07  2616   0.120E-03    0.803E-04
DAV:  32    -0.596309244415E+03   -0.61485E-06   -0.10421E-07  2520   0.985E-04
   1 F= -.59630924E+03 E0= -.59630924E+03  d E =-.763674E-23
