135
Time=99999.99999996 pbc="T T T" Lattice="13.31093562 0.00000000 0.00000000 0.00000000 13.31093562 0.00000000 0.00000000 0.00000000 13.31093562" energy=-863.95186463 virial="-33.85176932 -11.83410014 3.28211041 -11.83410014 -85.50546327 -11.06273383 3.28211041 -11.06273383 -45.39488461" stress="0.01030988 -0.00501776 0.00139164 -0.00501776 -0.01159170 -0.00469069 0.00139164 -0.00469069 0.00541551" Properties=species:S:1:pos:R:3
Ca 12.02859624 5.94436506 8.93831650
Ca 13.17862244 5.00780382 0.34511973
Ca 7.42948977 0.11975150 8.89571040
Ca 4.45864710 2.37022807 0.61519995
Ca 9.35856497 9.54718107 2.61070886
Ca 3.66964641 1.63395879 10.32159463
Ca 7.05640023 1.24507090 3.26379720
Ca 9.82956053 4.54619602 12.73284419
Ca 12.26944518 10.73635626 0.90545571
Ca 3.15828345 5.25842725 3.89960121
Ca 4.11954450 9.16564941 1.41387931
Ca 13.10279984 10.37442200 11.42279564
Ca 7.06782850 1.66730137 12.86993365
Ca 5.73629556 11.43713036 3.93502760
Ca 10.53537022 2.84171814 5.63920184
Ca 8.54166896 5.25179379 6.11387096
Ca 9.43159883 12.37371975 5.01133974
Ca 12.70015109 2.23601338 10.01871902
Ca 10.50457380 2.02222959 1.82574400
Ca 3.54842348 5.78475197 11.68304103
Ca 0.83412463 6.90140920 10.96937510
Ca 2.25138489 4.36426222 9.32429799
Ca 12.21859366 7.76480584 6.11611565
Ca 2.78161252 12.92410082 8.13039213
Ca 0.49194460 13.26311018 4.79871005
Ca 7.58350162 10.29873070 11.28821244
Ca 4.75847348 11.20262257 8.95649063
Si 5.44224067 4.70794661 8.34981253
Si 2.79274088 10.04991192 4.60952864
Si 2.11937730 11.80714594 2.64025735
Si 1.46928675 2.31297357 12.25472173
Si 1.00197703 8.13116179 2.46977077
Si 3.16971089 8.69161871 7.03683821
Si 6.05497938 0.23990756 6.38661781
Si 1.13961109 9.13162032 8.40617584
Si 4.27026800 5.41368266 1.26323190
Si 8.81662472 6.51332552 10.30739524
Si 8.56828495 4.54367102 2.77260443
Si 7.75742526 2.84701093 8.22536111
Si 10.85714054 12.58804645 9.11756349
Si 10.09597928 8.58619357 9.69506407
Si 8.12282770 7.30019976 12.99697317
Si 0.09780674 4.17779916 6.73639627
Si 8.71374648 8.82791171 6.99937423
Si 0.49400145 1.91765112 1.37643747
Si 6.27812559 11.22987754 1.22068761
Si 10.18671526 6.91392340 2.02757525
Si 5.10214445 12.40986678 12.18341376
Si 0.96644351 8.56969154 13.09803683
Si 4.41543094 2.35409630 4.61120270
Si 11.72146403 0.61746043 12.67306162
Si 12.90819615 12.39423560 7.12986606
Si 3.39375977 2.82859306 6.63430153
Si 8.71362793 12.01657093 1.48902852
O 12.55207205 8.59785418 13.20839397
O 9.29536767 3.71091270 1.41051510
O 1.78084899 9.47683317 6.26865373
O 2.69807750 4.59304145 0.90826663
O 4.13986929 12.46118650 10.79151052
O 9.40917413 8.06825105 0.94787184
O 4.00563758 3.41930733 3.24282664
O 8.20420896 6.14681929 8.97178325
O 2.59892639 3.71878506 11.79716480
O 2.18265268 7.04289744 12.72188622
O 8.32131501 2.07322837 9.49700999
O 12.09677519 11.73724585 8.31798378
O 5.02751463 1.03074025 12.09604080
O 9.51440869 4.19247728 3.86657286
O 10.03421076 7.51193098 8.36273027
O 3.26507028 7.70325044 5.52834128
O 2.42699448 6.39238020 10.27524876
O 4.74189804 3.24891999 5.96883032
O 0.07741259 9.29043223 3.04760089
O 8.99295329 3.71042307 7.46531600
O 13.12313613 0.38191428 1.11437817
O 0.75282497 11.18977572 1.91064778
O 3.78428114 10.21123187 7.72816849
O 0.66079412 0.21917832 7.04485682
O 5.44349212 0.14698175 1.31380628
O 12.94491442 4.95296704 11.28271754
O 4.57649412 0.26337986 7.01380932
O 2.55951182 8.84362841 3.42436562
O 13.16340368 3.02667972 5.73511348
O 5.41101868 10.86441343 13.05151433
O 9.38526819 7.54476991 6.11922334
O 7.02207006 12.53770077 11.06985828
O 0.97008345 10.26737794 9.54660822
O 8.58835621 7.98524675 11.03648952
O 0.04681649 2.59818194 13.09578809
O 6.24193475 2.91174084 8.77606192
O 8.23720659 5.97579247 12.39990152
O 2.79799944 1.86373511 5.37375843
O 1.59788605 11.24418946 4.41719100
O 2.23116371 1.30352734 0.12312733
O 0.98698940 6.40412516 2.13171736
O 4.59014470 6.89066021 1.21067263
O 10.95045496 2.16731448 12.53472333
O 4.91806910 5.54036441 9.56287716
O 2.38155866 8.33582953 8.46661410
O 11.02833691 7.54317632 3.45485449
O 12.38579410 5.57861927 6.53025631
O 8.48388425 13.13271637 0.44026431
O 11.05792315 1.09870104 8.13484422
O 5.50114835 1.17568317 4.45598924
O 5.55749178 4.54022004 0.68015766
O 13.16345336 3.10171673 2.28912279
O 3.78831811 11.62063232 2.38480289
O 9.46052745 12.29986481 8.90960866
O 8.78718085 6.16674328 2.17256232
O 13.11455533 7.95726985 8.13178879
O 3.73238422 11.25029511 5.13554633
O 1.97385759 1.04554299 2.80358520
O 10.54423023 9.87709438 10.45014857
O 2.19478481 4.31140225 6.70265814
O 10.31989485 11.55112993 1.77168491
O 4.83126178 5.11393927 6.81650397
O 1.52873555 9.26394280 1.39959416
O 9.33673014 0.50555699 3.20062741
O 12.84050578 3.33627788 8.12342202
O 1.77264126 9.14184830 11.71096946
O 6.84505223 12.69827997 5.42739845
O 7.48655255 11.59555396 2.80557286
O 3.67228620 2.47791385 8.01409112
O 12.89287438 11.67727526 5.75432091
O 7.67766863 8.93936943 8.39624284
O 7.59375125 1.21815687 6.91078725
O 1.16359542 1.44380821 10.91305713
O 6.99245589 8.59014521 0.07092139
O 7.28092423 3.82180626 3.39691297
O 11.81150840 12.27278719 12.38876157
O 9.53448230 10.42217660 6.53611027
O 11.52440976 0.16523340 10.80365132
O 10.73813558 6.18488492 0.68841249
O 10.26270362 5.60479923 10.57183707
O 6.22644552 9.93064689 2.03438847
135
Time=199999.99999918 pbc="T T T" Lattice="13.31093562 0.00000000 0.00000000 0.00000000 13.31093562 0.00000000 0.00000000 0.00000000 13.31093562" energy=-874.27871583 virial="-31.42602649 5.01355351 -20.39741568 5.01355351 -37.96844305 -28.16834253 -20.39741568 -28.16834253 -68.82696008" stress="0.01133842 0.00212579 -0.00864867 0.00212579 0.00856438 -0.01194361 -0.00864867 -0.01194361 -0.00451988" Properties=species:S:1:pos:R:3
Ca 7.57629696 7.03927513 9.21315763
Ca 4.90756995 2.86265307 1.37445981
Ca 7.52654080 1.28237077 12.29639627
Ca 8.76640477 9.82389175 5.99941821
Ca 1.41574425 7.32044586 10.02587706
Ca 2.93785039 1.22629202 5.37169743
Ca 11.69808881 9.06957761 12.65570751
Ca 11.22306969 2.65388509 1.49128842
Ca 7.49708201 8.12780643 0.02190045
Ca 6.80008373 13.05590305 4.51205992
Ca 4.14608705 7.25636513 10.11357183
Ca 3.06646904 4.48905350 12.66114722
Ca 5.56635744 11.52870297 0.70237157
Ca 5.52971490 1.67920820 9.51325641
Ca 13.07169072 3.12065670 7.04458992
Ca 9.59382302 3.51325010 10.67680920
Ca 11.21746539 6.46100904 6.62482404
Ca 5.21770124 9.84712226 3.16334674
Ca 10.38922574 2.96099661 5.27344491
Ca 2.16083071 13.29589187 8.65585504
Ca 2.99813984 5.12546736 2.99384463
Ca 9.11225789 5.39936253 2.19734941
Ca 2.77071182 8.26891416 4.95238002
Ca 1.11253112 11.86965427 3.97616187
Ca 7.31411092 6.24526605 5.63122435
Ca 12.80206118 10.33093079 9.89450410
Ca 13.22618494 3.08196244 10.55063259
Si 3.30213771 11.37072808 5.96605327
Si 4.34339333 5.03956006 7.65085468
Si 8.11735818 1.46974511 1.71380208
Si 7.61758596 8.19336456 3.36642996
Si 6.81515704 13.09643838 10.08733713
Si 8.18570508 5.66942409 12.26037684
Si 5.84497753 11.93454932 7.49155125
Si 10.61428338 12.11853040 10.78030299
Si 1.35408065 7.48795422 0.53827912
Si 1.08447920 2.86341665 4.24848091
Si 7.46918031 3.07554954 4.16867863
Si 7.22434686 9.61564603 9.77925462
Si 9.21538889 9.74698552 1.31591831
Si 0.85935461 2.85020863 0.62505887
Si 1.94040603 4.14589420 9.14428977
Si 10.62942950 12.54728351 0.53400267
Si 12.15973594 5.55452123 3.46957833
Si 2.43630062 9.63424073 8.56318120
Si 11.36972729 11.06267052 5.27536928
Si 11.42094438 1.09180912 8.52862938
Si 6.10853897 3.92270767 11.52032413
Si 4.88700237 6.88919191 1.53210664
Si 5.89581705 3.12813676 6.63792777
Si 13.21653134 8.43805148 4.69041550
Si 1.65360323 12.84099105 0.63453895
Si 1.75472573 10.74322558 12.83078616
Si 11.13578301 6.72967543 10.18585216
O 9.60406834 8.42798662 0.03874663
O 2.35856439 3.26445457 3.59618297
O 1.79001680 2.76010746 6.04052660
O 11.53753371 5.61992498 11.54511372
O 0.55556186 4.66425722 4.53876891
O 8.82270662 3.76327933 4.25283373
O 3.49628632 4.94924208 6.25289516
O 11.79181200 9.27331493 4.79933464
O 6.62359008 8.46981189 4.65368392
O 5.45408453 1.58931608 5.97569825
O 4.50877254 3.75623391 10.81775297
O 7.97627268 1.39997429 3.68163347
O 10.58221032 5.59326805 8.97370006
O 4.95538365 7.16283139 13.29369817
O 5.25435310 3.60100371 8.12065132
O 7.87046582 10.94746145 0.96996656
O 4.14789800 12.60846423 7.08466635
O 7.02628565 10.99396699 10.49212786
O 0.08828235 7.95142102 1.30776367
O 1.87607011 11.00012726 9.61704439
O 11.70773887 12.68540424 12.59390540
O 13.18797649 3.49055815 12.63607677
O 9.09020641 4.51073326 12.60714750
O 0.79944085 9.49473004 8.32824878
O 1.68025014 0.50637208 12.65805037
O 8.91731019 6.90575534 11.31057426
O 2.32140472 2.55607350 8.75902173
O 11.97376944 4.58761263 2.12494674
O 7.22474561 3.88874835 6.67264898
O 4.86771064 5.39924479 2.03872843
O 3.54496095 8.72898956 9.14896998
O 12.95063534 1.55144173 8.26014065
O 9.91165010 11.43492152 5.33624806
O 11.19642709 1.87107142 10.09619665
O 2.01489459 12.83895324 5.83997397
O 2.32836724 6.47843893 1.49267064
O 8.42987804 0.38918983 10.50329762
O 1.08417951 10.32833898 1.09029915
O 6.45040635 11.63830463 6.05075092
O 4.15230632 11.21156030 4.50005458
O 9.16078224 9.05300256 2.79140494
O 1.77909375 4.23309488 10.81977057
O 5.69083492 11.97047116 2.92097797
O 1.88754558 3.51236780 1.33255608
O 5.65574822 0.31289298 11.07902952
O 6.35027535 13.22280375 8.43009816
O 0.14935941 6.95947104 3.74729270
O 10.37339511 11.02819968 0.75176863
O 10.61825912 1.98243313 7.35502256
O 10.97238558 5.41285400 4.35713985
O 8.73777384 2.78910113 1.88083962
O 8.50304734 6.90145440 3.57493455
O 2.11728694 7.00770277 12.16140901
O 5.59922240 10.55147541 8.25001649
O 10.31963432 0.94460340 0.89635192
O 7.80811558 6.11334160 0.50620954
O 0.05452173 1.42659530 3.82546276
O 6.33304688 2.92052817 13.17257448
O 3.79165552 7.90693058 3.03569638
O 12.57374179 11.64041722 4.30214009
O 7.08026325 3.16705868 10.14246478
O 12.08852051 7.88441323 10.14507117
O 5.71258053 2.79238833 3.48488080
O 0.71747229 5.15555168 8.68591713
O 3.00951941 5.27187461 8.77158331
O 3.08325051 12.90317480 1.74695637
O 12.21881114 11.60931991 6.86484533
O 6.68618861 0.91915341 1.09374446
O 10.74519201 10.54753736 10.81291868
O 0.56061644 7.72477154 6.08792535
O 6.53353976 8.25558930 2.14913427
O 6.17566567 8.48401233 10.20774863
O 10.84194855 12.90567130 9.37340449
O 8.37300160 9.28744213 8.84776946
O 0.70774805 9.55124312 11.72628006
O 3.17204468 11.77144797 12.70709188
O 6.95049757 5.32379877 10.89193127
O 11.66153937 4.66177532 6.90500658
O 3.16184431 9.86663819 6.52742661
O 5.90906070 6.35957874 7.30807968
O 1.10671079 9.49452856 4.25405553
135
Time=299999.99999840 pbc="T T T" Lattice="13.31093562 0.00000000 0.00000000 0.00000000 13.31093562 0.00000000 0.00000000 0.00000000 13.31093562" energy=-862.29864526 virial="23.62765974 -15.81349934 26.63398746 -15.81349934 63.70739541 28.16301286 26.63398746 28.16301286 0.32670831" stress="0.03468163 -0.00670505 0.01129303 -0.00670505 0.05167577 0.01194135 0.01129303 0.01194135 0.02480184" Properties=species:S:1:pos:R:3
Ca 0.48637400 5.39740973 11.20281885
Ca 6.22500648 3.35311763 3.56689156
Ca 3.83624701 0.73152098 5.53555788
Ca 4.65316248 12.02871746 11.43715587
Ca 9.60790091 0.64139028 7.48577475
Ca 2.50173625 10.25494716 7.94987031
Ca 8.19611414 9.04913466 0.20715956
Ca 7.59321671 6.81390801 4.59071101
Ca 4.35609783 10.72272580 2.67752301
Ca 12.51638734 12.57613798 5.44278250
Ca 2.19295799 2.69206085 9.11171347
Ca 7.53195423 12.12806084 4.74675239
Ca 3.97737285 6.41484253 8.41743903
Ca 10.65012076 2.94498106 12.94234126
Ca 5.72513505 1.27333412 8.85510604
Ca 11.36968525 7.96316717 8.55442748
Ca 5.35105162 5.60973543 11.84558060
Ca 4.94664738 8.87566166 6.25175230
Ca 4.24232073 7.43232836 0.89953920
Ca 9.48379144 10.25929351 10.75618368
Ca 6.60703560 11.88315107 13.15487790
Ca 1.30750892 2.01117920 0.01432346
Ca 2.46812359 2.12520790 3.26325039
Ca 0.81593984 11.46978925 12.03785789
Ca 4.05159172 4.17923007 5.26681108
Ca 11.59883915 6.89695882 4.87330088
Ca 9.70938743 4.28166271 5.53182914
Si 10.11334132 9.21781916 3.06016323
Si 10.97290295 8.92244811 0.03512101
Si 3.47076333 10.68136098 0.32890855
Si 12.59940659 6.86276514 0.35605120
Si 13.12042830 11.82519198 8.87177293
Si 9.01309917 2.39083675 9.88606812
Si 6.42811246 4.38632885 6.75587563
Si 0.95052334 3.59105546 5.91951125
Si 8.59142361 0.30690146 11.30768993
Si 2.38406566 11.37614088 4.57789403
Si 13.27355296 9.68301649 4.55298720
Si 1.50858418 0.32588042 6.89044914
Si 7.90248799 7.21684001 7.46122862
Si 0.02714403 4.82895563 7.46934143
Si 0.92172719 7.70758065 6.49789518
Si 3.95621706 4.04454308 1.08379908
Si 9.09682431 0.05610743 1.32845746
Si 11.78336230 2.76596248 2.90259257
Si 11.35013874 5.17347162 8.89859703
Si 12.72154610 2.68691336 10.61845322
Si 0.74419714 4.50185800 1.83222449
Si 4.29112355 9.03720917 10.48323612
Si 10.20306726 0.72874680 3.87465418
Si 7.43699779 9.61573379 3.00598154
Si 6.19110515 11.84557408 7.49337514
Si 3.80070629 2.40640327 11.09047961
Si 7.22254428 7.69228163 10.48760647
O 10.79760324 5.50289740 7.28177180
O 3.41607478 10.48717855 4.90461303
O 11.03117705 6.03574774 10.05768965
O 12.37826594 9.57607736 5.99996538
O 4.10523935 9.41224812 1.18105673
O 0.08884184 1.87251161 9.24419639
O 4.13593297 12.05648462 0.43877952
O 13.02443623 4.53836371 8.96848025
O 9.09870028 0.77638573 13.09598349
O 4.87036968 1.96941075 4.62881908
O 0.67098591 8.56090360 5.00499426
O 11.71241332 3.48832307 4.47076324
O 4.56883703 7.60631294 10.81526583
O 10.33922054 3.53888028 9.05551793
O 7.56542566 2.54976551 9.07348576
O 2.59418484 0.50191857 7.98707743
O 10.21551177 9.10766150 11.93809628
O 0.12174127 3.26626908 11.83005470
O 3.89131895 10.27694294 11.42145884
O 9.28531448 1.49673306 5.22867776
O 1.69347954 4.15559876 0.58364510
O 2.40135247 12.64081222 3.41035206
O 10.44424396 12.79107383 2.79977456
O 2.68994460 8.00353154 6.44541225
O 11.80875737 10.83075940 8.63167720
O 7.86774665 5.01185557 6.56259015
O 6.82729780 6.86901837 11.91185344
O 8.58414177 1.33208041 2.42908734
O 9.93360053 12.69582479 5.39433777
O 7.74680839 12.25208680 7.70998833
O 6.62774142 10.06672672 1.60036532
O 12.61376507 5.66220937 1.31098909
O 9.26252118 12.20165359 11.49555296
O 1.26994567 1.35452959 5.46982765
O 2.12149704 12.09599008 6.30496188
O 3.35399866 8.92635593 9.30454792
O 4.40388700 3.13643859 9.36379626
O 10.65624732 8.64614271 1.68867769
O 5.49147196 10.39620943 7.30190363
O 0.33495855 7.43401715 12.66347745
O 6.33046793 4.92821726 4.61967386
O 0.14014039 12.63000832 6.87607913
O 8.19871939 12.05112219 1.06471777
O 8.95463468 10.35324178 2.66625915
O 9.12305042 7.93208857 8.12138796
O 1.54634318 4.32374619 7.44106714
O 11.57440731 9.59750412 3.68576187
O 6.66738745 0.43396750 11.39840972
O 12.80002055 4.18810346 5.94527437
O 13.26142666 3.15464613 2.20443376
O 5.36105995 5.70066637 6.57979252
O 2.16151310 3.57089389 4.76314561
O 11.22878307 1.88794138 11.14834344
O 4.96164821 5.01050673 1.50475451
O 13.20317709 6.33809519 6.15171159
O 7.81822055 8.29132622 2.94109265
O 1.93523573 10.32644800 0.25511375
O 11.71186174 1.21760378 3.09235474
O 1.36586239 5.38080006 3.26633950
O 7.04952738 9.44501128 10.57698552
O 7.03234421 7.87860432 6.36583644
O 13.29257158 13.08095391 10.27443135
O 6.03008671 12.41459159 5.95652670
O 1.00475812 10.70394655 9.77445740
O 10.73819896 3.50211123 1.63545343
O 0.87938589 10.51767016 3.38394664
O 10.58130962 6.64832756 13.20182639
O 4.93556806 12.87623319 8.57608733
O 0.47300049 0.14324639 11.47507126
O 2.39464466 2.94129247 10.97156707
O 8.51024336 2.75308969 11.36051960
O 9.36203319 0.85995791 9.85631324
O 9.49202527 8.06322426 4.89078495
O 6.62116166 7.08684284 8.92224616
O 4.31828311 1.06120977 11.57317410
O 4.15170892 3.91369796 12.72190874
O 12.29450862 9.37232233 13.08578010
O 5.41876730 3.29051274 7.11247677
O 6.07095387 9.81166033 3.82968866
O 4.57263600 2.45207169 1.80275556
O 0.63535302 7.47517741 8.13140299
135
Time=400000.00000008 pbc="T T T" Lattice="13.31093562 0.00000000 0.00000000 0.00000000 13.31093562 0.00000000 0.00000000 0.00000000 13.31093562" energy=-862.79476821 virial="29.93849263 -4.54010623 -2.51066916 -4.54010623 -18.46562114 1.09539951 -2.51066916 1.09539951 -6.83067371" stress="0.03735748 -0.00192504 -0.00106454 -0.00192504 0.01683374 0.00046446 -0.00106454 0.00046446 0.02176705" Properties=species:S:1:pos:R:3
Ca 7.71263294 8.45180772 0.08544125
Ca 10.88911150 12.33558306 2.46892224
Ca 11.04852025 7.74800304 10.34220291
Ca 8.04719318 12.10769117 7.70094128
Ca 5.19346138 3.95999561 1.94533618
Ca 3.01182108 2.73774008 5.29225412
Ca 11.28016538 6.76003452 5.49220478
Ca 8.71118155 5.98047899 0.54919630
Ca 1.00855196 7.97289833 12.44678286
Ca 4.13554508 0.84704816 9.77341718
Ca 1.60166770 9.09157978 4.74113186
Ca 7.98398404 0.78886788 11.45823128
Ca 0.98155713 0.35998175 9.14375705
Ca 10.44218758 2.58291422 6.00400348
Ca 11.82214954 0.09103720 11.67915306
Ca 12.12609984 4.82919460 1.98467291
Ca 6.44484741 4.48020048 9.24721122
Ca 4.43940576 10.22575328 9.02810212
Ca 3.34145173 11.38276272 4.18961407
Ca 8.96573972 9.66985399 4.30759704
Ca 12.40030530 11.36827662 7.96413401
Ca 6.68856964 5.89600388 5.51549498
Ca 4.90945494 10.97834153 0.02365671
Ca 0.62498555 10.59606369 1.28048520
Ca 12.21673317 0.89092951 5.20880096
Ca 3.14806964 6.71681758 9.58750541
Ca 6.45399952 13.17546235 1.81962176
Si 11.85399184 9.78520753 4.72336301
Si 3.15054059 3.53604248 10.24152845
Si 8.02667886 10.77623545 1.26301807
Si 2.50838512 6.59014469 5.38847491
Si 10.36912423 3.71104719 11.42314973
Si 9.48570270 2.02071815 1.04138483
Si 11.40306912 8.15622146 0.73376048
Si 0.66654588 12.16055274 3.44741313
Si 2.70179038 9.99141181 11.81990068
Si 5.58328932 3.57429391 11.96304094
Si 9.94903894 0.79289589 7.86516717
Si 9.42552110 4.37220029 2.72238795
Si 12.21913874 5.50870638 8.27723516
Si 1.67172093 4.49262658 12.94631286
Si 4.77632334 0.33513939 6.58021782
Si 8.16203202 7.86244514 8.09902377
Si 5.20399478 6.46641744 12.33284420
Si 6.22720697 3.10959068 5.38442469
Si 1.93084314 12.95456434 12.63888942
Si 3.31607353 2.13123241 1.85822214
Si 12.77792662 3.00577765 7.72877884
Si 10.54221856 10.31115382 12.76942654
Si 1.21334748 10.72024362 9.98110624
Si 8.33893718 9.80872948 10.18135805
Si 2.33847194 11.09999665 7.13401193
Si 4.02607449 0.81423732 12.75345454
Si 6.01783431 9.88346964 3.36764431
O 8.55170471 9.81139651 8.31123840
O 1.54221142 12.83239335 2.04724830
O 9.83813484 5.37636067 11.15909523
O 6.89044062 10.20552680 4.71190214
O 0.74717228 6.87287956 5.28437740
O 4.08498472 10.02075275 10.92540748
O 4.29347859 12.94454333 5.43290592
O 9.26249326 0.66121657 0.14710680
O 3.76266360 4.52424241 8.97992192
O 8.52171423 11.36977774 10.40512465
O 11.87955205 2.81244857 4.37183173
O 9.64870460 7.89870281 0.48329760
O 11.30398689 10.83779272 5.85796230
O 2.06326413 9.66013655 13.30088192
O 10.04748056 13.00266937 6.64204426
O 1.47702755 10.83094696 3.78114286
O 7.38510008 3.80484084 6.78390768
O 7.11276582 10.80493153 13.19492731
O 11.37163209 4.87293445 6.94651657
O 4.93369615 4.43974552 13.16113703
O 2.24728286 11.43760165 11.03743131
O 10.74427810 8.54361702 3.98779969
O 8.01432445 5.12565037 2.29484381
O 1.84894557 1.77675712 1.06604342
O 3.21994389 7.66602039 6.50294902
O 4.85264952 0.05688623 11.85923471
O 10.15805651 4.82747327 1.39727861
O 0.75882275 5.88144101 13.30046506
O 9.30448080 11.15609221 0.58284137
O 7.06504042 2.80351696 12.24450110
O 9.08145098 9.09366859 11.40583314
O 2.01486403 10.57394771 8.62134217
O 5.84480241 5.28307824 11.26706456
O 11.94905530 8.58340719 12.58743016
O 0.07550648 2.24527378 6.61604725
O 5.37832744 0.15240213 8.17423539
O 9.72745947 5.15776331 3.92655907
O 10.89516231 11.30482783 11.48953707
O 6.17140822 1.26560066 5.32416573
O 12.50955195 8.52142989 5.42723158
O 7.52495282 9.52972488 2.08661710
O 7.18219631 8.73948916 9.64546732
O 3.79938531 10.43346070 6.79830286
O 1.50853223 9.34749688 10.84097881
O 5.31842658 7.69343845 0.21588033
O 13.08756485 4.34341509 8.83141482
O 1.03956409 11.01375844 6.58268535
O 2.34047898 2.74373780 9.03331811
O 12.81485214 7.18716467 8.40422402
O 8.97986373 0.45289330 9.12397978
O 12.53381549 11.08214618 3.24281412
O 2.48738634 4.04657589 1.18961945
O 11.83215742 4.18887371 12.20465241
O 2.38476474 8.03841918 11.00213612
O 5.26301382 11.20281803 2.52253314
O 13.24516620 11.61690577 9.62054227
O 4.45445069 9.23381258 3.22351160
O 8.34878785 2.10012771 2.03585653
O 2.96008922 11.73710294 13.17341379
O 4.82539629 3.55533808 6.07189984
O 12.57042305 1.37548475 8.58111033
O 7.35802057 7.47220543 6.87760978
O 3.48153176 5.51304265 4.80671751
O 11.00567256 9.89108707 1.38334195
O 9.96027740 2.35112686 7.82503513
O 10.37160404 2.44709740 10.61246339
O 4.16309044 2.07335951 3.44820266
O 2.37820772 12.88949250 7.31089131
O 9.43575032 7.17293115 8.54462519
O 4.85028702 1.70016572 0.77117185
O 6.85703266 3.99801567 3.94252749
O 4.47726926 2.64420533 11.06627339
O 2.22081978 4.26718113 11.32633669
O 2.56696991 1.13653495 11.67220181
O 12.22848404 7.32896115 1.73272189
O 0.50182940 0.08426369 4.59134610
O 9.81586293 3.24550417 12.83299924
O 11.07990123 1.33450445 1.68307426
O 3.83212377 6.75801516 11.55161026
O 0.65700532 0.63199437 12.91282718
O 8.25404986 12.00135597 2.42045276
135
Time=500000.00000301 pbc="T T T" Lattice="13.31093562 0.00000000 0.00000000 0.00000000 13.31093562 0.00000000 0.00000000 0.00000000 13.31093562" energy=-864.46057167 virial="0.41664488 -11.79819089 24.49569064 -11.79819089 6.42405374 38.29728114 24.49569064 38.29728114 2.41308819" stress="0.02483997 -0.00500253 0.01038637 -0.00500253 0.02738716 0.01623836 0.01038637 0.01623836 0.02568648" Properties=species:S:1:pos:R:3
Ca 3.31134952 5.18275841 5.89216653
Ca 10.24367196 1.02966170 0.93134293
Ca 10.76510652 12.55772793 3.12307686
Ca 10.68473403 9.64981877 8.07137407
Ca 0.87077321 12.67002665 3.85149375
Ca 3.18956252 10.08833439 7.48834594
Ca 8.69348901 5.58357559 4.80265952
Ca 4.41681096 8.47985570 10.77086005
Ca 5.00985531 1.85781071 3.66935844
Ca 8.48653899 10.90582960 10.81336125
Ca 0.69936036 8.27903072 10.30807912
Ca 2.17012360 9.81767013 0.96562932
Ca 13.13315125 4.75034890 6.60895729
Ca 12.47829202 5.49994888 1.32687298
Ca 2.67224103 1.55451466 0.34542149
Ca 12.04715444 12.36088178 9.15141855
Ca 10.42414949 8.31489010 3.09938163
Ca 11.21219628 5.32759392 10.57574737
Ca 7.20839064 12.06346447 6.04257455
Ca 3.05547511 4.00761728 2.08629472
Ca 9.47277081 7.22028012 12.74510092
Ca 7.16207570 9.37426121 8.30246600
Ca 5.30281208 9.82028432 3.03409463
Ca 2.39620799 9.02088380 4.58656242
Ca 3.77812782 1.00515188 7.37536756
Ca 7.62794278 3.41787021 13.15532421
Ca 6.26738062 11.53064609 0.38397955
Si 7.75495244 0.49613721 2.95244131
Si 7.33450513 6.22910044 2.32407620
Si 9.11259537 7.51915854 6.68031644
Si 13.04071480 9.61523553 3.28333014
Si 10.86143403 2.33836692 8.13760141
Si 1.70663687 2.15848938 5.22299032
Si 5.77424129 3.00618812 10.65000156
Si 3.55146297 12.37150538 3.21705523
Si 10.01481167 10.78564487 1.19111289
Si 5.42881560 11.75438869 9.41815340
Si 3.85999009 4.67603852 12.48408714
Si 4.60529435 7.60083817 0.60384035
Si 11.31814985 9.45011651 11.80540734
Si 0.14491623 10.64387966 6.44174316
Si 1.08831445 6.17408554 3.77806097
Si 8.37152622 0.64791677 10.49762182
Si 2.21118954 10.63432616 10.60398944
Si 12.88514429 1.51374248 2.18770357
Si 9.64998359 3.61199587 2.51139590
Si 0.38306712 2.38953691 9.64322313
Si 4.22570032 4.63012034 8.95870944
Si 7.33296455 2.12804622 7.72652571
Si 11.43729977 3.41850945 12.80583073
Si 1.47819371 5.10291523 9.70281156
Si 3.43052469 12.62764834 11.25284363
Si 13.15729657 11.83625312 12.76834279
Si 6.14054512 9.02225869 6.00216036
O 3.13092302 2.77217955 5.66864444
O 4.78740602 8.93512437 13.14575110
O 10.45884621 2.62138973 11.92358832
O 8.59995614 3.38690399 7.50662208
O 4.48407628 5.13050623 10.97084670
O 4.63000284 11.59149723 2.53130829
O 11.15299624 7.07762881 1.10027702
O 9.07765630 6.28099480 7.63629793
O 11.10811924 0.67728836 7.76272179
O 4.69616050 8.58796842 4.77637314
O 9.58713310 3.28340821 8.77164020
O 0.78082097 9.14371651 6.01178088
O 5.11130725 5.15602431 7.61146460
O 1.43857773 12.16903790 12.97160560
O 12.69150286 13.23893351 1.99259116
O 13.12747933 2.53735426 0.64607937
O 3.80280236 13.17248486 4.48510464
O 4.70752896 10.17136873 9.18054573
O 7.98779451 0.85102795 1.32360014
O 7.49742285 8.07770592 6.19445184
O 1.05261829 6.15418533 10.73225655
O 12.26741896 10.64804015 4.67231400
O 8.16851991 7.62181510 1.77175919
O 4.18376591 2.67503327 2.07427997
O 12.20617287 2.70382397 9.37604983
O 0.58833401 11.16948364 2.51244993
O 1.71067066 11.16066860 6.63503869
O 11.18746066 1.73787509 3.03585297
O 8.72905967 13.13943528 3.94314070
O 8.92760747 10.56840374 2.24674238
O 6.34487559 0.29830710 3.67273399
O 5.13521751 8.63438241 7.21494248
O 0.92482235 1.86339659 8.47365015
O 2.90985357 9.67023071 11.56240866
O 2.42968577 5.58884516 4.39386450
O 1.04607200 5.99919737 2.20832345
O 0.76064633 3.87205765 10.48924727
O 11.43456609 7.37009664 11.63457047
O 9.13643419 9.44069551 6.98370983
O 0.45306856 3.12614984 5.46805758
O 12.34354315 11.07605680 7.56252457
O 2.50472288 4.22153752 13.17509770
O 1.93154968 0.58760075 5.55699784
O 2.11778928 8.35676262 9.06106114
O 12.19298372 4.67854616 12.26304485
O 0.57373484 11.42283147 10.32669861
O 7.84376457 5.25163505 1.38318952
O 5.85650565 12.17048919 10.83194328
O 3.60199801 11.80782697 12.70207065
O 8.12850507 3.28574352 2.78206274
O 11.11748415 9.86977432 1.92390800
O 6.23904281 1.27195232 6.83887289
O 7.51535247 9.04758550 10.24817173
O 10.59852574 3.27889376 1.08477145
O 4.99462894 1.73552976 11.29592943
O 10.36913081 7.33580751 5.42662522
O 9.82679435 10.14344746 13.14719457
O 3.70420106 3.16812649 9.06436605
O 5.50574645 6.74215686 1.64175559
O 12.98048054 6.72226593 4.46752927
O 6.64879779 10.35137567 5.17570458
O 10.65885152 3.65133958 7.02947719
O 6.75368659 5.41158033 3.70893216
O 11.10563081 11.93451905 0.90691104
O 3.58075625 8.36033838 1.74262925
O 10.98957852 10.35067876 10.36702767
O 4.24789950 13.04255791 9.01783275
O 7.74728762 12.98168785 11.75637261
O 10.37505740 4.90469375 3.05257417
O 0.62146244 8.47812557 2.74825471
O 9.49055849 12.97872352 9.88214890
O 7.00275076 3.74018473 11.14682003
O 0.75996585 1.90961411 3.04025491
O 12.85170408 9.64348766 12.81247772
O 7.48851072 1.11615540 9.06502973
O 3.29477674 5.87741864 8.88084567
O 6.24552662 2.95547797 8.92993002
O 4.03824522 6.31681971 12.81207444
O 1.05572434 5.24590957 8.15818187
O 2.57016094 12.95464414 2.29742162
O 6.77014401 11.59083248 8.50624194
135
Time=600000.00000594 pbc="T T T" Lattice="13.31093562 0.00000000 0.00000000 0.00000000 13.31093562 0.00000000 0.00000000 0.00000000 13.31093562" energy=-857.73895647 virial="30.35950562 0.63339290 5.62674281 0.63339290 29.97128271 -17.18161719 5.62674281 -17.18161719 -15.57438581" stress="0.03753599 0.00026856 0.00238579 0.00026856 0.03737138 -0.00728515 0.00238579 -0.00728515 0.01805965" Properties=species:S:1:pos:R:3
Ca 7.72706669 3.33586492 0.97354038
Ca 9.46695970 10.60603157 7.01724803
Ca 4.40195084 8.10397952 6.80777485
Ca 8.55417773 5.21035358 2.55706815
Ca 1.08031877 12.65203389 7.59505504
Ca 1.74246717 8.75492916 3.79683254
Ca 3.97640814 3.90302668 1.94935575
Ca 5.61410148 11.77733408 6.56096962
Ca 5.63672927 9.30339620 2.29436228
Ca 3.52413540 8.88880295 12.55297341
Ca 10.62553709 6.57516917 0.92226392
Ca 0.44770746 2.80880480 11.12884670
Ca 6.87886674 8.09345292 11.00391509
Ca 4.57366965 12.34175355 10.46365727
Ca 5.41300442 4.23387685 6.84389220
Ca 2.58462792 1.62840087 8.54765179
Ca 8.51178899 11.82295122 3.34448264
Ca 12.67697040 7.47518481 6.18763740
Ca 0.64249952 7.41710324 11.56061862
Ca 1.13130907 0.83985168 3.30894518
Ca 11.52872238 12.14427345 2.44671956
Ca 13.20906462 4.86851233 3.38476288
Ca 9.59971643 9.93593721 12.13160825
Ca 1.49642618 10.65627358 10.96011987
Ca 10.25251877 1.39209194 6.01059447
Ca 12.03369543 10.50291629 8.64312165
Ca 1.66390292 4.48060204 7.66035530
Si 13.28199731 13.28606806 10.16748876
Si 4.32964700 4.39824466 11.23101132
Si 0.28380442 9.40029076 0.70541741
Si 3.39506406 12.52077693 1.29903423
Si 4.54459117 1.74863222 4.25361535
Si 3.40424586 6.99526465 1.20598111
Si 4.06650394 7.92171156 9.64803928
Si 3.16299267 1.26827842 11.95664760
Si 11.00129015 3.08296885 2.74716008
Si 6.23707109 6.14121429 0.26038104
Si 7.80762861 9.16754259 5.11535969
Si 11.89854374 2.97370850 0.28764820
Si 11.10508874 3.28071126 9.02477875
Si 2.88269177 10.30977717 7.35687939
Si 2.72014875 3.97816357 4.94089590
Si 11.22550213 13.07018355 12.62201805
Si 11.95530437 11.64724810 5.44708876
Si 7.84777695 6.07413524 5.31120206
Si 7.96344107 1.97408784 7.49565316
Si 8.32498506 8.39804146 1.82204609
Si 5.99879942 1.86281417 11.48513470
Si 9.17674296 5.41338070 9.79997301
Si 10.77359928 9.35791680 3.87102254
Si 7.38998421 12.95979286 9.21083782
Si 6.85448357 11.51906595 13.23113338
Si 0.68435716 4.91520810 0.29969404
Si 10.80441566 7.96002060 9.15208547
O 11.92790205 2.47452422 12.09480812
O 12.24703800 4.16797132 9.41425491
O 2.30165529 7.45426044 5.75676532
O 1.62988830 2.88942610 6.78757957
O 7.42863766 9.19957095 3.09279479
O 10.09256364 10.51940344 3.10083620
O 12.77041498 5.49242205 1.44032153
O 3.91734569 7.75756302 2.23887873
O 4.64938758 4.88632769 12.90819823
O 5.75044089 10.70398085 12.54956931
O 5.43602513 2.54247951 5.76325777
O 9.58193706 8.57494351 0.56898280
O 2.73826412 2.33306395 4.29876555
O 8.73541313 0.52393153 9.21740369
O 12.65263411 10.43927762 1.74045686
O 11.41257429 8.13128414 3.26485269
O 6.81994237 0.70446151 7.50648945
O 7.49721676 6.27654480 12.00283701
O 6.41137971 11.42999744 8.52399402
O 12.63458109 8.19252998 0.01609279
O 5.18050479 3.02213291 3.26070488
O 8.48228669 2.12813051 5.97734574
O 6.88484025 8.35878459 5.98686113
O 11.54621012 12.30671166 9.65412750
O 10.75351664 1.89841196 8.09559799
O 10.43795220 8.75940009 7.51616518
O 4.51811646 9.12248989 8.54482035
O 4.75429068 1.11677569 11.96095462