 vasp.5.4.4.18Apr17-6-g9f103f2a35 (build Mar 16 2023 09:39:13) complex          
  
 executed on             LinuxIFC date 2024.04.29  22:58:23
 running on   48 total cores
 distrk:  each k-point on   48 cores,    1 groups
 distr:  one band on NCORES_PER_BAND=  12 cores,    4 groups


--------------------------------------------------------------------------------------------------------


 INCAR:
 POTCAR:    PAW_PBE Ca_sv 06Sep2000               
 POTCAR:    PAW_PBE Si 05Jan2001                  
 POTCAR:    PAW_PBE O 08Apr2002                   
 POTCAR:    PAW_PBE Ca_sv 06Sep2000               
   SHA256 =  a47365830e737f14e0e6c5cf1ed81b94e081eecf0a33df105380881bc9da05d5 Ca
   COPYR  = (c) Copyright 06Sep2000 Georg Kresse                                
   COPYR  = This file is part of the software VASP. Any use, copying, and all ot
   COPYR  = If you do not have a valid VASP license, you may not use, copy or di
   VRHFIN =Ca: 3s3p4s                                                           
   LEXCH  = PE                                                                  
   EATOM  =  1006.0909 eV,   73.9456 Ry                                         
                                                                                
   TITEL  = PAW_PBE Ca_sv 06Sep2000                                             
   LULTRA =        F    use ultrasoft PP ?                                      
   IUNSCR =        1    unscreen: 0-lin 1-nonlin 2-no                           
   RPACOR =    2.000    partial core radius                                     
   POMASS =   40.078; ZVAL   =   10.000    mass and valenz                      
   RCORE  =    2.300    outmost cutoff radius                                   
   RWIGS  =    2.500; RWIGS  =    1.323    wigner-seitz radius (au A)           
   ENMAX  =  266.622; ENMIN  =  199.967 eV                                      
   RCLOC  =    1.808    cutoff for local pot                                    
   LCOR   =        T    correct aug charges                                     
   LPAW   =        T    paw PP                                                  
   EAUG   =  420.852                                                            
   RMAX   =    2.359    core radius for proj-oper                               
   RAUG   =    1.300    factor for augmentation sphere                          
   RDEP   =    2.392    radius for radial grids                                 
   RDEPT  =    1.987    core radius for aug-charge                              
                                                                                
   Atomic configuration                                                         
    7 entries                                                                   
     n  l   j            E        occ.                                          
     1  0  0.50     -3949.1705   2.0000                                         
     2  0  0.50      -414.3434   2.0000                                         
     2  1  1.50      -334.7047   6.0000                                         
     3  0  0.50       -47.0896   2.0000                                         
     4  0  0.50        -3.7663   2.0000                                         
     3  1  1.50       -28.0061   6.0000                                         
     3  2  1.50        -4.0817   0.0000                                         
   Description                                                                  
     l       E           TYP  RCUT    TYP  RCUT                                 
     0    -47.0896403     23  2.300                                             
     0     -3.7663320     23  2.300                                             
     1    -28.0060855     23  2.300                                             
     1      6.8029130     23  2.300                                             
     2     -4.0817478     23  2.300                                             
     2      0.4464412     23  2.300                                             
  local pseudopotential read in
  partial core-charges read in
  partial kinetic energy density read in
  atomic valenz-charges read in
  non local Contribution for L=           0  read in
    real space projection operators read in
  non local Contribution for L=           0  read in
    real space projection operators read in
  non local Contribution for L=           1  read in
    real space projection operators read in
  non local Contribution for L=           1  read in
    real space projection operators read in
  non local Contribution for L=           2  read in
    real space projection operators read in
  non local Contribution for L=           2  read in
    real space projection operators read in
    PAW grid and wavefunctions read in
 
   number of l-projection  operators is LMAX  =           6
   number of lm-projection operators is LMMAX =          18
 
 POTCAR:    PAW_PBE Si 05Jan2001                  
   SHA256 =  79d9987ad8750f624c4d6acb2a16d13abf6a777132adc04dc6c8399be72b42bb Si
   COPYR  = (c) Copyright 05Jan2001 Georg Kresse                                
   COPYR  = This file is part of the software VASP. Any use, copying, and all ot
   COPYR  = If you do not have a valid VASP license, you may not use, copy or di
   VRHFIN =Si: s2p2                                                             
   LEXCH  = PE                                                                  
   EATOM  =   103.0669 eV,    7.5752 Ry                                         
                                                                                
   TITEL  = PAW_PBE Si 05Jan2001                                                
   LULTRA =        F    use ultrasoft PP ?                                      
   IUNSCR =        1    unscreen: 0-lin 1-nonlin 2-no                           
   RPACOR =    1.500    partial core radius                                     
   POMASS =   28.085; ZVAL   =    4.000    mass and valenz                      
   RCORE  =    1.900    outmost cutoff radius                                   
   RWIGS  =    2.480; RWIGS  =    1.312    wigner-seitz radius (au A)           
   ENMAX  =  245.345; ENMIN  =  184.009 eV                                      
   ICORE  =        2    local potential                                         
   LCOR   =        T    correct aug charges                                     
   LPAW   =        T    paw PP                                                  
   EAUG   =  322.069                                                            
   DEXC   =    0.000                                                            
   RMAX   =    1.950    core radius for proj-oper                               
   RAUG   =    1.300    factor for augmentation sphere                          
   RDEP   =    1.993    radius for radial grids                                 
   RDEPT  =    1.837    core radius for aug-charge                              
                                                                                
   Atomic configuration                                                         
    6 entries                                                                   
     n  l   j            E        occ.                                          
     1  0  0.50     -1785.8828   2.0000                                         
     2  0  0.50      -139.4969   2.0000                                         
     2  1  1.50       -95.5546   6.0000                                         
     3  0  0.50       -10.8127   2.0000                                         
     3  1  0.50        -4.0811   2.0000                                         
     3  2  1.50        -4.0817   0.0000                                         
   Description                                                                  
     l       E           TYP  RCUT    TYP  RCUT                                 
     0    -10.8127223     23  1.900                                             
     0     -7.6451159     23  1.900                                             
     1     -4.0811372     23  1.900                                             
     1      2.4879257     23  1.900                                             
     2     -4.0817478      7  1.900                                             
  local pseudopotential read in
  partial core-charges read in
  partial kinetic energy density read in
  atomic valenz-charges read in
  non local Contribution for L=           0  read in
    real space projection operators read in
  non local Contribution for L=           0  read in
    real space projection operators read in
  non local Contribution for L=           1  read in
    real space projection operators read in
  non local Contribution for L=           1  read in
    real space projection operators read in
    PAW grid and wavefunctions read in
 
   number of l-projection  operators is LMAX  =           4
   number of lm-projection operators is LMMAX =           8
 
 POTCAR:    PAW_PBE O 08Apr2002                   
   SHA256 =  818f92134a0a090dccd8ba1447fa70422a3b330e708bb4f08108d8ae51209ddf O/
   COPYR  = (c) Copyright 08Apr2002 Georg Kresse                                
   COPYR  = This file is part of the software VASP. Any use, copying, and all ot
   COPYR  = If you do not have a valid VASP license, you may not use, copy or di
   VRHFIN =O: s2p4                                                              
   LEXCH  = PE                                                                  
   EATOM  =   432.3788 eV,   31.7789 Ry                                         
                                                                                
   TITEL  = PAW_PBE O 08Apr2002                                                 
   LULTRA =        F    use ultrasoft PP ?                                      
   IUNSCR =        1    unscreen: 0-lin 1-nonlin 2-no                           
   RPACOR =    1.200    partial core radius                                     
   POMASS =   16.000; ZVAL   =    6.000    mass and valenz                      
   RCORE  =    1.520    outmost cutoff radius                                   
   RWIGS  =    1.550; RWIGS  =    0.820    wigner-seitz radius (au A)           
   ENMAX  =  400.000; ENMIN  =  300.000 eV                                      
   ICORE  =        2    local potential                                         
   LCOR   =        T    correct aug charges                                     
   LPAW   =        T    paw PP                                                  
   EAUG   =  605.392                                                            
   DEXC   =    0.000                                                            
   RMAX   =    1.553    core radius for proj-oper                               
   RAUG   =    1.300    factor for augmentation sphere                          
   RDEP   =    1.550    radius for radial grids                                 
   RDEPT  =    1.329    core radius for aug-charge                              
                                                                                
   Atomic configuration                                                         
    4 entries                                                                   
     n  l   j            E        occ.                                          
     1  0  0.50      -514.6923   2.0000                                         
     2  0  0.50       -23.9615   2.0000                                         
     2  1  0.50        -9.0305   4.0000                                         
     3  2  1.50        -9.5241   0.0000                                         
   Description                                                                  
     l       E           TYP  RCUT    TYP  RCUT                                 
     0    -23.9615318     23  1.200                                             
     0     -9.5240782     23  1.200                                             
     1     -9.0304911     23  1.520                                             
     1      8.1634956     23  1.520                                             
     2     -9.5240782      7  1.500                                             
  local pseudopotential read in
  partial core-charges read in
  partial kinetic energy density read in
  kinetic energy density of atom read in
  atomic valenz-charges read in
  non local Contribution for L=           0  read in
    real space projection operators read in
  non local Contribution for L=           0  read in
    real space projection operators read in
  non local Contribution for L=           1  read in
    real space projection operators read in
  non local Contribution for L=           1  read in
    real space projection operators read in
    PAW grid and wavefunctions read in
 
   number of l-projection  operators is LMAX  =           4
   number of lm-projection operators is LMMAX =           8
 
 Optimization of the real space projectors (new method)

 maximal supplied QI-value         = 16.25
 optimisation between [QCUT,QGAM] = [ 12.51, 25.03] = [ 43.85,175.40] Ry 
 Optimized for a Real-space Cutoff    1.47 Angstroem

   l    n(q)    QCUT    max X(q) W(low)/X(q) W(high)/X(q)  e(spline) 
   0     11    12.514    11.817    0.25E-04    0.32E-05    0.87E-07
   0     11    12.514     8.461    0.39E-04    0.59E-05    0.18E-06
   1     11    12.514     3.957    0.97E-05    0.57E-05    0.28E-07
   1     11    12.514     4.314    0.42E-04    0.14E-04    0.23E-06
   2     10    12.514    14.565    0.79E-04    0.50E-03    0.16E-05
   2     10    12.514    14.552    0.75E-04    0.48E-03    0.15E-05
 Optimization of the real space projectors (new method)

 maximal supplied QI-value         = 19.84
 optimisation between [QCUT,QGAM] = [ 12.50, 25.00] = [ 43.76,175.03] Ry 
 Optimized for a Real-space Cutoff    1.16 Angstroem

   l    n(q)    QCUT    max X(q) W(low)/X(q) W(high)/X(q)  e(spline) 
   0      9    12.501   159.560    0.10E-03    0.83E-04    0.71E-07
   0      9    12.501   115.863    0.99E-04    0.81E-04    0.70E-07
   1      8    12.501    88.339    0.20E-03    0.25E-03    0.76E-07
   1      8    12.501    48.592    0.20E-03    0.24E-03    0.75E-07
 Optimization of the real space projectors (new method)

 maximal supplied QI-value         = 24.76
 optimisation between [QCUT,QGAM] = [ 12.38, 25.00] = [ 42.90,175.06] Ry 
 Optimized for a Real-space Cutoff    1.16 Angstroem

   l    n(q)    QCUT    max X(q) W(low)/X(q) W(high)/X(q)  e(spline) 
   0      9    12.378    20.381    0.16E-03    0.67E-05    0.31E-06
   0      9    12.378    15.268    0.17E-03    0.81E-05    0.33E-06
   1      8    12.378     5.964    0.20E-03    0.16E-03    0.30E-06
   1      8    12.378     5.382    0.18E-03    0.14E-03    0.26E-06
  PAW_PBE Ca_sv 06Sep2000               :
 energy of atom  1       EATOM=-1006.0909
 kinetic energy error for atom=    0.0012 (will be added to EATOM!!)
  PAW_PBE Si 05Jan2001                  :
 energy of atom  2       EATOM= -103.0669
 kinetic energy error for atom=    0.0003 (will be added to EATOM!!)
  PAW_PBE O 08Apr2002                   :
 energy of atom  3       EATOM= -432.3788
 kinetic energy error for atom=    0.0168 (will be added to EATOM!!)
 
 
 POSCAR: Ca Si  O                                
  positions in direct lattice
  No initial velocities read in
 exchange correlation table for  LEXCH =        8
   RHO(1)=    0.500       N(1)  =     2000
   RHO(2)=  100.500       N(2)  =     4000
 


--------------------------------------------------------------------------------------------------------


 ion  position               nearest neighbor table
   1  0.274  0.672  0.188-  58 2.25 105 2.30 113 2.34 135 2.51 116 2.56
   2  0.669  0.407  0.599-  77 2.32  97 2.36 130 2.57
   3  0.659  0.333  0.222- 117 1.78  11 3.13
   4  0.026  0.791  0.852-  81 2.16  68 2.24  56 2.43  35 3.08  40 3.13
   5  0.398  0.723  0.968- 135 2.19  73 2.43 105 2.50 129 2.55
   6  0.119  0.590  0.474-  63 2.06 119 2.36  93 2.41  29 3.02
   7  0.033  0.016  0.492-  78 1.98 114 2.15  57 2.20 111 2.25  46 2.93  54 3.06
   8  0.023  0.541  0.214- 106 1.92  84 2.28 113 2.38 116 2.51
   9  0.604  0.973  0.836- 107 1.99  61 2.26  73 2.33  52 2.88  15 3.12
  10  0.376  0.953  0.738- 127 2.21 121 2.52 120 2.54  46 3.03  39 3.08
  11  0.622  0.179  0.405- 130 2.11  98 2.24  60 2.37   3 3.13
  12  0.681  0.807  0.406-  96 2.06  99 2.09 131 2.10  91 2.23  30 2.88  53 2.91  45 2.99
  13  0.720  0.602  0.839- 133 2.27  67 2.32  59 2.46  77 2.52
  14  0.175  0.197  0.719-  75 2.15  57 2.43 125 2.44 109 2.54
  15  0.721  0.163  0.927-  70 2.10 104 2.19 124 2.44  61 2.47  51 2.81   9 3.12
  16  0.620  0.979  0.219-  91 2.31  82 2.41 122 2.54  53 3.04  52 3.08
  17  0.410  0.578  0.698- 118 2.08  92 2.10  85 2.50  42 2.96  39 3.10
  18  0.084  0.260  0.990-  62 2.14 125 2.29 108 2.57  37 2.77
  19  0.273  0.185  0.377- 103 2.08  66 2.56
  20  0.947  0.363  0.507-  97 2.18  89 2.26  84 2.38  63 2.51 134 2.53  29 2.88  49 2.96
  21  0.799  0.684  0.093- 128 2.02  80 2.14  52 3.09
  22  0.364  0.736  0.450-  58 2.13 110 2.15  92 2.42 119 2.50
  23  0.328  0.360  0.134-  86 2.35  76 2.42  62 2.45  71 2.55
  24  0.348  0.950  0.223-  90 2.16 105 2.37 110 2.56 122 2.57
  25  0.418  0.291  0.845-  76 2.24  55 2.35  71 2.45  36 2.97  32 3.15
  26  0.904  0.918  0.032-  80 2.14  35 3.04
  27  0.095  0.541  0.738-  63 2.27  68 2.55
  28  0.163  0.550  0.986- 116 1.63 108 1.68  56 1.75 129 1.77  47 2.74
  29  0.898  0.576  0.547-  97 1.63  93 1.70 115 1.70  63 1.73  20 2.88   6 3.02  41 3.03
  30  0.661  0.922  0.596-  65 1.55 101 1.61  94 1.67 107 1.75  41 2.76  12 2.88  42 3.10
  31  0.472  0.987  0.451-  98 1.57 101 1.59 110 1.72 100 1.93  46 3.08
  32  0.467  0.106  0.998- 122 1.59  83 1.62  70 1.64  71 1.81  37 2.69  25 3.15
  33  0.859  0.192  0.339-  60 1.56  89 1.62 126 1.63 114 2.03  53 2.91  49 3.00
  34  0.490  0.568  0.275-  86 1.58 123 1.68  58 1.72  79 1.88  43 2.39 135 2.52  50 2.98
  35  0.068  0.758  0.084- 113 1.54 112 1.58  80 1.62  56 1.86  44 2.88  26 3.04   4 3.08
  36  0.373  0.341  0.626- 109 1.61 102 1.67  55 2.05 118 2.06  25 2.97  50 3.02
  37  0.263  0.145  0.014- 125 1.63  62 1.67  71 1.70  88 1.76  32 2.69  18 2.77
  38  0.527  0.464  0.020-  76 1.55  67 1.74 117 1.85
  39  0.253  0.758  0.677-  85 1.62  68 1.70 121 1.72 127 1.78  10 3.08  17 3.10
  40  0.912  0.968  0.732- 111 1.49  72 1.63  81 1.78  69 2.06  51 2.87  41 2.98   4 3.13
  41  0.825  0.788  0.618- 115 1.45  65 1.54  69 1.57  30 2.76  40 2.98  29 3.03
  42  0.587  0.695  0.611-  92 1.52 133 1.62 131 1.63  94 1.64  17 2.96  30 3.10
  43  0.551  0.731  0.213-  99 1.47  79 1.69  82 1.75 135 1.79  34 2.39
  44  0.225  0.898  0.011- 112 1.65  88 1.70 120 1.76 105 1.76  35 2.88
  45  0.903  0.756  0.364-  95 1.59  96 1.67  87 1.79  93 1.87  53 2.98  12 2.99
  46  0.251  0.980  0.542- 127 1.65  57 1.65 100 1.66  78 1.71   7 2.93  10 3.03  31 3.08
  47  0.954  0.514  0.974- 106 1.54  59 1.65 108 1.79 132 2.00  28 2.74  48 2.95
  48  0.856  0.377  0.820-  74 1.70 132 1.71 104 1.73  77 1.76  51 2.85  47 2.95
  49  0.060  0.305  0.317-  66 1.64 134 1.67  84 1.81 126 1.87  20 2.96  33 3.00
  50  0.460  0.386  0.414- 130 1.65 123 1.67 103 1.72 102 1.73  34 2.98  36 3.02
  51  0.917  0.165  0.833-  75 1.58 124 1.70 104 1.84  72 1.91  15 2.81  48 2.85  40 2.87
  52  0.649  0.854  0.018- 128 1.68  82 1.72  73 1.73  61 1.82   9 2.88  16 3.08  21 3.09
  53  0.821  0.970  0.340-  64 1.57  91 1.67 114 1.70  96 1.76  12 2.91  33 2.91  45 2.98  16 3.04

  54  0.141  0.852  0.360-  87 1.59  90 1.64 119 1.67  78 1.68   7 3.06
  55  0.421  0.203  0.686-  36 2.05  25 2.35
  56  0.103  0.671  0.975-  28 1.75  35 1.86   4 2.43
  57  0.167  0.065  0.586-  46 1.65   7 2.20  14 2.43
  58  0.396  0.655  0.311-  34 1.72  22 2.13   1 2.25
  59  0.904  0.596  0.889-  47 1.65  13 2.46
  60  0.756  0.168  0.281-  33 1.56  11 2.37
  61  0.694  0.983  0.986-  52 1.82   9 2.26  15 2.47
  62  0.203  0.221  0.099-  37 1.67  18 2.14  23 2.45
  63  0.018  0.528  0.581-  29 1.73   6 2.06  27 2.27  20 2.51
  64  0.837  0.940  0.224-  53 1.57
  65  0.773  0.887  0.575-  41 1.54  30 1.55
  66  0.171  0.303  0.255-  49 1.64  19 2.56
  67  0.577  0.557  0.938-  38 1.74  13 2.32
  68  0.159  0.726  0.763-  39 1.70   4 2.24  27 2.55
  69  0.832  0.830  0.731-  41 1.57  40 2.06
  70  0.570  0.179  0.985-  32 1.64  15 2.10
  71  0.376  0.212  0.012-  37 1.70  32 1.81  25 2.45  23 2.55
  72  0.839  0.068  0.754-  40 1.63  51 1.91
  73  0.546  0.834  0.935-  52 1.73   9 2.33   5 2.43
  74  0.983  0.368  0.788-  48 1.70
  75  0.022  0.158  0.770-  51 1.58  14 2.15
  76  0.442  0.386  0.988-  38 1.55  25 2.24  23 2.42
  77  0.779  0.449  0.733-  48 1.76   2 2.32  13 2.52
  78  0.159  0.936  0.458-  54 1.68  46 1.71   7 1.98
  79  0.610  0.615  0.209-  43 1.69  34 1.88
  80  0.943  0.763  0.073-  35 1.62  26 2.14  21 2.14
  81  0.981  0.952  0.850-  40 1.78   4 2.16
  82  0.635  0.810  0.143-  52 1.72  43 1.75  16 2.41
  83  0.424  0.087  0.882-  32 1.62
  84  0.020  0.433  0.353-  49 1.81   8 2.28  20 2.38
  85  0.261  0.657  0.604-  39 1.62  17 2.50
  86  0.444  0.483  0.201-  34 1.58  23 2.35
  87  0.022  0.826  0.371-  54 1.59  45 1.79
  88  0.235  0.020  0.059-  44 1.70  37 1.76
  89  0.822  0.268  0.431-  33 1.62  20 2.26
  90  0.191  0.936  0.279-  54 1.64  24 2.16
  91  0.698  0.976  0.379-  53 1.67  12 2.23  16 2.31
  92  0.470  0.689  0.596-  42 1.52  17 2.10  22 2.42
  93  0.943  0.642  0.442-  29 1.70  45 1.87   6 2.41
  94  0.593  0.819  0.633-  42 1.64  30 1.67
  95  0.855  0.675  0.285-  45 1.59
  96  0.833  0.854  0.411-  45 1.67  53 1.76  12 2.06
  97  0.824  0.476  0.530-  29 1.63  20 2.18   2 2.36
  98  0.502  0.062  0.360-  31 1.57  11 2.24
  99  0.555  0.796  0.306-  43 1.47  12 2.09
 100  0.365  0.040  0.540-  46 1.66  31 1.93
 101  0.564  0.953  0.525-  31 1.59  30 1.61
 102  0.361  0.382  0.503-  36 1.67  50 1.73
 103  0.377  0.304  0.350-  50 1.72  19 2.08
 104  0.807  0.252  0.812-  48 1.73  51 1.84  15 2.19
 105  0.297  0.824  0.100-  44 1.76   1 2.30  24 2.37   5 2.50
 106  0.943  0.545  0.088-  47 1.54   8 1.92
 107  0.617  0.012  0.687-  30 1.75   9 1.99
 108  0.078  0.456  0.959-  28 1.68  47 1.79  18 2.57
 109  0.273  0.365  0.696-  36 1.61  14 2.54
 110  0.383  0.897  0.411-  31 1.72  22 2.15  24 2.56
 111  0.972  0.942  0.637-  40 1.49   7 2.25
 112  0.104  0.862  0.032-  35 1.58  44 1.65
 113  0.097  0.707  0.188-  35 1.54   1 2.34   8 2.38
 114  0.917  0.051  0.379-  53 1.70  33 2.03   7 2.15
 115  0.832  0.677  0.601-  41 1.45  29 1.70
 116  0.183  0.517  0.105-  28 1.63   8 2.51   1 2.56
 117  0.594  0.370  0.106-   3 1.78  38 1.85
 118  0.485  0.436  0.688-  36 2.06  17 2.08
 119  0.184  0.732  0.380-  54 1.67   6 2.36  22 2.50
 120  0.242  0.921  0.878-  44 1.76  10 2.54
 121  0.356  0.761  0.762-  39 1.72  10 2.52
 122  0.474  0.046  0.104-  32 1.59  16 2.54  24 2.57
 123  0.491  0.510  0.391-  50 1.67  34 1.68
 124  0.905  0.146  0.963-  51 1.70  15 2.44
 125  0.216  0.181  0.903-  37 1.63  18 2.29  14 2.44
 126  0.960  0.214  0.266-  33 1.63  49 1.87
 127  0.265  0.886  0.627-  46 1.65  39 1.78  10 2.21
 128  0.757  0.789  0.985-  52 1.68  21 2.02
 129  0.280  0.573  0.920-  28 1.77   5 2.55
 130  0.568  0.327  0.448-  50 1.65  11 2.11   2 2.57
 131  0.673  0.690  0.519-  42 1.63  12 2.10
 132  0.865  0.390  0.951-  48 1.71  47 2.00
 133  0.618  0.609  0.697-  42 1.62  13 2.27
 134  0.087  0.250  0.431-  49 1.67  20 2.53
 135  0.456  0.685  0.122-  43 1.79   5 2.19   1 2.51  34 2.52
 

IMPORTANT INFORMATION: All symmetrisations will be switched off!
NOSYMM: (Re-)initialisation of all symmetry stuff for point group C_1.

 
 

Automatic generation of k-mesh.
 generate k-points for:    2    2    2
Space group operators:
 irot       det(A)        alpha          n_x          n_y          n_z        tau_x        tau_y        tau_z
    1     1.000000     0.000000     1.000000     0.000000     0.000000     0.000000     0.000000     0.000000
 
 Subroutine IBZKPT returns following result:
 ===========================================
 
 Found      8 irreducible k-points:
 
 Following reciprocal coordinates:
            Coordinates               Weight
  0.000000  0.000000  0.000000      1.000000
  0.500000  0.000000  0.000000      1.000000
  0.000000  0.500000  0.000000      1.000000
  0.500000  0.500000  0.000000      1.000000
  0.000000  0.000000  0.500000      1.000000
  0.500000  0.000000  0.500000      1.000000
  0.000000  0.500000  0.500000      1.000000
  0.500000  0.500000  0.500000      1.000000
 
 Following cartesian coordinates:
            Coordinates               Weight
  0.000000  0.000000  0.000000      1.000000
  0.038669  0.000000  0.000000      1.000000
  0.000000  0.038669  0.000000      1.000000
  0.038669  0.038669  0.000000      1.000000
  0.000000  0.000000  0.038669      1.000000
  0.038669  0.000000  0.038669      1.000000
  0.000000  0.038669  0.038669      1.000000
  0.038669  0.038669  0.038669      1.000000
 


--------------------------------------------------------------------------------------------------------




 Dimension of arrays:
   k-points           NKPTS =      8   k-points in BZ     NKDIM =      8   number of bands    NBANDS=    520
   number of dos      NEDOS =    301   number of ions     NIONS =    135
   non local maximal  LDIM  =      6   non local SUM 2l+1 LMDIM =     18
   total plane-waves  NPLWV = ******
   max r-space proj   IRMAX =   7814   max aug-charges    IRDMAX= 222580
   dimension x,y,z NGX =   108 NGY =  108 NGZ =  108
   dimension x,y,z NGXF=   216 NGYF=  216 NGZF=  216
   support grid    NGXF=   432 NGYF=  432 NGZF=  432
   ions per type =              27  27  81
   NGX,Y,Z   is equivalent  to a cutoff of  13.89, 13.89, 13.89 a.u.
   NGXF,Y,Z  is equivalent  to a cutoff of  27.77, 27.77, 27.77 a.u.

 SYSTEM =  unknown system                          
 POSCAR =  Ca Si  O                                

 Startparameter for this run:
   NWRITE =      2    write-flag & timer
   PREC   = a         normal or accurate (medium, high low for compatibility)
   ISTART =      0    job   : 0-new  1-cont  2-samecut
   ICHARG =      2    charge: 1-file 2-atom 10-const
   ISPIN  =      1    spin polarized calculation?
   LNONCOLLINEAR =      F non collinear calculations
   LSORBIT =      F    spin-orbit coupling
   INIWAV =      1    electr: 0-lowe 1-rand  2-diag
   LASPH  =      F    aspherical Exc in radial PAW
   METAGGA=      F    non-selfconsistent MetaGGA calc.

 Electronic Relaxation 1
   ENCUT  =  600.0 eV  44.10 Ry    6.64 a.u.  25.83 25.83 25.83*2*pi/ulx,y,z
   ENINI  =  600.0     initial cutoff
   ENAUG  =  605.4 eV  augmentation charge cutoff
   NELM   =     60;   NELMIN=  2; NELMDL= -5     # of ELM steps 
   EDIFF  = 0.1E-05   stopping-criterion for ELM
   LREAL  =      T    real-space projection
   NLSPLINE    = F    spline interpolate recip. space projectors
   LCOMPAT=      F    compatible to vasp.4.4
   GGA_COMPAT  = T    GGA compatible to vasp.4.4-vasp.4.6
   LMAXPAW     = -100 max onsite density
   LMAXMIX     =    2 max onsite mixed and CHGCAR
   VOSKOWN=      0    Vosko Wilk Nusair interpolation
   ROPT   =   -0.00025  -0.00025  -0.00025
 Ionic relaxation
   EDIFFG = -.1E-01   stopping-criterion for IOM
   NSW    =      1    number of steps for IOM
   NBLOCK =      1;   KBLOCK =      1    inner block; outer block 
   IBRION =     -1    ionic relax: 0-MD 1-quasi-New 2-CG
   NFREE  =      0    steps in history (QN), initial steepest desc. (CG)
   ISIF   =      2    stress and relaxation
   IWAVPR =     10    prediction:  0-non 1-charg 2-wave 3-comb
   ISYM   =      0    0-nonsym 1-usesym 2-fastsym
   LCORR  =      T    Harris-Foulkes like correction to forces

   POTIM  = 1.0000    time-step for ionic-motion
   TEIN   =    0.0    initial temperature
   TEBEG  =    0.0;   TEEND  =   0.0 temperature during run
   SMASS  =  -3.00    Nose mass-parameter (am)
   estimated Nose-frequenzy (Omega)   =  0.10E-29 period in steps =****** mass=  -0.382E-26a.u.
   SCALEE = 1.0000    scale energy and forces
   NPACO  =    256;   APACO  = 16.0  distance and # of slots for P.C.
   PSTRESS=    0.0 pullay stress

  Mass of Ions in am
   POMASS =  40.08 28.09 16.00
  Ionic Valenz
   ZVAL   =  10.00  4.00  6.00
  Atomic Wigner-Seitz radii
   RWIGS  =  -1.00 -1.00 -1.00
  virtual crystal weights 
   VCA    =   1.00  1.00  1.00
   NELECT =     864.0000    total number of electrons
   NUPDOWN=      -1.0000    fix difference up-down

 DOS related values:
   EMIN   =  10.00;   EMAX   =-10.00  energy-range for DOS
   EFERMI =   0.00
   ISMEAR =     0;   SIGMA  =   0.05  broadening in eV -4-tet -1-fermi 0-gaus

 Electronic relaxation 2 (details)
   IALGO  =     38    algorithm
   LDIAG  =      T    sub-space diagonalisation (order eigenvalues)
   LSUBROT=      F    optimize rotation matrix (better conditioning)
   TURBO    =      0    0=normal 1=particle mesh
   IRESTART =      0    0=no restart 2=restart with 2 vectors
   NREBOOT  =      0    no. of reboots
   NMIN     =      0    reboot dimension
   EREF     =   0.00    reference energy to select bands
   IMIX   =      4    mixing-type and parameters
     AMIX     =   0.40;   BMIX     =  1.00
     AMIX_MAG =   1.60;   BMIX_MAG =  1.00
     AMIN     =   0.10
     WC   =   100.;   INIMIX=   1;  MIXPRE=   1;  MAXMIX= -45

 Intra band minimization:
   WEIMIN = 0.0000     energy-eigenvalue tresh-hold
   EBREAK =  0.48E-09  absolut break condition
   DEPER  =   0.30     relativ break condition  

   TIME   =   0.40     timestep for ELM

  volume/ion in A,a.u.               =      16.01       108.07
  Fermi-wavevector in a.u.,A,eV,Ry     =   1.205870  2.278763 19.784524  1.454122
  Thomas-Fermi vector in A             =   2.341553
 
 Write flags
   LWAVE        =      F    write WAVECAR
   LDOWNSAMPLE  =      F    k-point downsampling of WAVECAR
   LCHARG       =      F    write CHGCAR
   LVTOT        =      F    write LOCPOT, total local potential
   LVHAR        =      F    write LOCPOT, Hartree potential only
   LELF         =      F    write electronic localiz. function (ELF)
   LORBIT       =      0    0 simple, 1 ext, 2 COOP (PROOUT), +10 PAW based schemes


 Dipole corrections
   LMONO  =      F    monopole corrections only (constant potential shift)
   LDIPOL =      F    correct potential (dipole corrections)
   IDIPOL =      0    1-x, 2-y, 3-z, 4-all directions 
   EPSILON=  1.0000000 bulk dielectric constant

 Exchange correlation treatment:
   GGA     =    --    GGA type
   LEXCH   =     8    internal setting for exchange type
   VOSKOWN=      0    Vosko Wilk Nusair interpolation
   LHFCALC =     F    Hartree Fock is set to
   LHFONE  =     F    Hartree Fock one center treatment
   AEXX    =    0.0000 exact exchange contribution

 Linear response parameters
   LEPSILON=     F    determine dielectric tensor
   LRPA    =     F    only Hartree local field effects (RPA)
   LNABLA  =     F    use nabla operator in PAW spheres
   LVEL    =     F    velocity operator in full k-point grid
   LINTERFAST=   F  fast interpolation
   KINTER  =     0    interpolate to denser k-point grid
   CSHIFT  =0.1000    complex shift for real part using Kramers Kronig
   OMEGAMAX=  -1.0    maximum frequency
   DEG_THRESHOLD= 0.2000000E-02 threshold for treating states as degnerate
   RTIME   =   -0.100 relaxation time in fs
  (WPLASMAI=    0.000 imaginary part of plasma frequency in eV, 0.658/RTIME)
   DFIELD  = 0.0000000 0.0000000 0.0000000 field for delta impulse in time
 
 Orbital magnetization related:
   ORBITALMAG=     F  switch on orbital magnetization
   LCHIMAG   =     F  perturbation theory with respect to B field
   DQ        =  0.001000  dq finite difference perturbation B field
   LLRAUG    =     F  two centre corrections for induced B field



--------------------------------------------------------------------------------------------------------


 Static calculation
 charge density and potential will be updated during run
 non-spin polarized calculation
 Variant of blocked Davidson
 Davidson routine will perform the subspace rotation
 perform sub-space diagonalisation
    after iterative eigenvector-optimisation
 modified Broyden-mixing scheme, WC =      100.0
 initial mixing is a Kerker type mixing with AMIX =  0.4000 and BMIX =      1.0000
 Hartree-type preconditioning will be used
 using additional bands           88
 real space projection scheme for non local part
 use partial core corrections
 calculate Harris-corrections to forces 
   (improved forces if not selfconsistent)
 use gradient corrections 
 use of overlap-Matrix (Vanderbilt PP)
 Gauss-broadening in eV      SIGMA  =   0.05


--------------------------------------------------------------------------------------------------------


  energy-cutoff  :      600.00
  volume of cell :     2161.91
      direct lattice vectors                 reciprocal lattice vectors
    12.930412990  0.000000000  0.000000000     0.077337050  0.000000000  0.000000000
     0.000000000 12.930412990  0.000000000     0.000000000  0.077337050  0.000000000
     0.000000000  0.000000000 12.930412990     0.000000000  0.000000000  0.077337050

  length of vectors
    12.930412990 12.930412990 12.930412990     0.077337050  0.077337050  0.077337050


 
 k-points in units of 2pi/SCALE and weight: read from INCAR                         
   0.00000000  0.00000000  0.00000000       0.125
   0.03866853  0.00000000  0.00000000       0.125
   0.00000000  0.03866853  0.00000000       0.125
   0.03866853  0.03866853  0.00000000       0.125
   0.00000000  0.00000000  0.03866853       0.125
   0.03866853  0.00000000  0.03866853       0.125
   0.00000000  0.03866853  0.03866853       0.125
   0.03866853  0.03866853  0.03866853       0.125
 
 k-points in reciprocal lattice and weights: read from INCAR                         
   0.00000000  0.00000000  0.00000000       0.125
   0.50000000  0.00000000  0.00000000       0.125
   0.00000000  0.50000000  0.00000000       0.125
   0.50000000  0.50000000  0.00000000       0.125
   0.00000000  0.00000000  0.50000000       0.125
   0.50000000  0.00000000  0.50000000       0.125
   0.00000000  0.50000000  0.50000000       0.125
   0.50000000  0.50000000  0.50000000       0.125
 
 position of ions in fractional coordinates (direct lattice) 
   0.27382214  0.67172286  0.18802516
   0.66884336  0.40689099  0.59874955
   0.65902962  0.33276537  0.22173204
   0.02575047  0.79082370  0.85218140
   0.39796560  0.72334212  0.96826544
   0.11910819  0.58986292  0.47357747
   0.03331234  0.01626320  0.49203538
   0.02320472  0.54076453  0.21377446
   0.60415723  0.97278909  0.83579287
   0.37617206  0.95284591  0.73812876
   0.62150595  0.17918885  0.40533945
   0.68097065  0.80672451  0.40600820
   0.72041911  0.60156691  0.83938701
   0.17487274  0.19683019  0.71946232
   0.72128725  0.16281887  0.92728178
   0.61990332  0.97930428  0.21859786
   0.40960097  0.57779635  0.69778422
   0.08396771  0.25960504  0.99005497
   0.27281796  0.18472543  0.37653000
   0.94701107  0.36301865  0.50711073
   0.79926339  0.68374850  0.09342066
   0.36358909  0.73625224  0.44988211
   0.32766685  0.35950102  0.13407256
   0.34825566  0.94966079  0.22345537
   0.41819444  0.29070693  0.84529041
   0.90443889  0.91805736  0.03186376
   0.09528943  0.54051266  0.73819885
   0.16259167  0.55037513  0.98597504
   0.89816143  0.57615725  0.54742877
   0.66071874  0.92198798  0.59579290
   0.47150989  0.98735058  0.45093390
   0.46651084  0.10641143  0.99754989
   0.85913410  0.19175327  0.33906822
   0.49006259  0.56796151  0.27469068
   0.06842091  0.75805481  0.08384697
   0.37266773  0.34148269  0.62577473
   0.26291735  0.14498424  0.01406721
   0.52673539  0.46369985  0.02034742
   0.25314743  0.75833840  0.67726315
   0.91235542  0.96765648  0.73167775
   0.82478269  0.78767119  0.61751952
   0.58660505  0.69450846  0.61067560
   0.55065781  0.73090326  0.21260670
   0.22524350  0.89826266  0.01123695
   0.90299075  0.75629155  0.36445565
   0.25113679  0.97965088  0.54160970
   0.95373083  0.51443985  0.97385051
   0.85596322  0.37704814  0.82005171
   0.06025474  0.30451756  0.31673191
   0.45990278  0.38642034  0.41379592
   0.91707319  0.16540024  0.83288964
   0.64928411  0.85359315  0.01820335
   0.82079362  0.97014368  0.34045034
   0.14147617  0.85222336  0.36010104
   0.42129911  0.20315425  0.68610071
   0.10293191  0.67109855  0.97496313
   0.16713999  0.06504812  0.58569748
   0.39643752  0.65499548  0.31067989
   0.90421332  0.59563339  0.88929572
   0.75605731  0.16848958  0.28083353
   0.69386946  0.98266889  0.98550364
   0.20269382  0.22092114  0.09907141
   0.01813618  0.52811828  0.58058797
   0.83708018  0.93981082  0.22434573
   0.77318017  0.88655249  0.57541694
   0.17097409  0.30344336  0.25484883
   0.57723072  0.55717292  0.93770636
   0.15873937  0.72553079  0.76282092
   0.83240252  0.83001257  0.73068805
   0.57003160  0.17867887  0.98492984
   0.37628786  0.21207597  0.01232311
   0.83906122  0.06789690  0.75418017
   0.54609690  0.83389972  0.93545841
   0.98301756  0.36816889  0.78791171
   0.02150304  0.15787140  0.76966955
   0.44201424  0.38554842  0.98817970
   0.77947794  0.44904944  0.73326168
   0.15882203  0.93585863  0.45791382
   0.61042180  0.61475926  0.20852927
   0.94337603  0.76297836  0.07332089
   0.98105241  0.95157807  0.85026020
   0.63527563  0.80963919  0.14275586
   0.42360860  0.08714173  0.88180257
   0.02049185  0.43331936  0.35332401
   0.26074497  0.65701542  0.60357729
   0.44390407  0.48257453  0.20062244
   0.02186963  0.82645440  0.37060498
   0.23464685  0.01984434  0.05941888
   0.82176698  0.26760435  0.43103986
   0.19126322  0.93639092  0.27873355
   0.69798611  0.97632392  0.37910393
   0.46999794  0.68874133  0.59601292
   0.94286836  0.64156210  0.44246319
   0.59259012  0.81915302  0.63340912
   0.85521502  0.67495477  0.28543736
   0.83329288  0.85433097  0.41099173
   0.82366080  0.47577203  0.53017544
   0.50210760  0.06196071  0.36020424
   0.55466431  0.79596508  0.30575782
   0.36465394  0.04007181  0.54047175
   0.56367742  0.95269248  0.52466270
   0.36074612  0.38154465  0.50345793
   0.37699780  0.30409043  0.34967045
   0.80701516  0.25247658  0.81162600
   0.29732642  0.82397146  0.09968785
   0.94327452  0.54518643  0.08833565
   0.61697270  0.01203944  0.68740861
   0.07821321  0.45572289  0.95925516
   0.27277710  0.36525801  0.69566542
   0.38260558  0.89677626  0.41099272
   0.97205268  0.94165547  0.63689781
   0.10435161  0.86218008  0.03181320
   0.09652630  0.70748074  0.18815659
   0.91655012  0.05147860  0.37931052
   0.83236629  0.67694323  0.60059564
   0.18292661  0.51676846  0.10543414
   0.59398743  0.37028337  0.10591574
   0.48538636  0.43584043  0.68787450
   0.18381811  0.73213706  0.37963206
   0.24207252  0.92098699  0.87840245
   0.35574947  0.76052993  0.76169387
   0.47439150  0.04552342  0.10380458
   0.49054278  0.50961170  0.39102690
   0.90549138  0.14604459  0.96273428
   0.21637332  0.18105129  0.90260246
   0.95968470  0.21427252  0.26597299
   0.26468371  0.88623861  0.62748335
   0.75719534  0.78868237  0.98511111
   0.27973125  0.57336355  0.91964077
   0.56767474  0.32691476  0.44785073
   0.67270494  0.69023825  0.51892244
   0.86466641  0.38969845  0.95127024
   0.61766513  0.60923878  0.69741115
   0.08699665  0.24969868  0.43058676
   0.45584431  0.68464399  0.12245876
 
 position of ions in cartesian coordinates  (Angst):
   3.54063338  8.68565400  2.43124291
   8.64842091  5.26126849  7.74207890
   8.52152515  4.30279363  2.86708689
   0.33296420 10.22567700 11.01905743
   5.14585952  9.35311231 12.52007206
   1.54011810  7.62717119  6.12355226
   0.43074234  0.21028988  6.36222067
   0.30004659  6.99230873  2.76419211
   7.81200253 12.57856474 10.80714700
   4.86406003 12.32069118  9.54430976
   8.03632864  2.31698577  5.24120654
   8.80523179 10.43128111  5.24985367
   9.31531661  7.77850863 10.85362066
   2.26117679  2.54509569  9.30294490
   9.32654202  2.10531522 11.99013639
   8.01560600 12.66280882  2.82656061
   5.29630968  7.47114544  9.02263816
   1.08573712  3.35680039 12.80181961
   3.52764891  2.38857614  4.86868842
  12.24524422  4.69398104  6.55715122
  10.33480568  8.84115050  1.20796772
   4.70135715  9.52004549  5.81716142
   4.23686767  4.64849667  1.73361363
   4.50308956 12.27950620  2.88937020
   5.40742688  3.75896067 10.92995413
  11.69476836 11.87086085  0.41201164
   1.23213164  6.98905190  9.54521598
   2.10237744  7.11657773 12.74906451
  11.61359816  7.44995114  7.07848010
   8.54336615 11.92168540  7.70384829
   6.09681755 12.76685074  5.83076158
   6.03217779  1.37594375 12.89873210
  11.10895873  2.47944895  4.38429209
   6.33671172  7.34397683  3.55186395
   0.88471064  9.80196175  1.08417592
   4.81874766  4.41551224  8.09152573
   3.39962986  1.87470607  0.18189478
   6.81090616  5.99583058  0.26310050
   3.27330084  9.80562876  8.75729228
  11.79713237 12.51219793  9.46089545
  10.66478083 10.18491373  7.98478246
   7.58504553  8.98028121  7.89628776
   7.12023284  9.45088106  2.74909248
   2.91249146 11.61490719  0.14529840
  11.67604327  9.77916206  4.71256201
   3.24730236 12.66729051  7.00323712
  12.33213347  6.65191976 12.59228934
  11.06795797  4.87538814 10.60360731
   0.77911862  3.93753785  4.09547443
   5.94673286  4.99657464  5.35055210
  11.85813506  2.13869339 10.76960707
   8.39551166 11.03731194  0.23537689
  10.61320051 12.54435843  4.40216352
   1.82934530 11.01959999  4.65625518
   5.44757154  2.62686841  8.87156548
   1.33095209  8.67758146 12.60667588
   2.16118911  0.84109909  7.57331032
   5.12610080  8.46936206  4.01721934
  11.69185169  7.70178571 11.49896092
   9.77613324  2.17863985  3.63129347
   8.97201866 12.70631452 12.74296908
   2.62091486  2.85660157  1.28103425
   0.23450836  6.82878745  7.50724228
  10.82379241 12.15214203  2.90088297
   9.99753897 11.46348982  7.44037866
   2.21076556  3.92364797  3.29530066
   7.46383163  7.20447591 12.12493056
   2.05256564  9.38141269  9.86358958
  10.76330841 10.73240538  9.44809824
   7.37074396  2.31039152 12.73554962
   4.86555746  2.74222993  0.15934286
  10.84940804  0.87793495  9.75186107
   7.06125848 10.78266777 12.09586355
  12.71082301  4.76057578 10.18802385
   0.27804315  2.04134245  9.95214521
   5.71542665  4.98530031 12.77757169
  10.07897168  5.80639465  9.48137636
   2.05363449 12.10103856  5.92101477
   7.89300601  7.94909111  2.69636955
  12.19824163  9.86562536  0.94806938
  12.68541288 12.30429738 10.99421555
   8.21437630 10.46896910  1.84589226
   5.47743418  1.12677856 11.40207138
   0.26496802  5.60299830  4.56862535
   3.37154015  8.49548066  7.80450365
   5.73986295  6.23988791  2.59413095
   0.28278329 10.68639666  4.79207544
   3.03408071  0.25659554  0.76831069
  10.62578649  3.46023477  5.57352340
   2.47311248 12.10792137  3.60413993
   9.02524870 12.62427153  4.90197038
   6.07726744  8.90570989  7.70669320
  12.19167732  8.29566287  5.72123180
   7.66243504 10.59198681  8.19024156
  11.05828345  8.72744394  3.69082298
  10.77482105 11.04685229  5.31429280
  10.65027427  6.15192890  6.85538741
   6.49245857  0.80117761  4.65758955
   7.17203854 10.29215726  3.95357487
   4.71512598  0.51814507  6.98852288
   7.28858187 12.31870724  6.78410535
   4.66459635  4.93352984  6.50991902
   4.87473726  3.93201491  4.52138330
  10.43503937  3.26462642 10.49465931
   3.84455346 10.65429133  1.28900505
  12.19692908  7.04948565  1.14221641
   7.97771175  0.15567493  8.88847719
   1.01132917  5.89268512 12.40356540
   3.52712051  4.72293691  8.99524119
   4.94724811 11.59568739  5.31430562
  12.56904262 12.17599406  8.23535178
   1.34930935 11.14834445  0.41135787
   1.24812494  9.14801812  2.43294239
  11.85137160  0.66563958  4.90464173
  10.76283985  8.75315549  7.76594968
   2.36531657  6.68202962  1.36330696
   7.68050279  4.78791695  1.36953424
   6.27624615  5.63559678  8.89450134
   2.37684411  9.46683454  4.90879935
   3.13009772 11.90874211 11.35810648
   4.59998763  9.83396605  9.84901627
   6.13407805  0.58863656  1.34223608
   6.34292070  6.58948972  5.05613932
  11.70837747  1.88841683 12.44855180
   2.79779639  2.34106801 11.67102257
  12.40911953  2.77063216  3.43914055
   3.42246962 11.45943127  8.11361882
   9.79084841 10.19798881 12.73789345
   3.61704065  7.41382751 11.89133502
   7.34026886  4.22714288  5.79089496
   8.69835264  8.92506561  6.70988144
  11.18049384  5.03896184 12.30031702
   7.98666520  7.87770903  9.01781420
   1.12490263  3.22870703  5.56766459
   5.89425518  8.85272957  1.58344239
 


--------------------------------------------------------------------------------------------------------


 k-point  1 :   0.0000 0.0000 0.0000  plane waves:   72359
 k-point  2 :   0.5000 0.0000 0.0000  plane waves:   72020
 k-point  3 :   0.0000 0.5000 0.0000  plane waves:   72020
 k-point  4 :   0.5000 0.5000 0.0000  plane waves:   72184
 k-point  5 :   0.0000 0.0000 0.5000  plane waves:   72020
 k-point  6 :   0.5000 0.0000 0.5000  plane waves:   72184
 k-point  7 :   0.0000 0.5000 0.5000  plane waves:   72184
 k-point  8 :   0.5000 0.5000 0.5000  plane waves:   72264

 maximum and minimum number of plane-waves per node :      6071     5950

 maximum number of plane-waves:     72359
 maximum index in each direction: 
   IXMAX=   25   IYMAX=   25   IZMAX=   25
   IXMIN=  -26   IYMIN=  -26   IZMIN=  -26


 real space projection operators:
  total allocation   :      53634.70 KBytes
  max/ min on nodes  :       4586.89       4380.47


 parallel 3D FFT for wavefunctions:
    minimum data exchange during FFTs selected (reduces bandwidth)
 parallel 3D FFT for charge:
    minimum data exchange during FFTs selected (reduces bandwidth)


 total amount of memory used by VASP MPI-rank0   209755. kBytes
=======================================================================

   base      :      30000. kBytes
   nonlr-proj:      23520. kBytes
   fftplans  :      34299. kBytes
   grid      :      19248. kBytes
   one-center:        186. kBytes
   wavefun   :     102502. kBytes
 
     INWAV:  cpu time    0.0001: real time    0.0001
 Broyden mixing: mesh for mixing (old mesh)
   NGX = 51   NGY = 51   NGZ = 51
  (NGX  =216   NGY  =216   NGZ  =216)
  gives a total of 132651 points

 initial charge density was supplied:
 charge density of overlapping atoms calculated
 number of electron     864.0000000 magnetization 
 keeping initial charge density in first step


--------------------------------------------------------------------------------------------------------


 Maximum index for non-local projection operator          707
 Maximum index for augmentation-charges         5083 (set IRDMAX)


--------------------------------------------------------------------------------------------------------


 First call to EWALD:  gamma=   0.137
 Maximum number of real-space cells 3x 3x 3
 Maximum number of reciprocal cells 3x 3x 3

    FEWALD:  cpu time    0.0193: real time    0.0295


--------------------------------------- Iteration      1(   1)  ---------------------------------------


    POTLOK:  cpu time    0.1730: real time    0.1803
    SETDIJ:  cpu time    0.3426: real time    0.3498
     EDDAV:  cpu time   48.8444: real time   50.1202
       DOS:  cpu time    0.0024: real time    0.0024
    --------------------------------------------
      LOOP:  cpu time   49.3625: real time   50.6527

 eigenvalue-minimisations  :  8320
 total energy-change (2. order) : 0.9339213E+04  (-0.4674395E+05)
 number of electron     864.0000000 magnetization 
 augmentation part      864.0000000 magnetization 

 Free energy of the ion-electron system (eV)
  ---------------------------------------------------
  alpha Z        PSCENC =      2210.34415451
  Ewald energy   TEWEN  =    -38583.14127409
  -Hartree energ DENC   =    -22867.63016037
  -exchange      EXHF   =         0.00000000
  -V(xc)+E(xc)   XCENC  =      3140.38738477
  PAW double counting   =     50594.51003143   -49994.65612350
  entropy T*S    EENTRO =        -0.03359123
  eigenvalues    EBANDS =      -129.10727232
  atomic energy  EATOM  =     64968.54023382
  Solvation  Ediel_sol  =         0.00000000
  ---------------------------------------------------
  free energy    TOTEN  =      9339.21338303 eV

  energy without entropy =     9339.24697426  energy(sigma->0) =     9339.23017865


--------------------------------------------------------------------------------------------------------




--------------------------------------- Iteration      1(   2)  ---------------------------------------


     EDDAV:  cpu time   66.9192: real time   68.9478
       DOS:  cpu time    0.0010: real time    0.0010
    --------------------------------------------
      LOOP:  cpu time   66.9202: real time   68.9488

 eigenvalue-minimisations  : 10120
 total energy-change (2. order) :-0.9358825E+04  (-0.9083797E+04)
 number of electron     864.0000000 magnetization 
 augmentation part      864.0000000 magnetization 

 Free energy of the ion-electron system (eV)
  ---------------------------------------------------
  alpha Z        PSCENC =      2210.34415451
  Ewald energy   TEWEN  =    -38583.14127409
  -Hartree energ DENC   =    -22867.63016037
  -exchange      EXHF   =         0.00000000
  -V(xc)+E(xc)   XCENC  =      3140.38738477
  PAW double counting   =     50594.51003143   -49994.65612350
  entropy T*S    EENTRO =        -0.00000000
  eigenvalues    EBANDS =     -9487.96629144
  atomic energy  EATOM  =     64968.54023382
  Solvation  Ediel_sol  =         0.00000000
  ---------------------------------------------------
  free energy    TOTEN  =       -19.61204487 eV

  energy without entropy =      -19.61204487  energy(sigma->0) =      -19.61204487


--------------------------------------------------------------------------------------------------------




--------------------------------------- Iteration      1(   3)  ---------------------------------------


     EDDAV:  cpu time   58.5035: real time   58.7449
       DOS:  cpu time    0.0010: real time    0.0013
    --------------------------------------------
      LOOP:  cpu time   58.5045: real time   58.7462

 eigenvalue-minimisations  : 10248
 total energy-change (2. order) :-0.1015891E+04  (-0.1010116E+04)
 number of electron     864.0000000 magnetization 
 augmentation part      864.0000000 magnetization 

 Free energy of the ion-electron system (eV)
  ---------------------------------------------------
  alpha Z        PSCENC =      2210.34415451
  Ewald energy   TEWEN  =    -38583.14127409
  -Hartree energ DENC   =    -22867.63016037
  -exchange      EXHF   =         0.00000000
  -V(xc)+E(xc)   XCENC  =      3140.38738477
  PAW double counting   =     50594.51003143   -49994.65612350
  entropy T*S    EENTRO =        -0.00000000
  eigenvalues    EBANDS =    -10503.85681848
  atomic energy  EATOM  =     64968.54023382
  Solvation  Ediel_sol  =         0.00000000
  ---------------------------------------------------
  free energy    TOTEN  =     -1035.50257191 eV

  energy without entropy =    -1035.50257191  energy(sigma->0) =    -1035.50257191


--------------------------------------------------------------------------------------------------------




--------------------------------------- Iteration      1(   4)  ---------------------------------------


     EDDAV:  cpu time   62.4127: real time   62.8264
       DOS:  cpu time    0.0010: real time    0.0010
    --------------------------------------------
      LOOP:  cpu time   62.4137: real time   62.8274

 eigenvalue-minimisations  : 11016
 total energy-change (2. order) :-0.4667901E+02  (-0.4650551E+02)
 number of electron     864.0000000 magnetization 
 augmentation part      864.0000000 magnetization 

 Free energy of the ion-electron system (eV)
  ---------------------------------------------------
  alpha Z        PSCENC =      2210.34415451
  Ewald energy   TEWEN  =    -38583.14127409
  -Hartree energ DENC   =    -22867.63016037
  -exchange      EXHF   =         0.00000000
  -V(xc)+E(xc)   XCENC  =      3140.38738477
  PAW double counting   =     50594.51003143   -49994.65612350
  entropy T*S    EENTRO =        -0.00000000
  eigenvalues    EBANDS =    -10550.53583009
  atomic energy  EATOM  =     64968.54023382
  Solvation  Ediel_sol  =         0.00000000
  ---------------------------------------------------
  free energy    TOTEN  =     -1082.18158351 eV

  energy without entropy =    -1082.18158351  energy(sigma->0) =    -1082.18158351


--------------------------------------------------------------------------------------------------------




--------------------------------------- Iteration      1(   5)  ---------------------------------------


     EDDAV:  cpu time   81.8750: real time   82.3159
       DOS:  cpu time    0.0012: real time    0.0012
    CHARGE:  cpu time    2.4773: real time    2.4897
    MIXING:  cpu time    0.0071: real time    0.0073
    --------------------------------------------
      LOOP:  cpu time   84.3608: real time   84.8141

 eigenvalue-minimisations  : 15136
 total energy-change (2. order) :-0.6207886E+01  (-0.6204964E+01)
 number of electron     864.0000007 magnetization 
 augmentation part      133.8194173 magnetization 

 Broyden mixing:
  rms(total) = 0.84984E+01    rms(broyden)= 0.84975E+01
  rms(prec ) = 0.99664E+01
  weight for this iteration     100.00

 Free energy of the ion-electron system (eV)
  ---------------------------------------------------
  alpha Z        PSCENC =      2210.34415451
  Ewald energy   TEWEN  =    -38583.14127409
  -Hartree energ DENC   =    -22867.63016037
  -exchange      EXHF   =         0.00000000
  -V(xc)+E(xc)   XCENC  =      3140.38738477
  PAW double counting   =     50594.51003143   -49994.65612350
  entropy T*S    EENTRO =        -0.00000000
  eigenvalues    EBANDS =    -10556.74371572
  atomic energy  EATOM  =     64968.54023382
  Solvation  Ediel_sol  =         0.00000000
  ---------------------------------------------------
  free energy    TOTEN  =     -1088.38946914 eV

  energy without entropy =    -1088.38946914  energy(sigma->0) =    -1088.38946914


--------------------------------------------------------------------------------------------------------




--------------------------------------- Iteration      1(   6)  ---------------------------------------


    POTLOK:  cpu time    0.1765: real time    0.1827
    SETDIJ:  cpu time    0.3574: real time    0.3583
     EDDAV:  cpu time   59.1586: real time   59.4145
       DOS:  cpu time    0.0010: real time    0.0010
    CHARGE:  cpu time    2.4492: real time    2.4578
    MIXING:  cpu time    0.0070: real time    0.0071
    --------------------------------------------
      LOOP:  cpu time   62.1496: real time   62.4212

 eigenvalue-minimisations  : 10288
 total energy-change (2. order) : 0.1564803E+03  (-0.7703024E+02)
 number of electron     864.0000006 magnetization 
 augmentation part      119.5680259 magnetization 

 Broyden mixing:
  rms(total) = 0.36303E+01    rms(broyden)= 0.36288E+01
  rms(prec ) = 0.38521E+01
  weight for this iteration     100.00

 eigenvalues of (default mixing * dielectric matrix)
  average eigenvalue GAMMA=   0.9735
  0.9735

 Free energy of the ion-electron system (eV)
  ---------------------------------------------------
  alpha Z        PSCENC =      2210.34415451
  Ewald energy   TEWEN  =    -38583.14127409
  -Hartree energ DENC   =    -24399.97243114
  -exchange      EXHF   =         0.00000000
  -V(xc)+E(xc)   XCENC  =      3238.99157338
  PAW double counting   =     64700.61560470   -64244.27492150
  entropy T*S    EENTRO =        -0.00000000
  eigenvalues    EBANDS =     -8823.01209483
  atomic energy  EATOM  =     64968.54023382
  Solvation  Ediel_sol  =         0.00000000
  ---------------------------------------------------
  free energy    TOTEN  =      -931.90915514 eV

  energy without entropy =     -931.90915514  energy(sigma->0) =     -931.90915514


--------------------------------------------------------------------------------------------------------




--------------------------------------- Iteration      1(   7)  ---------------------------------------


    POTLOK:  cpu time    0.1696: real time    0.1751
    SETDIJ:  cpu time    0.3449: real time    0.3457
     EDDAV:  cpu time   62.7587: real time   63.1385
       DOS:  cpu time    0.0011: real time    0.0011
    CHARGE:  cpu time    2.4274: real time    2.4346
    MIXING:  cpu time    0.0073: real time    0.0073
    --------------------------------------------
      LOOP:  cpu time   65.7089: real time   66.1022

 eigenvalue-minimisations  : 11128
 total energy-change (2. order) :-0.1161315E+01  (-0.7352942E+01)
 number of electron     864.0000006 magnetization 
 augmentation part      119.0509060 magnetization 

 Broyden mixing:
  rms(total) = 0.18451E+01    rms(broyden)= 0.18451E+01
  rms(prec ) = 0.20234E+01
  weight for this iteration     100.00

 eigenvalues of (default mixing * dielectric matrix)
  average eigenvalue GAMMA=   1.2071
  1.2071  1.2071

 Free energy of the ion-electron system (eV)
  ---------------------------------------------------
  alpha Z        PSCENC =      2210.34415451
  Ewald energy   TEWEN  =    -38583.14127409
  -Hartree energ DENC   =    -24474.02409288
  -exchange      EXHF   =         0.00000000
  -V(xc)+E(xc)   XCENC  =      3240.66848446
  PAW double counting   =     75935.48173280   -75534.03214561
  entropy T*S    EENTRO =        -0.00000000
  eigenvalues    EBANDS =     -8696.90756344
  atomic energy  EATOM  =     64968.54023382
  Solvation  Ediel_sol  =         0.00000000
  ---------------------------------------------------
  free energy    TOTEN  =      -933.07047042 eV

  energy without entropy =     -933.07047042  energy(sigma->0) =     -933.07047042


--------------------------------------------------------------------------------------------------------




--------------------------------------- Iteration      1(   8)  ---------------------------------------


    POTLOK:  cpu time    0.1763: real time    0.1773
    SETDIJ:  cpu time    0.3455: real time    0.3463
     EDDAV:  cpu time   59.7143: real time   60.1193
       DOS:  cpu time    0.0011: real time    0.0011
    CHARGE:  cpu time    2.4953: real time    2.5226
    MIXING:  cpu time    0.0072: real time    0.0072
    --------------------------------------------
      LOOP:  cpu time   62.7398: real time   63.1739

 eigenvalue-minimisations  : 10424
 total energy-change (2. order) : 0.1701314E+01  (-0.1141885E+01)
 number of electron     864.0000006 magnetization 
 augmentation part      119.3907674 magnetization 

 Broyden mixing:
  rms(total) = 0.76190E+00    rms(broyden)= 0.76178E+00
  rms(prec ) = 0.89112E+00
  weight for this iteration     100.00

 eigenvalues of (default mixing * dielectric matrix)
  average eigenvalue GAMMA=   1.3252
  2.1089  0.9334  0.9334

 Free energy of the ion-electron system (eV)
  ---------------------------------------------------
  alpha Z        PSCENC =      2210.34415451
  Ewald energy   TEWEN  =    -38583.14127409
  -Hartree energ DENC   =    -24512.08765549
  -exchange      EXHF   =         0.00000000
  -V(xc)+E(xc)   XCENC  =      3240.34326810
  PAW double counting   =     83186.05766547   -82827.95984015
  entropy T*S    EENTRO =        -0.00000000
  eigenvalues    EBANDS =     -8613.46570880
  atomic energy  EATOM  =     64968.54023382
  Solvation  Ediel_sol  =         0.00000000
  ---------------------------------------------------
  free energy    TOTEN  =      -931.36915662 eV

  energy without entropy =     -931.36915662  energy(sigma->0) =     -931.36915662


--------------------------------------------------------------------------------------------------------




--------------------------------------- Iteration      1(   9)  ---------------------------------------


    POTLOK:  cpu time    0.1730: real time    0.1740
    SETDIJ:  cpu time    0.3442: real time    0.3453
     EDDAV:  cpu time   61.9560: real time   62.5750
       DOS:  cpu time    0.0010: real time    0.0010
    CHARGE:  cpu time    2.4368: real time    2.4615
    MIXING:  cpu time    0.0072: real time    0.0072
    --------------------------------------------
      LOOP:  cpu time   64.9182: real time   65.5641

 eigenvalue-minimisations  : 10944
 total energy-change (2. order) : 0.3687126E+00  (-0.2647392E+00)
 number of electron     864.0000006 magnetization 
 augmentation part      118.7803578 magnetization 

 Broyden mixing:
  rms(total) = 0.22948E+00    rms(broyden)= 0.22945E+00
  rms(prec ) = 0.28937E+00
  weight for this iteration     100.00

 eigenvalues of (default mixing * dielectric matrix)
  average eigenvalue GAMMA=   1.3241
  2.3417  1.1333  0.9106  0.9106

 Free energy of the ion-electron system (eV)
  ---------------------------------------------------
  alpha Z        PSCENC =      2210.34415451
  Ewald energy   TEWEN  =    -38583.14127409
  -Hartree energ DENC   =    -24620.93727159
  -exchange      EXHF   =         0.00000000
  -V(xc)+E(xc)   XCENC  =      3245.92943555
  PAW double counting   =     88677.30841002   -88346.00957004
  entropy T*S    EENTRO =        -0.00000000
  eigenvalues    EBANDS =     -8483.03456217
  atomic energy  EATOM  =     64968.54023382
  Solvation  Ediel_sol  =         0.00000000
  ---------------------------------------------------
  free energy    TOTEN  =      -931.00044398 eV

  energy without entropy =     -931.00044398  energy(sigma->0) =     -931.00044398


--------------------------------------------------------------------------------------------------------




--------------------------------------- Iteration      1(  10)  ---------------------------------------


    POTLOK:  cpu time    0.1722: real time    0.1785
    SETDIJ:  cpu time    0.3632: real time    0.3644
     EDDAV:  cpu time   68.0191: real time   68.7025
       DOS:  cpu time    0.0010: real time    0.0010
    CHARGE:  cpu time    2.4514: real time    2.4698
    MIXING:  cpu time    0.0067: real time    0.0068
    --------------------------------------------
      LOOP:  cpu time   71.0135: real time   71.7229

 eigenvalue-minimisations  : 12336
 total energy-change (2. order) :-0.1227764E+00  (-0.1067915E+00)
 number of electron     864.0000006 magnetization 
 augmentation part      118.6285477 magnetization 

 Broyden mixing:
  rms(total) = 0.13440E+00    rms(broyden)= 0.13436E+00
  rms(prec ) = 0.16863E+00
  weight for this iteration     100.00

 eigenvalues of (default mixing * dielectric matrix)
  average eigenvalue GAMMA=   1.2355
  2.4174  1.1733  0.9496  0.8185  0.8185

 Free energy of the ion-electron system (eV)
  ---------------------------------------------------
  alpha Z        PSCENC =      2210.34415451
  Ewald energy   TEWEN  =    -38583.14127409
  -Hartree energ DENC   =    -24652.00694617
  -exchange      EXHF   =         0.00000000
  -V(xc)+E(xc)   XCENC  =      3247.22010710
  PAW double counting   =     89733.24713082   -89405.56469436
  entropy T*S    EENTRO =        -0.00000000
  eigenvalues    EBANDS =     -8449.76193205
  atomic energy  EATOM  =     64968.54023382
  Solvation  Ediel_sol  =         0.00000000
  ---------------------------------------------------
  free energy    TOTEN  =      -931.12322042 eV

  energy without entropy =     -931.12322042  energy(sigma->0) =     -931.12322042


--------------------------------------------------------------------------------------------------------




--------------------------------------- Iteration      1(  11)  ---------------------------------------


    POTLOK:  cpu time    0.1709: real time    0.1772
    SETDIJ:  cpu time    0.3374: real time    0.3466
     EDDAV:  cpu time   63.4348: real time   64.0236
       DOS:  cpu time    0.0010: real time    0.0010
    CHARGE:  cpu time    2.4704: real time    2.4892
    MIXING:  cpu time    0.0078: real time    0.0078
    --------------------------------------------
      LOOP:  cpu time   66.4224: real time   67.0455

 eigenvalue-minimisations  : 11280
 total energy-change (2. order) :-0.2791767E-01  (-0.1362251E-01)
 number of electron     864.0000006 magnetization 
 augmentation part      118.6102533 magnetization 

 Broyden mixing:
  rms(total) = 0.78150E-01    rms(broyden)= 0.78146E-01
  rms(prec ) = 0.10337E+00
  weight for this iteration     100.00

 eigenvalues of (default mixing * dielectric matrix)
  average eigenvalue GAMMA=   1.2856
  2.5021  1.6049  0.9238  0.9238  0.8794  0.8794

 Free energy of the ion-electron system (eV)
  ---------------------------------------------------
  alpha Z        PSCENC =      2210.34415451
  Ewald energy   TEWEN  =    -38583.14127409
  -Hartree energ DENC   =    -24664.52281110
  -exchange      EXHF   =         0.00000000
  -V(xc)+E(xc)   XCENC  =      3247.72106360
  PAW double counting   =     89786.51156677   -89458.15311731
  entropy T*S    EENTRO =        -0.00000000
  eigenvalues    EBANDS =     -8438.45095430
  atomic energy  EATOM  =     64968.54023382
  Solvation  Ediel_sol  =         0.00000000
  ---------------------------------------------------
  free energy    TOTEN  =      -931.15113809 eV

  energy without entropy =     -931.15113809  energy(sigma->0) =     -931.15113809


--------------------------------------------------------------------------------------------------------




--------------------------------------- Iteration      1(  12)  ---------------------------------------


    POTLOK:  cpu time    0.1780: real time    0.1789
    SETDIJ:  cpu time    0.3384: real time    0.3466
     EDDAV:  cpu time   57.4234: real time   57.9771
       DOS:  cpu time    0.0011: real time    0.0011
    CHARGE:  cpu time    2.4470: real time    2.4728
    MIXING:  cpu time    0.0070: real time    0.0070
    --------------------------------------------
      LOOP:  cpu time   60.3949: real time   60.9836

 eigenvalue-minimisations  :  9864
 total energy-change (2. order) :-0.2924230E-01  (-0.5969841E-02)
 number of electron     864.0000006 magnetization 
 augmentation part      118.5916924 magnetization 

 Broyden mixing:
  rms(total) = 0.35224E-01    rms(broyden)= 0.35216E-01
  rms(prec ) = 0.52312E-01
  weight for this iteration     100.00

 eigenvalues of (default mixing * dielectric matrix)
  average eigenvalue GAMMA=   1.3470
  2.4988  2.4988  1.0038  1.0038  0.8303  0.8303  0.7630

 Free energy of the ion-electron system (eV)
  ---------------------------------------------------
  alpha Z        PSCENC =      2210.34415451
  Ewald energy   TEWEN  =    -38583.14127409
  -Hartree energ DENC   =    -24677.87420193
  -exchange      EXHF   =         0.00000000
  -V(xc)+E(xc)   XCENC  =      3248.16618425
  PAW double counting   =     89716.82932819   -89386.66509857
  entropy T*S    EENTRO =        -0.00000000
  eigenvalues    EBANDS =     -8427.37970657
  atomic energy  EATOM  =     64968.54023382
  Solvation  Ediel_sol  =         0.00000000
  ---------------------------------------------------
  free energy    TOTEN  =      -931.18038039 eV

  energy without entropy =     -931.18038039  energy(sigma->0) =     -931.18038039


--------------------------------------------------------------------------------------------------------




--------------------------------------- Iteration      1(  13)  ---------------------------------------


    POTLOK:  cpu time    0.1719: real time    0.1776
    SETDIJ:  cpu time    0.3510: real time    0.3519
     EDDAV:  cpu time   63.0503: real time   63.6316
       DOS:  cpu time    0.0011: real time    0.0011
    CHARGE:  cpu time    2.4216: real time    2.4392
    MIXING:  cpu time    0.0081: real time    0.0081
    --------------------------------------------
      LOOP:  cpu time   66.0040: real time   66.6094

 eigenvalue-minimisations  : 11184
 total energy-change (2. order) :-0.1075615E-01  (-0.2231577E-02)
 number of electron     864.0000006 magnetization 
 augmentation part      118.6030655 magnetization 

 Broyden mixing:
  rms(total) = 0.20952E-01    rms(broyden)= 0.20949E-01
  rms(prec ) = 0.29614E-01
  weight for this iteration     100.00

 eigenvalues of (default mixing * dielectric matrix)
  average eigenvalue GAMMA=   1.3360
  2.8258  2.4510  0.8920  0.8920  0.9873  0.9254  0.9254  0.7894

 Free energy of the ion-electron system (eV)
  ---------------------------------------------------
  alpha Z        PSCENC =      2210.34415451
  Ewald energy   TEWEN  =    -38583.14127409
  -Hartree energ DENC   =    -24684.96544437
  -exchange      EXHF   =         0.00000000
  -V(xc)+E(xc)   XCENC  =      3248.31077662
  PAW double counting   =     89537.13484302   -89205.26848731
  entropy T*S    EENTRO =        -0.00000000
  eigenvalues    EBANDS =     -8422.14593875
  atomic energy  EATOM  =     64968.54023382
  Solvation  Ediel_sol  =         0.00000000
  ---------------------------------------------------
  free energy    TOTEN  =      -931.19113655 eV

  energy without entropy =     -931.19113655  energy(sigma->0) =     -931.19113655


--------------------------------------------------------------------------------------------------------




--------------------------------------- Iteration      1(  14)  ---------------------------------------


    POTLOK:  cpu time    0.1707: real time    0.1770
    SETDIJ:  cpu time    0.3376: real time    0.3455
     EDDAV:  cpu time   63.5740: real time   64.1586
       DOS:  cpu time    0.0010: real time    0.0010
    CHARGE:  cpu time    2.4063: real time    2.4533
    MIXING:  cpu time    0.0086: real time    0.0086
    --------------------------------------------
      LOOP:  cpu time   66.4982: real time   67.1440

 eigenvalue-minimisations  : 11352
 total energy-change (2. order) :-0.1550640E-02  (-0.1192998E-02)
 number of electron     864.0000006 magnetization 
 augmentation part      118.5993187 magnetization 

 Broyden mixing:
  rms(total) = 0.13976E-01    rms(broyden)= 0.13972E-01
  rms(prec ) = 0.18597E-01
  weight for this iteration     100.00

 eigenvalues of (default mixing * dielectric matrix)
  average eigenvalue GAMMA=   1.2939
  2.8476  2.4842  1.0418  1.0418  0.9122  0.9122  0.7961  0.8044  0.8044

 Free energy of the ion-electron system (eV)
  ---------------------------------------------------
  alpha Z        PSCENC =      2210.34415451
  Ewald energy   TEWEN  =    -38583.14127409
  -Hartree energ DENC   =    -24688.52853450
  -exchange      EXHF   =         0.00000000
  -V(xc)+E(xc)   XCENC  =      3248.42193589
  PAW double counting   =     89510.32242836   -89178.22918694
  entropy T*S    EENTRO =        -0.00000000
  eigenvalues    EBANDS =     -8418.92244424
  atomic energy  EATOM  =     64968.54023382
  Solvation  Ediel_sol  =         0.00000000
  ---------------------------------------------------
  free energy    TOTEN  =      -931.19268719 eV

  energy without entropy =     -931.19268719  energy(sigma->0) =     -931.19268719


--------------------------------------------------------------------------------------------------------




--------------------------------------- Iteration      1(  15)  ---------------------------------------


    POTLOK:  cpu time    0.1733: real time    0.1797
    SETDIJ:  cpu time    0.3461: real time    0.3543
     EDDAV:  cpu time   59.7361: real time   60.2832
       DOS:  cpu time    0.0009: real time    0.0009
    CHARGE:  cpu time    2.5024: real time    2.5195
    MIXING:  cpu time    0.0091: real time    0.0091
    --------------------------------------------
      LOOP:  cpu time   62.7679: real time   63.3468

 eigenvalue-minimisations  : 10480
 total energy-change (2. order) :-0.1884003E-03  (-0.2253002E-03)
 number of electron     864.0000006 magnetization 
 augmentation part      118.6044514 magnetization 

 Broyden mixing:
  rms(total) = 0.74971E-02    rms(broyden)= 0.74957E-02
  rms(prec ) = 0.11380E-01
  weight for this iteration     100.00

 eigenvalues of (default mixing * dielectric matrix)
  average eigenvalue GAMMA=   1.3797
  3.1929  2.2690  2.0757  0.9010  0.9010  1.0008  1.0008  0.7888  0.8335  0.8335

 Free energy of the ion-electron system (eV)
  ---------------------------------------------------
  alpha Z        PSCENC =      2210.34415451
  Ewald energy   TEWEN  =    -38583.14127409
  -Hartree energ DENC   =    -24689.09851080
  -exchange      EXHF   =         0.00000000
  -V(xc)+E(xc)   XCENC  =      3248.41509365
  PAW double counting   =     89501.17973079   -89169.09619198
  entropy T*S    EENTRO =        -0.00000000
  eigenvalues    EBANDS =     -8418.33611149
  atomic energy  EATOM  =     64968.54023382
  Solvation  Ediel_sol  =         0.00000000
  ---------------------------------------------------
  free energy    TOTEN  =      -931.19287559 eV

  energy without entropy =     -931.19287559  energy(sigma->0) =     -931.19287559


--------------------------------------------------------------------------------------------------------




--------------------------------------- Iteration      1(  16)  ---------------------------------------


    POTLOK:  cpu time    0.1680: real time    0.1739
    SETDIJ:  cpu time    0.3380: real time    0.3464
     EDDAV:  cpu time   55.4523: real time   56.0194
       DOS:  cpu time    0.0012: real time    0.0012
    CHARGE:  cpu time    2.3768: real time    2.4046
    MIXING:  cpu time    0.0095: real time    0.0095
    --------------------------------------------
      LOOP:  cpu time   58.3459: real time   58.9551

 eigenvalue-minimisations  :  9416
 total energy-change (2. order) : 0.2251429E-05  (-0.1051468E-03)
 number of electron     864.0000006 magnetization 
 augmentation part      118.5999928 magnetization 

 Broyden mixing:
  rms(total) = 0.40078E-02    rms(broyden)= 0.40067E-02
  rms(prec ) = 0.58048E-02
  weight for this iteration     100.00

 eigenvalues of (default mixing * dielectric matrix)
  average eigenvalue GAMMA=   1.4079
  3.4887  2.4544  2.4544  0.9043  0.9043  0.9486  0.9486  0.8402  0.8402  0.8518
  0.8518

 Free energy of the ion-electron system (eV)
  ---------------------------------------------------
  alpha Z        PSCENC =      2210.34415451
  Ewald energy   TEWEN  =    -38583.14127409
  -Hartree energ DENC   =    -24691.24305864
  -exchange      EXHF   =         0.00000000
  -V(xc)+E(xc)   XCENC  =      3248.48003557
  PAW double counting   =     89522.25398438   -89190.35239597
  entropy T*S    EENTRO =        -0.00000000
  eigenvalues    EBANDS =     -8416.07455293
  atomic energy  EATOM  =     64968.54023382
  Solvation  Ediel_sol  =         0.00000000
  ---------------------------------------------------
  free energy    TOTEN  =      -931.19287334 eV

  energy without entropy =     -931.19287334  energy(sigma->0) =     -931.19287334


--------------------------------------------------------------------------------------------------------




--------------------------------------- Iteration      1(  17)  ---------------------------------------


    POTLOK:  cpu time    0.1722: real time    0.1775
    SETDIJ:  cpu time    0.3488: real time    0.3496
     EDDAV:  cpu time   65.5186: real time   66.1922
       DOS:  cpu time    0.0010: real time    0.0010
    CHARGE:  cpu time    2.4518: real time    2.4780
    MIXING:  cpu time    0.0080: real time    0.0080
    --------------------------------------------
      LOOP:  cpu time   68.5003: real time   69.2062

 eigenvalue-minimisations  : 11760
 total energy-change (2. order) :-0.6696297E-05  (-0.6582859E-04)
 number of electron     864.0000006 magnetization 
 augmentation part      118.6001634 magnetization 

 Broyden mixing:
  rms(total) = 0.34383E-02    rms(broyden)= 0.34376E-02
  rms(prec ) = 0.42149E-02
  weight for this iteration     100.00

 eigenvalues of (default mixing * dielectric matrix)
  average eigenvalue GAMMA=   1.3714
  3.6719  2.4447  2.4447  0.9780  0.9780  0.8648  0.8648  1.0233  0.8704  0.8704
  0.7939  0.6523

 Free energy of the ion-electron system (eV)
  ---------------------------------------------------
  alpha Z        PSCENC =      2210.34415451
  Ewald energy   TEWEN  =    -38583.14127409
  -Hartree energ DENC   =    -24691.39459299
  -exchange      EXHF   =         0.00000000
  -V(xc)+E(xc)   XCENC  =      3248.47188105
  PAW double counting   =     89520.30512175   -89188.43356242
  entropy T*S    EENTRO =        -0.00000000
  eigenvalues    EBANDS =     -8415.88484167
  atomic energy  EATOM  =     64968.54023382
  Solvation  Ediel_sol  =         0.00000000
  ---------------------------------------------------
  free energy    TOTEN  =      -931.19288003 eV

  energy without entropy =     -931.19288003  energy(sigma->0) =     -931.19288003


--------------------------------------------------------------------------------------------------------




--------------------------------------- Iteration      1(  18)  ---------------------------------------


    POTLOK:  cpu time    0.1715: real time    0.1773
    SETDIJ:  cpu time    0.3477: real time    0.3485
     EDDAV:  cpu time   56.3091: real time   56.9181
       DOS:  cpu time    0.0011: real time    0.0011
    CHARGE:  cpu time    2.4875: real time    2.5069
    MIXING:  cpu time    0.0079: real time    0.0116
    --------------------------------------------
      LOOP:  cpu time   59.3248: real time   59.9634

 eigenvalue-minimisations  :  9640
 total energy-change (2. order) :-0.4304151E-05  (-0.2885460E-04)
 number of electron     864.0000006 magnetization 
 augmentation part      118.6030313 magnetization 

 Broyden mixing:
  rms(total) = 0.22402E-02    rms(broyden)= 0.22391E-02
  rms(prec ) = 0.27503E-02
  weight for this iteration     100.00

 eigenvalues of (default mixing * dielectric matrix)
  average eigenvalue GAMMA=   1.3890
  3.8366  2.6441  2.3710  1.1660  1.0374  1.0374  0.9477  0.9477  0.7936  0.8196
  0.8196  0.8178  0.8178

 Free energy of the ion-electron system (eV)
  ---------------------------------------------------
  alpha Z        PSCENC =      2210.34415451
  Ewald energy   TEWEN  =    -38583.14127409
  -Hartree energ DENC   =    -24691.10323917
  -exchange      EXHF   =         0.00000000
  -V(xc)+E(xc)   XCENC  =      3248.45228976
  PAW double counting   =     89522.57483847   -89190.71019757
  entropy T*S    EENTRO =        -0.00000000
  eigenvalues    EBANDS =     -8416.14969007
  atomic energy  EATOM  =     64968.54023382
  Solvation  Ediel_sol  =         0.00000000
  ---------------------------------------------------
  free energy    TOTEN  =      -931.19288434 eV

  energy without entropy =     -931.19288434  energy(sigma->0) =     -931.19288434


--------------------------------------------------------------------------------------------------------




--------------------------------------- Iteration      1(  19)  ---------------------------------------


    POTLOK:  cpu time    0.1722: real time    0.1779
    SETDIJ:  cpu time    0.3476: real time    0.3488
     EDDAV:  cpu time   55.0032: real time   55.5245
       DOS:  cpu time    0.0011: real time    0.0011
    CHARGE:  cpu time    2.5131: real time    2.5424
    MIXING:  cpu time    0.0082: real time    0.0082
    --------------------------------------------
      LOOP:  cpu time   58.0453: real time   58.6029

 eigenvalue-minimisations  :  9312
 total energy-change (2. order) : 0.6067115E-05  (-0.5091090E-05)
 number of electron     864.0000006 magnetization 
 augmentation part      118.6019188 magnetization 

 Broyden mixing:
  rms(total) = 0.88736E-03    rms(broyden)= 0.88599E-03
  rms(prec ) = 0.11672E-02
  weight for this iteration     100.00

 eigenvalues of (default mixing * dielectric matrix)
[...]
   0.985E+02 -.100E+03 -.530E+02   -.106E+03 0.104E+03 0.700E+02   0.848E+01 -.262E+01 -.170E+02   0.958E-04 0.183E-03 -.486E-03
   0.689E+02 -.471E+02 -.859E+02   -.806E+02 0.637E+02 0.104E+03   0.122E+02 -.170E+02 -.178E+02   0.633E-03 0.439E-03 -.165E-03
   0.124E+03 -.195E+03 0.982E+02   -.120E+03 0.214E+03 -.115E+03   -.379E+01 -.203E+02 0.159E+02   -.351E-03 0.292E-03 -.324E-05
   -.121E+02 -.222E+03 -.520E+02   -.102E+02 0.226E+03 0.632E+02   0.233E+02 -.231E+01 -.120E+02   0.287E-03 0.137E-03 -.643E-04
   0.353E+02 0.607E+02 0.356E+02   -.656E+02 -.571E+02 -.384E+02   0.263E+02 -.414E+01 -.364E+00   -.244E-03 0.862E-05 -.305E-04
   0.176E+02 0.672E+02 0.325E+02   -.825E+01 -.705E+02 -.469E+02   -.924E+01 0.492E+01 0.156E+02   -.473E-03 -.459E-03 -.640E-03
   0.498E+02 -.880E+01 -.183E+03   -.679E+02 0.144E+02 0.194E+03   0.201E+02 -.431E+01 -.896E+01   -.286E-03 -.350E-03 0.215E-04
   0.101E+03 0.195E+03 0.467E+02   -.113E+03 -.219E+03 -.624E+02   0.113E+02 0.255E+02 0.143E+02   0.212E-03 -.131E-03 0.158E-04
   -.144E+03 -.272E+02 -.307E+02   0.137E+03 0.344E+02 0.504E+02   0.103E+02 -.849E+01 -.205E+02   0.238E-03 0.217E-04 -.211E-03
   0.125E+03 0.908E+02 0.786E+02   -.143E+03 -.109E+03 -.837E+02   0.189E+02 0.194E+02 0.504E+01   -.228E-03 -.347E-03 -.463E-03
   0.658E+02 -.200E+03 0.765E+02   -.620E+02 0.217E+03 -.100E+03   -.398E+01 -.162E+02 0.222E+02   0.263E-03 -.798E-04 -.424E-05
   0.623E+02 0.800E+01 -.283E+02   -.667E+02 0.122E+02 0.589E+02   0.300E+01 -.162E+02 -.257E+02   0.876E-04 0.269E-03 0.242E-03
   -.595E+02 -.227E+03 -.501E+02   0.717E+02 0.249E+03 0.617E+02   -.108E+02 -.218E+02 -.133E+02   -.230E-03 0.134E-03 0.199E-03
   0.302E+02 -.166E+03 -.539E+02   -.325E+02 0.164E+03 0.616E+02   0.143E+01 0.284E+01 -.112E+02   0.936E-04 -.350E-03 -.312E-03
   0.114E+03 -.172E+02 -.256E+02   -.137E+03 0.241E+02 0.139E+02   0.237E+02 -.621E+01 0.140E+02   -.274E-04 -.335E-03 -.148E-03
   -.216E+02 0.295E+01 0.578E+02   0.852E+01 -.107E+02 -.668E+02   0.162E+02 0.865E+01 0.707E+01   -.763E-03 0.402E-03 -.237E-03
   0.125E+03 -.493E+02 0.125E+03   -.144E+03 0.422E+02 -.135E+03   0.215E+02 0.751E+01 0.947E+01   0.549E-03 0.541E-03 -.250E-04
   -.334E+02 -.525E+02 0.421E+02   0.441E+02 0.437E+02 -.300E+02   -.118E+02 0.992E+01 -.146E+02   -.666E-04 -.312E-03 -.365E-03
   0.197E+03 0.192E+03 -.440E+02   -.203E+03 -.183E+03 0.686E+02   0.334E+01 -.847E+01 -.249E+02   0.496E-03 -.200E-04 0.708E-03
   -.334E+02 -.280E+03 0.238E+02   0.250E+02 0.299E+03 -.179E+02   0.111E+02 -.198E+02 -.873E+01   -.489E-03 -.318E-03 -.490E-03
   -.144E+02 0.172E+03 0.624E+02   0.161E+02 -.199E+03 -.682E+02   -.356E+01 0.278E+02 0.436E+01   0.184E-03 -.708E-04 0.573E-03
   0.117E+03 -.509E+02 -.356E+01   -.138E+03 0.585E+02 0.199E+02   0.205E+02 -.763E+01 -.162E+02   -.137E-03 -.202E-03 0.136E-03
   0.283E+02 -.618E+02 0.230E+02   -.426E+02 0.501E+02 -.297E+02   0.160E+02 0.137E+02 0.648E+01   0.120E-03 0.964E-04 0.141E-03
   -.630E+02 -.186E+02 0.134E+02   0.850E+02 0.893E+01 -.399E+02   -.199E+02 0.847E+01 0.217E+02   0.215E-03 0.292E-03 -.899E-03
   0.300E+02 -.205E+03 -.956E+01   -.439E+02 0.226E+03 0.989E+00   0.139E+02 -.187E+02 0.805E+01   0.377E-03 -.264E-03 -.461E-04
   0.326E+02 -.499E+01 -.116E+03   -.286E+02 -.505E+01 0.146E+03   -.251E+01 0.940E+01 -.292E+02   -.180E-03 -.599E-03 0.231E-03
   -.491E+02 -.153E+03 0.314E+02   0.705E+02 0.158E+03 -.282E+02   -.251E+02 -.389E+01 -.379E+01   0.200E-04 0.812E-03 -.357E-03
   -.533E+02 0.128E+03 -.965E+02   0.384E+02 -.153E+03 0.988E+02   0.181E+02 0.175E+02 -.278E+01   -.485E-03 -.460E-03 -.793E-03
   -.595E+02 0.170E+03 -.780E+02   0.632E+02 -.181E+03 0.101E+03   -.296E+01 0.109E+02 -.220E+02   -.740E-04 -.635E-03 0.628E-03
   -.113E+03 0.899E+01 0.108E+03   0.112E+03 -.192E+02 -.110E+03   -.789E+00 0.145E+02 -.296E+01   -.530E-03 0.261E-03 -.238E-03
   -.945E+02 0.140E+03 -.441E+02   0.105E+03 -.135E+03 0.497E+02   -.123E+02 -.823E+01 -.733E+01   0.235E-03 0.620E-04 -.481E-04
   0.816E+01 0.106E+03 -.280E+02   -.415E+01 -.126E+03 0.290E+02   -.232E+01 0.209E+02 -.644E+00   -.230E-03 -.289E-03 -.511E-03
   0.332E+02 -.787E+02 0.675E+02   -.344E+02 0.842E+02 -.889E+02   0.141E+01 -.722E+01 0.251E+02   0.345E-03 0.143E-03 -.302E-04
   -.783E+02 0.290E+02 -.108E+03   0.942E+02 -.299E+02 0.124E+03   -.165E+02 0.158E+01 -.169E+02   0.501E-03 -.260E-04 0.481E-03
   -.217E+02 -.576E+02 -.619E+02   0.238E+02 0.473E+02 0.840E+02   -.239E+01 0.821E+01 -.202E+02   -.453E-04 -.463E-03 -.119E-03
   -.912E+02 0.545E+02 -.985E+02   0.955E+02 -.378E+02 0.119E+03   -.345E+01 -.180E+02 -.202E+02   0.109E-03 -.168E-03 0.847E-04
   -.284E+02 -.351E+02 -.210E+03   0.281E+02 0.305E+02 0.235E+03   0.740E+00 0.506E+01 -.282E+02   0.445E-03 0.267E-03 0.950E-03
   0.545E+02 -.542E+01 0.114E+03   -.601E+02 0.949E+01 -.137E+03   0.473E+01 -.405E+01 0.218E+02   0.111E-03 0.328E-04 -.305E-03
   -.686E+01 -.155E+02 0.197E+03   0.193E+02 0.517E+01 -.222E+03   -.113E+02 0.132E+02 0.254E+02   0.753E-03 0.555E-03 0.251E-03
   0.947E+02 0.167E+01 -.433E+02   -.939E+02 -.312E+01 0.532E+02   -.118E+01 -.695E+00 -.102E+02   0.394E-03 0.236E-03 0.170E-03
   0.151E+02 0.180E+02 0.174E+03   0.285E+01 -.248E+02 -.187E+03   -.196E+02 0.805E+01 0.123E+02   0.850E-04 -.103E-03 0.338E-03
   -.949E+02 0.127E+03 0.102E+03   0.114E+03 -.125E+03 -.113E+03   -.219E+02 -.318E+01 0.126E+02   0.210E-03 0.116E-03 0.304E-03
   -.808E+02 -.182E+02 -.635E+02   0.986E+02 0.110E+02 0.719E+02   -.178E+02 0.821E+01 -.851E+01   0.274E-03 0.390E-03 0.100E-03
   -.231E+02 0.259E+03 0.666E+02   0.406E+02 -.268E+03 -.820E+02   -.179E+02 0.888E+01 0.145E+02   0.375E-03 -.477E-03 -.175E-03
   0.134E+03 0.840E+02 -.178E+03   -.140E+03 -.950E+02 0.201E+03   0.719E+01 0.139E+02 -.232E+02   0.691E-03 0.930E-04 0.336E-03
   -.230E+02 0.132E+03 -.908E+02   0.272E+02 -.152E+03 0.106E+03   -.372E+01 0.201E+02 -.140E+02   -.101E-03 -.653E-03 0.102E-03
   -.288E+02 0.235E+02 -.119E+03   0.355E+02 -.341E+02 0.140E+03   -.742E+01 0.104E+02 -.209E+02   -.148E-03 -.198E-03 -.191E-03
   -.536E+02 0.835E+02 0.929E+02   0.451E+02 -.923E+02 -.103E+03   0.984E+01 0.108E+02 0.125E+02   -.461E-04 -.263E-03 -.168E-03
 -----------------------------------------------------------------------------------------------
   -.109E+03 -.131E+02 0.258E+02   -.441E-12 0.725E-12 0.668E-12   0.109E+03 0.131E+02 -.258E+02   0.958E-03 -.282E-02 -.221E-02
 
 
 POSITION                                       TOTAL-FORCE (eV/Angst)
 -----------------------------------------------------------------------------------
      3.54063      8.68565      2.43124         0.139490     -0.442536      0.164301
      8.64842      5.26127      7.74208        -0.407621      1.507431      1.015376
      8.52153      4.30279      2.86709         2.322666     -0.926639      3.474827
      0.33296     10.22568     11.01906         0.959190     -0.556866     -0.347092
      5.14586      9.35311     12.52007         0.184778      0.207452     -1.472818
      1.54012      7.62717      6.12355         1.636192      1.196106     -1.655512
      0.43074      0.21029      6.36222        -2.377387      1.922571      1.693396
      0.30005      6.99231      2.76419         2.087114      0.542660      2.845136
      7.81200     12.57856     10.80715        -0.700017     -0.619483      1.665314
      4.86406     12.32069      9.54431        -0.095956      0.038050      2.151906
      8.03633      2.31699      5.24121         1.146961     -1.453862      0.739928
      8.80523     10.43128      5.24985        -1.878627     -1.743359      0.101563
      9.31532      7.77851     10.85362        -0.438308     -0.480348     -1.064311
      2.26118      2.54510      9.30294         0.528197     -0.333639      0.392777
      9.32654      2.10532     11.99014         0.230776     -0.375992      1.445736
      8.01561     12.66281      2.82656         0.181646      0.615274     -0.484421
      5.29631      7.47115      9.02264        -0.593579      0.937443      1.256651
      1.08574      3.35680     12.80182        -1.186977      0.146344     -0.483439
      3.52765      2.38858      4.86869        -1.627285      1.352028     -0.055024
     12.24524      4.69398      6.55715         0.892912     -0.987652     -0.029730
     10.33481      8.84115      1.20797         0.743115     -1.724992      2.374227
      4.70136      9.52005      5.81716         0.063879     -0.834277      1.437854
      4.23687      4.64850      1.73361        -0.748049     -0.383240      0.462140
      4.50309     12.27951      2.88937        -0.407434     -0.198756     -0.869896
      5.40743      3.75896     10.92995        -0.050053     -1.074678     -0.274802
     11.69477     11.87086      0.41201        -1.147958      1.976157     -0.262858
      1.23213      6.98905      9.54522         0.334374     -0.449894      0.871571
      2.10238      7.11658     12.74906         4.562569      2.247489      0.090825
     11.61360      7.44995      7.07848        -0.363765     -0.639413     -1.977110
      8.54337     11.92169      7.70385        -7.163302      2.517578      6.386548
      6.09682     12.76685      5.83076        -4.932608     -2.308462      1.587763
      6.03218      1.37594     12.89873         0.962675      3.993580     -0.499941
     11.10896      2.47945      4.38429         2.555300     -1.153129      0.867433
      6.33671      7.34398      3.55186        -1.977314     -0.151351     -0.014134
      0.88471      9.80196      1.08418        -2.428295     -3.962268     -1.671703
      4.81875      4.41551      8.09153         3.810479     -0.797000      2.930429
      3.39963      1.87471      0.18189        -1.231801      0.809767      0.393830
      6.81091      5.99583      0.26310         3.429397      0.036285      0.667592
      3.27330      9.80563      8.75729         1.059619     -0.571253      5.261075
     11.79713     12.51220      9.46090        -0.575817     -0.140700      7.972805
     10.66478     10.18491      7.98478        -0.214007      4.666233      3.355787
      7.58505      8.98028      7.89629         3.555352     -0.609261      0.422567
      7.12023      9.45088      2.74909        -1.190634     -3.613235     -9.670871
      2.91249     11.61491      0.14530         2.389492      2.582445     -2.954492
     11.67604      9.77916      4.71256         3.875300     -1.305251     -0.030837
      3.24730     12.66729      7.00324        -2.157547      0.577502      0.482479
     12.33213      6.65192     12.59229        -1.764252     -3.120846     -3.946953
     11.06796      4.87539     10.60361         1.146508      0.201422     -1.858930
      0.77912      3.93754      4.09547         1.950074     -0.218544      1.099498
      5.94673      4.99657      5.35055        -2.932706     -1.931611      0.140297
     11.85814      2.13869     10.76961        -1.906794     -1.564457      0.022173
      8.39551     11.03731      0.23538         0.464103      0.158110     -3.760887
     10.61320     12.54436      4.40216         0.904532      0.260698      0.609737
      1.82935     11.01960      4.65626         2.379835     -0.611144     -1.384138
      5.44757      2.62687      8.87157        -1.663234      3.921275     -1.779953
      1.33095      8.67758     12.60668        -0.103609     -0.527728      1.625561
      2.16119      0.84110      7.57331         1.806412      0.997640      0.551212
      5.12610      8.46936      4.01722         1.784132     -0.943866     -0.833836
     11.69185      7.70179     11.49896         0.731624     -0.468133      0.258287
      9.77613      2.17864      3.63129        -3.242395     -0.547168     -1.920356
      8.97202     12.70631     12.74297        -0.572110     -2.223395      1.774096
      2.62091      2.85660      1.28103         0.488806     -1.166166     -1.340780
      0.23451      6.82879      7.50724        -2.250770      0.257860      1.826689
     10.82379     12.15214      2.90088        -0.697051     -0.247657     -1.819784
      9.99754     11.46349      7.44038        -0.132998      2.915395     -3.555321
      2.21077      3.92365      3.29530        -1.585124      0.748173      1.274061
      7.46383      7.20448     12.12493        -1.049193     -2.568977      3.095520
      2.05257      9.38141      9.86359        -1.269344      0.087691     -2.171523
     10.76331     10.73241      9.44810         1.680234      0.463293      2.970180
      7.37074      2.31039     12.73555         0.532720     -0.330530     -0.646344
      4.86556      2.74223      0.15934         0.085535     -2.615137      1.670019
     10.84941      0.87793      9.75186         0.128906      0.395493      0.818695
      7.06126     10.78267     12.09586         1.812588      0.328812      1.885312
     12.71082      4.76058     10.18802        -1.435960      1.027329     -0.497966
      0.27804      2.04134      9.95215        -0.203729      0.577810      0.219008
      5.71543      4.98530     12.77757        -1.817241      1.048732     -0.835586
     10.07897      5.80639      9.48138         1.135199     -1.403908      3.098769
      2.05363     12.10104      5.92101         3.550216     -2.254581      0.621409
      7.89301      7.94909      2.69637        -1.431433     -0.422398      3.253446
     12.19824      9.86563      0.94807         0.692738      0.771679     -0.473683
     12.68541     12.30430     10.99422        -2.354282     -0.679791     -1.881565
      8.21438     10.46897      1.84589        -0.117758      1.147161     -1.657648
      5.47743      1.12678     11.40207         0.755893     -2.735274     -1.056526
      0.26497      5.60300      4.56863         0.133444     -2.134032     -0.711490
      3.37154      8.49548      7.80450        -0.907810     -0.280048     -1.874467
      5.73986      6.23989      2.59413        -0.205297     -1.194920     -1.833582
      0.28278     10.68640      4.79208        -4.641675     -0.544607     -0.323180
      3.03408      0.25660      0.76831         1.214570      1.240873     -0.103862
     10.62579      3.46023      5.57352         0.454670     -0.364120      0.678397
      2.47311     12.10792      3.60414        -0.337296     -1.373181     -0.448221
      9.02525     12.62427      4.90197         1.015206      1.773004     -0.751473
      6.07727      8.90571      7.70669        -4.001157     -0.470597     -3.156017
     12.19168      8.29566      5.72123         0.119192      1.630156      1.199555
      7.66244     10.59199      8.19024         1.978678      1.267646      2.072108
     11.05828      8.72744      3.69082        -0.550643      1.638896     -1.450579
     10.77482     11.04685      5.31429         3.306494     -1.326338     -0.847136
     10.65027      6.15193      6.85539         0.453372      1.678345     -0.000955
      6.49246      0.80118      4.65759        -0.143531      1.092330     -1.435862
      7.17204     10.29216      3.95357        -1.328482      4.062900      4.834444
      4.71513      0.51815      6.98852         1.403485     -0.361540     -1.723375
      7.28858     12.31871      6.78411        -0.944007      0.976903     -3.508178
      4.66460      4.93353      6.50992         1.146664      0.618142      2.316910
      4.87474      3.93201      4.52138         3.152040      0.919046     -1.944726
     10.43504      3.26463     10.49466         2.019953      0.450410     -0.375120
      3.84455     10.65429      1.28901        -1.170016      1.128315     -2.475284
     12.19693      7.04949      1.14222        -2.796873      0.210005     -0.304245
      7.97771      0.15567      8.88848         2.750324     -1.057995     -2.806771
      1.01133      5.89269     12.40357        -1.791396      1.352124     -1.472125
      3.52712      4.72294      8.99524        -1.118992     -0.005836      0.125766
      4.94725     11.59569      5.31431         1.715124      1.952394     -0.208093
     12.56904     12.17599      8.23535         2.031506     -1.241540     -4.802165
      1.34931     11.14834      0.41136         0.086581      2.004121     -0.526451
      1.24812      9.14802      2.43294         1.432187     -0.646198      1.500017
     11.85137      0.66564      4.90464        -3.775576      1.514616     -0.625143
     10.76284      8.75316      7.76595         3.188850     -7.380610     -0.456611
      2.36532      6.68203      1.36331         0.824188      0.563389      1.126633
      7.68050      4.78792      1.36953        -1.749247      4.258971     -5.451917
      6.27625      5.63560      8.89450        -1.391737     -3.918427     -1.726288
      2.37684      9.46683      4.90880         1.695046      0.423289      0.303694
      3.13010     11.90874     11.35811         0.202118     -1.661778      3.730333
      4.59999      9.83397      9.84902        -0.671052      0.690578     -1.434253
      6.13408      0.58864      1.34224        -0.205988     -2.080199      1.986219
      6.34292      6.58949      5.05614         0.893409     -1.305222      0.051370
     11.70838      1.88842     12.44855         0.463733      0.499026     -2.357094
      2.79780      2.34107     11.67102        -0.869888      0.011495     -1.080171
     12.40912      2.77063      3.43914         1.148494      2.833894      0.510942
      3.42247     11.45943      8.11362        -0.405052     -2.146080     -0.317405
      9.79085     10.19799     12.73789        -1.608700      1.244809     -0.957608
      3.61704      7.41383     11.89134        -3.043236     -0.959590      1.242055
      7.34027      4.22714      5.79089        -0.038246      1.021102     -0.184497
      8.69835      8.92507      6.70988        -0.448727     -0.308431     -0.961024
     11.18049      5.03896     12.30032         0.881094      2.874228     -0.255778
      7.98667      7.87771      9.01781         0.529998      0.305054      0.932333
      1.12490      3.22871      5.56766        -0.728143     -0.168885      0.276778
      5.89426      8.85273      1.58344         1.375146      1.931989      1.918556
 -----------------------------------------------------------------------------------
    total drift:                               -0.018129      0.008544     -0.001945


--------------------------------------------------------------------------------------------------------



  FREE ENERGIE OF THE ION-ELECTRON SYSTEM (eV)
  ---------------------------------------------------
  free  energy   TOTEN  =      -931.19288269 eV

  energy  without entropy=     -931.19288269  energy(sigma->0) =     -931.19288269
 


--------------------------------------------------------------------------------------------------------


    POTLOK:  cpu time    0.5150: real time    0.5163


--------------------------------------------------------------------------------------------------------


     LOOP+:  cpu time 1442.1702: real time 1457.1913
    4ORBIT:  cpu time    0.0000: real time    0.0000

 total amount of memory used by VASP MPI-rank0   209755. kBytes
=======================================================================

   base      :      30000. kBytes
   nonlr-proj:      23520. kBytes
   fftplans  :      34299. kBytes
   grid      :      19248. kBytes
   one-center:        186. kBytes
   wavefun   :     102502. kBytes
 
  
  
 General timing and accounting informations for this job:
 ========================================================
  
                  Total CPU time used (sec):     1468.527
                            User time (sec):     1462.430
                          System time (sec):        6.097
                         Elapsed time (sec):     1483.713
  
                   Maximum memory used (kb):      359920.
                   Average memory used (kb):           0.
  
                          Minor page faults:       295613
                          Major page faults:            0
                 Voluntary context switches:          472
