 vasp.5.4.4.18Apr17-6-g9f103f2a35 (build Oct 31 2019 15:01:46) complex          
  
 executed on             LinuxIFC date 2024.04.30  12:56:03
 running on   52 total cores
 distrk:  each k-point on   52 cores,    1 groups
 distr:  one band on NCORES_PER_BAND=  13 cores,    4 groups


--------------------------------------------------------------------------------------------------------


 INCAR:
 POTCAR:    PAW_PBE Sc_sv 07Sep2000               
 POTCAR:    PAW_PBE Cl 06Sep2000                  
 POTCAR:    PAW_PBE C 08Apr2002                   
 POTCAR:    PAW_PBE Sc_sv 07Sep2000               
   VRHFIN =Sc: 3p4s3d                                                           
   LEXCH  = PE                                                                  
   EATOM  =  1273.2868 eV,   93.5839 Ry                                         
                                                                                
   TITEL  = PAW_PBE Sc_sv 07Sep2000                                             
   LULTRA =        F    use ultrasoft PP ?                                      
   IUNSCR =        1    unscreen: 0-lin 1-nonlin 2-no                           
   RPACOR =    2.200    partial core radius                                     
   POMASS =   44.956; ZVAL   =   11.000    mass and valenz                      
   RCORE  =    2.500    outmost cutoff radius                                   
   RWIGS  =    2.700; RWIGS  =    1.429    wigner-seitz radius (au A)           
   ENMAX  =  222.660; ENMIN  =  166.995 eV                                      
   RCLOC  =    1.805    cutoff for local pot                                    
   LCOR   =        T    correct aug charges                                     
   LPAW   =        T    paw PP                                                  
   EAUG   =  443.063                                                            
   RMAX   =    2.551    core radius for proj-oper                               
   RAUG   =    1.300    factor for augmentation sphere                          
   RDEP   =    2.650    radius for radial grids                                 
   RDEPT  =    2.038    core radius for aug-charge                              
                                                                                
   Atomic configuration                                                         
    8 entries                                                                   
     n  l   j            E        occ.                                          
     1  0  0.50     -4394.2533   2.0000                                         
     2  0  0.50      -471.0040   2.0000                                         
     2  1  1.50      -384.9788   6.0000                                         
     3  0  0.50       -52.1410   2.0000                                         
     4  0  0.50        -3.5584   1.0000                                         
     3  1  1.50       -30.8841   6.0000                                         
     3  2  2.50        -1.3655   2.0000                                         
     4  3  2.50        -1.3606   0.0000                                         
   Description                                                                  
     l       E           TYP  RCUT    TYP  RCUT                                 
     0    -52.1409870     23  1.800                                             
     0     -3.5583698     23  2.500                                             
     1    -30.8840697     23  2.300                                             
     1      4.0817478     23  2.300                                             
     2     -1.3655397     23  2.500                                             
     2      0.3564476     23  2.500                                             
  local pseudopotential read in
  partial core-charges read in
  partial kinetic energy density read in
  atomic valenz-charges read in
  non local Contribution for L=           0  read in
    real space projection operators read in
  non local Contribution for L=           0  read in
    real space projection operators read in
  non local Contribution for L=           1  read in
    real space projection operators read in
  non local Contribution for L=           1  read in
    real space projection operators read in
  non local Contribution for L=           2  read in
    real space projection operators read in
  non local Contribution for L=           2  read in
    real space projection operators read in
    PAW grid and wavefunctions read in
 
   number of l-projection  operators is LMAX  =           6
   number of lm-projection operators is LMMAX =          18
 
 POTCAR:    PAW_PBE Cl 06Sep2000                  
   VRHFIN =Cl: s2p5                                                             
   LEXCH  = PE                                                                  
   EATOM  =   409.7259 eV,   30.1140 Ry                                         
                                                                                
   TITEL  = PAW_PBE Cl 06Sep2000                                                
   LULTRA =        F    use ultrasoft PP ?                                      
   IUNSCR =        1    unscreen: 0-lin 1-nonlin 2-no                           
   RPACOR =    1.500    partial core radius                                     
   POMASS =   35.453; ZVAL   =    7.000    mass and valenz                      
   RCORE  =    1.900    outmost cutoff radius                                   
   RWIGS  =    2.100; RWIGS  =    1.111    wigner-seitz radius (au A)           
   ENMAX  =  262.472; ENMIN  =  196.854 eV                                      
   ICORE  =        2    local potential                                         
   LCOR   =        T    correct aug charges                                     
   LPAW   =        T    paw PP                                                  
   EAUG   =  356.192                                                            
   DEXC   =    0.000                                                            
   RMAX   =    1.945    core radius for proj-oper                               
   RAUG   =    1.300    factor for augmentation sphere                          
   RDEP   =    2.020    radius for radial grids                                 
   RDEPT  =    1.678    core radius for aug-charge                              
                                                                                
   Atomic configuration                                                         
    6 entries                                                                   
     n  l   j            E        occ.                                          
     1  0  0.50     -2751.1850   2.0000                                         
     2  0  0.50      -252.6861   2.0000                                         
     2  1  1.50      -191.6157   6.0000                                         
     3  0  0.50       -20.6916   2.0000                                         
     3  1  0.50        -8.5949   5.0000                                         
     3  2  1.50        -8.1635   0.0000                                         
   Description                                                                  
     l       E           TYP  RCUT    TYP  RCUT                                 
     0    -20.6915656     23  1.900                                             
     0    -22.0521482     23  1.900                                             
     1     -8.5948577     23  1.900                                             
     1     -5.3847331     23  1.900                                             
     2     -8.1634956     23  1.900                                             
  local pseudopotential read in
  partial core-charges read in
  partial kinetic energy density read in
  atomic valenz-charges read in
  non local Contribution for L=           0  read in
    real space projection operators read in
  non local Contribution for L=           0  read in
    real space projection operators read in
  non local Contribution for L=           1  read in
    real space projection operators read in
  non local Contribution for L=           1  read in
    real space projection operators read in
    PAW grid and wavefunctions read in
 
   number of l-projection  operators is LMAX  =           4
   number of lm-projection operators is LMMAX =           8
 
 POTCAR:    PAW_PBE C 08Apr2002                   
   VRHFIN =C: s2p2                                                              
   LEXCH  = PE                                                                  
   EATOM  =   147.1560 eV,   10.8157 Ry                                         
                                                                                
   TITEL  = PAW_PBE C 08Apr2002                                                 
   LULTRA =        F    use ultrasoft PP ?                                      
   IUNSCR =        1    unscreen: 0-lin 1-nonlin 2-no                           
   RPACOR =    1.200    partial core radius                                     
   POMASS =   12.011; ZVAL   =    4.000    mass and valenz                      
   RCORE  =    1.500    outmost cutoff radius                                   
   RWIGS  =    1.630; RWIGS  =    0.863    wigner-seitz radius (au A)           
   ENMAX  =  400.000; ENMIN  =  300.000 eV                                      
   ICORE  =        2    local potential                                         
   LCOR   =        T    correct aug charges                                     
   LPAW   =        T    paw PP                                                  
   EAUG   =  644.873                                                            
   DEXC   =    0.000                                                            
   RMAX   =    1.529    core radius for proj-oper                               
   RAUG   =    1.300    factor for augmentation sphere                          
   RDEP   =    1.501    radius for radial grids                                 
   RDEPT  =    1.300    core radius for aug-charge                              
                                                                                
   Atomic configuration                                                         
    4 entries                                                                   
     n  l   j            E        occ.                                          
     1  0  0.50      -273.3789   2.0000                                         
     2  0  0.50       -13.7508   2.0000                                         
     2  1  0.50        -5.2854   2.0000                                         
     3  2  1.50        -5.4423   0.0000                                         
   Description                                                                  
     l       E           TYP  RCUT    TYP  RCUT                                 
     0    -13.7508458     23  1.200                                             
     0     -8.2022199     23  1.200                                             
     1     -5.2854383     23  1.500                                             
     1     34.0145650     23  1.500                                             
     2     -5.4423304      7  1.500                                             
  local pseudopotential read in
  partial core-charges read in
  partial kinetic energy density read in
  atomic valenz-charges read in
  non local Contribution for L=           0  read in
    real space projection operators read in
  non local Contribution for L=           0  read in
    real space projection operators read in
  non local Contribution for L=           1  read in
    real space projection operators read in
  non local Contribution for L=           1  read in
    real space projection operators read in
    PAW grid and wavefunctions read in
 
   number of l-projection  operators is LMAX  =           4
   number of lm-projection operators is LMMAX =           8
 
 Optimization of the real space projectors (new method)

 maximal supplied QI-value         = 15.12
 optimisation between [QCUT,QGAM] = [ 12.55, 25.10] = [ 44.09,176.36] Ry 
 Optimized for a Real-space Cutoff    1.56 Angstroem

   l    n(q)    QCUT    max X(q) W(low)/X(q) W(high)/X(q)  e(spline) 
   0     12    12.548     2.962    0.12E-05    0.11E-06    0.46E-07
   0     12    12.548    26.414    0.30E-04    0.15E-05    0.76E-07
   1     11    12.548     3.969    0.45E-05    0.12E-05    0.60E-07
   1     11    12.548     5.137    0.15E-04    0.18E-04    0.36E-06
   2     11    12.548   143.970    0.20E-03    0.19E-03    0.76E-06
   2     11    12.548   121.201    0.20E-03    0.19E-03    0.76E-06
 Optimization of the real space projectors (new method)

 maximal supplied QI-value         = 19.84
 optimisation between [QCUT,QGAM] = [ 12.50, 25.00] = [ 43.76,175.03] Ry 
 Optimized for a Real-space Cutoff    1.20 Angstroem

   l    n(q)    QCUT    max X(q) W(low)/X(q) W(high)/X(q)  e(spline) 
   0      9    12.501   168.010    0.44E-04    0.61E-04    0.77E-07
   0      9    12.501   164.674    0.43E-04    0.60E-04    0.75E-07
   1      8    12.501    69.222    0.11E-03    0.13E-03    0.91E-07
   1      8    12.501    56.786    0.11E-03    0.13E-03    0.90E-07
 Optimization of the real space projectors (new method)

 maximal supplied QI-value         = 25.13
 optimisation between [QCUT,QGAM] = [ 12.32, 24.88] = [ 42.47,173.37] Ry 
 Optimized for a Real-space Cutoff    1.16 Angstroem

   l    n(q)    QCUT    max X(q) W(low)/X(q) W(high)/X(q)  e(spline) 
   0      9    12.315   115.676    0.19E-03    0.80E-05    0.34E-06
   0      9    12.315    87.132    0.19E-03    0.82E-05    0.34E-06
   1      8    12.315     4.429    0.18E-03    0.13E-03    0.22E-06
   1      8    12.315     2.733    0.14E-03    0.10E-03    0.18E-06
  PAW_PBE Sc_sv 07Sep2000               :
 energy of atom  1       EATOM=-1273.2868
 kinetic energy error for atom=    0.0014 (will be added to EATOM!!)
  PAW_PBE Cl 06Sep2000                  :
 energy of atom  2       EATOM= -409.7259
 kinetic energy error for atom=    0.0013 (will be added to EATOM!!)
  PAW_PBE C 08Apr2002                   :
 energy of atom  3       EATOM= -147.1560
 kinetic energy error for atom=    0.0057 (will be added to EATOM!!)
 
 
 POSCAR: Sc Cl  C                                
  positions in cartesian coordinates
  No initial velocities read in
 exchange correlation table for  LEXCH =        8
   RHO(1)=    0.500       N(1)  =     2000
   RHO(2)=  100.500       N(2)  =     4000
 


--------------------------------------------------------------------------------------------------------


 ion  position               nearest neighbor table
   1  0.081  0.164  0.541-  66 2.32  70 2.36  65 2.38  61 2.51  50 2.59  49 2.69  29 3.11  17 3.15
                            18 3.18  13 3.33   5 3.37
   2  0.092  0.421  0.546-  71 2.27  66 2.39  67 2.39  50 2.51  51 2.61  62 2.68  18 3.13  30 3.15
                            19 3.31  14 3.36   7 3.37   3 3.38   6 3.39
   3  0.081  0.660  0.545-  67 2.23  72 2.35  68 2.47  51 2.57  63 2.63  52 2.70  31 3.19  19 3.21
                            20 3.25  14 3.33   2 3.38   7 3.42
   4  0.075  0.908  0.543-  68 2.29  69 2.45  65 2.46  64 2.51  52 2.53  49 2.69  32 3.16  20 3.19
                            17 3.23  15 3.39
   5  0.326  0.164  0.544-  69 2.22  70 2.32  74 2.43  53 2.54  54 2.63  49 2.66  17 3.19  22 3.21
                            21 3.23   1 3.37
   6  0.338  0.421  0.543-  75 2.26  70 2.40  71 2.46  50 2.55  55 2.60  54 2.70  22 3.15  18 3.19
                            23 3.20  10 3.32   2 3.39  11 3.39
   7  0.332  0.669  0.543-  71 2.29  72 2.34  76 2.35  55 2.57  51 2.59  56 2.62  24 3.15  19 3.18
                            23 3.28   2 3.37   3 3.42
   8  0.337  0.921  0.549-  73 2.25  72 2.43  69 2.47  53 2.49  52 2.57  56 2.65  24 3.19  21 3.22
                            20 3.34   9 3.37
   9  0.580  0.166  0.546-  74 2.24  73 2.34  78 2.39  53 2.58  58 2.59  57 2.76  21 3.13  26 3.17
                            25 3.20  12 3.36   8 3.37
  10  0.576  0.416  0.542-  74 2.29  79 2.36  75 2.38  59 2.55  54 2.55  58 2.73  26 3.05  27 3.06
                            22 3.08   6 3.32
  11  0.583  0.669  0.543-  76 2.21  80 2.30  75 2.40  55 2.59  60 2.60  59 2.65  28 3.05  23 3.19
                            27 3.20  16 3.30  15 3.38   6 3.39
  12  0.590  0.928  0.549-  73 2.28  77 2.31  57 2.49  76 2.50  56 2.58  60 2.65  28 3.21  24 3.22
                            25 3.24  13 3.36   9 3.36  16 3.38
  13  0.840  0.164  0.545-  77 2.22  66 2.27  78 2.38  61 2.50  62 2.63  57 2.68  25 3.13  29 3.15
                            30 3.20   1 3.33  12 3.36  14 3.41
  14  0.845  0.414  0.552-  78 2.33  67 2.35  63 2.46  62 2.47  79 2.64  58 2.70  30 3.18  26 3.32
                             3 3.33  31 3.33   2 3.36  13 3.41
  15  0.826  0.665  0.541-  80 2.28  79 2.28  68 2.33  64 2.64  59 2.67  63 2.68  27 3.05  31 3.15
                            32 3.24  16 3.34  11 3.38   4 3.39
  16  0.823  0.906  0.541-  80 2.28  77 2.30  65 2.40  60 2.47  61 2.60  64 2.61  28 3.07  32 3.14
                            29 3.22  11 3.30  15 3.34  12 3.38
  17  0.162  0.078  0.453-  69 2.29  65 2.33  70 2.42  33 2.51  36 2.55  37 2.65   1 3.15   5 3.19
                             4 3.23  32 3.33  20 3.41  29 3.42
  18  0.167  0.341  0.455-  71 2.33  66 2.37  70 2.38  38 2.48  34 2.54  33 2.74   2 3.13   1 3.18
                             6 3.19  30 3.34  23 3.41  19 3.43
  19  0.171  0.591  0.452-  71 2.30  72 2.35  67 2.44  39 2.47  35 2.63  34 2.69   7 3.18   3 3.21
                             2 3.31  20 3.37  30 3.42  18 3.43
  20  0.165  0.832  0.454-  72 2.32  68 2.40  69 2.47  40 2.52  35 2.55  36 2.57   4 3.19   3 3.25
                             8 3.34  19 3.37  17 3.41
  21  0.423  0.084  0.456-  74 2.37  69 2.38  73 2.39  41 2.45  40 2.56  37 2.74   9 3.13   8 3.22
                             5 3.23  24 3.32
  22  0.418  0.336  0.455-  75 2.27  70 2.32  74 2.47  37 2.53  42 2.56  38 2.60  10 3.08   6 3.15
                             5 3.21  27 3.36  23 3.39
  23  0.420  0.583  0.452-  75 2.23  76 2.43  71 2.45  43 2.54  39 2.56  38 2.58  11 3.19   6 3.20
                             7 3.28  28 3.34  22 3.39  18 3.41
  24  0.423  0.843  0.458-  73 2.24  72 2.40  76 2.41  40 2.54  39 2.69  44 2.75   7 3.15   8 3.19
                            12 3.22  28 3.31  21 3.32
  25  0.677  0.094  0.457-  78 2.33  77 2.34  73 2.56  41 2.62  45 2.64  44 2.66  13 3.13   9 3.20
                            12 3.24  29 3.39  30 3.42
  26  0.668  0.340  0.460-  79 2.22  74 2.29  78 2.39  42 2.54  46 2.65  41 2.77  10 3.05   9 3.17
                            27 3.27  14 3.32  31 3.34
  27  0.665  0.576  0.456-  79 2.24  80 2.33  75 2.35  47 2.55  42 2.58  43 2.62  15 3.05  10 3.06
                            11 3.20  26 3.27  22 3.36  31 3.38
  28  0.656  0.830  0.457-  76 2.20  80 2.34  77 2.45  43 2.55  44 2.58  48 2.72  11 3.05  16 3.07
                            12 3.21  24 3.31  23 3.34
  29  0.917  0.084  0.454-  65 2.25  66 2.39  77 2.40  48 2.59  45 2.60  33 2.60   1 3.11  13 3.15
                            16 3.22  32 3.37  25 3.39  17 3.42
  30  0.925  0.341  0.458-  67 2.27  66 2.27  78 2.41  46 2.51  34 2.65  45 2.89   2 3.15  14 3.18
                            13 3.20  18 3.34  31 3.39  19 3.42  25 3.42
  31  0.912  0.580  0.456-  79 2.33  68 2.33  67 2.37  46 2.52  35 2.55  47 2.66  15 3.15   3 3.19
                            14 3.33  26 3.34  27 3.38  30 3.39
  32  0.917  0.840  0.452-  65 2.22  68 2.37  80 2.43  48 2.53  36 2.58  47 2.68  16 3.14   4 3.16
                            15 3.24  17 3.33  29 3.37
  33  0.085  0.160  0.395-  17 2.51  29 2.60  18 2.74
  34  0.086  0.414  0.393-  18 2.54  30 2.65  19 2.69
  35  0.073  0.668  0.395-  20 2.55  31 2.55  19 2.63
  36  0.085  0.915  0.394-  17 2.55  20 2.57  32 2.58
  37  0.337  0.178  0.395-  22 2.53  17 2.65  21 2.74
  38  0.322  0.410  0.396-  18 2.48  23 2.58  22 2.60
  39  0.333  0.668  0.397-  19 2.47  23 2.56  24 2.69
  40  0.333  0.915  0.399-  20 2.52  24 2.54  21 2.56
  41  0.575  0.160  0.397-  21 2.45  25 2.62  26 2.77
  42  0.584  0.409  0.397-  26 2.54  22 2.56  27 2.58
  43  0.590  0.670  0.397-  23 2.54  28 2.55  27 2.62
  44  0.597  0.927  0.394-  28 2.58  25 2.66  24 2.75
  45  0.833  0.159  0.390-  29 2.60  25 2.64  30 2.89
  46  0.839  0.414  0.400-  30 2.51  31 2.52  26 2.65
  47  0.823  0.661  0.394-  27 2.55  31 2.66  32 2.68
  48  0.830  0.917  0.395-  32 2.53  29 2.59  28 2.72
  49  0.159  0.078  0.607-   5 2.66   1 2.69   4 2.69
  50  0.171  0.331  0.600-   2 2.51   6 2.55   1 2.59
  51  0.171  0.590  0.606-   3 2.57   7 2.59   2 2.61
  52  0.164  0.839  0.604-   4 2.53   8 2.57   3 2.70
  53  0.409  0.086  0.603-   8 2.49   5 2.54   9 2.58
  54  0.421  0.330  0.605-  10 2.55   5 2.63   6 2.70
  55  0.417  0.589  0.603-   7 2.57  11 2.59   6 2.60
  56  0.422  0.831  0.607-  12 2.58   7 2.62   8 2.65
  57  0.673  0.081  0.609-  12 2.49  13 2.68   9 2.76
  58  0.660  0.329  0.608-   9 2.59  14 2.70  10 2.73
  59  0.657  0.574  0.604-  10 2.55  11 2.65  15 2.67
  60  0.677  0.833  0.604-  16 2.47  11 2.60  12 2.65
  61  0.921  0.078  0.599-  13 2.50   1 2.51  16 2.60
  62  0.920  0.328  0.608-  14 2.47  13 2.63   2 2.68
  63  0.910  0.579  0.604-  14 2.46   3 2.63  15 2.68
  64  0.916  0.834  0.603-   4 2.51  16 2.61  15 2.64
  65  0.993  0.997  0.495-  32 2.22  29 2.25  17 2.33   1 2.38  16 2.40   4 2.46
  66  0.999  0.252  0.501-  13 2.27  30 2.27   1 2.32  18 2.37   2 2.39  29 2.39
  67  0.002  0.503  0.502-   3 2.23  30 2.27  14 2.35  31 2.37   2 2.39  19 2.44
  68  0.992  0.748  0.498-   4 2.29  31 2.33  15 2.33  32 2.37  20 2.40   3 2.47
  69  0.252  0.009  0.500-   5 2.22  17 2.29  21 2.38   4 2.45  20 2.47   8 2.47
  70  0.251  0.251  0.498-   5 2.32  22 2.32   1 2.36  18 2.38   6 2.40  17 2.42
  71  0.247  0.508  0.499-   2 2.27   7 2.29  19 2.30  18 2.33  23 2.45   6 2.46
  72  0.247  0.752  0.500-  20 2.32   7 2.34   3 2.35  19 2.35  24 2.40   8 2.43
  73  0.496  0.994  0.506-  24 2.24   8 2.25  12 2.28   9 2.34  21 2.39  25 2.56
  74  0.505  0.249  0.503-   9 2.24  26 2.29  10 2.29  21 2.37   5 2.43  22 2.47
  75  0.492  0.500  0.496-  23 2.23   6 2.26  22 2.27  27 2.35  10 2.38  11 2.40
  76  0.504  0.749  0.502-  28 2.20  11 2.21   7 2.35  24 2.41  23 2.43  12 2.50
  77  0.752  0.005  0.503-  13 2.22  16 2.30  12 2.31  25 2.34  29 2.40  28 2.45
  78  0.754  0.254  0.504-  14 2.33  25 2.33  13 2.38   9 2.39  26 2.39  30 2.41
  79  0.747  0.500  0.500-  26 2.22  27 2.24  15 2.28  31 2.33  10 2.36  14 2.64
  80  0.744  0.745  0.498-  16 2.28  15 2.28  11 2.30  27 2.33  28 2.34  32 2.43
 
  LATTYP: Found a hexagonal cell.
 ALAT       =    13.7939866762
 C/A-ratio  =     2.0161119278
  
  Lattice vectors:
  
 A1 = (  13.7939866800,   0.0000000000,   0.0000000000)
 A2 = (  -6.8969933400,  11.9459428800,   0.0000000000)
 A3 = (   0.0000000000,   0.0000000000,  27.8102210700)


Analysis of symmetry for initial positions (statically):
=====================================================================
 Subroutine PRICEL returns:
 Original cell was already a primitive cell.
 

 Routine SETGRP: Setting up the symmetry group for a 
 hexagonal supercell.


 Subroutine GETGRP returns: Found  1 space group operations
 (whereof  1 operations were pure point group operations)
 out of a pool of 24 trial point group operations.


The static configuration has the point symmetry C_1 .


Analysis of symmetry for dynamics (positions and initial velocities):
=====================================================================
 Subroutine PRICEL returns:
 Original cell was already a primitive cell.
 

 Routine SETGRP: Setting up the symmetry group for a 
 hexagonal supercell.


 Subroutine GETGRP returns: Found  1 space group operations
 (whereof  1 operations were pure point group operations)
 out of a pool of 24 trial point group operations.


The dynamic configuration has the point symmetry C_1 .


 Subroutine INISYM returns: Found  1 space group operations
 (whereof  1 operations are pure point group operations),
 and found     1 'primitive' translations

 
 

Automatic generation of k-mesh.
 generate k-points for:    3    3    1
Space group operators:
 irot       det(A)        alpha          n_x          n_y          n_z        tau_x        tau_y        tau_z
    1     1.000000     0.000000     1.000000     0.000000     0.000000     0.000000     0.000000     0.000000
 
 Subroutine IBZKPT returns following result:
 ===========================================
 
 Found      5 irreducible k-points:
 
 Following reciprocal coordinates:
            Coordinates               Weight
  0.000000  0.000000  0.000000      1.000000
  0.333333 -0.000000  0.000000      2.000000
  0.000000  0.333333  0.000000      2.000000
  0.333333  0.333333  0.000000      2.000000
 -0.333333  0.333333  0.000000      2.000000
 
 Following cartesian coordinates:
            Coordinates               Weight
  0.000000  0.000000  0.000000      1.000000
  0.024165  0.013952  0.000000      2.000000
  0.000000  0.027903  0.000000      2.000000
  0.024165  0.041855  0.000000      2.000000
 -0.024165  0.013952  0.000000      2.000000
 


--------------------------------------------------------------------------------------------------------




 Dimension of arrays:
   k-points           NKPTS =      5   k-points in BZ     NKDIM =      5   number of bands    NBANDS=    384
   number of dos      NEDOS =    301   number of ions     NIONS =     80
   non local maximal  LDIM  =      6   non local SUM 2l+1 LMDIM =     18
   total plane-waves  NPLWV = ******
   max r-space proj   IRMAX =   9806   max aug-charges    IRDMAX= 216835
   dimension x,y,z NGX =   112 NGY =  112 NGZ =  224
   dimension x,y,z NGXF=   224 NGYF=  224 NGZF=  448
   support grid    NGXF=   448 NGYF=  448 NGZF=  896
   ions per type =              32  32  16
   NGX,Y,Z   is equivalent  to a cutoff of  13.50, 13.50, 13.39 a.u.
   NGXF,Y,Z  is equivalent  to a cutoff of  27.00, 27.00, 26.78 a.u.

 SYSTEM =  unknown system                          
 POSCAR =  Sc Cl  C                                

 Startparameter for this run:
   NWRITE =      2    write-flag & timer
   PREC   = anorma    normal or accurate (medium, high low for compatibility)
   ISTART =      0    job   : 0-new  1-cont  2-samecut
   ICHARG =      2    charge: 1-file 2-atom 10-const
   ISPIN  =      1    spin polarized calculation?
   LNONCOLLINEAR =      F non collinear calculations
   LSORBIT =      F    spin-orbit coupling
   INIWAV =      1    electr: 0-lowe 1-rand  2-diag
   LASPH  =      F    aspherical Exc in radial PAW
   METAGGA=      F    non-selfconsistent MetaGGA calc.

 Electronic Relaxation 1
   ENCUT  =  600.0 eV  44.10 Ry    6.64 a.u.  27.55 27.55 55.54*2*pi/ulx,y,z
   ENINI  =  600.0     initial cutoff
   ENAUG  =  644.9 eV  augmentation charge cutoff
   NELM   =     60;   NELMIN=  2; NELMDL= -5     # of ELM steps 
   EDIFF  = 0.1E-05   stopping-criterion for ELM
   LREAL  =      T    real-space projection
   NLSPLINE    = F    spline interpolate recip. space projectors
   LCOMPAT=      F    compatible to vasp.4.4
   GGA_COMPAT  = T    GGA compatible to vasp.4.4-vasp.4.6
   LMAXPAW     = -100 max onsite density
   LMAXMIX     =    2 max onsite mixed and CHGCAR
   VOSKOWN=      0    Vosko Wilk Nusair interpolation
   ROPT   =   -0.00025  -0.00025  -0.00025
 Ionic relaxation
   EDIFFG = -.1E-01   stopping-criterion for IOM
   NSW    =      1    number of steps for IOM
   NBLOCK =      1;   KBLOCK =      1    inner block; outer block 
   IBRION =     -1    ionic relax: 0-MD 1-quasi-New 2-CG
   NFREE  =      0    steps in history (QN), initial steepest desc. (CG)
   ISIF   =      2    stress and relaxation
   IWAVPR =     10    prediction:  0-non 1-charg 2-wave 3-comb
   ISYM   =      2    0-nonsym 1-usesym 2-fastsym
   LCORR  =      T    Harris-Foulkes like correction to forces

   POTIM  = 1.0000    time-step for ionic-motion
   TEIN   =    0.0    initial temperature
   TEBEG  =    0.0;   TEEND  =   0.0 temperature during run
   SMASS  =  -3.00    Nose mass-parameter (am)
   estimated Nose-frequenzy (Omega)   =  0.10E-29 period in steps =****** mass=  -0.435E-26a.u.
   SCALEE = 1.0000    scale energy and forces
   NPACO  =    256;   APACO  = 16.0  distance and # of slots for P.C.
   PSTRESS=    0.0 pullay stress

  Mass of Ions in am
   POMASS =  44.96 35.45 12.01
  Ionic Valenz
   ZVAL   =  11.00  7.00  4.00
  Atomic Wigner-Seitz radii
   RWIGS  =  -1.00 -1.00 -1.00
  virtual crystal weights 
   VCA    =   1.00  1.00  1.00
   NELECT =     640.0000    total number of electrons
   NUPDOWN=      -1.0000    fix difference up-down

 DOS related values:
   EMIN   =  10.00;   EMAX   =-10.00  energy-range for DOS
   EFERMI =   0.00
   ISMEAR =     0;   SIGMA  =   0.05  broadening in eV -4-tet -1-fermi 0-gaus

 Electronic relaxation 2 (details)
   IALGO  =     38    algorithm
   LDIAG  =      T    sub-space diagonalisation (order eigenvalues)
   LSUBROT=      F    optimize rotation matrix (better conditioning)
   TURBO    =      0    0=normal 1=particle mesh
   IRESTART =      0    0=no restart 2=restart with 2 vectors
   NREBOOT  =      0    no. of reboots
   NMIN     =      0    reboot dimension
   EREF     =   0.00    reference energy to select bands
   IMIX   =      4    mixing-type and parameters
     AMIX     =   0.40;   BMIX     =  1.00
     AMIX_MAG =   1.60;   BMIX_MAG =  1.00
     AMIN     =   0.10
     WC   =   100.;   INIMIX=   1;  MIXPRE=   1;  MAXMIX= -45

 Intra band minimization:
   WEIMIN = 0.0000     energy-eigenvalue tresh-hold
   EBREAK =  0.65E-09  absolut break condition
   DEPER  =   0.30     relativ break condition  

   TIME   =   0.40     timestep for ELM

  volume/ion in A,a.u.               =      57.28       386.56
  Fermi-wavevector in a.u.,A,eV,Ry     =   0.849369  1.605075  9.815628  0.721428
  Thomas-Fermi vector in A             =   1.965179
 
 Write flags
   LWAVE        =      F    write WAVECAR
   LDOWNSAMPLE  =      F    k-point downsampling of WAVECAR
   LCHARG       =      F    write CHGCAR
   LVTOT        =      F    write LOCPOT, total local potential
   LVHAR        =      F    write LOCPOT, Hartree potential only
   LELF         =      F    write electronic localiz. function (ELF)
   LORBIT       =      0    0 simple, 1 ext, 2 COOP (PROOUT), +10 PAW based schemes


 Dipole corrections
   LMONO  =      F    monopole corrections only (constant potential shift)
   LDIPOL =      F    correct potential (dipole corrections)
   IDIPOL =      0    1-x, 2-y, 3-z, 4-all directions 
   EPSILON=  1.0000000 bulk dielectric constant

 Exchange correlation treatment:
   GGA     =    --    GGA type
   LEXCH   =     8    internal setting for exchange type
   VOSKOWN=      0    Vosko Wilk Nusair interpolation
   LHFCALC =     F    Hartree Fock is set to
   LHFONE  =     F    Hartree Fock one center treatment
   AEXX    =    0.0000 exact exchange contribution

 Linear response parameters
   LEPSILON=     F    determine dielectric tensor
   LRPA    =     F    only Hartree local field effects (RPA)
   LNABLA  =     F    use nabla operator in PAW spheres
   LVEL    =     F    velocity operator in full k-point grid
   LINTERFAST=   F  fast interpolation
   KINTER  =     0    interpolate to denser k-point grid
   CSHIFT  =0.1000    complex shift for real part using Kramers Kronig
   OMEGAMAX=  -1.0    maximum frequency
   DEG_THRESHOLD= 0.2000000E-02 threshold for treating states as degnerate
   RTIME   =   -0.100 relaxation time in fs
  (WPLASMAI=    0.000 imaginary part of plasma frequency in eV, 0.658/RTIME)
   DFIELD  = 0.0000000 0.0000000 0.0000000 field for delta impulse in time
 
 Orbital magnetization related:
   ORBITALMAG=     F  switch on orbital magnetization
   LCHIMAG   =     F  perturbation theory with respect to B field
   DQ        =  0.001000  dq finite difference perturbation B field
   LLRAUG    =     F  two centre corrections for induced B field



--------------------------------------------------------------------------------------------------------


 Static calculation
 charge density and potential will be updated during run
 non-spin polarized calculation
 Variant of blocked Davidson
 Davidson routine will perform the subspace rotation
 perform sub-space diagonalisation
    after iterative eigenvector-optimisation
 modified Broyden-mixing scheme, WC =      100.0
 initial mixing is a Kerker type mixing with AMIX =  0.4000 and BMIX =      1.0000
 Hartree-type preconditioning will be used
 using additional bands           64
 real space projection scheme for non local part
 use partial core corrections
 calculate Harris-corrections to forces 
   (improved forces if not selfconsistent)
 use gradient corrections 
 use of overlap-Matrix (Vanderbilt PP)
 Gauss-broadening in eV      SIGMA  =   0.05


--------------------------------------------------------------------------------------------------------


  energy-cutoff  :      600.00
  volume of cell :     4582.63
      direct lattice vectors                 reciprocal lattice vectors
    13.793986680  0.000000000  0.000000000     0.072495358  0.041855214  0.000000000
    -6.896993340 11.945942880  0.000000000     0.000000000  0.083710429  0.000000000
     0.000000000  0.000000000 27.810221070     0.000000000  0.000000000  0.035958003

  length of vectors
    13.793986680 13.793986676 27.810221070     0.083710429  0.083710429  0.035958003


 
 k-points in units of 2pi/SCALE and weight: read from INCAR                         
   0.00000000  0.00000000  0.00000000       0.111
   0.02416512  0.01395174  0.00000000       0.222
   0.00000000  0.02790348  0.00000000       0.222
   0.02416512  0.04185521  0.00000000       0.222
  -0.02416512  0.01395174  0.00000000       0.222
 
 k-points in reciprocal lattice and weights: read from INCAR                         
   0.00000000  0.00000000  0.00000000       0.111
   0.33333333 -0.00000000  0.00000000       0.222
   0.00000000  0.33333333  0.00000000       0.222
   0.33333333  0.33333333  0.00000000       0.222
  -0.33333333  0.33333333  0.00000000       0.222
 
 position of ions in fractional coordinates (direct lattice) 
   0.08141078  0.16445569  0.54087178
   0.09237515  0.42110665  0.54603940
   0.08068384  0.66032418  0.54475280
   0.07474740  0.90776200  0.54344920
   0.32557436  0.16430051  0.54356342
   0.33823955  0.42133889  0.54334330
   0.33244276  0.66877129  0.54322780
   0.33654059  0.92126306  0.54859561
   0.57988819  0.16588461  0.54613843
   0.57608075  0.41644606  0.54239043
   0.58251624  0.66901329  0.54259895
   0.59045972  0.92765807  0.54884953
   0.83967595  0.16426370  0.54471306
   0.84537084  0.41405534  0.55186480
   0.82570678  0.66545252  0.54131923
   0.82342491  0.90634440  0.54123771
   0.16189819  0.07764932  0.45316127
   0.16744118  0.34080966  0.45542034
   0.17095128  0.59092249  0.45220511
   0.16482191  0.83175969  0.45384821
   0.42272867  0.08381943  0.45606281
   0.41801862  0.33640116  0.45511088
   0.41974697  0.58283854  0.45166385
   0.42282058  0.84293269  0.45830192
   0.67670887  0.09369664  0.45696600
   0.66824207  0.33982151  0.45999324
   0.66519475  0.57550714  0.45606729
   0.65641039  0.83004195  0.45740625
   0.91710190  0.08394387  0.45403346
   0.92537944  0.34111032  0.45848166
   0.91229131  0.57967240  0.45567534
   0.91720940  0.83987644  0.45210626
   0.08501167  0.16044700  0.39463763
   0.08586909  0.41386553  0.39268881
   0.07261839  0.66817571  0.39541895
   0.08463868  0.91533338  0.39378369
   0.33712395  0.17762902  0.39491244
   0.32238802  0.41001329  0.39636597
   0.33304027  0.66841065  0.39697938
   0.33309952  0.91538848  0.39936170
   0.57453223  0.15976623  0.39708498
   0.58367086  0.40878145  0.39703845
   0.59008189  0.67015008  0.39681358
   0.59721261  0.92654389  0.39376613
   0.83298370  0.15883275  0.39038109
   0.83939856  0.41436255  0.39976731
   0.82291856  0.66062398  0.39418822
   0.83036814  0.91735122  0.39452603
   0.15881840  0.07761744  0.60709804
   0.17070202  0.33143069  0.60023500
   0.17114020  0.58980233  0.60562178
   0.16427173  0.83914082  0.60389082
   0.40929154  0.08649042  0.60312959
   0.42082366  0.33036237  0.60526657
   0.41709237  0.58934887  0.60276557
   0.42204033  0.83093595  0.60655465
   0.67317948  0.08094469  0.60947926
   0.66017990  0.32931784  0.60751330
   0.65673845  0.57419978  0.60402803
   0.67658195  0.83277019  0.60361204
   0.92052270  0.07754519  0.59881655
   0.92015584  0.32819170  0.60767061
   0.90968311  0.57922689  0.60406218
   0.91619738  0.83390104  0.60252682
   0.99252892  0.99674002  0.49462183
   0.99898718  0.25197885  0.50052356
   0.00247027  0.50259017  0.50154318
   0.99244753  0.74787032  0.49791162
   0.25163101  0.00906696  0.49950947
   0.25122157  0.25138840  0.49758163
   0.24684657  0.50777683  0.49852953
   0.24725805  0.75236933  0.50027589
   0.49571482  0.99433659  0.50580217
   0.50520970  0.24913042  0.50286817
   0.49231687  0.50028839  0.49597712
   0.50368999  0.74919058  0.50175076
   0.75172835  0.00524822  0.50328945
   0.75445930  0.25445452  0.50421744
   0.74701248  0.50024543  0.49995876
   0.74367950  0.74507336  0.49770671
 
 position of ions in cartesian coordinates  (Angst):
  -0.01127049  1.96457823 15.04176385
  -1.63014810  5.03051598 15.18547650
  -3.44129966  7.88819495 15.14969587
  -5.22976379 10.84407298 15.11344248
   3.35778890  1.96272445 15.11661897
   1.75970033  5.03329032 15.11049737
  -0.02680017  7.98910362 15.10728517
  -1.71170879 11.00535587 15.25656531
   6.85486497  1.98164810 15.18823056
   5.07422442  4.97484085 15.08399773
   3.42104107  7.99199456 15.08979670
   1.74674190 11.08175035 15.26362689
  10.44955320  1.96228477 15.14859052
   8.80529714  4.94628142 15.34748213
   6.80016667  7.94945785 15.05420739
   5.10726096 10.82713842 15.05194027
   1.69767463  0.92759435 12.60251511
  -0.04088058  4.07129278 12.66534024
  -1.71748883  7.05912627 12.57592398
  -3.46308978  9.93615378 12.62161902
   5.25301158  1.00130218 12.68320746
   3.44598668  4.01862904 12.65673425
   1.77015054  6.96255588 12.56087145
   0.01868029 10.06962574 12.74547774
   8.68828805  1.11929476 12.70832539
   6.87397550  4.05948839 12.79251382
   5.20641859  6.87497537 12.68333215
   3.32972242  9.91563374 12.72056883
  12.07153099  1.00278872 12.62677083
  10.41203600  4.07488445 12.75047642
   8.58613744  6.92473338 12.67243207
   6.85935198 10.03311601 12.57317500
   0.06604792  1.91669064 10.97495980
  -1.66995080  4.94401404 10.92076265
  -3.60670636  7.98198890 10.99668838
  -5.14554337 10.93452023 10.95121145
   3.42517714  2.12194608 10.98260225
   1.61915709  4.89799533 11.02302525
  -0.01607070  7.98479542 11.04008435
  -1.71865786 10.93517850 11.10633727
   6.82318335  1.90855821 11.04302109
   5.23178507  4.88327984 11.04172708
   3.51756104  8.00557462 11.03547350
   1.84757577 11.06844037 10.95072317
  10.39469765  1.89740697 10.85658438
   8.72079684  4.94995137 11.11761727
   6.79500853  7.89177630 10.96246162
   5.12712185 10.95862526 10.97185616
   1.65541190  0.92721347 16.88353076
   0.06878607  3.95925214 16.69266810
  -1.70715716  7.04574498 16.84247557
  -3.52158653 10.02432831 16.79433728
   5.04923825  1.03320961 16.77316720
   3.52632884  3.94649002 16.83259720
   1.68863132  7.04032790 16.76304385
   0.09065905  9.92631335 16.86841880
   8.72755372  0.96696068 16.94975293
   6.83520975  3.93401207 16.89507917
   5.09878929  6.85935781 16.79815314
   3.58915198  9.94822517 16.78658428
  12.16284917  0.92635042 16.65322060
  10.42908147  3.92055927 16.89945406
   8.55323263  6.91941140 16.79910289
   6.88660457  9.96173418 16.75640411
   6.81642143 11.90699936 13.75554236
  12.04211940  3.01012492 13.91967075
  -3.43228618  6.00391350 13.94802662
   8.53175143  8.93401616 13.84703210
   3.40846007  0.10831337 13.89146880
   1.73152280  3.00307147 13.83785511
  -0.09713514  6.06587305 13.86421632
  -1.77841206  8.98776105 13.91278300
  -0.02004925 11.87828809 14.06647007
   5.25060511  2.97609771 13.98487509
   3.34052663  5.97641658 13.79323341
   1.78073054  8.94978782 13.95379949
  10.33313397  0.06269491 13.99659088
   8.65203039  3.03969922 14.02239858
   6.85409079  5.97590331 13.90396364
   5.11953905  8.90060381 13.84133374
 


--------------------------------------------------------------------------------------------------------


 k-point  1 :   0.0000 0.0000 0.0000  plane waves:  153003
 k-point  2 :   0.3333-0.0000 0.0000  plane waves:  152954
 k-point  3 :   0.0000 0.3333 0.0000  plane waves:  152954
 k-point  4 :   0.3333 0.3333 0.0000  plane waves:  152898
 k-point  5 :  -0.3333 0.3333 0.0000  plane waves:  152954

 maximum and minimum number of plane-waves per node :     11814    11730

 maximum number of plane-waves:    153003
 maximum index in each direction: 
   IXMAX=   27   IYMAX=   27   IZMAX=   55
   IXMIN=  -27   IYMIN=  -27   IZMIN=  -55


 real space projection operators:
  total allocation   :      55013.58 KBytes
  max/ min on nodes  :       4456.41       3874.91


 parallel 3D FFT for wavefunctions:
    minimum data exchange during FFTs selected (reduces bandwidth)
 parallel 3D FFT for charge:
    minimum data exchange during FFTs selected (reduces bandwidth)


 total amount of memory used by VASP MPI-rank0   253938. kBytes
=======================================================================

   base      :      30000. kBytes
   nonlr-proj:      18754. kBytes
   fftplans  :      72602. kBytes
   grid      :      41267. kBytes
   one-center:        108. kBytes
   wavefun   :      91207. kBytes
 
     INWAV:  cpu time    0.0000: real time    0.0000
 Broyden mixing: mesh for mixing (old mesh)
   NGX = 55   NGY = 55   NGZ =111
  (NGX  =224   NGY  =224   NGZ  =448)
  gives a total of 335775 points

 initial charge density was supplied:
 charge density of overlapping atoms calculated
 number of electron     640.0000000 magnetization 
 keeping initial charge density in first step


--------------------------------------------------------------------------------------------------------


 Maximum index for non-local projection operator          949
 Maximum index for augmentation-charges         5125 (set IRDMAX)


--------------------------------------------------------------------------------------------------------


 First call to EWALD:  gamma=   0.107
 Maximum number of real-space cells 4x 4x 2
 Maximum number of reciprocal cells 2x 2x 4

    FEWALD:  cpu time    0.0063: real time    0.0063


--------------------------------------- Iteration      1(   1)  ---------------------------------------


    POTLOK:  cpu time    1.1160: real time    1.1248
    SETDIJ:  cpu time    1.1964: real time    1.1964
     EDDAV:  cpu time  136.6324: real time  136.6369
       DOS:  cpu time    0.0021: real time    0.0021
    --------------------------------------------
      LOOP:  cpu time  138.9469: real time  138.9602

 eigenvalue-minimisations  :  4424
 total energy-change (2. order) : 0.1223396E+05  (-0.2678472E+05)
 number of electron     640.0000000 magnetization 
 augmentation part      640.0000000 magnetization 

 Free energy of the ion-electron system (eV)
  ---------------------------------------------------
  alpha Z        PSCENC =       784.57699423
  Ewald energy   TEWEN  =    253416.68586971
  -Hartree energ DENC   =   -301064.84613956
  -exchange      EXHF   =         0.00000000
  -V(xc)+E(xc)   XCENC  =      2503.57097980
  PAW double counting   =     43679.68029659   -43417.33247688
  entropy T*S    EENTRO =        -0.06653751
  eigenvalues    EBANDS =       120.96962941
  atomic energy  EATOM  =     56210.72393729
  Solvation  Ediel_sol  =         0.00000000
  ---------------------------------------------------
  free energy    TOTEN  =     12233.96255308 eV

  energy without entropy =    12234.02909059  energy(sigma->0) =    12233.99582183


--------------------------------------------------------------------------------------------------------




--------------------------------------- Iteration      1(   2)  ---------------------------------------


     EDDAV:  cpu time  169.2629: real time  169.2869
       DOS:  cpu time    0.0011: real time    0.0011
    --------------------------------------------
      LOOP:  cpu time  169.2640: real time  169.2880

 eigenvalue-minimisations  :  5232
 total energy-change (2. order) :-0.1050472E+05  (-0.1024071E+05)
 number of electron     640.0000000 magnetization 
 augmentation part      640.0000000 magnetization 

 Free energy of the ion-electron system (eV)
  ---------------------------------------------------
  alpha Z        PSCENC =       784.57699423
  Ewald energy   TEWEN  =    253416.68586971
  -Hartree energ DENC   =   -301064.84613956
  -exchange      EXHF   =         0.00000000
  -V(xc)+E(xc)   XCENC  =      2503.57097980
  PAW double counting   =     43679.68029659   -43417.33247688
  entropy T*S    EENTRO =        -0.04083723
  eigenvalues    EBANDS =    -10383.77982277
  atomic energy  EATOM  =     56210.72393729
  Solvation  Ediel_sol  =         0.00000000
  ---------------------------------------------------
  free energy    TOTEN  =      1729.23880117 eV

  energy without entropy =     1729.27963841  energy(sigma->0) =     1729.25921979


--------------------------------------------------------------------------------------------------------




--------------------------------------- Iteration      1(   3)  ---------------------------------------


     EDDAV:  cpu time  210.2416: real time  210.2525
       DOS:  cpu time    0.0006: real time    0.0006
    --------------------------------------------
      LOOP:  cpu time  210.2422: real time  210.2531

 eigenvalue-minimisations  :  6800
 total energy-change (2. order) :-0.2141202E+04  (-0.2055207E+04)
 number of electron     640.0000000 magnetization 
 augmentation part      640.0000000 magnetization 

 Free energy of the ion-electron system (eV)
  ---------------------------------------------------
  alpha Z        PSCENC =       784.57699423
  Ewald energy   TEWEN  =    253416.68586971
  -Hartree energ DENC   =   -301064.84613956
  -exchange      EXHF   =         0.00000000
  -V(xc)+E(xc)   XCENC  =      2503.57097980
  PAW double counting   =     43679.68029659   -43417.33247688
  entropy T*S    EENTRO =        -0.00000000
  eigenvalues    EBANDS =    -12525.02309531
  atomic energy  EATOM  =     56210.72393729
  Solvation  Ediel_sol  =         0.00000000
  ---------------------------------------------------
  free energy    TOTEN  =      -411.96363413 eV

  energy without entropy =     -411.96363413  energy(sigma->0) =     -411.96363413


--------------------------------------------------------------------------------------------------------




--------------------------------------- Iteration      1(   4)  ---------------------------------------


     EDDAV:  cpu time  191.6028: real time  191.6128
       DOS:  cpu time    0.0005: real time    0.0005
    --------------------------------------------
      LOOP:  cpu time  191.6033: real time  191.6134

 eigenvalue-minimisations  :  6088
 total energy-change (2. order) :-0.2337695E+03  (-0.2294601E+03)
 number of electron     640.0000000 magnetization 
 augmentation part      640.0000000 magnetization 

 Free energy of the ion-electron system (eV)
  ---------------------------------------------------
  alpha Z        PSCENC =       784.57699423
  Ewald energy   TEWEN  =    253416.68586971
  -Hartree energ DENC   =   -301064.84613956
  -exchange      EXHF   =         0.00000000
  -V(xc)+E(xc)   XCENC  =      2503.57097980
  PAW double counting   =     43679.68029659   -43417.33247688
  entropy T*S    EENTRO =        -0.00000000
  eigenvalues    EBANDS =    -12758.79257301
  atomic energy  EATOM  =     56210.72393729
  Solvation  Ediel_sol  =         0.00000000
  ---------------------------------------------------
  free energy    TOTEN  =      -645.73311184 eV

  energy without entropy =     -645.73311184  energy(sigma->0) =     -645.73311184


--------------------------------------------------------------------------------------------------------




--------------------------------------- Iteration      1(   5)  ---------------------------------------


     EDDAV:  cpu time  191.4058: real time  191.4154
       DOS:  cpu time    0.0010: real time    0.0010
    CHARGE:  cpu time   12.6090: real time   12.6091
    MIXING:  cpu time    0.2013: real time    0.2013
    --------------------------------------------
      LOOP:  cpu time  204.2171: real time  204.2268

 eigenvalue-minimisations  :  6080
 total energy-change (2. order) :-0.1018222E+02  (-0.1013186E+02)
 number of electron     640.0000003 magnetization 
 augmentation part       59.2487980 magnetization 

 Broyden mixing:
  rms(total) = 0.69329E+01    rms(broyden)= 0.69327E+01
  rms(prec ) = 0.72959E+01
  weight for this iteration     100.00

 Free energy of the ion-electron system (eV)
  ---------------------------------------------------
  alpha Z        PSCENC =       784.57699423
  Ewald energy   TEWEN  =    253416.68586971
  -Hartree energ DENC   =   -301064.84613956
  -exchange      EXHF   =         0.00000000
  -V(xc)+E(xc)   XCENC  =      2503.57097980
  PAW double counting   =     43679.68029659   -43417.33247688
  entropy T*S    EENTRO =        -0.00000000
  eigenvalues    EBANDS =    -12768.97478853
  atomic energy  EATOM  =     56210.72393729
  Solvation  Ediel_sol  =         0.00000000
  ---------------------------------------------------
  free energy    TOTEN  =      -655.91532735 eV

  energy without entropy =     -655.91532735  energy(sigma->0) =     -655.91532735


--------------------------------------------------------------------------------------------------------




--------------------------------------- Iteration      1(   6)  ---------------------------------------


    POTLOK:  cpu time    1.1010: real time    1.1091
    SETDIJ:  cpu time    1.1238: real time    1.1238
     EDDAV:  cpu time  185.8589: real time  185.8641
       DOS:  cpu time    0.0009: real time    0.0009
    CHARGE:  cpu time   12.7320: real time   12.7321
    MIXING:  cpu time    0.2004: real time    0.2004
    --------------------------------------------
      LOOP:  cpu time  201.0170: real time  201.0304

 eigenvalue-minimisations  :  5840
 total energy-change (2. order) : 0.1302935E+03  (-0.6940579E+02)
 number of electron     640.0000004 magnetization 
 augmentation part       70.0583870 magnetization 

 Broyden mixing:
  rms(total) = 0.30063E+01    rms(broyden)= 0.30062E+01
  rms(prec ) = 0.30389E+01
  weight for this iteration     100.00

 eigenvalues of (default mixing * dielectric matrix)
  average eigenvalue GAMMA=   0.9556
  0.9556

 Free energy of the ion-electron system (eV)
  ---------------------------------------------------
  alpha Z        PSCENC =       784.57699423
  Ewald energy   TEWEN  =    253416.68586971
  -Hartree energ DENC   =   -300881.20256504
  -exchange      EXHF   =         0.00000000
  -V(xc)+E(xc)   XCENC  =      2493.05258920
  PAW double counting   =     49229.13677906   -49021.38517894
  entropy T*S    EENTRO =        -0.00000000
  eigenvalues    EBANDS =    -12757.21030037
  atomic energy  EATOM  =     56210.72393729
  Solvation  Ediel_sol  =         0.00000000
  ---------------------------------------------------
  free energy    TOTEN  =      -525.62187486 eV

  energy without entropy =     -525.62187486  energy(sigma->0) =     -525.62187486


--------------------------------------------------------------------------------------------------------




--------------------------------------- Iteration      1(   7)  ---------------------------------------


    POTLOK:  cpu time    1.1001: real time    1.1082
    SETDIJ:  cpu time    1.1246: real time    1.1246
     EDDAV:  cpu time  186.3400: real time  186.3512
       DOS:  cpu time    0.0007: real time    0.0007
    CHARGE:  cpu time   12.7177: real time   12.7178
    MIXING:  cpu time    0.2018: real time    0.2018
    --------------------------------------------
      LOOP:  cpu time  201.4849: real time  201.5043

 eigenvalue-minimisations  :  5864
 total energy-change (2. order) :-0.4838201E+01  (-0.8641116E+01)
 number of electron     640.0000004 magnetization 
 augmentation part       69.5464543 magnetization 

 Broyden mixing:
  rms(total) = 0.15210E+01    rms(broyden)= 0.15210E+01
  rms(prec ) = 0.15569E+01
  weight for this iteration     100.00

 eigenvalues of (default mixing * dielectric matrix)
  average eigenvalue GAMMA=   1.0074
  1.0074  1.0074

 Free energy of the ion-electron system (eV)
  ---------------------------------------------------
  alpha Z        PSCENC =       784.57699423
  Ewald energy   TEWEN  =    253416.68586971
  -Hartree energ DENC   =   -300984.23452843
  -exchange      EXHF   =         0.00000000
  -V(xc)+E(xc)   XCENC  =      2489.12571918
  PAW double counting   =     54254.99665417   -54061.70401461
  entropy T*S    EENTRO =        -0.00000000
  eigenvalues    EBANDS =    -12640.63070739
  atomic energy  EATOM  =     56210.72393729
  Solvation  Ediel_sol  =         0.00000000
  ---------------------------------------------------
  free energy    TOTEN  =      -530.46007586 eV

  energy without entropy =     -530.46007586  energy(sigma->0) =     -530.46007586


--------------------------------------------------------------------------------------------------------




--------------------------------------- Iteration      1(   8)  ---------------------------------------


    POTLOK:  cpu time    1.0973: real time    1.1114
    SETDIJ:  cpu time    1.1229: real time    1.1229
     EDDAV:  cpu time  193.6953: real time  193.6973
       DOS:  cpu time    0.0008: real time    0.0008
    CHARGE:  cpu time   12.7018: real time   12.7019
    MIXING:  cpu time    0.2057: real time    0.2057
    --------------------------------------------
      LOOP:  cpu time  208.8239: real time  208.8399

 eigenvalue-minimisations  :  6144
 total energy-change (2. order) : 0.2237332E+01  (-0.9674798E+00)
 number of electron     640.0000004 magnetization 
 augmentation part       69.2548267 magnetization 

 Broyden mixing:
  rms(total) = 0.92352E+00    rms(broyden)= 0.92352E+00
  rms(prec ) = 0.93967E+00
  weight for this iteration     100.00

 eigenvalues of (default mixing * dielectric matrix)
  average eigenvalue GAMMA=   1.4432
  2.5865  0.8716  0.8716

 Free energy of the ion-electron system (eV)
  ---------------------------------------------------
  alpha Z        PSCENC =       784.57699423
  Ewald energy   TEWEN  =    253416.68586971
  -Hartree energ DENC   =   -301058.10903688
  -exchange      EXHF   =         0.00000000
  -V(xc)+E(xc)   XCENC  =      2489.17021345
  PAW double counting   =     56215.84941666   -56033.28306076
  entropy T*S    EENTRO =        -0.00000000
  eigenvalues    EBANDS =    -12553.83707775
  atomic energy  EATOM  =     56210.72393729
  Solvation  Ediel_sol  =         0.00000000
  ---------------------------------------------------
  free energy    TOTEN  =      -528.22274405 eV

  energy without entropy =     -528.22274405  energy(sigma->0) =     -528.22274405


--------------------------------------------------------------------------------------------------------




--------------------------------------- Iteration      1(   9)  ---------------------------------------


    POTLOK:  cpu time    1.1048: real time    1.1131
    SETDIJ:  cpu time    1.1224: real time    1.1224
     EDDAV:  cpu time  173.3202: real time  173.3243
       DOS:  cpu time    0.0010: real time    0.0010
    CHARGE:  cpu time   12.7006: real time   12.7007
    MIXING:  cpu time    0.2059: real time    0.2059
    --------------------------------------------
      LOOP:  cpu time  188.4549: real time  188.4674

 eigenvalue-minimisations  :  5368
 total energy-change (2. order) : 0.5427811E+00  (-0.3705207E+00)
 number of electron     640.0000004 magnetization 
 augmentation part       70.0106657 magnetization 

 Broyden mixing:
  rms(total) = 0.31039E+00    rms(broyden)= 0.31038E+00
  rms(prec ) = 0.32246E+00
  weight for this iteration     100.00

 eigenvalues of (default mixing * dielectric matrix)
  average eigenvalue GAMMA=   1.2287
  2.0989  0.8712  0.8712  1.0734

 Free energy of the ion-electron system (eV)
  ---------------------------------------------------
  alpha Z        PSCENC =       784.57699423
  Ewald energy   TEWEN  =    253416.68586971
  -Hartree energ DENC   =   -301192.49443521
  -exchange      EXHF   =         0.00000000
  -V(xc)+E(xc)   XCENC  =      2488.62136119
  PAW double counting   =     60075.35275851   -59910.21468538
  entropy T*S    EENTRO =        -0.00000000
  eigenvalues    EBANDS =    -12400.93176327
  atomic energy  EATOM  =     56210.72393729
  Solvation  Ediel_sol  =         0.00000000
  ---------------------------------------------------
  free energy    TOTEN  =      -527.67996294 eV

  energy without entropy =     -527.67996294  energy(sigma->0) =     -527.67996294


--------------------------------------------------------------------------------------------------------




--------------------------------------- Iteration      1(  10)  ---------------------------------------


    POTLOK:  cpu time    1.1015: real time    1.1097
    SETDIJ:  cpu time    1.1236: real time    1.1236
     EDDAV:  cpu time  180.5169: real time  180.5196
       DOS:  cpu time    0.0007: real time    0.0007
    CHARGE:  cpu time   12.7101: real time   12.7102
    MIXING:  cpu time    0.2077: real time    0.2077
    --------------------------------------------
      LOOP:  cpu time  195.6606: real time  195.6714

 eigenvalue-minimisations  :  5640
 total energy-change (2. order) : 0.1227552E+00  (-0.6129660E-01)
 number of electron     640.0000004 magnetization 
 augmentation part       69.7900505 magnetization 

 Broyden mixing:
  rms(total) = 0.17268E+00    rms(broyden)= 0.17268E+00
  rms(prec ) = 0.17925E+00
  weight for this iteration     100.00

 eigenvalues of (default mixing * dielectric matrix)
  average eigenvalue GAMMA=   1.2553
  1.9174  1.9174  0.8982  0.8982  0.6452

 Free energy of the ion-electron system (eV)
  ---------------------------------------------------
  alpha Z        PSCENC =       784.57699423
  Ewald energy   TEWEN  =    253416.68586971
  -Hartree energ DENC   =   -301218.10755220
  -exchange      EXHF   =         0.00000000
  -V(xc)+E(xc)   XCENC  =      2489.30272215
  PAW double counting   =     59398.32583794   -59230.22703949
  entropy T*S    EENTRO =        -0.00000000
  eigenvalues    EBANDS =    -12378.83797734
  atomic energy  EATOM  =     56210.72393729
  Solvation  Ediel_sol  =         0.00000000
  ---------------------------------------------------
  free energy    TOTEN  =      -527.55720771 eV

  energy without entropy =     -527.55720771  energy(sigma->0) =     -527.55720771


--------------------------------------------------------------------------------------------------------




--------------------------------------- Iteration      1(  11)  ---------------------------------------


    POTLOK:  cpu time    1.1027: real time    1.1110
    SETDIJ:  cpu time    1.0849: real time    1.0849
     EDDAV:  cpu time  179.7547: real time  179.7566
       DOS:  cpu time    0.0008: real time    0.0008
    CHARGE:  cpu time   12.4804: real time   12.4804
    MIXING:  cpu time    0.2039: real time    0.2039
    --------------------------------------------
      LOOP:  cpu time  194.6274: real time  194.6377

 eigenvalue-minimisations  :  5632
 total energy-change (2. order) : 0.2080863E-01  (-0.1857334E-01)
 number of electron     640.0000004 magnetization 
 augmentation part       69.7061793 magnetization 

 Broyden mixing:
  rms(total) = 0.80798E-01    rms(broyden)= 0.80797E-01
  rms(prec ) = 0.86721E-01
  weight for this iteration     100.00

 eigenvalues of (default mixing * dielectric matrix)
  average eigenvalue GAMMA=   1.2729
  2.5057  1.6743  0.8868  0.8868  0.9184  0.7654

 Free energy of the ion-electron system (eV)
  ---------------------------------------------------
  alpha Z        PSCENC =       784.57699423
  Ewald energy   TEWEN  =    253416.68586971
  -Hartree energ DENC   =   -301272.72998050
  -exchange      EXHF   =         0.00000000
  -V(xc)+E(xc)   XCENC  =      2489.96256488
  PAW double counting   =     59514.88366325   -59346.97542756
  entropy T*S    EENTRO =        -0.00000000
  eigenvalues    EBANDS =    -12324.66402038
  atomic energy  EATOM  =     56210.72393729
  Solvation  Ediel_sol  =         0.00000000
  ---------------------------------------------------
  free energy    TOTEN  =      -527.53639909 eV

  energy without entropy =     -527.53639909  energy(sigma->0) =     -527.53639909


--------------------------------------------------------------------------------------------------------




--------------------------------------- Iteration      1(  12)  ---------------------------------------


    POTLOK:  cpu time    1.0972: real time    1.1053
    SETDIJ:  cpu time    1.0796: real time    1.0796
     EDDAV:  cpu time  190.9857: real time  190.9898
       DOS:  cpu time    0.0007: real time    0.0007
    CHARGE:  cpu time   11.8044: real time   11.8044
    MIXING:  cpu time    0.2022: real time    0.2022
    --------------------------------------------
      LOOP:  cpu time  205.1697: real time  205.1820

 eigenvalue-minimisations  :  6072
 total energy-change (2. order) : 0.1516662E-01  (-0.3563609E-02)
 number of electron     640.0000004 magnetization 
 augmentation part       69.7354202 magnetization 

 Broyden mixing:
  rms(total) = 0.29426E-01    rms(broyden)= 0.29426E-01
  rms(prec ) = 0.36632E-01
  weight for this iteration     100.00

 eigenvalues of (default mixing * dielectric matrix)
  average eigenvalue GAMMA=   1.2826
  2.2486  2.2486  0.9412  0.9412  0.9421  0.9421  0.7144

 Free energy of the ion-electron system (eV)
  ---------------------------------------------------
  alpha Z        PSCENC =       784.57699423
  Ewald energy   TEWEN  =    253416.68586971
  -Hartree energ DENC   =   -301303.73975022
  -exchange      EXHF   =         0.00000000
  -V(xc)+E(xc)   XCENC  =      2490.25178781
  PAW double counting   =     59671.03752626   -59503.66391197
  entropy T*S    EENTRO =        -0.00000000
  eigenvalues    EBANDS =    -12293.39368557
  atomic energy  EATOM  =     56210.72393729
  Solvation  Ediel_sol  =         0.00000000
  ---------------------------------------------------
  free energy    TOTEN  =      -527.52123247 eV

  energy without entropy =     -527.52123247  energy(sigma->0) =     -527.52123247


--------------------------------------------------------------------------------------------------------




--------------------------------------- Iteration      1(  13)  ---------------------------------------


    POTLOK:  cpu time    1.0963: real time    1.1047
    SETDIJ:  cpu time    1.0788: real time    1.0811
     EDDAV:  cpu time  170.5504: real time  170.5680
       DOS:  cpu time    0.0015: real time    0.0015
    CHARGE:  cpu time   11.7453: real time   11.7476
    MIXING:  cpu time    0.2016: real time    0.2016
    --------------------------------------------
      LOOP:  cpu time  184.6738: real time  184.7045

 eigenvalue-minimisations  :  5296
 total energy-change (2. order) : 0.2958001E-02  (-0.8512848E-03)
 number of electron     640.0000004 magnetization 
 augmentation part       69.7429164 magnetization 

 Broyden mixing:
  rms(total) = 0.17024E-01    rms(broyden)= 0.17024E-01
  rms(prec ) = 0.24059E-01
  weight for this iteration     100.00

 eigenvalues of (default mixing * dielectric matrix)
  average eigenvalue GAMMA=   1.3427
  2.8498  2.0299  1.5910  0.8983  0.8983  0.8970  0.8970  0.6805

 Free energy of the ion-electron system (eV)
  ---------------------------------------------------
  alpha Z        PSCENC =       784.57699423
  Ewald energy   TEWEN  =    253416.68586971
  -Hartree energ DENC   =   -301326.58191610
  -exchange      EXHF   =         0.00000000
  -V(xc)+E(xc)   XCENC  =      2490.45005493
  PAW double counting   =     59625.81060853   -59458.24509916
  entropy T*S    EENTRO =        -0.00000000
  eigenvalues    EBANDS =    -12270.93872389
  atomic energy  EATOM  =     56210.72393729
  Solvation  Ediel_sol  =         0.00000000
  ---------------------------------------------------
  free energy    TOTEN  =      -527.51827446 eV

  energy without entropy =     -527.51827446  energy(sigma->0) =     -527.51827446


--------------------------------------------------------------------------------------------------------




--------------------------------------- Iteration      1(  14)  ---------------------------------------


    POTLOK:  cpu time    1.0879: real time    1.1044
    SETDIJ:  cpu time    1.0816: real time    1.0816
     EDDAV:  cpu time  168.5518: real time  168.5539
       DOS:  cpu time    0.0010: real time    0.0010
    CHARGE:  cpu time   12.2620: real time   12.2621
    MIXING:  cpu time    0.2059: real time    0.2058
    --------------------------------------------
      LOOP:  cpu time  183.1900: real time  183.2088

 eigenvalue-minimisations  :  5216
 total energy-change (2. order) : 0.1731106E-02  (-0.6724691E-03)
 number of electron     640.0000004 magnetization 
 augmentation part       69.7510319 magnetization 

 Broyden mixing:
  rms(total) = 0.17161E-01    rms(broyden)= 0.17161E-01
  rms(prec ) = 0.20547E-01
  weight for this iteration     100.00

 eigenvalues of (default mixing * dielectric matrix)
  average eigenvalue GAMMA=   1.3367
  2.6377  2.6377  1.6504  0.9387  0.9387  0.9077  0.9077  0.7060  0.7060

 Free energy of the ion-electron system (eV)
  ---------------------------------------------------
  alpha Z        PSCENC =       784.57699423
  Ewald energy   TEWEN  =    253416.68586971
  -Hartree energ DENC   =   -301355.46543906
  -exchange      EXHF   =         0.00000000
  -V(xc)+E(xc)   XCENC  =      2490.63134728
  PAW double counting   =     59631.51322835   -59463.97517500
  entropy T*S    EENTRO =        -0.00000000
  eigenvalues    EBANDS =    -12242.20730616
  atomic energy  EATOM  =     56210.72393729
  Solvation  Ediel_sol  =         0.00000000
  ---------------------------------------------------
  free energy    TOTEN  =      -527.51654336 eV

  energy without entropy =     -527.51654336  energy(sigma->0) =     -527.51654336


--------------------------------------------------------------------------------------------------------




--------------------------------------- Iteration      1(  15)  ---------------------------------------


    POTLOK:  cpu time    1.0992: real time    1.1081
    SETDIJ:  cpu time    1.0804: real time    1.0804
     EDDAV:  cpu time  180.7760: real time  180.7778
       DOS:  cpu time    0.0009: real time    0.0009
    CHARGE:  cpu time   12.0345: real time   12.0345
    MIXING:  cpu time    0.2043: real time    0.2043
    --------------------------------------------
      LOOP:  cpu time  195.1953: real time  195.2060

 eigenvalue-minimisations  :  5680
 total energy-change (2. order) :-0.1768359E-02  (-0.1736348E-03)
 number of electron     640.0000004 magnetization 
 augmentation part       69.7511120 magnetization 

 Broyden mixing:
  rms(total) = 0.10025E-01    rms(broyden)= 0.10025E-01
  rms(prec ) = 0.12969E-01
  weight for this iteration     100.00

 eigenvalues of (default mixing * dielectric matrix)
  average eigenvalue GAMMA=   1.3674
  2.9707  2.7213  1.3992  1.3992  0.9616  0.9616  0.8704  0.8704  0.8602  0.6599

 Free energy of the ion-electron system (eV)
  ---------------------------------------------------
  alpha Z        PSCENC =       784.57699423
  Ewald energy   TEWEN  =    253416.68586971
  -Hartree energ DENC   =   -301370.59418795
  -exchange      EXHF   =         0.00000000
  -V(xc)+E(xc)   XCENC  =      2490.69566217
  PAW double counting   =     59596.70648631   -59429.05414235
  entropy T*S    EENTRO =        -0.00000000
  eigenvalues    EBANDS =    -12227.25893112
  atomic energy  EATOM  =     56210.72393729
  Solvation  Ediel_sol  =         0.00000000
  ---------------------------------------------------
  free energy    TOTEN  =      -527.51831172 eV

  energy without entropy =     -527.51831172  energy(sigma->0) =     -527.51831172


--------------------------------------------------------------------------------------------------------




--------------------------------------- Iteration      1(  16)  ---------------------------------------


    POTLOK:  cpu time    1.1013: real time    1.1096
    SETDIJ:  cpu time    1.0781: real time    1.0781
     EDDAV:  cpu time  188.5619: real time  188.5662
       DOS:  cpu time    0.0009: real time    0.0009
    CHARGE:  cpu time   12.0444: real time   12.0444
    MIXING:  cpu time    0.2027: real time    0.2027
    --------------------------------------------
      LOOP:  cpu time  202.9893: real time  203.0019

 eigenvalue-minimisations  :  5928
 total energy-change (2. order) :-0.2688055E-02  (-0.1127667E-03)
 number of electron     640.0000004 magnetization 
 augmentation part       69.7507441 magnetization 

 Broyden mixing:
  rms(total) = 0.55742E-02    rms(broyden)= 0.55741E-02
  rms(prec ) = 0.77285E-02
  weight for this iteration     100.00

 eigenvalues of (default mixing * dielectric matrix)
  average eigenvalue GAMMA=   1.4497
  3.7408  2.4152  2.3607  1.3297  0.9962  0.9663  0.9663  0.8775  0.8775  0.6776
  0.7385

 Free energy of the ion-electron system (eV)
  ---------------------------------------------------
  alpha Z        PSCENC =       784.57699423
  Ewald energy   TEWEN  =    253416.68586971
  -Hartree energ DENC   =   -301385.19873724
  -exchange      EXHF   =         0.00000000
  -V(xc)+E(xc)   XCENC  =      2490.75761634
  PAW double counting   =     59583.52056273   -59415.86343426
  entropy T*S    EENTRO =        -0.00000000
  eigenvalues    EBANDS =    -12212.72380858
  atomic energy  EATOM  =     56210.72393729
  Solvation  Ediel_sol  =         0.00000000
  ---------------------------------------------------
  free energy    TOTEN  =      -527.52099977 eV

  energy without entropy =     -527.52099977  energy(sigma->0) =     -527.52099977


--------------------------------------------------------------------------------------------------------




--------------------------------------- Iteration      1(  17)  ---------------------------------------


    POTLOK:  cpu time    1.1008: real time    1.1092
    SETDIJ:  cpu time    1.0802: real time    1.0802
     EDDAV:  cpu time  161.4513: real time  161.4525
       DOS:  cpu time    0.0009: real time    0.0009
    CHARGE:  cpu time   12.2607: real time   12.2608
    MIXING:  cpu time    0.2045: real time    0.2045
    --------------------------------------------
      LOOP:  cpu time  176.0983: real time  176.1081

 eigenvalue-minimisations  :  4896
 total energy-change (2. order) :-0.3826939E-02  (-0.7101167E-04)
 number of electron     640.0000004 magnetization 
 augmentation part       69.7505985 magnetization 

 Broyden mixing:
  rms(total) = 0.31231E-02    rms(broyden)= 0.31230E-02
  rms(prec ) = 0.43527E-02
  weight for this iteration     100.00

 eigenvalues of (default mixing * dielectric matrix)
  average eigenvalue GAMMA=   1.4860
  4.4210  2.6655  2.4146  1.3050  1.1156  0.9582  0.9582  0.8873  0.8873  0.7806
  0.7806  0.6584

 Free energy of the ion-electron system (eV)
  ---------------------------------------------------
  alpha Z        PSCENC =       784.57699423
  Ewald energy   TEWEN  =    253416.68586971
  -Hartree energ DENC   =   -301398.99727531
  -exchange      EXHF   =         0.00000000
  -V(xc)+E(xc)   XCENC  =      2490.79527697
  PAW double counting   =     59583.07589134   -59415.46885806
  entropy T*S    EENTRO =        -0.00000000
  eigenvalues    EBANDS =    -12198.91666289
  atomic energy  EATOM  =     56210.72393729
  Solvation  Ediel_sol  =         0.00000000
  ---------------------------------------------------
  free energy    TOTEN  =      -527.52482671 eV

  energy without entropy =     -527.52482671  energy(sigma->0) =     -527.52482671


--------------------------------------------------------------------------------------------------------




--------------------------------------- Iteration      1(  18)  ---------------------------------------


    POTLOK:  cpu time    1.1016: real time    1.1116
    SETDIJ:  cpu time    1.0816: real time    1.0816
     EDDAV:  cpu time  164.1739: real time  164.1799
       DOS:  cpu time    0.0009: real time    0.0009
    CHARGE:  cpu time   12.2118: real time   12.2119
    MIXING:  cpu time    0.2049: real time    0.2049
    --------------------------------------------
      LOOP:  cpu time  178.7747: real time  178.7908

 eigenvalue-minimisations  :  5000
 total energy-change (2. order) :-0.1723402E-02  (-0.2125368E-04)
 number of electron     640.0000004 magnetization 
 augmentation part       69.7513680 magnetization 

 Broyden mixing:
  rms(total) = 0.21967E-02    rms(broyden)= 0.21967E-02
  rms(prec ) = 0.29550E-02
  weight for this iteration     100.00

 eigenvalues of (default mixing * dielectric matrix)
  average eigenvalue GAMMA=   1.5062
  4.7270  2.7777  2.1816  1.7752  1.1222  1.1222  0.9056  0.9056  0.9291  0.9291
  0.8055  0.6710  0.7285

 Free energy of the ion-electron system (eV)
  ---------------------------------------------------
  alpha Z        PSCENC =       784.57699423
  Ewald energy   TEWEN  =    253416.68586971
  -Hartree energ DENC   =   -301405.29637239
  -exchange      EXHF   =         0.00000000
  -V(xc)+E(xc)   XCENC  =      2490.81159285
  PAW double counting   =     59580.44364976   -59412.84401694
  entropy T*S    EENTRO =        -0.00000000
  eigenvalues    EBANDS =    -12192.62820462
  atomic energy  EATOM  =     56210.72393729
  Solvation  Ediel_sol  =         0.00000000
  ---------------------------------------------------
  free energy    TOTEN  =      -527.52655011 eV

  energy without entropy =     -527.52655011  energy(sigma->0) =     -527.52655011


--------------------------------------------------------------------------------------------------------




--------------------------------------- Iteration      1(  19)  ---------------------------------------


    POTLOK:  cpu time    1.1019: real time    1.1106
    SETDIJ:  cpu time    1.0808: real time    1.0808
     EDDAV:  cpu time  167.6425: real time  167.6468
       DOS:  cpu time    0.0008: real time    0.0008
    CHARGE:  cpu time   12.2229: real time   12.2230
    MIXING:  cpu time    0.2074: real time    0.2074
    --------------------------------------------
      LOOP:  cpu time  182.2563: real time  182.2694

 eigenvalue-minimisations  :  5128
 total energy-change (2. order) :-0.1252941E-02  (-0.9430598E-05)
 number of electron     640.0000004 magnetization 
 augmentation part       69.7508924 magnetization 

 Broyden mixing:
  rms(total) = 0.16870E-02    rms(broyden)= 0.16869E-02
  rms(prec ) = 0.22023E-02
  weight for this iteration     100.00

 eigenvalues of (default mixing * dielectric matrix)
  average eigenvalue GAMMA=   1.5706
  5.3756  3.0465  2.2083  2.2083  1.2002  1.2002  0.9835  0.9835  0.8863  0.8863
  0.8334  0.8334  0.6926  0.6500

 Free energy of the ion-electron system (eV)
  ---------------------------------------------------
  alpha Z        PSCENC =       784.57699423
  Ewald energy   TEWEN  =    253416.68586971
  -Hartree energ DENC   =   -301408.62160017
  -exchange      EXHF   =         0.00000000
  -V(xc)+E(xc)   XCENC  =      2490.82215312
  PAW double counting   =     59579.03488569   -59411.42882199
  entropy T*S    EENTRO =        -0.00000000
  eigenvalues    EBANDS =    -12189.32122093
  atomic energy  EATOM  =     56210.72393729
  Solvation  Ediel_sol  =         0.00000000
  ---------------------------------------------------
  free energy    TOTEN  =      -527.52780305 eV

  energy without entropy =     -527.52780305  energy(sigma->0) =     -527.52780305


--------------------------------------------------------------------------------------------------------




--------------------------------------- Iteration      1(  20)  ---------------------------------------


    POTLOK:  cpu time    1.1048: real time    1.1135
    SETDIJ:  cpu time    1.0810: real time    1.0810
     EDDAV:  cpu time  151.6761: real time  151.6801
       DOS:  cpu time    0.0013: real time    0.0012
    CHARGE:  cpu time   11.8481: real time   11.8482
    MIXING:  cpu time    0.2114: real time    0.2114
    --------------------------------------------
      LOOP:  cpu time  165.9226: real time  165.9354

 eigenvalue-minimisations  :  4520
 total energy-change (2. order) :-0.1021481E-02  (-0.3357870E-05)
 number of electron     640.0000004 magnetization 
 augmentation part       69.7504865 magnetization 

 Broyden mixing:
  rms(total) = 0.10903E-02    rms(broyden)= 0.10902E-02
  rms(prec ) = 0.14049E-02
  weight for this iteration     100.00

 eigenvalues of (default mixing * dielectric matrix)
  average eigenvalue GAMMA=   1.5906
  6.1252  3.0571  2.4573  1.9655  1.3929  1.0650  1.0650  1.0038  1.0038  0.8777
  0.8777  0.8085  0.8085  0.7038  0.6467

 Free energy of the ion-electron system (eV)
  ---------------------------------------------------
  alpha Z        PSCENC =       784.57699423
  Ewald energy   TEWEN  =    253416.68586971
  -Hartree energ DENC   =   -301411.32182803
  -exchange      EXHF   =         0.00000000
  -V(xc)+E(xc)   XCENC  =      2490.82522698
  PAW double counting   =     59579.41340200   -59411.80932248
  entropy T*S    EENTRO =        -0.00000000
  eigenvalues    EBANDS =    -12186.62310423
  atomic energy  EATOM  =     56210.72393729
  Solvation  Ediel_sol  =         0.00000000
  ---------------------------------------------------
  free energy    TOTEN  =      -527.52882454 eV

  energy without entropy =     -527.52882454  energy(sigma->0) =     -527.52882454


--------------------------------------------------------------------------------------------------------




--------------------------------------- Iteration      1(  21)  ---------------------------------------


    POTLOK:  cpu time    1.0801: real time    1.0961
    SETDIJ:  cpu time    1.0634: real time    1.0635
     EDDAV:  cpu time  137.8900: real time  137.8915
       DOS:  cpu time    0.0011: real time    0.0011
    CHARGE:  cpu time   12.3695: real time   12.3696
    MIXING:  cpu time    0.2070: real time    0.2070
    --------------------------------------------
      LOOP:  cpu time  152.6111: real time  152.6288

 eigenvalue-minimisations  :  3968
 total energy-change (2. order) :-0.4523889E-03  (-0.1511802E-05)
 number of electron     640.0000004 magnetization 
 augmentation part       69.7508634 magnetization 

 Broyden mixing:
  rms(total) = 0.74108E-03    rms(broyden)= 0.74091E-03
  rms(prec ) = 0.98898E-03
  weight for this iteration     100.00

 eigenvalues of (default mixing * dielectric matrix)
  average eigenvalue GAMMA=   1.6061
  6.4909  3.0306  2.4558  1.7541  1.7541  1.2489  1.2489  1.0249  1.0249  0.8782
  0.8782  0.9355  0.8272  0.8272  0.6795  0.6386

 Free energy of the ion-electron system (eV)
  ---------------------------------------------------
  alpha Z        PSCENC =       784.57699423
  Ewald energy   TEWEN  =    253416.68586971
  -Hartree energ DENC   =   -301412.59908396
  -exchange      EXHF   =         0.00000000
  -V(xc)+E(xc)   XCENC  =      2490.82527132
[...]
    -6.896993340 11.945942880  0.000000000     0.000000000  0.083710429  0.000000000
     0.000000000  0.000000000 27.810221070     0.000000000  0.000000000  0.035958003

  length of vectors
    13.793986680 13.793986676 27.810221070     0.083710429  0.083710429  0.035958003


 FORCES acting on ions
    electron-ion (+dipol)            ewald-force                    non-local-force                 convergence-correction
 -----------------------------------------------------------------------------------------------
   -.370E+02 0.172E+01 -.100E+04   0.372E+02 -.150E+01 0.998E+03   0.296E+00 -.167E+00 0.422E+01   -.600E-04 -.155E-04 0.174E-04
   0.918E+01 -.179E+01 -.112E+04   -.923E+01 0.193E+01 0.111E+04   -.328E+00 -.106E+00 0.454E+01   0.925E-05 -.285E-04 -.417E-04
   0.164E+02 -.406E+02 -.108E+04   -.162E+02 0.409E+02 0.108E+04   -.464E+00 0.674E+00 0.470E+01   -.100E-04 0.593E-05 -.616E-04
   -.238E+02 -.168E+02 -.104E+04   0.241E+02 0.168E+02 0.104E+04   -.723E-02 0.633E+00 0.378E+01   -.145E-04 0.124E-05 -.378E-04
   0.182E+02 -.228E+01 -.105E+04   -.183E+02 0.191E+01 0.105E+04   0.147E+00 0.488E+00 0.442E+01   0.383E-04 -.313E-04 0.413E-05
   0.119E+02 0.135E+02 -.107E+04   -.118E+02 -.140E+02 0.107E+04   -.273E+00 0.157E+00 0.439E+01   0.127E-04 0.117E-04 -.147E-04
   0.883E+01 -.174E+02 -.104E+04   -.853E+01 0.174E+02 0.103E+04   -.106E+00 0.141E+00 0.439E+01   -.154E-04 -.667E-05 -.240E-04
   0.285E+02 0.341E+02 -.114E+04   -.287E+02 -.342E+02 0.114E+04   -.212E+00 -.406E+00 0.407E+01   0.460E-05 0.364E-04 -.556E-04
   -.318E+02 -.466E+01 -.111E+04   0.318E+02 0.599E+01 0.111E+04   0.497E+00 -.641E+00 0.433E+01   -.326E-04 -.368E-04 -.253E-04
   -.237E+02 0.666E+01 -.105E+04   0.249E+02 -.752E+01 0.105E+04   -.394E+00 0.498E+00 0.370E+01   -.748E-05 0.111E-04 -.401E-04
   0.415E+01 0.224E+02 -.106E+04   -.444E+01 -.220E+02 0.106E+04   0.322E+00 -.696E+00 0.457E+01   0.436E-04 -.813E-05 0.620E-05
   0.174E+02 0.191E+02 -.115E+04   -.175E+02 -.188E+02 0.115E+04   0.211E+00 -.971E+00 0.374E+01   0.218E-04 0.274E-04 -.354E-04
   0.289E+02 -.260E+02 -.108E+04   -.294E+02 0.260E+02 0.108E+04   -.132E+00 0.350E+00 0.462E+01   0.613E-04 -.451E-04 0.115E-04
   0.471E+02 0.333E+00 -.121E+04   -.478E+02 -.137E+01 0.120E+04   -.513E+00 0.629E+00 0.364E+01   -.987E-05 0.204E-04 -.437E-04
   -.366E+02 0.721E+01 -.104E+04   0.368E+02 -.732E+01 0.104E+04   0.221E+00 0.109E+00 0.507E+01   -.113E-04 0.135E-04 -.223E-04
   -.322E+02 -.166E+02 -.100E+04   0.322E+02 0.173E+02 0.999E+03   0.561E+00 0.221E+00 0.401E+01   -.173E-04 0.116E-04 0.327E-04
   -.373E+02 -.115E+02 0.110E+04   0.378E+02 0.122E+02 -.110E+04   0.643E-01 -.520E-01 -.392E+01   -.395E-05 -.368E-04 0.870E-05
   0.791E+01 0.240E+02 0.106E+04   -.766E+01 -.245E+02 -.106E+04   -.104E+00 -.276E+00 -.410E+01   -.208E-04 -.829E-05 0.391E-05
   0.251E+02 -.383E+01 0.115E+04   -.246E+02 0.375E+01 -.115E+04   -.750E+00 -.277E+00 -.460E+01   -.152E-04 -.270E-05 0.246E-04
   -.109E+02 -.113E+02 0.107E+04   0.107E+02 0.113E+02 -.107E+04   -.209E-01 0.197E+00 -.417E+01   -.772E-05 0.261E-04 0.396E-04
   0.203E+02 0.427E+01 0.106E+04   -.216E+02 -.359E+01 -.106E+04   0.342E-01 -.471E+00 -.416E+01   0.150E-04 -.122E-04 0.200E-04
   -.592E+01 0.366E+02 0.108E+04   0.478E+01 -.376E+02 -.108E+04   0.667E+00 0.234E+00 -.397E+01   0.556E-04 0.443E-04 -.182E-04
   0.327E+02 -.186E+02 0.117E+04   -.325E+02 0.186E+02 -.116E+04   -.572E+00 0.312E+00 -.423E+01   0.338E-04 -.255E-04 -.757E-05
   -.102E+02 0.722E+01 0.103E+04   0.100E+02 -.754E+01 -.103E+04   0.272E+00 -.258E+00 -.494E+01   -.119E-04 0.439E-04 0.149E-04
   0.269E+02 -.110E+02 0.105E+04   -.258E+02 0.112E+02 -.105E+04   -.995E+00 -.396E+00 -.412E+01   -.130E-04 -.391E-04 0.530E-05
   -.512E+02 0.442E+02 0.993E+03   0.514E+02 -.445E+02 -.988E+03   0.542E+00 -.677E+00 -.509E+01   -.420E-04 0.280E-04 -.352E-04
   0.366E+01 -.119E+02 0.108E+04   -.351E+01 0.131E+02 -.108E+04   -.410E+00 -.435E+00 -.413E+01   -.813E-05 -.360E-04 -.112E-04
   0.117E+02 -.340E+02 0.106E+04   -.113E+02 0.337E+02 -.105E+04   0.310E+00 0.807E+00 -.433E+01   0.389E-04 0.308E-04 -.205E-04
   0.256E+02 -.253E+02 0.111E+04   -.253E+02 0.249E+02 -.111E+04   -.442E+00 0.391E+00 -.378E+01   -.321E-05 -.570E-05 0.145E-04
   0.197E+02 0.251E+02 0.103E+04   -.199E+02 -.254E+02 -.103E+04   -.983E-01 -.399E+00 -.492E+01   0.109E-04 0.108E-04 -.450E-06
   -.113E+02 -.148E+01 0.106E+04   0.108E+02 0.235E+01 -.105E+04   0.369E+00 -.466E+00 -.419E+01   -.122E-04 -.197E-04 0.119E-04
   -.143E+02 0.388E+02 0.115E+04   0.140E+02 -.390E+02 -.115E+04   0.181E+00 -.748E+00 -.421E+01   -.719E-05 0.211E-05 0.809E-05
   0.606E+01 -.197E+02 0.146E+04   -.597E+01 0.196E+02 -.146E+04   -.546E+00 0.455E+00 0.206E+01   -.360E-06 -.286E-05 0.179E-04
   0.208E+02 -.296E+01 0.148E+04   -.207E+02 0.276E+01 -.148E+04   -.433E+00 0.436E+00 0.236E+01   0.252E-06 -.783E-05 0.305E-04
   -.741E+01 0.638E+01 0.146E+04   0.718E+01 -.636E+01 -.146E+04   0.710E+00 -.132E+00 0.181E+01   -.733E-05 0.134E-05 0.212E-04
   -.156E+02 0.581E+01 0.148E+04   0.156E+02 -.576E+01 -.148E+04   -.408E-02 -.834E-01 0.179E+01   -.371E-05 0.281E-05 0.205E-04
   -.154E+02 0.211E+02 0.145E+04   0.154E+02 -.208E+02 -.145E+04   0.256E+00 -.864E+00 0.219E+01   0.950E-05 0.966E-05 0.387E-05
   -.107E+02 -.342E+01 0.146E+04   0.105E+02 0.317E+01 -.147E+04   0.736E+00 0.736E+00 0.155E+01   0.948E-05 -.286E-05 0.120E-04
   -.445E+01 -.284E+02 0.145E+04   0.438E+01 0.284E+02 -.145E+04   0.241E+00 0.383E+00 0.154E+01   0.564E-05 0.465E-05 0.175E-04
   -.631E+01 -.106E+01 0.143E+04   0.639E+01 0.108E+01 -.144E+04   0.743E-01 0.691E-01 0.144E+01   0.224E-05 0.668E-05 0.162E-04
   -.185E+02 -.177E+02 0.144E+04   0.183E+02 0.176E+02 -.144E+04   0.793E+00 0.545E+00 0.189E+01   -.275E-05 0.934E-05 0.126E-04
   -.946E+01 0.918E+01 0.147E+04   0.958E+01 -.933E+01 -.147E+04   -.210E+00 0.400E+00 0.168E+01   0.691E-05 -.332E-05 0.238E-05
   0.765E-01 -.679E+00 0.146E+04   0.127E+00 0.901E+00 -.146E+04   -.557E+00 -.456E+00 0.169E+01   0.107E-04 0.403E-05 0.156E-04
   0.271E+02 0.295E+01 0.146E+04   -.268E+02 -.278E+01 -.146E+04   -.969E+00 -.555E+00 0.272E+01   0.883E-05 0.300E-05 0.324E-04
   0.175E+02 -.305E+02 0.147E+04   -.175E+02 0.304E+02 -.148E+04   -.262E+00 0.698E+00 0.289E+01   -.312E-05 -.586E-05 0.288E-04
   0.862E+01 0.252E+02 0.143E+04   -.850E+01 -.252E+02 -.143E+04   -.530E+00 -.138E+00 0.152E+01   -.159E-04 -.325E-05 0.870E-05
   -.122E+02 -.212E+01 0.147E+04   0.120E+02 0.208E+01 -.147E+04   0.503E+00 0.124E+00 0.219E+01   -.111E-04 -.794E-05 0.112E-04
   0.152E+02 0.949E+01 0.146E+04   -.153E+02 -.946E+01 -.146E+04   0.167E+00 -.139E+00 0.213E+01   -.705E-05 -.622E-05 0.273E-04
   0.292E+01 -.436E+01 -.146E+04   -.298E+01 0.428E+01 0.146E+04   0.900E-01 0.327E+00 -.286E+01   -.202E-04 -.301E-05 -.464E-05
   -.115E+02 0.102E+02 -.144E+04   0.115E+02 -.103E+02 0.144E+04   -.907E-01 0.141E+00 -.155E+01   -.189E-05 -.185E-04 -.429E-05
   0.248E+01 -.450E+01 -.147E+04   -.242E+01 0.464E+01 0.147E+04   -.150E+00 -.356E+00 -.202E+01   0.454E-05 -.577E-05 -.224E-04
   -.141E+01 0.164E+02 -.144E+04   0.123E+01 -.162E+02 0.144E+04   0.337E+00 -.621E+00 -.199E+01   -.161E-04 0.109E-04 -.280E-04
   0.887E+00 -.329E+01 -.145E+04   -.106E+01 0.340E+01 0.146E+04   0.549E+00 -.202E+00 -.143E+01   -.427E-05 0.100E-04 -.181E-04
   0.193E+02 0.361E+01 -.146E+04   -.190E+02 -.365E+01 0.146E+04   -.913E+00 0.262E+00 -.237E+01   0.331E-05 0.235E-05 -.148E-04
   -.356E+00 0.910E+01 -.145E+04   0.353E+00 -.900E+01 0.145E+04   0.135E+00 -.431E+00 -.198E+01   0.161E-04 -.269E-05 -.156E-04
   0.115E+02 0.668E+01 -.146E+04   -.114E+02 -.688E+01 0.147E+04   -.490E+00 0.367E+00 -.217E+01   0.127E-04 0.684E-05 -.247E-04
   0.901E+01 -.243E+02 -.149E+04   -.893E+01 0.243E+02 0.149E+04   -.312E+00 0.294E+00 -.219E+01   0.203E-04 -.776E-05 -.155E-04
   -.202E+01 -.119E+02 -.146E+04   0.172E+01 0.119E+02 0.146E+04   0.582E+00 0.117E+00 -.255E+01   -.146E-04 0.436E-06 -.224E-04
   -.106E+02 -.821E+01 -.146E+04   0.106E+02 0.801E+01 0.146E+04   0.173E+00 0.611E+00 -.228E+01   -.954E-05 0.799E-05 -.176E-04
   0.734E+01 0.115E+02 -.147E+04   -.708E+01 -.115E+02 0.147E+04   -.783E+00 -.213E+00 -.168E+01   0.223E-04 0.101E-04 -.471E-05
   -.144E+02 0.373E+01 -.143E+04   0.146E+02 -.376E+01 0.143E+04   -.200E+00 0.508E-01 -.136E+01   -.244E-07 -.101E-04 0.296E-05
   -.170E+02 0.674E+01 -.148E+04   0.169E+02 -.686E+01 0.149E+04   0.352E+00 0.241E+00 -.182E+01   0.153E-04 -.206E-04 -.143E-04
   0.143E+02 -.293E+02 -.145E+04   -.145E+02 0.293E+02 0.145E+04   0.280E+00 0.506E+00 -.174E+01   -.110E-04 0.627E-05 -.236E-04
   -.483E+01 0.111E+02 -.145E+04   0.487E+01 -.110E+02 0.145E+04   -.196E+00 -.439E+00 -.200E+01   -.201E-04 0.170E-04 -.389E-05
   -.130E+02 -.459E+01 0.220E+02   0.128E+02 0.456E+01 -.223E+02   0.660E+00 0.167E+00 0.916E+00   0.717E-07 -.246E-05 0.486E-05
   -.431E+01 -.419E+01 0.133E+01   0.412E+01 0.416E+01 -.126E+01   0.809E+00 0.143E+00 -.282E+00   0.199E-05 -.185E-05 0.247E-05
   -.282E+00 -.367E+01 -.480E+01   0.181E+00 0.374E+01 0.476E+01   0.633E-01 -.341E+00 0.165E+00   0.110E-05 0.193E-06 -.463E-05
   -.150E+02 0.414E+01 0.156E+02   0.147E+02 -.417E+01 -.157E+02   0.687E+00 0.166E+00 0.333E+00   0.225E-05 0.821E-05 -.157E-07
   -.791E+01 0.230E+02 0.623E+01   0.778E+01 -.224E+02 -.624E+01   0.238E+00 -.157E+01 -.985E-01   -.162E-05 -.745E-05 -.146E-05
   0.425E+01 0.544E+01 0.202E+02   -.413E+01 -.549E+01 -.204E+02   -.402E+00 0.232E+00 0.627E+00   -.452E-05 0.380E-05 -.593E-06
   -.115E+02 -.345E+01 0.145E+02   0.111E+02 0.363E+01 -.146E+02   0.973E+00 -.682E+00 0.122E+00   -.148E-05 -.574E-05 -.228E-06
   0.349E+01 -.124E+02 -.677E+01   -.366E+01 0.124E+02 0.684E+01   0.496E+00 -.365E-01 -.218E+00   -.401E-05 0.419E-05 -.483E-05
   -.800E+01 -.122E+02 -.367E+02   0.783E+01 0.118E+02 0.371E+02   0.402E+00 0.112E+01 -.115E+01   0.317E-05 0.129E-05 -.745E-05
   0.143E+02 0.119E+02 -.188E+02   -.140E+02 -.119E+02 0.191E+02   -.895E+00 0.185E+00 -.905E+00   0.212E-05 0.651E-05 -.406E-05
   -.414E+01 -.601E+01 0.269E+02   0.382E+01 0.605E+01 -.271E+02   0.990E+00 -.314E+00 0.847E+00   0.718E-05 -.127E-05 -.110E-06
   0.326E+02 -.654E+01 -.173E+02   -.324E+02 0.639E+01 0.175E+02   -.952E+00 0.424E+00 -.747E+00   0.752E-05 0.695E-05 -.297E-05
   0.587E+01 0.592E+01 -.840E+01   -.585E+01 -.574E+01 0.871E+01   -.249E+00 -.600E+00 -.108E+01   -.178E-06 -.384E-05 0.262E-07
   0.734E+01 -.307E+01 -.320E+02   -.740E+01 0.314E+01 0.322E+02   0.189E+00 -.452E+00 -.691E+00   -.679E-06 -.316E-05 -.862E-05
   -.329E+02 0.106E+02 -.297E+02   0.328E+02 -.105E+02 0.296E+02   -.161E+00 0.160E-01 0.892E-01   -.565E-05 -.605E-05 -.431E-05
   -.107E+02 -.941E+00 0.372E+02   0.107E+02 0.828E+00 -.373E+02   0.344E-01 0.378E+00 0.488E+00   -.543E-05 0.431E-05 -.896E-06
 -----------------------------------------------------------------------------------------------
   -.109E+01 0.626E+00 0.280E+01   0.238E-12 -.293E-12 0.824E-12   0.109E+01 -.630E+00 -.280E+01   0.231E-04 -.244E-04 -.258E-03
 
 
 POSITION                                       TOTAL-FORCE (eV/Angst)
 -----------------------------------------------------------------------------------
     -0.01127      1.96458     15.04176         0.466220      0.056809      0.090509
     -1.63015      5.03052     15.18548        -0.374300      0.031404     -0.511062
     -3.44130      7.88819     15.14970        -0.216305      0.913530     -0.302301
     -5.22976     10.84407     15.11344         0.213206      0.688300     -0.442288
      3.35779      1.96272     15.11662         0.034417      0.126783     -0.104096
      1.75970      5.03329     15.11050        -0.242012     -0.414915     -0.205778
     -0.02680      7.98910     15.10729         0.193880      0.192312     -0.150480
     -1.71171     11.00536     15.25657        -0.390322     -0.528186     -0.735040
      6.85486      1.98165     15.18823         0.459845      0.697633      0.458298
      5.07422      4.97484     15.08400         0.796536     -0.357493      0.973553
      3.42104      7.99199     15.08980         0.038422     -0.296747      0.290052
      1.74674     11.08175     15.26363         0.074802     -0.665046     -0.377197
     10.44955      1.96228     15.14859        -0.655487      0.356542      0.191334
      8.80530      4.94628     15.34748        -1.213063     -0.410419     -1.095832
      6.80017      7.94946     15.05421         0.465857      0.000383      0.449559
      5.10726     10.82714     15.05194         0.621667      0.898724     -0.086122
      1.69767      0.92759     12.60252         0.533649      0.677753      0.378022
     -0.04088      4.07129     12.66534         0.147074     -0.771372      0.173847
     -1.71749      7.05913     12.57592        -0.218235     -0.361493      0.928777
     -3.46309      9.93615     12.62162        -0.159511      0.175000      1.107665
      5.25301      1.00130     12.68321        -1.214281      0.213962      0.757824
      3.44599      4.01863     12.65673        -0.477233     -0.726552     -0.032578
      1.77015      6.96256     12.56087        -0.439867      0.306624      0.662720
      0.01868     10.06963     12.74548         0.113193     -0.577013      0.111650
      8.68829      1.11929     12.70833         0.091204     -0.197896      0.041487
      6.87398      4.05949     12.79251         0.799115     -0.903613     -0.046048
      5.20642      6.87498     12.68333        -0.259389      0.803291     -0.611939
      3.32972      9.91563     12.72057         0.636190      0.540762     -0.600598
     12.07153      1.00279     12.62677        -0.126118     -0.064049     -0.254284
     10.41204      4.07488     12.75048        -0.279911     -0.655517     -0.084122
      8.58614      6.92473     12.67243        -0.167015      0.407584      0.517259
      6.85935     10.03312     12.57317        -0.127846     -0.989936      0.030266
      0.06605      1.91669     10.97496        -0.460323      0.415140     -0.086921
     -1.66995      4.94401     10.92076        -0.370780      0.227666      0.248355
     -3.60671      7.98199     10.99669         0.481136     -0.111489     -0.298206
     -5.14554     10.93452     10.95121        -0.029308     -0.037502     -0.275357
      3.42518      2.12195     10.98260         0.226468     -0.632410      0.028334
      1.61916      4.89800     11.02303         0.539795      0.482380     -0.505395
     -0.01607      7.98480     11.04008         0.168812      0.386025     -0.536656
     -1.71866     10.93518     11.10634         0.155236      0.093064     -0.606520
      6.82318      1.90856     11.04302         0.619002      0.443177     -0.140633
      5.23179      4.88328     11.04173        -0.098500      0.252689     -0.354842
      3.51756      8.00557     11.03547        -0.353348     -0.235215     -0.379519
      1.84758     11.06844     10.95072        -0.658072     -0.385107      0.573962
     10.39470      1.89741     10.85658        -0.225021      0.514232      0.747674
      8.72080      4.94995     11.11762        -0.416929     -0.157640     -0.503167
      6.79501      7.89178     10.96246         0.339753      0.089573      0.031215
      5.12712     10.95863     10.97186         0.013401     -0.107898      0.024823
      1.65541      0.92721     16.88353         0.031548      0.246541     -0.665286
      0.06879      3.95925     16.69267        -0.038873      0.027539      0.537475
     -1.70716      7.04574     16.84248        -0.089429     -0.219740      0.062565
     -3.52159     10.02433     16.79434         0.159443     -0.454537      0.135512
      5.04924      1.03321     16.77317         0.372902     -0.090232      0.611778
      3.52633      3.94649     16.83260        -0.641313      0.223031     -0.249182
      1.68863      7.04033     16.76304         0.132112     -0.335353      0.121692
      0.09066      9.92631     16.86842        -0.361751      0.170154      0.007632
      8.72755      0.96696     16.94975        -0.230880      0.259873     -0.132619
      6.83521      3.93401     16.89508         0.286241      0.115040     -0.331877
      5.09879      6.85936     16.79815         0.141934      0.412928     -0.167704
      3.58915      9.94823     16.78658        -0.520371     -0.209558      0.369552
     12.16285      0.92635     16.65322        -0.056090      0.014648      0.690967
     10.42908      3.92056     16.89945         0.254681      0.123485      0.195810
      8.55323      6.91941     16.79910         0.097413      0.490982      0.301584
      6.88660      9.96173     16.75640        -0.155060     -0.317626      0.068389
      6.81642     11.90700     13.75554         0.454785      0.139862      0.611851
     12.04212      3.01012     13.91967         0.616592      0.121581     -0.216930
     -3.43229      6.00391     13.94803        -0.038656     -0.273821      0.126907
      8.53175      8.93402     13.84703         0.446147      0.134658      0.251564
      3.40846      0.10831     13.89147         0.107986     -1.014694     -0.112608
      1.73152      3.00307     13.83786        -0.283167      0.180961      0.462716
     -0.09714      6.06587     13.86422         0.593269     -0.493516      0.103153
     -1.77841      8.98776     13.91278         0.322343     -0.072746     -0.147164
     -0.02005     11.87829     14.06647         0.231153      0.702984     -0.774098
      5.25061      2.97610     13.98488        -0.542606      0.154256     -0.579584
      3.34053      5.97642     13.79323         0.672631     -0.270939      0.651011
      1.78073      8.94979     13.95380        -0.725289      0.271387     -0.577813
     10.33313      0.06269     13.99659        -0.227199     -0.423109     -0.766710
      8.65203      3.03970     14.02240         0.133240     -0.376703     -0.482862
      6.85409      5.97590     13.90396        -0.203722      0.094065      0.013780
      5.11954      8.90060     13.84133         0.004282      0.264769      0.390294
 -----------------------------------------------------------------------------------
    total drift:                                0.002645     -0.003979     -0.001299


--------------------------------------------------------------------------------------------------------



  FREE ENERGIE OF THE ION-ELECTRON SYSTEM (eV)
  ---------------------------------------------------
  free  energy   TOTEN  =      -527.53063364 eV

  energy  without entropy=     -527.53063364  energy(sigma->0) =     -527.53063364
 


--------------------------------------------------------------------------------------------------------


    POTLOK:  cpu time    2.2688: real time    2.2689


--------------------------------------------------------------------------------------------------------


     LOOP+:  cpu time 5611.7861: real time 5612.3158
    4ORBIT:  cpu time    0.0000: real time    0.0000

 total amount of memory used by VASP MPI-rank0   253938. kBytes
=======================================================================

   base      :      30000. kBytes
   nonlr-proj:      18754. kBytes
   fftplans  :      72602. kBytes
   grid      :      41267. kBytes
   one-center:        108. kBytes
   wavefun   :      91207. kBytes
 
  
  
 General timing and accounting informations for this job:
 ========================================================
  
                  Total CPU time used (sec):     5659.563
                            User time (sec):     5584.963
                          System time (sec):       74.600
                         Elapsed time (sec):     5660.219
  
                   Maximum memory used (kb):      453516.
                   Average memory used (kb):           0.
  
                          Minor page faults:       230909
                          Major page faults:            0
                 Voluntary context switches:         2262
