<?xml version="1.0" encoding="ISO-8859-1"?>
<modeling>
 <generator>
  <i name="program" type="string">vasp </i>
  <i name="version" type="string">5.4.4.18Apr17-6-g9f103f2a35  </i>
  <i name="subversion" type="string">(build Oct 31 2019 15:01:46) complex            parallel </i>
  <i name="platform" type="string">LinuxIFC </i>
  <i name="date" type="string">2024 04 30 </i>
  <i name="time" type="string">12:56:03 </i>
 </generator>
 <incar>
  <i type="int" name="ISTART">     0</i>
  <i type="string" name="PREC">anormal</i>
  <i type="logical" name="ADDGRID"> T  </i>
  <i type="int" name="IBRION">    -1</i>
  <i name="EDIFF">      0.00000100</i>
  <i name="EDIFFG">     -0.01000000</i>
  <i type="int" name="NSW">     1</i>
  <i type="int" name="ISIF">     2</i>
  <i type="int" name="ISYM">     2</i>
  <i name="ENCUT">    600.00000000</i>
  <i name="POTIM">      1.00000000</i>
  <i type="string" name="LREAL"> Auto.</i>
  <i type="int" name="ISMEAR">     0</i>
  <i name="SIGMA">      0.05000000</i>
  <i name="KSPACING">      0.25000000</i>
  <i type="logical" name="LWAVE"> F  </i>
  <i type="logical" name="LCHARG"> F  </i>
  <i type="logical" name="LSCALAPACK"> F  </i>
  <v type="int" name="KPOINT_BSE">    -1     0     0     0</v>
 </incar>
 <structure name="primitive_cell" >
  <crystal>
   <varray name="basis" >
    <v>      13.79398668       0.00000000       0.00000000 </v>
    <v>      -6.89699334      11.94594288       0.00000000 </v>
    <v>       0.00000000       0.00000000      27.81022107 </v>
   </varray>
   <i name="volume">   4582.62876984 </i>
   <varray name="rec_basis" >
    <v>       0.07249536       0.04185521       0.00000000 </v>
    <v>       0.00000000       0.08371043       0.00000000 </v>
    <v>       0.00000000       0.00000000       0.03595800 </v>
   </varray>
  </crystal>
  <varray name="positions" >
   <v>       0.08141078       0.16445569      -0.45912822 </v>
   <v>      -0.00101282       0.25197885      -0.49947644 </v>
   <v>       0.25122157       0.25138840       0.49758163 </v>
   <v>      -0.00747108      -0.00325998       0.49462183 </v>
   <v>      -0.07947730       0.07754519      -0.40118345 </v>
   <v>       0.17070202       0.33143069      -0.39976500 </v>
   <v>       0.15881840       0.07761744      -0.39290196 </v>
   <v>      -0.08289810       0.08394387       0.45403346 </v>
   <v>       0.16189819       0.07764932       0.45316127 </v>
   <v>       0.16744118       0.34080966       0.45542034 </v>
   <v>      -0.16032405       0.16426370      -0.45528694 </v>
   <v>       0.32557436       0.16430051      -0.45643658 </v>
   <v>       0.09237515       0.42110665      -0.45396060 </v>
   <v>       0.07474740      -0.09223800      -0.45655080 </v>
   <v>       0.33823955       0.42133889      -0.45665670 </v>
   <v>      -0.17657509      -0.09365560      -0.45876229 </v>
   <v>       0.25163101       0.00906696       0.49950947 </v>
   <v>       0.08501167       0.16044700       0.39463763 </v>
   <v>      -0.24827165       0.00524822      -0.49671055 </v>
   <v>       0.24684657      -0.49222317       0.49852953 </v>
   <v>      -0.07984416       0.32819170      -0.39232939 </v>
   <v>      -0.08380262      -0.16609896      -0.39747318 </v>
   <v>       0.42082366       0.33036237      -0.39473343 </v>
   <v>      -0.07462056       0.34111032       0.45848166 </v>
   <v>      -0.08279060      -0.16012356       0.45210626 </v>
   <v>       0.41801862       0.33640116       0.45511088 </v>
   <v>       0.32238802       0.41001329       0.39636597 </v>
   <v>       0.33712395       0.17762902       0.39491244 </v>
   <v>      -0.16963186      -0.08264878       0.39452603 </v>
   <v>      -0.24554070       0.25445452      -0.49578256 </v>
   <v>       0.08586909       0.41386553       0.39268881 </v>
   <v>       0.08463868      -0.08466662       0.39378369 </v>
   <v>       0.49231687      -0.49971161       0.49597712 </v>
   <v>      -0.00755247      -0.25212968       0.49791162 </v>
   <v>      -0.16701630       0.15883275       0.39038109 </v>
   <v>       0.00247027      -0.49740983      -0.49845682 </v>
   <v>       0.40929154       0.08649042      -0.39687041 </v>
   <v>      -0.32341805      -0.16722981      -0.39638796 </v>
   <v>       0.16427173      -0.16085918      -0.39610918 </v>
   <v>      -0.25632050      -0.25492664       0.49770671 </v>
   <v>      -0.49479030       0.24913042      -0.49713183 </v>
   <v>      -0.32682052       0.08094469      -0.39052074 </v>
   <v>       0.41709237      -0.41065113      -0.39723443 </v>
   <v>       0.17114020      -0.41019767      -0.39437822 </v>
   <v>      -0.32329113       0.09369664       0.45696600 </v>
   <v>       0.16482191      -0.16824031       0.45384821 </v>
   <v>      -0.15462916       0.41405534      -0.44813520 </v>
   <v>      -0.34358961      -0.16995805       0.45740625 </v>
   <v>       0.42272867       0.08381943       0.45606281 </v>
   <v>       0.41974697      -0.41716146       0.45166385 </v>
   <v>      -0.40954028      -0.07234193      -0.45115047 </v>
   <v>      -0.42391925       0.41644606      -0.45760957 </v>
   <v>       0.17095128      -0.40907751       0.45220511 </v>
   <v>       0.33654059      -0.07873694      -0.45140439 </v>
   <v>      -0.17429322      -0.33454748      -0.45868077 </v>
   <v>       0.33244276      -0.33122871      -0.45677220 </v>
   <v>       0.08068384      -0.33967582      -0.45524720 </v>
   <v>      -0.41748376      -0.33098671      -0.45740105 </v>
   <v>      -0.42011181       0.16588461      -0.45386157 </v>
   <v>      -0.16060144       0.41436255       0.39976731 </v>
   <v>      -0.40278739      -0.07345611       0.39376613 </v>
   <v>       0.33309952      -0.08461152       0.39936170 </v>
   <v>       0.24725805      -0.24763067      -0.49972411 </v>
   <v>      -0.49631001      -0.25080942      -0.49824924 </v>
   <v>      -0.41632914       0.40878145       0.39703845 </v>
   <v>       0.33304027      -0.33158935       0.39697938 </v>
   <v>       0.49571482      -0.00566341      -0.49419783 </v>
   <v>      -0.17708144      -0.33937602       0.39418822 </v>
   <v>      -0.34326155      -0.42580022      -0.39597197 </v>
   <v>      -0.33982010       0.32931784      -0.39248670 </v>
   <v>      -0.09031689      -0.42077311      -0.39593782 </v>
   <v>      -0.33175793       0.33982151       0.45999324 </v>
   <v>      -0.33480525      -0.42449286       0.45606729 </v>
   <v>      -0.08770869      -0.42032760       0.45567534 </v>
   <v>      -0.40991811      -0.32984992       0.39681358 </v>
   <v>       0.07261839      -0.33182429       0.39541895 </v>
   <v>      -0.42546777       0.15976623       0.39708498 </v>
   <v>      -0.25298752      -0.49975457       0.49995876 </v>
   <v>       0.42204033      -0.16906405      -0.39344535 </v>
   <v>       0.42282058      -0.15706731       0.45830192 </v>
  </varray>
 </structure>
 <varray name="primitive_index" >
  <v type="int" >        1 </v>
  <v type="int" >       66 </v>
  <v type="int" >       70 </v>
  <v type="int" >       65 </v>
  <v type="int" >       61 </v>
  <v type="int" >       50 </v>
  <v type="int" >       49 </v>
  <v type="int" >       29 </v>
  <v type="int" >       17 </v>
  <v type="int" >       18 </v>
  <v type="int" >       13 </v>
  <v type="int" >        5 </v>
  <v type="int" >        2 </v>
  <v type="int" >        4 </v>
  <v type="int" >        6 </v>
  <v type="int" >       16 </v>
  <v type="int" >       69 </v>
  <v type="int" >       33 </v>
  <v type="int" >       77 </v>
  <v type="int" >       71 </v>
  <v type="int" >       62 </v>
  <v type="int" >       64 </v>
  <v type="int" >       54 </v>
  <v type="int" >       30 </v>
  <v type="int" >       32 </v>
  <v type="int" >       22 </v>
  <v type="int" >       38 </v>
  <v type="int" >       37 </v>
  <v type="int" >       48 </v>
  <v type="int" >       78 </v>
  <v type="int" >       34 </v>
  <v type="int" >       36 </v>
  <v type="int" >       75 </v>
  <v type="int" >       68 </v>
  <v type="int" >       45 </v>
  <v type="int" >       67 </v>
  <v type="int" >       53 </v>
  <v type="int" >       60 </v>
  <v type="int" >       52 </v>
  <v type="int" >       80 </v>
  <v type="int" >       74 </v>
  <v type="int" >       57 </v>
  <v type="int" >       55 </v>
  <v type="int" >       51 </v>
  <v type="int" >       25 </v>
  <v type="int" >       20 </v>
  <v type="int" >       14 </v>
  <v type="int" >       28 </v>
  <v type="int" >       21 </v>
  <v type="int" >       23 </v>
  <v type="int" >       12 </v>
  <v type="int" >       10 </v>
  <v type="int" >       19 </v>
  <v type="int" >        8 </v>
  <v type="int" >       15 </v>
  <v type="int" >        7 </v>
  <v type="int" >        3 </v>
  <v type="int" >       11 </v>
  <v type="int" >        9 </v>
  <v type="int" >       46 </v>
  <v type="int" >       44 </v>
  <v type="int" >       40 </v>
  <v type="int" >       72 </v>
  <v type="int" >       76 </v>
  <v type="int" >       42 </v>
  <v type="int" >       39 </v>
  <v type="int" >       73 </v>
  <v type="int" >       47 </v>
  <v type="int" >       59 </v>
  <v type="int" >       58 </v>
  <v type="int" >       63 </v>
  <v type="int" >       26 </v>
  <v type="int" >       27 </v>
  <v type="int" >       31 </v>
  <v type="int" >       43 </v>
  <v type="int" >       35 </v>
  <v type="int" >       41 </v>
  <v type="int" >       79 </v>
  <v type="int" >       56 </v>
  <v type="int" >       24 </v>
 </varray>
 <kpoints>
  <generation param="Gamma">
   <v type="int" name="divisions">       3        3        1 </v>
   <v name="usershift">      0.00000000       0.00000000       0.00000000 </v>
   <v name="genvec1">      0.33333333      -0.00000000       0.00000000 </v>
   <v name="genvec2">      0.00000000       0.33333333       0.00000000 </v>
   <v name="genvec3">      0.00000000       0.00000000       1.00000000 </v>
   <v name="shift">      0.00000000       0.00000000       0.00000000 </v>
  </generation>
  <varray name="kpointlist" >
   <v>       0.00000000       0.00000000       0.00000000 </v>
   <v>       0.33333333      -0.00000000       0.00000000 </v>
   <v>       0.00000000       0.33333333       0.00000000 </v>
   <v>       0.33333333       0.33333333       0.00000000 </v>
   <v>      -0.33333333       0.33333333       0.00000000 </v>
  </varray>
  <varray name="weights" >
   <v>       0.11111111 </v>
   <v>       0.22222222 </v>
   <v>       0.22222222 </v>
   <v>       0.22222222 </v>
   <v>       0.22222222 </v>
  </varray>
 </kpoints>
 <parameters>
  <separator name="general" >
   <i type="string" name="SYSTEM">unknown system</i>
   <i type="logical" name="LCOMPAT"> F  </i>
  </separator>
  <separator name="electronic" >
   <i type="string" name="PREC">anorma</i>
   <i name="ENMAX">    600.00000000</i>
   <i name="ENAUG">    644.87300000</i>
   <i name="EDIFF">      0.00000100</i>
   <i type="int" name="IALGO">    38</i>
   <i type="int" name="IWAVPR">    10</i>
   <i type="int" name="NBANDS">   384</i>
   <i name="NELECT">    640.00000000</i>
   <i type="int" name="TURBO">     0</i>
   <i type="int" name="IRESTART">     0</i>
   <i type="int" name="NREBOOT">     0</i>
   <i type="int" name="NMIN">     0</i>
   <i name="EREF">      0.00000000</i>
   <separator name="electronic smearing" >
    <i type="int" name="ISMEAR">     0</i>
    <i name="SIGMA">      0.05000000</i>
    <i name="KSPACING">      0.25000000</i>
    <i type="logical" name="KGAMMA"> T  </i>
   </separator>
   <separator name="electronic projectors" >
    <i type="logical" name="LREAL"> T  </i>
    <v name="ROPT">     -0.00025000     -0.00025000     -0.00025000</v>
    <i type="int" name="LMAXPAW">  -100</i>
    <i type="int" name="LMAXMIX">     2</i>
    <i type="logical" name="NLSPLINE"> F  </i>
   </separator>
   <separator name="electronic startup" >
    <i type="int" name="ISTART">     0</i>
    <i type="int" name="ICHARG">     2</i>
    <i type="int" name="INIWAV">     1</i>
   </separator>
   <separator name="electronic spin" >
    <i type="int" name="ISPIN">     1</i>
    <i type="logical" name="LNONCOLLINEAR"> F  </i>
    <v name="MAGMOM">      1.00000000      1.00000000      1.00000000      1.00000000      1.00000000      1.00000000      1.00000000      1.00000000      1.00000000      1.00000000      1.00000000      1.00000000      1.00000000      1.00000000      1.00000000      1.00000000      1.00000000      1.00000000      1.00000000      1.00000000
      1.00000000      1.00000000      1.00000000      1.00000000      1.00000000      1.00000000      1.00000000      1.00000000      1.00000000      1.00000000      1.00000000      1.00000000      1.00000000      1.00000000      1.00000000      1.00000000      1.00000000      1.00000000      1.00000000      1.00000000
      1.00000000      1.00000000      1.00000000      1.00000000      1.00000000      1.00000000      1.00000000      1.00000000      1.00000000      1.00000000      1.00000000      1.00000000      1.00000000      1.00000000      1.00000000      1.00000000      1.00000000      1.00000000      1.00000000      1.00000000
      1.00000000      1.00000000      1.00000000      1.00000000      1.00000000      1.00000000      1.00000000      1.00000000      1.00000000      1.00000000      1.00000000      1.00000000      1.00000000      1.00000000      1.00000000      1.00000000      1.00000000      1.00000000      1.00000000      1.00000000
</v>
    <i name="NUPDOWN">     -1.00000000</i>
    <i type="logical" name="LSORBIT"> F  </i>
    <v name="SAXIS">      0.00000000      0.00000000      1.00000000</v>
    <i type="logical" name="LSPIRAL"> F  </i>
    <v name="QSPIRAL">      0.00000000      0.00000000      0.00000000</v>
    <i type="logical" name="LZEROZ"> F  </i>
   </separator>
   <separator name="electronic exchange-correlation" >
    <i type="logical" name="LASPH"> F  </i>
    <i type="logical" name="LMETAGGA"> F  </i>
   </separator>
   <separator name="electronic convergence" >
    <i type="int" name="NELM">    60</i>
    <i type="int" name="NELMDL">    -5</i>
    <i type="int" name="NELMIN">     2</i>
    <i name="ENINI">    600.00000000</i>
    <separator name="electronic convergence detail" >
     <i type="logical" name="LDIAG"> T  </i>
     <i type="logical" name="LSUBROT"> F  </i>
     <i name="WEIMIN">      0.00000000</i>
     <i name="EBREAK">      0.00000000</i>
     <i name="DEPER">      0.30000000</i>
     <i type="int" name="NRMM">     4</i>
     <i name="TIME">      0.40000000</i>
    </separator>
   </separator>
   <separator name="electronic mixer" >
    <i name="AMIX">      0.40000000</i>
    <i name="BMIX">      1.00000000</i>
    <i name="AMIN">      0.10000000</i>
    <i name="AMIX_MAG">      1.60000000</i>
    <i name="BMIX_MAG">      1.00000000</i>
    <separator name="electronic mixer details" >
     <i type="int" name="IMIX">     4</i>
     <i type="logical" name="MIXFIRST"> F  </i>
     <i type="int" name="MAXMIX">   -45</i>
     <i name="WC">    100.00000000</i>
     <i type="int" name="INIMIX">     1</i>
     <i type="int" name="MIXPRE">     1</i>
     <i type="int" name="MREMOVE">     5</i>
    </separator>
   </separator>
   <separator name="electronic dipolcorrection" >
    <i type="logical" name="LDIPOL"> F  </i>
    <i type="logical" name="LMONO"> F  </i>
    <i type="int" name="IDIPOL">     0</i>
    <i name="EPSILON">      1.00000000</i>
    <v name="DIPOL">   -100.00000000   -100.00000000   -100.00000000</v>
    <i name="EFIELD">      0.00000000</i>
   </separator>
  </separator>
  <separator name="grids" >
   <i type="int" name="NGX">   112</i>
   <i type="int" name="NGY">   112</i>
   <i type="int" name="NGZ">   224</i>
   <i type="int" name="NGXF">   224</i>
   <i type="int" name="NGYF">   224</i>
   <i type="int" name="NGZF">   448</i>
   <i type="logical" name="ADDGRID"> T  </i>
  </separator>
  <separator name="ionic" >
   <i type="int" name="NSW">     1</i>
   <i type="int" name="IBRION">    -1</i>
   <i type="int" name="MDALGO">     0</i>
   <i type="int" name="ISIF">     2</i>
   <i name="PSTRESS">      0.00000000</i>
   <i name="EDIFFG">     -0.01000000</i>
   <i type="int" name="NFREE">     0</i>
   <i name="POTIM">      1.00000000</i>
   <i name="SMASS">     -3.00000000</i>
   <i name="SCALEE">      1.00000000</i>
  </separator>
  <separator name="ionic md" >
   <i name="TEBEG">      0.00010000</i>
   <i name="TEEND">      0.00010000</i>
   <i type="int" name="NBLOCK">     1</i>
   <i type="int" name="KBLOCK">     1</i>
   <i type="int" name="NPACO">   256</i>
   <i name="APACO">     16.00000000</i>
  </separator>
  <separator name="symmetry" >
   <i type="int" name="ISYM">     2</i>
   <i name="SYMPREC">      0.00001000</i>
  </separator>
  <separator name="dos" >
   <i type="int" name="LORBIT">     0</i>
   <v name="RWIGS">     -1.00000000     -1.00000000     -1.00000000</v>
   <i type="int" name="NEDOS">   301</i>
   <i name="EMIN">     10.00000000</i>
   <i name="EMAX">    -10.00000000</i>
   <i name="EFERMI">      0.00000000</i>
  </separator>
  <separator name="writing" >
   <i type="int" name="NWRITE">     2</i>
   <i type="logical" name="LWAVE"> F  </i>
   <i type="logical" name="LDOWNSAMPLE"> F  </i>
   <i type="logical" name="LCHARG"> F  </i>
   <i type="logical" name="LPARD"> F  </i>
   <i type="logical" name="LVTOT"> F  </i>
   <i type="logical" name="LVHAR"> F  </i>
   <i type="logical" name="LELF"> F  </i>
   <i type="logical" name="LOPTICS"> F  </i>
   <v name="STM">      0.00000000      0.00000000      0.00000000      0.00000000      0.00000000      0.00000000      0.00000000</v>
  </separator>
  <separator name="performance" >
   <i type="int" name="NPAR">     4</i>
   <i type="int" name="NSIM">     4</i>
   <i type="int" name="NBLK">    -1</i>
   <i type="logical" name="LPLANE"> T  </i>
   <i type="logical" name="LSCALAPACK"> F  </i>
   <i type="logical" name="LSCAAWARE"> F  </i>
   <i type="logical" name="LSCALU"> F  </i>
   <i type="logical" name="LASYNC"> F  </i>
   <i type="logical" name="LORBITALREAL"> F  </i>
  </separator>
  <separator name="miscellaneous" >
   <i type="int" name="IDIOT">     3</i>
   <i type="int" name="ISPECIAL">     0</i>
   <i type="logical" name="LMUSIC"> F  </i>
   <v name="POMASS">     44.95600000     35.45300000     12.01100000</v>
   <v name="DARWINR">      0.00000000      0.00000000      0.00000000</v>
   <v name="DARWINV">      1.00000000      1.00000000      1.00000000</v>
   <i type="logical" name="LCORR"> T  </i>
  </separator>
  <i type="logical" name="GGA_COMPAT"> T  </i>
  <i type="logical" name="LBERRY"> F  </i>
  <i type="int" name="ICORELEVEL">     0</i>
  <i type="logical" name="LDAU"> F  </i>
  <i type="int" name="I_CONSTRAINED_M">     0</i>
  <separator name="electronic exchange-correlation" >
   <i type="string" name="GGA">--</i>
   <i type="int" name="VOSKOWN">     0</i>
   <i type="logical" name="LHFCALC"> F  </i>
   <i type="string" name="PRECFOCK"></i>
   <i type="logical" name="LSYMGRAD"> F  </i>
   <i type="logical" name="LHFONE"> F  </i>
   <i type="logical" name="LRHFCALC"> F  </i>
   <i type="logical" name="LTHOMAS"> F  </i>
   <i type="logical" name="LMODELHF"> F  </i>
   <i name="ENCUT4O">     -1.00000000</i>
   <i type="int" name="EXXOEP">     0</i>
   <i type="int" name="FOURORBIT">     0</i>
   <i name="AEXX">      0.00000000</i>
   <i name="HFALPHA">      0.00000000</i>
   <i name="MCALPHA">      0.00000000</i>
   <i name="ALDAX">      1.00000000</i>
   <i name="AGGAX">      1.00000000</i>
   <i name="ALDAC">      1.00000000</i>
   <i name="AGGAC">      1.00000000</i>
   <i type="int" name="NKREDX">     1</i>
   <i type="int" name="NKREDY">     1</i>
   <i type="int" name="NKREDZ">     1</i>
   <i type="logical" name="SHIFTRED"> F  </i>
   <i type="logical" name="ODDONLY"> F  </i>
   <i type="logical" name="EVENONLY"> F  </i>
   <i type="int" name="LMAXFOCK">     0</i>
   <i type="int" name="NMAXFOCKAE">     0</i>
   <i type="logical" name="LFOCKAEDFT"> F  </i>
   <i name="HFSCREEN">      0.00000000</i>
   <i name="HFSCREENC">      0.00000000</i>
   <i type="int" name="NBANDSGWLOW">     0</i>
  </separator>
  <separator name="vdW DFT" >
   <i type="logical" name="LUSE_VDW"> F  </i>
   <i name="Zab_VDW">     -0.84910000</i>
   <i name="PARAM1">      0.12340000</i>
   <i name="PARAM2">      1.00000000</i>
   <i name="PARAM3">      0.00000000</i>
  </separator>
  <separator name="model GW" >
   <i type="int" name="MODEL_GW">     0</i>
   <i name="MODEL_EPS0">     34.36971577</i>
   <i name="MODEL_ALPHA">      1.00000000</i>
  </separator>
  <separator name="linear response parameters" >
   <i type="logical" name="LEPSILON"> F  </i>
   <i type="logical" name="LRPA"> F  </i>
   <i type="logical" name="LNABLA"> F  </i>
   <i type="logical" name="LVEL"> F  </i>
   <i type="int" name="KINTER">     0</i>
   <i name="CSHIFT">      0.10000000</i>
   <i name="OMEGAMAX">     -1.00000000</i>
   <i name="DEG_THRESHOLD">      0.00200000</i>
   <i name="RTIME">     -0.10000000</i>
   <i name="WPLASMAI">      0.00000000</i>
   <v name="DFIELD">      0.00000000      0.00000000      0.00000000</v>
   <v name="WPLASMA">      0.00000000      0.00000000      0.00000000      0.00000000      0.00000000      0.00000000      0.00000000      0.00000000      0.00000000</v>
  </separator>
  <separator name="orbital magnetization" >
   <i type="logical" name="NUCIND"> F  </i>
   <v name="MAGPOS">      0.00000000      0.00000000      0.00000000</v>
   <i type="logical" name="LNICSALL"> T  </i>
   <i type="logical" name="ORBITALMAG"> F  </i>
   <i type="logical" name="LMAGBLOCH"> F  </i>
   <i type="logical" name="LCHIMAG"> F  </i>
   <i type="logical" name="LGAUGE"> T  </i>
   <i type="int" name="MAGATOM">     0</i>
   <v name="MAGDIPOL">      0.00000000      0.00000000      0.00000000</v>
   <v name="AVECCONST">      0.00000000      0.00000000      0.00000000</v>
  </separator>
  <separator name="response functions" >
   <i type="logical" name="LADDER"> F  </i>
   <i type="logical" name="LRPAFORCE"> F  </i>
   <i type="logical" name="LFXC"> F  </i>
   <i type="logical" name="LHARTREE"> T  </i>
   <i type="int" name="IBSE">     0</i>
   <v type="int" name="KPOINT">    -1     0     0     0</v>
   <i type="logical" name="LTCTE"> F  </i>
   <i type="logical" name="LTETE"> F  </i>
   <i type="logical" name="LTRIPLET"> F  </i>
   <i type="logical" name="LFXCEPS"> F  </i>
   <i type="logical" name="LFXHEG"> F  </i>
   <i type="int" name="NATURALO">     2</i>
   <i type="logical" name="L2ORDER"> F  </i>
   <i type="logical" name="LMP2LT"> F  </i>
   <i type="logical" name="LUSEW"> F  </i>
   <i name="ENCUTGW">     -2.00000000</i>
   <i name="ENCUTGWSOFT">     -2.00000000</i>
   <i name="ENCUTLF">     -1.00000000</i>
   <i type="int" name="LMAXMP2">    -1</i>
   <i name="SCISSOR">      0.00000000</i>
   <i type="int" name="NOMEGA">     0</i>
   <i type="int" name="NOMEGAR">     0</i>
   <i type="int" name="NBANDSGW">    -1</i>
   <i type="int" name="NBANDSO">    -1</i>
   <i type="int" name="NBANDSV">    -1</i>
   <i type="int" name="NELM">     1</i>
   <i type="int" name="NELMHF">     1</i>
   <i type="int" name="DIM">     3</i>
   <i type="int" name="ANTIRES">     0</i>
   <i name="OMEGAMAX">    -30.00000000</i>
   <i name="OMEGAMIN">    -30.00000000</i>
   <i name="OMEGATL">   -200.00000000</i>
   <i type="int" name="OMEGAGRID">   140</i>
   <i name="CSHIFT">     -0.10000000</i>
   <i type="logical" name="SELFENERGY"> F  </i>
   <i type="logical" name="LSPECTRAL"> F  </i>
   <i type="logical" name="LSPECTRALGW"> F  </i>
   <i type="logical" name="LSINGLES"> F  </i>
   <i type="logical" name="LFERMIGW"> F  </i>
   <i type="logical" name="ODDONLYGW"> F  </i>
   <i type="logical" name="EVENONLYGW"> F  </i>
   <i type="int" name="NKREDLFX">     1</i>
   <i type="int" name="NKREDLFY">     1</i>
   <i type="int" name="NKREDLFZ">     1</i>
   <i type="int" name="MAXMEM">  2800</i>
   <i type="int" name="TELESCOPE">     0</i>
   <i type="int" name="TAUPAR">     1</i>
   <i type="int" name="OMEGAPAR">    -1</i>
   <i name="LAMBDA">      1.00000000</i>
  </separator>
  <separator name="External order field" >
   <i name="OFIELD_KAPPA">      0.00000000</i>
   <v name="OFIELD_K">      0.00000000      0.00000000      0.00000000</v>
   <i name="OFIELD_Q6_NEAR">      0.00000000</i>
   <i name="OFIELD_Q6_FAR">      0.00000000</i>
   <i name="OFIELD_A">      0.00000000</i>
  </separator>
 </parameters>
 <atominfo>
  <atoms>      80 </atoms>
  <types>       3 </types>
  <array name="atoms" >
   <dimension dim="1">ion</dimension>
   <field type="string">element</field>
   <field type="int">atomtype</field>
   <set>
    <rc><c>Sc</c><c>   1</c></rc>
    <rc><c>Sc</c><c>   1</c></rc>
    <rc><c>Sc</c><c>   1</c></rc>
    <rc><c>Sc</c><c>   1</c></rc>
    <rc><c>Sc</c><c>   1</c></rc>
    <rc><c>Sc</c><c>   1</c></rc>
    <rc><c>Sc</c><c>   1</c></rc>
    <rc><c>Sc</c><c>   1</c></rc>
    <rc><c>Sc</c><c>   1</c></rc>
    <rc><c>Sc</c><c>   1</c></rc>
    <rc><c>Sc</c><c>   1</c></rc>
    <rc><c>Sc</c><c>   1</c></rc>
    <rc><c>Sc</c><c>   1</c></rc>
    <rc><c>Sc</c><c>   1</c></rc>
    <rc><c>Sc</c><c>   1</c></rc>
    <rc><c>Sc</c><c>   1</c></rc>
    <rc><c>Sc</c><c>   1</c></rc>
    <rc><c>Sc</c><c>   1</c></rc>
    <rc><c>Sc</c><c>   1</c></rc>
    <rc><c>Sc</c><c>   1</c></rc>
    <rc><c>Sc</c><c>   1</c></rc>
    <rc><c>Sc</c><c>   1</c></rc>
    <rc><c>Sc</c><c>   1</c></rc>
    <rc><c>Sc</c><c>   1</c></rc>
    <rc><c>Sc</c><c>   1</c></rc>
    <rc><c>Sc</c><c>   1</c></rc>
    <rc><c>Sc</c><c>   1</c></rc>
    <rc><c>Sc</c><c>   1</c></rc>
    <rc><c>Sc</c><c>   1</c></rc>
    <rc><c>Sc</c><c>   1</c></rc>
    <rc><c>Sc</c><c>   1</c></rc>
    <rc><c>Sc</c><c>   1</c></rc>
    <rc><c>Cl</c><c>   2</c></rc>
    <rc><c>Cl</c><c>   2</c></rc>
    <rc><c>Cl</c><c>   2</c></rc>
    <rc><c>Cl</c><c>   2</c></rc>
    <rc><c>Cl</c><c>   2</c></rc>
    <rc><c>Cl</c><c>   2</c></rc>
    <rc><c>Cl</c><c>   2</c></rc>
    <rc><c>Cl</c><c>   2</c></rc>
    <rc><c>Cl</c><c>   2</c></rc>
    <rc><c>Cl</c><c>   2</c></rc>
    <rc><c>Cl</c><c>   2</c></rc>
    <rc><c>Cl</c><c>   2</c></rc>
    <rc><c>Cl</c><c>   2</c></rc>
    <rc><c>Cl</c><c>   2</c></rc>
    <rc><c>Cl</c><c>   2</c></rc>
    <rc><c>Cl</c><c>   2</c></rc>
    <rc><c>Cl</c><c>   2</c></rc>
    <rc><c>Cl</c><c>   2</c></rc>
    <rc><c>Cl</c><c>   2</c></rc>
    <rc><c>Cl</c><c>   2</c></rc>
    <rc><c>Cl</c><c>   2</c></rc>
    <rc><c>Cl</c><c>   2</c></rc>
    <rc><c>Cl</c><c>   2</c></rc>
    <rc><c>Cl</c><c>   2</c></rc>
    <rc><c>Cl</c><c>   2</c></rc>
    <rc><c>Cl</c><c>   2</c></rc>
    <rc><c>Cl</c><c>   2</c></rc>
    <rc><c>Cl</c><c>   2</c></rc>
    <rc><c>Cl</c><c>   2</c></rc>
    <rc><c>Cl</c><c>   2</c></rc>
    <rc><c>Cl</c><c>   2</c></rc>
    <rc><c>Cl</c><c>   2</c></rc>
    <rc><c>C </c><c>   3</c></rc>
    <rc><c>C </c><c>   3</c></rc>
    <rc><c>C </c><c>   3</c></rc>
    <rc><c>C </c><c>   3</c></rc>
    <rc><c>C </c><c>   3</c></rc>
    <rc><c>C </c><c>   3</c></rc>
    <rc><c>C </c><c>   3</c></rc>
    <rc><c>C </c><c>   3</c></rc>
    <rc><c>C </c><c>   3</c></rc>
    <rc><c>C </c><c>   3</c></rc>
    <rc><c>C </c><c>   3</c></rc>
    <rc><c>C </c><c>   3</c></rc>
    <rc><c>C </c><c>   3</c></rc>
    <rc><c>C </c><c>   3</c></rc>
    <rc><c>C </c><c>   3</c></rc>
    <rc><c>C </c><c>   3</c></rc>
   </set>
  </array>
  <array name="atomtypes" >
   <dimension dim="1">type</dimension>
   <field type="int">atomspertype</field>
   <field type="string">element</field>
   <field>mass</field>
   <field>valence</field>
   <field type="string">pseudopotential</field>
   <set>
    <rc><c>  32</c><c>Sc</c><c>     44.95600000</c><c>     11.00000000</c><c>  PAW_PBE Sc_sv 07Sep2000               </c></rc>
    <rc><c>  32</c><c>Cl</c><c>     35.45300000</c><c>      7.00000000</c><c>  PAW_PBE Cl 06Sep2000                  </c></rc>
    <rc><c>  16</c><c>C </c><c>     12.01100000</c><c>      4.00000000</c><c>  PAW_PBE C 08Apr2002                   </c></rc>
   </set>
  </array>
 </atominfo>
 <structure name="initialpos" >
  <crystal>
   <varray name="basis" >
    <v>      13.79398668       0.00000000       0.00000000 </v>
    <v>      -6.89699334      11.94594288       0.00000000 </v>
    <v>       0.00000000       0.00000000      27.81022107 </v>
   </varray>
   <i name="volume">   4582.62876984 </i>
   <varray name="rec_basis" >
    <v>       0.07249536       0.04185521       0.00000000 </v>
    <v>       0.00000000       0.08371043       0.00000000 </v>
    <v>       0.00000000       0.00000000       0.03595800 </v>
   </varray>
  </crystal>
  <varray name="positions" >
   <v>       0.08141078       0.16445569       0.54087178 </v>
   <v>       0.09237515       0.42110665       0.54603940 </v>
   <v>       0.08068384       0.66032418       0.54475280 </v>
   <v>       0.07474740       0.90776200       0.54344920 </v>
   <v>       0.32557436       0.16430051       0.54356342 </v>
   <v>       0.33823955       0.42133889       0.54334330 </v>
   <v>       0.33244276       0.66877129       0.54322780 </v>
   <v>       0.33654059       0.92126306       0.54859561 </v>
   <v>       0.57988819       0.16588461       0.54613843 </v>
   <v>       0.57608075       0.41644606       0.54239043 </v>
   <v>       0.58251624       0.66901329       0.54259895 </v>
   <v>       0.59045972       0.92765807       0.54884953 </v>
   <v>       0.83967595       0.16426370       0.54471306 </v>
   <v>       0.84537084       0.41405534       0.55186480 </v>
   <v>       0.82570678       0.66545252       0.54131923 </v>
   <v>       0.82342491       0.90634440       0.54123771 </v>
   <v>       0.16189819       0.07764932       0.45316127 </v>
   <v>       0.16744118       0.34080966       0.45542034 </v>
   <v>       0.17095128       0.59092249       0.45220511 </v>
   <v>       0.16482191       0.83175969       0.45384821 </v>
   <v>       0.42272867       0.08381943       0.45606281 </v>
   <v>       0.41801862       0.33640116       0.45511088 </v>
   <v>       0.41974697       0.58283854       0.45166385 </v>
   <v>       0.42282058       0.84293269       0.45830192 </v>
   <v>       0.67670887       0.09369664       0.45696600 </v>
   <v>       0.66824207       0.33982151       0.45999324 </v>
   <v>       0.66519475       0.57550714       0.45606729 </v>
   <v>       0.65641039       0.83004195       0.45740625 </v>
   <v>       0.91710190       0.08394387       0.45403346 </v>
   <v>       0.92537944       0.34111032       0.45848166 </v>
   <v>       0.91229131       0.57967240       0.45567534 </v>
   <v>       0.91720940       0.83987644       0.45210626 </v>
   <v>       0.08501167       0.16044700       0.39463763 </v>
   <v>       0.08586909       0.41386553       0.39268881 </v>
   <v>       0.07261839       0.66817571       0.39541895 </v>
   <v>       0.08463868       0.91533338       0.39378369 </v>
   <v>       0.33712395       0.17762902       0.39491244 </v>
   <v>       0.32238802       0.41001329       0.39636597 </v>
   <v>       0.33304027       0.66841065       0.39697938 </v>
   <v>       0.33309952       0.91538848       0.39936170 </v>
   <v>       0.57453223       0.15976623       0.39708498 </v>
   <v>       0.58367086       0.40878145       0.39703845 </v>
   <v>       0.59008189       0.67015008       0.39681358 </v>
   <v>       0.59721261       0.92654389       0.39376613 </v>
   <v>       0.83298370       0.15883275       0.39038109 </v>
   <v>       0.83939856       0.41436255       0.39976731 </v>
   <v>       0.82291856       0.66062398       0.39418822 </v>
   <v>       0.83036814       0.91735122       0.39452603 </v>
   <v>       0.15881840       0.07761744       0.60709804 </v>
   <v>       0.17070202       0.33143069       0.60023500 </v>
   <v>       0.17114020       0.58980233       0.60562178 </v>
   <v>       0.16427173       0.83914082       0.60389082 </v>
   <v>       0.40929154       0.08649042       0.60312959 </v>
   <v>       0.42082366       0.33036237       0.60526657 </v>
   <v>       0.41709237       0.58934887       0.60276557 </v>
   <v>       0.42204033       0.83093595       0.60655465 </v>
   <v>       0.67317948       0.08094469       0.60947926 </v>
   <v>       0.66017990       0.32931784       0.60751330 </v>
   <v>       0.65673845       0.57419978       0.60402803 </v>
   <v>       0.67658195       0.83277019       0.60361204 </v>
   <v>       0.92052270       0.07754519       0.59881655 </v>
   <v>       0.92015584       0.32819170       0.60767061 </v>
   <v>       0.90968311       0.57922689       0.60406218 </v>
   <v>       0.91619738       0.83390104       0.60252682 </v>
   <v>       0.99252892       0.99674002       0.49462183 </v>
   <v>       0.99898718       0.25197885       0.50052356 </v>
   <v>       0.00247027       0.50259017       0.50154318 </v>
   <v>       0.99244753       0.74787032       0.49791162 </v>
   <v>       0.25163101       0.00906696       0.49950947 </v>
   <v>       0.25122157       0.25138840       0.49758163 </v>
   <v>       0.24684657       0.50777683       0.49852953 </v>
   <v>       0.24725805       0.75236933       0.50027589 </v>
   <v>       0.49571482       0.99433659       0.50580217 </v>
   <v>       0.50520970       0.24913042       0.50286817 </v>
   <v>       0.49231687       0.50028839       0.49597712 </v>
   <v>       0.50368999       0.74919058       0.50175076 </v>
   <v>       0.75172835       0.00524822       0.50328945 </v>
   <v>       0.75445930       0.25445452       0.50421744 </v>
   <v>       0.74701248       0.50024543       0.49995876 </v>
   <v>       0.74367950       0.74507336       0.49770671 </v>
  </varray>
  <varray name="velocities" >
   <v>       0.00000000       0.00000000       0.00000000 </v>
   <v>       0.00000000       0.00000000       0.00000000 </v>
   <v>       0.00000000       0.00000000       0.00000000 </v>
   <v>       0.00000000       0.00000000       0.00000000 </v>
   <v>       0.00000000       0.00000000       0.00000000 </v>
   <v>       0.00000000       0.00000000       0.00000000 </v>
   <v>       0.00000000       0.00000000       0.00000000 </v>
   <v>       0.00000000       0.00000000       0.00000000 </v>
   <v>       0.00000000       0.00000000       0.00000000 </v>
   <v>       0.00000000       0.00000000       0.00000000 </v>
   <v>       0.00000000       0.00000000       0.00000000 </v>
   <v>       0.00000000       0.00000000       0.00000000 </v>
   <v>       0.00000000       0.00000000       0.00000000 </v>
   <v>       0.00000000       0.00000000       0.00000000 </v>
   <v>       0.00000000       0.00000000       0.00000000 </v>
   <v>       0.00000000       0.00000000       0.00000000 </v>
   <v>       0.00000000       0.00000000       0.00000000 </v>
   <v>       0.00000000       0.00000000       0.00000000 </v>
   <v>       0.00000000       0.00000000       0.00000000 </v>
   <v>       0.00000000       0.00000000       0.00000000 </v>
   <v>       0.00000000       0.00000000       0.00000000 </v>
   <v>       0.00000000       0.00000000       0.00000000 </v>
   <v>       0.00000000       0.00000000       0.00000000 </v>
   <v>       0.00000000       0.00000000       0.00000000 </v>
   <v>       0.00000000       0.00000000       0.00000000 </v>
   <v>       0.00000000       0.00000000       0.00000000 </v>
   <v>       0.00000000       0.00000000       0.00000000 </v>
   <v>       0.00000000       0.00000000       0.00000000 </v>
   <v>       0.00000000       0.00000000       0.00000000 </v>
   <v>       0.00000000       0.00000000       0.00000000 </v>
   <v>       0.00000000       0.00000000       0.00000000 </v>
   <v>       0.00000000       0.00000000       0.00000000 </v>
   <v>       0.00000000       0.00000000       0.00000000 </v>
   <v>       0.00000000       0.00000000       0.00000000 </v>
   <v>       0.00000000       0.00000000       0.00000000 </v>
   <v>       0.00000000       0.00000000       0.00000000 </v>
   <v>       0.00000000       0.00000000       0.00000000 </v>
   <v>       0.00000000       0.00000000       0.00000000 </v>
   <v>       0.00000000       0.00000000       0.00000000 </v>
   <v>       0.00000000       0.00000000       0.00000000 </v>
   <v>       0.00000000       0.00000000       0.00000000 </v>
   <v>       0.00000000       0.00000000       0.00000000 </v>
   <v>       0.00000000       0.00000000       0.00000000 </v>
   <v>       0.00000000       0.00000000       0.00000000 </v>
   <v>       0.00000000       0.00000000       0.00000000 </v>
   <v>       0.00000000       0.00000000       0.00000000 </v>
   <v>       0.00000000       0.00000000       0.00000000 </v>
   <v>       0.00000000       0.00000000       0.00000000 </v>
   <v>       0.00000000       0.00000000       0.00000000 </v>
   <v>       0.00000000       0.00000000       0.00000000 </v>
   <v>       0.00000000       0.00000000       0.00000000 </v>
   <v>       0.00000000       0.00000000       0.00000000 </v>
   <v>       0.00000000       0.00000000       0.00000000 </v>
   <v>       0.00000000       0.00000000       0.00000000 </v>
   <v>       0.00000000       0.00000000       0.00000000 </v>
   <v>       0.00000000       0.00000000       0.00000000 </v>
   <v>       0.00000000       0.00000000       0.00000000 </v>
   <v>       0.00000000       0.00000000       0.00000000 </v>
   <v>       0.00000000       0.00000000       0.00000000 </v>
   <v>       0.00000000       0.00000000       0.00000000 </v>
   <v>       0.00000000       0.00000000       0.00000000 </v>
   <v>       0.00000000       0.00000000       0.00000000 </v>
   <v>       0.00000000       0.00000000       0.00000000 </v>
   <v>       0.00000000       0.00000000       0.00000000 </v>
   <v>       0.00000000       0.00000000       0.00000000 </v>
   <v>       0.00000000       0.00000000       0.00000000 </v>
   <v>       0.00000000       0.00000000       0.00000000 </v>
   <v>       0.00000000       0.00000000       0.00000000 </v>
   <v>       0.00000000       0.00000000       0.00000000 </v>
   <v>       0.00000000       0.00000000       0.00000000 </v>
   <v>       0.00000000       0.00000000       0.00000000 </v>
   <v>       0.00000000       0.00000000       0.00000000 </v>
   <v>       0.00000000       0.00000000       0.00000000 </v>
   <v>       0.00000000       0.00000000       0.00000000 </v>
   <v>       0.00000000       0.00000000       0.00000000 </v>
   <v>       0.00000000       0.00000000       0.00000000 </v>
   <v>       0.00000000       0.00000000       0.00000000 </v>
   <v>       0.00000000       0.00000000       0.00000000 </v>
   <v>       0.00000000       0.00000000       0.00000000 </v>
   <v>       0.00000000       0.00000000       0.00000000 </v>
  </varray>
 </structure>
 <calculation>
  <scstep>
   <time name="dav">  136.63  136.64</time>
   <time name="total">  138.95  138.96</time>
   <energy>
    <i name="alphaZ">    784.57699423 </i>
    <i name="ewald"> 253416.68586971 </i>
    <i name="hartreedc">-301064.84613956 </i>
    <i name="XCdc">   2503.57097980 </i>
    <i name="pawpsdc">  43679.68029659 </i>
    <i name="pawaedc"> -43417.33247688 </i>
    <i name="eentropy">     -0.06653751 </i>
    <i name="bandstr">    120.96962941 </i>
    <i name="atom">  56210.72393729 </i>
    <i name="e_fr_energy">  12233.96255308 </i>
    <i name="e_wo_entrp">  12234.02909059 </i>
    <i name="e_0_energy">  12233.99582183 </i>
   </energy>
  </scstep>
  <scstep>
   <time name="dav">  169.26  169.29</time>
   <time name="total">  169.26  169.29</time>
   <energy>
    <i name="e_fr_energy">   1729.23880117 </i>
    <i name="e_wo_entrp">   1729.27963841 </i>
    <i name="e_0_energy">   1729.25921979 </i>
   </energy>
  </scstep>
  <scstep>
   <time name="dav">  210.24  210.25</time>
   <time name="total">  210.24  210.25</time>
   <energy>
    <i name="e_fr_energy">   -411.96363413 </i>
    <i name="e_wo_entrp">   -411.96363413 </i>
    <i name="e_0_energy">   -411.96363413 </i>
   </energy>
  </scstep>
  <scstep>
   <time name="dav">  191.60  191.61</time>
   <time name="total">  191.60  191.61</time>
   <energy>
    <i name="e_fr_energy">   -645.73311184 </i>
    <i name="e_wo_entrp">   -645.73311184 </i>
    <i name="e_0_energy">   -645.73311184 </i>
   </energy>
  </scstep>
  <scstep>
   <time name="dav">  191.41  191.42</time>
   <time name="total">  204.22  204.23</time>
   <energy>
    <i name="e_fr_energy">   -655.91532735 </i>
    <i name="e_wo_entrp">   -655.91532735 </i>
    <i name="e_0_energy">   -655.91532735 </i>
   </energy>
  </scstep>
  <scstep>
   <time name="dav">  185.86  185.86</time>
   <time name="total">  201.02  201.03</time>
   <energy>
    <i name="e_fr_energy">   -525.62187486 </i>
    <i name="e_wo_entrp">   -525.62187486 </i>
    <i name="e_0_energy">   -525.62187486 </i>
   </energy>
  </scstep>
  <scstep>
   <time name="dav">  186.34  186.35</time>
   <time name="total">  201.48  201.50</time>
   <energy>
    <i name="e_fr_energy">   -530.46007586 </i>
    <i name="e_wo_entrp">   -530.46007586 </i>
    <i name="e_0_energy">   -530.46007586 </i>
   </energy>
  </scstep>
  <scstep>
   <time name="dav">  193.70  193.70</time>
   <time name="total">  208.82  208.84</time>
   <energy>
    <i name="e_fr_energy">   -528.22274405 </i>
    <i name="e_wo_entrp">   -528.22274405 </i>
    <i name="e_0_energy">   -528.22274405 </i>
   </energy>
  </scstep>
  <scstep>
   <time name="dav">  173.32  173.32</time>
   <time name="total">  188.45  188.47</time>
   <energy>
    <i name="e_fr_energy">   -527.67996294 </i>
    <i name="e_wo_entrp">   -527.67996294 </i>
    <i name="e_0_energy">   -527.67996294 </i>
   </energy>
  </scstep>
  <scstep>
   <time name="dav">  180.52  180.52</time>
   <time name="total">  195.66  195.67</time>
   <energy>
    <i name="e_fr_energy">   -527.55720771 </i>
    <i name="e_wo_entrp">   -527.55720771 </i>
    <i name="e_0_energy">   -527.55720771 </i>
   </energy>
  </scstep>
  <scstep>
   <time name="dav">  179.75  179.76</time>
   <time name="total">  194.63  194.64</time>
   <energy>
    <i name="e_fr_energy">   -527.53639909 </i>
    <i name="e_wo_entrp">   -527.53639909 </i>
    <i name="e_0_energy">   -527.53639909 </i>
   </energy>
  </scstep>
  <scstep>
   <time name="dav">  190.99  190.99</time>
   <time name="total">  205.17  205.18</time>
   <energy>
    <i name="e_fr_energy">   -527.52123247 </i>
    <i name="e_wo_entrp">   -527.52123247 </i>
    <i name="e_0_energy">   -527.52123247 </i>
   </energy>
  </scstep>
  <scstep>
   <time name="dav">  170.55  170.57</time>
   <time name="total">  184.67  184.70</time>
   <energy>
    <i name="e_fr_energy">   -527.51827446 </i>
    <i name="e_wo_entrp">   -527.51827446 </i>
    <i name="e_0_energy">   -527.51827446 </i>
   </energy>
  </scstep>
  <scstep>
   <time name="dav">  168.55  168.55</time>
   <time name="total">  183.19  183.21</time>
   <energy>
    <i name="e_fr_energy">   -527.51654336 </i>
    <i name="e_wo_entrp">   -527.51654336 </i>
    <i name="e_0_energy">   -527.51654336 </i>
   </energy>
  </scstep>
  <scstep>
   <time name="dav">  180.78  180.78</time>
   <time name="total">  195.20  195.21</time>
   <energy>
    <i name="e_fr_energy">   -527.51831172 </i>
    <i name="e_wo_entrp">   -527.51831172 </i>
    <i name="e_0_energy">   -527.51831172 </i>
   </energy>
  </scstep>
  <scstep>
   <time name="dav">  188.56  188.57</time>
   <time name="total">  202.99  203.00</time>
   <energy>
    <i name="e_fr_energy">   -527.52099977 </i>
    <i name="e_wo_entrp">   -527.52099977 </i>
    <i name="e_0_energy">   -527.52099977 </i>
   </energy>
  </scstep>
  <scstep>
   <time name="dav">  161.45  161.45</time>
   <time name="total">  176.10  176.11</time>
   <energy>
    <i name="e_fr_energy">   -527.52482671 </i>
    <i name="e_wo_entrp">   -527.52482671 </i>
    <i name="e_0_energy">   -527.52482671 </i>
   </energy>
  </scstep>
  <scstep>
   <time name="dav">  164.17  164.18</time>
   <time name="total">  178.77  178.79</time>
   <energy>
    <i name="e_fr_energy">   -527.52655011 </i>
    <i name="e_wo_entrp">   -527.52655011 </i>
    <i name="e_0_energy">   -527.52655011 </i>
   </energy>
  </scstep>
  <scstep>
   <time name="dav">  167.64  167.65</time>
   <time name="total">  182.26  182.27</time>
   <energy>
    <i name="e_fr_energy">   -527.52780305 </i>
    <i name="e_wo_entrp">   -527.52780305 </i>
    <i name="e_0_energy">   -527.52780305 </i>
   </energy>
  </scstep>
  <scstep>
   <time name="dav">  151.68  151.68</time>
   <time name="total">  165.92  165.94</time>
   <energy>
    <i name="e_fr_energy">   -527.52882454 </i>
    <i name="e_wo_entrp">   -527.52882454 </i>
    <i name="e_0_energy">   -527.52882454 </i>
   </energy>
  </scstep>
  <scstep>
   <time name="dav">  137.89  137.89</time>
   <time name="total">  152.61  152.63</time>
   <energy>
    <i name="e_fr_energy">   -527.52927692 </i>
    <i name="e_wo_entrp">   -527.52927692 </i>
    <i name="e_0_energy">   -527.52927692 </i>
   </energy>
  </scstep>
  <scstep>
   <time name="dav">  129.42  129.43</time>
   <time name="total">  144.12  144.14</time>
   <energy>
    <i name="e_fr_energy">   -527.52980321 </i>
    <i name="e_wo_entrp">   -527.52980321 </i>
    <i name="e_0_energy">   -527.52980321 </i>
   </energy>
  </scstep>
  <scstep>
   <time name="dav">  125.82  125.82</time>
   <time name="total">  140.52  140.54</time>
   <energy>
    <i name="e_fr_energy">   -527.53028633 </i>
    <i name="e_wo_entrp">   -527.53028633 </i>
    <i name="e_0_energy">   -527.53028633 </i>
   </energy>
  </scstep>
  <scstep>
   <time name="dav">  129.63  129.63</time>
   <time name="total">  144.47  144.48</time>
   <energy>
    <i name="e_fr_energy">   -527.53042586 </i>
    <i name="e_wo_entrp">   -527.53042586 </i>
    <i name="e_0_energy">   -527.53042586 </i>
   </energy>
  </scstep>
  <scstep>
   <time name="dav">  115.08  115.09</time>
   <time name="total">  129.62  129.64</time>
   <energy>
    <i name="e_fr_energy">   -527.53051582 </i>
    <i name="e_wo_entrp">   -527.53051582 </i>
    <i name="e_0_energy">   -527.53051582 </i>
   </energy>
  </scstep>
  <scstep>
   <time name="dav">  120.22  120.23</time>
   <time name="total">  135.15  135.18</time>
   <energy>
    <i name="e_fr_energy">   -527.53058891 </i>
    <i name="e_wo_entrp">   -527.53058891 </i>
    <i name="e_0_energy">   -527.53058891 </i>
   </energy>
  </scstep>
  <scstep>
   <time name="dav">  102.63  102.64</time>
   <time name="total">  117.56  117.57</time>
   <energy>
    <i name="e_fr_energy">   -527.53059931 </i>
    <i name="e_wo_entrp">   -527.53059931 </i>
    <i name="e_0_energy">   -527.53059931 </i>
   </energy>
  </scstep>
  <scstep>
   <time name="dav">  100.50  100.50</time>
   <time name="total">  115.20  115.21</time>
   <energy>
    <i name="e_fr_energy">   -527.53060879 </i>
    <i name="e_wo_entrp">   -527.53060879 </i>
    <i name="e_0_energy">   -527.53060879 </i>
   </energy>
  </scstep>
  <scstep>
   <time name="dav">  103.24  103.24</time>
   <time name="total">  118.11  118.13</time>
   <energy>
    <i name="e_fr_energy">   -527.53062188 </i>
    <i name="e_wo_entrp">   -527.53062188 </i>
    <i name="e_0_energy">   -527.53062188 </i>
   </energy>
  </scstep>
  <scstep>
   <time name="dav">  104.52  104.52</time>
   <time name="total">  119.06  119.07</time>
   <energy>
    <i name="e_fr_energy">   -527.53062968 </i>
    <i name="e_wo_entrp">   -527.53062968 </i>
    <i name="e_0_energy">   -527.53062968 </i>
   </energy>
  </scstep>
  <scstep>
   <time name="dav">   95.79   95.79</time>
   <time name="total">  109.51  109.53</time>
   <energy>
    <i name="e_fr_energy">   -527.53063146 </i>
    <i name="e_wo_entrp">   -527.53063146 </i>
    <i name="e_0_energy">   -527.53063146 </i>
   </energy>
  </scstep>
  <scstep>
   <time name="dav">  100.59  100.60</time>
   <time name="total">  114.25  114.27</time>
   <energy>
    <i name="e_fr_energy">   -527.53063303 </i>
    <i name="e_wo_entrp">   -527.53063303 </i>
    <i name="e_0_energy">   -527.53063303 </i>
   </energy>
  </scstep>
  <scstep>
   <time name="dav">   95.61   95.62</time>
   <time name="total">   97.88   97.89</time>
   <energy>
    <i name="alphaZ">    784.57699423 </i>
    <i name="ewald"> 253416.68586971 </i>
    <i name="hartreedc">-301414.20339945 </i>
    <i name="XCdc">   2490.82276320 </i>
    <i name="pawpsdc">  59580.36203834 </i>
    <i name="pawaedc"> -59412.75699395 </i>
    <i name="eentropy">     -0.00000000 </i>
    <i name="bandstr"> -12183.74184300 </i>
    <i name="atom">  56210.72393729 </i>
    <i name="e_fr_energy">   -527.53063364 </i>
    <i name="e_wo_entrp">   -527.53063364 </i>
    <i name="e_0_energy">   -527.53063364 </i>
   </energy>
  </scstep>
  <structure>
   <crystal>
    <varray name="basis" >
     <v>      13.79398668       0.00000000       0.00000000 </v>
     <v>      -6.89699334      11.94594288       0.00000000 </v>
     <v>       0.00000000       0.00000000      27.81022107 </v>
    </varray>
    <i name="volume">   4582.62876984 </i>
    <varray name="rec_basis" >
     <v>       0.07249536       0.04185521       0.00000000 </v>
     <v>       0.00000000       0.08371043       0.00000000 </v>
     <v>       0.00000000       0.00000000       0.03595800 </v>
    </varray>
   </crystal>
   <varray name="positions" >
    <v>       0.08141078       0.16445569       0.54087178 </v>
    <v>       0.09237515       0.42110665       0.54603940 </v>
    <v>       0.08068384       0.66032418       0.54475280 </v>
    <v>       0.07474740       0.90776200       0.54344920 </v>
    <v>       0.32557436       0.16430051       0.54356342 </v>
    <v>       0.33823955       0.42133889       0.54334330 </v>
    <v>       0.33244276       0.66877129       0.54322780 </v>
    <v>       0.33654059       0.92126306       0.54859561 </v>
    <v>       0.57988819       0.16588461       0.54613843 </v>
    <v>       0.57608075       0.41644606       0.54239043 </v>
    <v>       0.58251624       0.66901329       0.54259895 </v>
    <v>       0.59045972       0.92765807       0.54884953 </v>
    <v>       0.83967595       0.16426370       0.54471306 </v>
    <v>       0.84537084       0.41405534       0.55186480 </v>
    <v>       0.82570678       0.66545252       0.54131923 </v>
    <v>       0.82342491       0.90634440       0.54123771 </v>
    <v>       0.16189819       0.07764932       0.45316127 </v>
    <v>       0.16744118       0.34080966       0.45542034 </v>
    <v>       0.17095128       0.59092249       0.45220511 </v>
    <v>       0.16482191       0.83175969       0.45384821 </v>
    <v>       0.42272867       0.08381943       0.45606281 </v>
    <v>       0.41801862       0.33640116       0.45511088 </v>
    <v>       0.41974697       0.58283854       0.45166385 </v>
    <v>       0.42282058       0.84293269       0.45830192 </v>
    <v>       0.67670887       0.09369664       0.45696600 </v>
    <v>       0.66824207       0.33982151       0.45999324 </v>
    <v>       0.66519475       0.57550714       0.45606729 </v>
    <v>       0.65641039       0.83004195       0.45740625 </v>
    <v>       0.91710190       0.08394387       0.45403346 </v>
    <v>       0.92537944       0.34111032       0.45848166 </v>
    <v>       0.91229131       0.57967240       0.45567534 </v>
    <v>       0.91720940       0.83987644       0.45210626 </v>
    <v>       0.08501167       0.16044700       0.39463763 </v>
    <v>       0.08586909       0.41386553       0.39268881 </v>
    <v>       0.07261839       0.66817571       0.39541895 </v>
    <v>       0.08463868       0.91533338       0.39378369 </v>
    <v>       0.33712395       0.17762902       0.39491244 </v>
    <v>       0.32238802       0.41001329       0.39636597 </v>
    <v>       0.33304027       0.66841065       0.39697938 </v>
    <v>       0.33309952       0.91538848       0.39936170 </v>
    <v>       0.57453223       0.15976623       0.39708498 </v>
    <v>       0.58367086       0.40878145       0.39703845 </v>
    <v>       0.59008189       0.67015008       0.39681358 </v>
    <v>       0.59721261       0.92654389       0.39376613 </v>
    <v>       0.83298370       0.15883275       0.39038109 </v>
    <v>       0.83939856       0.41436255       0.39976731 </v>
    <v>       0.82291856       0.66062398       0.39418822 </v>
    <v>       0.83036814       0.91735122       0.39452603 </v>
    <v>       0.15881840       0.07761744       0.60709804 </v>
    <v>       0.17070202       0.33143069       0.60023500 </v>
    <v>       0.17114020       0.58980233       0.60562178 </v>
    <v>       0.16427173       0.83914082       0.60389082 </v>
    <v>       0.40929154       0.08649042       0.60312959 </v>
    <v>       0.42082366       0.33036237       0.60526657 </v>
    <v>       0.41709237       0.58934887       0.60276557 </v>
    <v>       0.42204033       0.83093595       0.60655465 </v>
    <v>       0.67317948       0.08094469       0.60947926 </v>
    <v>       0.66017990       0.32931784       0.60751330 </v>
    <v>       0.65673845       0.57419978       0.60402803 </v>
    <v>       0.67658195       0.83277019       0.60361204 </v>
    <v>       0.92052270       0.07754519       0.59881655 </v>
    <v>       0.92015584       0.32819170       0.60767061 </v>
    <v>       0.90968311       0.57922689       0.60406218 </v>
    <v>       0.91619738       0.83390104       0.60252682 </v>
    <v>       0.99252892       0.99674002       0.49462183 </v>
    <v>       0.99898718       0.25197885       0.50052356 </v>
    <v>       0.00247027       0.50259017       0.50154318 </v>
    <v>       0.99244753       0.74787032       0.49791162 </v>
    <v>       0.25163101       0.00906696       0.49950947 </v>
    <v>       0.25122157       0.25138840       0.49758163 </v>
    <v>       0.24684657       0.50777683       0.49852953 </v>
    <v>       0.24725805       0.75236933       0.50027589 </v>
    <v>       0.49571482       0.99433659       0.50580217 </v>
    <v>       0.50520970       0.24913042       0.50286817 </v>
    <v>       0.49231687       0.50028839       0.49597712 </v>
    <v>       0.50368999       0.74919058       0.50175076 </v>
    <v>       0.75172835       0.00524822       0.50328945 </v>
    <v>       0.75445930       0.25445452       0.50421744 </v>
    <v>       0.74701248       0.50024543       0.49995876 </v>
    <v>       0.74367950       0.74507336       0.49770671 </v>
   </varray>
  </structure>
  <varray name="forces" >
   <v>       0.46621993       0.05680933       0.09050875 </v>
   <v>      -0.37429952       0.03140431      -0.51106168 </v>
   <v>      -0.21630498       0.91352966      -0.30230079 </v>
   <v>       0.21320553       0.68830030      -0.44228752 </v>
   <v>       0.03441720       0.12678287      -0.10409590 </v>
   <v>      -0.24201247      -0.41491479      -0.20577799 </v>
   <v>       0.19387976       0.19231180      -0.15047954 </v>
   <v>      -0.39032156      -0.52818644      -0.73503976 </v>
   <v>       0.45984514       0.69763257       0.45829768 </v>
   <v>       0.79653595      -0.35749252       0.97355286 </v>
   <v>       0.03842196      -0.29674738       0.29005212 </v>
   <v>       0.07480241      -0.66504554      -0.37719702 </v>
   <v>      -0.65548667       0.35654187       0.19133370 </v>
   <v>      -1.21306319      -0.41041941      -1.09583163 </v>
   <v>       0.46585747       0.00038283       0.44955882 </v>
   <v>       0.62166715       0.89872435      -0.08612164 </v>
   <v>       0.53364864       0.67775308       0.37802186 </v>
   <v>       0.14707366      -0.77137152       0.17384653 </v>
   <v>      -0.21823457      -0.36149295       0.92877739 </v>
   <v>      -0.15951128       0.17499968       1.10766475 </v>
   <v>      -1.21428098       0.21396201       0.75782366 </v>
   <v>      -0.47723300      -0.72655209      -0.03257751 </v>
   <v>      -0.43986735       0.30662359       0.66272002 </v>
   <v>       0.11319339      -0.57701304       0.11164969 </v>
   <v>       0.09120443      -0.19789647       0.04148661 </v>
   <v>       0.79911501      -0.90361255      -0.04604830 </v>
   <v>      -0.25938892       0.80329084      -0.61193916 </v>
   <v>       0.63619013       0.54076238      -0.60059816 </v>
   <v>      -0.12611784      -0.06404874      -0.25428362 </v>
   <v>      -0.27991092      -0.65551698      -0.08412189 </v>
   <v>      -0.16701488       0.40758390       0.51725909 </v>
   <v>      -0.12784608      -0.98993588       0.03026644 </v>
   <v>      -0.46032274       0.41513964      -0.08692111 </v>
   <v>      -0.37077988       0.22766575       0.24835484 </v>
   <v>       0.48113578      -0.11148873      -0.29820625 </v>
   <v>      -0.02930806      -0.03750239      -0.27535670 </v>
   <v>       0.22646754      -0.63241038       0.02833388 </v>
   <v>       0.53979528       0.48237958      -0.50539500 </v>
   <v>       0.16881158       0.38602466      -0.53665586 </v>
   <v>       0.15523647       0.09306363      -0.60651951 </v>
   <v>       0.61900209       0.44317724      -0.14063343 </v>
   <v>      -0.09849964       0.25268881      -0.35484172 </v>
   <v>      -0.35334764      -0.23521459      -0.37951869 </v>
   <v>      -0.65807152      -0.38510731       0.57396222 </v>
   <v>      -0.22502142       0.51423188       0.74767361 </v>
   <v>      -0.41692914      -0.15763953      -0.50316664 </v>
   <v>       0.33975326       0.08957309       0.03121486 </v>
   <v>       0.01340131      -0.10789805       0.02482255 </v>
   <v>       0.03154765       0.24654102      -0.66528554 </v>
   <v>      -0.03887292       0.02753914       0.53747468 </v>
   <v>      -0.08942896      -0.21974044       0.06256509 </v>
   <v>       0.15944339      -0.45453723       0.13551216 </v>
   <v>       0.37290181      -0.09023239       0.61177774 </v>
   <v>      -0.64131304       0.22303117      -0.24918175 </v>
   <v>       0.13211195      -0.33535273       0.12169192 </v>
   <v>      -0.36175076       0.17015398       0.00763163 </v>
   <v>      -0.23087967       0.25987348      -0.13261947 </v>
   <v>       0.28624092       0.11503958      -0.33187699 </v>
   <v>       0.14193393       0.41292838      -0.16770377 </v>
   <v>      -0.52037120      -0.20955839       0.36955153 </v>
   <v>      -0.05609044       0.01464763       0.69096720 </v>
   <v>       0.25468097       0.12348520       0.19581045 </v>
   <v>       0.09741280       0.49098229       0.30158417 </v>
   <v>      -0.15506004      -0.31762560       0.06838880 </v>
   <v>       0.45478452       0.13986166       0.61185125 </v>
   <v>       0.61659221       0.12158108      -0.21693031 </v>
   <v>      -0.03865627      -0.27382124       0.12690682 </v>
   <v>       0.44614665       0.13465808       0.25156375 </v>
   <v>       0.10798639      -1.01469393      -0.11260835 </v>
   <v>      -0.28316737       0.18096083       0.46271615 </v>
   <v>       0.59326887      -0.49351612       0.10315324 </v>
   <v>       0.32234254      -0.07274637      -0.14716356 </v>
   <v>       0.23115278       0.70298357      -0.77409782 </v>
   <v>      -0.54260590       0.15425552      -0.57958420 </v>
   <v>       0.67263056      -0.27093897       0.65101120 </v>
   <v>      -0.72528905       0.27138689      -0.57781317 </v>
   <v>      -0.22719917      -0.42310929      -0.76670954 </v>
   <v>       0.13324016      -0.37670331      -0.48286200 </v>
   <v>      -0.20372206       0.09406520       0.01378008 </v>
   <v>       0.00428193       0.26476892       0.39029367 </v>
  </varray>
  <varray name="stress" >
   <v>       2.91311044       0.03064054      -0.11057668 </v>
   <v>       0.03064054       2.12601279       0.60178548 </v>
   <v>      -0.11057669       0.60178546       0.81971429 </v>
  </varray>
  <energy>
   <i name="e_fr_energy">   -527.53063364 </i>
   <i name="e_wo_entrp">   -527.53063364 </i>
   <i name="e_0_energy">     -0.00000000 </i>
  </energy>
  <time name="totalsc"> 5611.79 5612.32</time>
  <eigenvalues>
   <array>
    <dimension dim="1">band</dimension>
    <dimension dim="2">kpoint</dimension>
    <dimension dim="3">spin</dimension>
    <field>eigene</field>
    <field>occ</field>
    <set>
     <set comment="spin 1">
      <set comment="kpoint 1">
       <r>  -51.6142    1.0000 </r>
       <r>  -51.5960    1.0000 </r>
       <r>  -51.5297    1.0000 </r>
       <r>  -51.5155    1.0000 </r>
       <r>  -51.5132    1.0000 </r>
       <r>  -51.5028    1.0000 </r>
       <r>  -51.4855    1.0000 </r>
       <r>  -51.4782    1.0000 </r>
       <r>  -51.4713    1.0000 </r>
       <r>  -51.4683    1.0000 </r>
       <r>  -51.4250    1.0000 </r>
       <r>  -51.4194    1.0000 </r>
       <r>  -51.4018    1.0000 </r>
       <r>  -51.3849    1.0000 </r>
       <r>  -51.3576    1.0000 </r>
       <r>  -51.3544    1.0000 </r>
       <r>  -51.3497    1.0000 </r>
       <r>  -51.3317    1.0000 </r>
       <r>  -51.3163    1.0000 </r>
       <r>  -51.3149    1.0000 </r>
       <r>  -51.2899    1.0000 </r>
       <r>  -51.2750    1.0000 </r>
       <r>  -51.2611    1.0000 </r>
       <r>  -51.2393    1.0000 </r>
       <r>  -51.2291    1.0000 </r>
       <r>  -51.2072    1.0000 </r>
       <r>  -51.1902    1.0000 </r>
       <r>  -51.1848    1.0000 </r>
       <r>  -51.1765    1.0000 </r>
       <r>  -51.1166    1.0000 </r>
       <r>  -51.1116    1.0000 </r>
       <r>  -51.0736    1.0000 </r>
       <r>  -30.3407    1.0000 </r>
       <r>  -30.3187    1.0000 </r>
       <r>  -30.2852    1.0000 </r>
       <r>  -30.2818    1.0000 </r>
       <r>  -30.2687    1.0000 </r>
       <r>  -30.2647    1.0000 </r>
       <r>  -30.2618    1.0000 </r>
       <r>  -30.2568    1.0000 </r>
       <r>  -30.2561    1.0000 </r>
       <r>  -30.2465    1.0000 </r>
       <r>  -30.2368    1.0000 </r>
       <r>  -30.2324    1.0000 </r>
       <r>  -30.2297    1.0000 </r>
       <r>  -30.2230    1.0000 </r>
       <r>  -30.2198    1.0000 </r>
       <r>  -30.2177    1.0000 </r>
       <r>  -30.2084    1.0000 </r>
       <r>  -30.1967    1.0000 </r>
       <r>  -30.1763    1.0000 </r>
       <r>  -30.1714    1.0000 </r>
       <r>  -30.1624    1.0000 </r>
       <r>  -30.1560    1.0000 </r>
       <r>  -30.1481    1.0000 </r>
       <r>  -30.1436    1.0000 </r>
       <r>  -30.1309    1.0000 </r>
       <r>  -30.1290    1.0000 </r>
       <r>  -30.1272    1.0000 </r>
       <r>  -30.1187    1.0000 </r>
       <r>  -30.1170    1.0000 </r>
       <r>  -30.1089    1.0000 </r>
       <r>  -30.1056    1.0000 </r>
       <r>  -30.1032    1.0000 </r>
       <r>  -30.0930    1.0000 </r>
       <r>  -30.0905    1.0000 </r>
       <r>  -30.0826    1.0000 </r>
       <r>  -30.0782    1.0000 </r>
       <r>  -30.0750    1.0000 </r>
       <r>  -30.0716    1.0000 </r>
       <r>  -30.0687    1.0000 </r>
       <r>  -30.0631    1.0000 </r>
       <r>  -30.0569    1.0000 </r>
       <r>  -30.0484    1.0000 </r>
       <r>  -30.0421    1.0000 </r>
       <r>  -30.0374    1.0000 </r>
       <r>  -30.0350    1.0000 </r>
       <r>  -30.0330    1.0000 </r>
       <r>  -30.0295    1.0000 </r>
       <r>  -30.0227    1.0000 </r>
       <r>  -30.0165    1.0000 </r>
       <r>  -30.0090    1.0000 </r>
       <r>  -30.0033    1.0000 </r>
       <r>  -30.0000    1.0000 </r>
       <r>  -29.9929    1.0000 </r>
       <r>  -29.9811    1.0000 </r>
       <r>  -29.9766    1.0000 </r>
       <r>  -29.9678    1.0000 </r>
       <r>  -29.9636    1.0000 </r>
       <r>  -29.9562    1.0000 </r>
       <r>  -29.9541    1.0000 </r>
       <r>  -29.9470    1.0000 </r>
       <r>  -29.9415    1.0000 </r>
       <r>  -29.9387    1.0000 </r>
       <r>  -29.9346    1.0000 </r>
       <r>  -29.9318    1.0000 </r>
       <r>  -29.9260    1.0000 </r>
       <r>  -29.9244    1.0000 </r>
       <r>  -29.9186    1.0000 </r>
       <r>  -29.9164    1.0000 </r>
       <r>  -29.9092    1.0000 </r>
       <r>  -29.9043    1.0000 </r>
       <r>  -29.9026    1.0000 </r>
       <r>  -29.8920    1.0000 </r>
       <r>  -29.8852    1.0000 </r>
       <r>  -29.8791    1.0000 </r>
       <r>  -29.8745    1.0000 </r>
       <r>  -29.8665    1.0000 </r>
       <r>  -29.8569    1.0000 </r>
       <r>  -29.8495    1.0000 </r>
       <r>  -29.8379    1.0000 </r>
       <r>  -29.8335    1.0000 </r>
       <r>  -29.8150    1.0000 </r>
       <r>  -29.8068    1.0000 </r>
       <r>  -29.8004    1.0000 </r>
       <r>  -29.7850    1.0000 </r>
       <r>  -29.7806    1.0000 </r>
       <r>  -29.7766    1.0000 </r>
       <r>  -29.7740    1.0000 </r>
       <r>  -29.7623    1.0000 </r>
       <r>  -29.7580    1.0000 </r>
       <r>  -29.7525    1.0000 </r>
       <r>  -29.7468    1.0000 </r>
       <r>  -29.7421    1.0000 </r>
       <r>  -29.7260    1.0000 </r>
       <r>  -29.7192    1.0000 </r>
       <r>  -29.7138    1.0000 </r>
       <r>  -29.6990    1.0000 </r>
       <r>  -18.5603    1.0000 </r>
       <r>  -18.4839    1.0000 </r>
       <r>  -18.3968    1.0000 </r>
       <r>  -18.3330    1.0000 </r>
       <r>  -18.3013    1.0000 </r>
       <r>  -18.2973    1.0000 </r>
       <r>  -18.2784    1.0000 </r>
       <r>  -18.2483    1.0000 </r>
       <r>  -18.2416    1.0000 </r>
       <r>  -18.2347    1.0000 </r>
       <r>  -18.2159    1.0000 </r>
       <r>  -18.1577    1.0000 </r>
       <r>  -18.1327    1.0000 </r>
       <r>  -18.1298    1.0000 </r>
       <r>  -18.1074    1.0000 </r>
       <r>  -18.0559    1.0000 </r>
       <r>  -18.0143    1.0000 </r>
       <r>  -17.9997    1.0000 </r>
       <r>  -17.9777    1.0000 </r>
       <r>  -17.9717    1.0000 </r>
       <r>  -17.9136    1.0000 </r>
       <r>  -17.9071    1.0000 </r>
       <r>  -17.8916    1.0000 </r>
       <r>  -17.8276    1.0000 </r>
       <r>  -17.7924    1.0000 </r>
       <r>  -17.7808    1.0000 </r>
       <r>  -17.7668    1.0000 </r>
       <r>  -17.7052    1.0000 </r>
       <r>  -17.6829    1.0000 </r>
       <r>  -17.5774    1.0000 </r>
       <r>  -17.5628    1.0000 </r>
       <r>  -17.5437    1.0000 </r>
       <r>  -11.7331    1.0000 </r>
       <r>  -11.4012    1.0000 </r>
       <r>  -11.3751    1.0000 </r>
       <r>  -11.3295    1.0000 </r>
       <r>  -11.2909    1.0000 </r>
       <r>  -11.2626    1.0000 </r>
       <r>  -11.2233    1.0000 </r>
       <r>  -10.9291    1.0000 </r>
       <r>  -10.8792    1.0000 </r>
       <r>  -10.8618    1.0000 </r>
       <r>  -10.8547    1.0000 </r>
       <r>  -10.8159    1.0000 </r>
       <r>  -10.7879    1.0000 </r>
       <r>  -10.7672    1.0000 </r>
       <r>  -10.7375    1.0000 </r>
       <r>  -10.6938    1.0000 </r>
       <r>   -8.0009    1.0000 </r>
       <r>   -7.9705    1.0000 </r>
       <r>   -7.9654    1.0000 </r>
       <r>   -7.7982    1.0000 </r>
       <r>   -7.7671    1.0000 </r>
       <r>   -7.7558    1.0000 </r>
       <r>   -7.5556    1.0000 </r>
       <r>   -7.5261    1.0000 </r>
       <r>   -7.5024    1.0000 </r>
       <r>   -7.4917    1.0000 </r>
       <r>   -7.4726    1.0000 </r>
       <r>   -7.4588    1.0000 </r>
       <r>   -7.4456    1.0000 </r>
       <r>   -7.4279    1.0000 </r>
       <r>   -7.4110    1.0000 </r>
       <r>   -7.3803    1.0000 </r>
       <r>   -7.3592    1.0000 </r>
       <r>   -7.3190    1.0000 </r>
       <r>   -7.2781    1.0000 </r>
       <r>   -7.1217    1.0000 </r>
       <r>   -7.0662    1.0000 </r>
       <r>   -7.0443    1.0000 </r>
       <r>   -7.0057    1.0000 </r>
       <r>   -6.9831    1.0000 </r>
       <r>   -6.9658    1.0000 </r>
       <r>   -6.9608    1.0000 </r>
       <r>   -6.9439    1.0000 </r>
       <r>   -6.9362    1.0000 </r>
       <r>   -6.9211    1.0000 </r>
       <r>   -6.9106    1.0000 </r>
       <r>   -6.8633    1.0000 </r>
       <r>   -6.8582    1.0000 </r>
       <r>   -6.8288    1.0000 </r>
       <r>   -6.8109    1.0000 </r>
       <r>   -6.7762    1.0000 </r>
       <r>   -6.7716    1.0000 </r>
       <r>   -6.7544    1.0000 </r>
       <r>   -6.7515    1.0000 </r>
       <r>   -6.7294    1.0000 </r>
       <r>   -6.6963    1.0000 </r>
       <r>   -6.6942    1.0000 </r>
       <r>   -6.6622    1.0000 </r>
       <r>   -6.6481    1.0000 </r>
       <r>   -6.6322    1.0000 </r>
       <r>   -6.6286    1.0000 </r>
       <r>   -6.6213    1.0000 </r>
       <r>   -6.6029    1.0000 </r>
       <r>   -6.5915    1.0000 </r>
       <r>   -6.5837    1.0000 </r>
       <r>   -6.5760    1.0000 </r>
       <r>   -6.5683    1.0000 </r>
       <r>   -6.5513    1.0000 </r>
       <r>   -6.5404    1.0000 </r>
       <r>   -6.5135    1.0000 </r>
       <r>   -6.5082    1.0000 </r>
       <r>   -6.5018    1.0000 </r>
       <r>   -6.4916    1.0000 </r>
       <r>   -6.4716    1.0000 </r>
       <r>   -6.4513    1.0000 </r>
       <r>   -6.4483    1.0000 </r>
       <r>   -6.4387    1.0000 </r>
       <r>   -6.4240    1.0000 </r>
       <r>   -6.4106    1.0000 </r>
       <r>   -6.3998    1.0000 </r>
       <r>   -6.3787    1.0000 </r>
       <r>   -6.3740    1.0000 </r>
       <r>   -6.3282    1.0000 </r>
       <r>   -6.3151    1.0000 </r>
       <r>   -6.3021    1.0000 </r>
       <r>   -6.2706    1.0000 </r>
       <r>   -6.2616    1.0000 </r>
       <r>   -6.2347    1.0000 </r>
       <r>   -6.2036    1.0000 </r>
       <r>   -6.1692    1.0000 </r>
       <r>   -5.9449    1.0000 </r>
       <r>   -5.8794    1.0000 </r>
       <r>   -5.8421    1.0000 </r>
       <r>   -5.8270    1.0000 </r>
       <r>   -5.8012    1.0000 </r>
       <r>   -5.7756    1.0000 </r>
       <r>   -5.6890    1.0000 </r>
       <r>   -5.6544    1.0000 </r>
       <r>   -5.6286    1.0000 </r>
       <r>   -5.6090    1.0000 </r>
       <r>   -5.5694    1.0000 </r>
       <r>   -5.5411    1.0000 </r>
       <r>   -5.5318    1.0000 </r>
       <r>   -5.5047    1.0000 </r>
       <r>   -5.4556    1.0000 </r>
       <r>   -5.4442    1.0000 </r>
       <r>   -5.4040    1.0000 </r>
       <r>   -5.3243    1.0000 </r>
       <r>   -5.2742    1.0000 </r>
       <r>   -5.2357    1.0000 </r>
       <r>   -5.1607    1.0000 </r>
       <r>   -5.0984    1.0000 </r>
       <r>   -4.8353    1.0000 </r>
       <r>   -4.7734    1.0000 </r>
       <r>   -4.6841    1.0000 </r>
       <r>   -4.5932    1.0000 </r>
       <r>   -4.5573    1.0000 </r>
       <r>   -4.5305    1.0000 </r>
       <r>   -4.4722    1.0000 </r>
       <r>   -4.4520    1.0000 </r>
       <r>   -4.4314    1.0000 </r>
       <r>   -4.1689    1.0000 </r>
       <r>   -4.1149    1.0000 </r>
       <r>   -4.0982    1.0000 </r>
       <r>   -4.0596    1.0000 </r>
       <r>   -4.0578    1.0000 </r>
       <r>   -4.0247    1.0000 </r>
       <r>   -3.9786    1.0000 </r>
       <r>   -3.9649    1.0000 </r>
       <r>   -3.9373    1.0000 </r>
       <r>   -3.9127    1.0000 </r>
       <r>   -3.9040    1.0000 </r>
       <r>   -3.9021    1.0000 </r>
       <r>   -3.8906    1.0000 </r>
       <r>   -3.8561    1.0000 </r>
       <r>   -3.8393    1.0000 </r>
       <r>   -3.7923    1.0000 </r>
       <r>   -3.7379    1.0000 </r>
       <r>   -3.7189    1.0000 </r>
       <r>   -3.6896    1.0000 </r>
       <r>   -3.6405    1.0000 </r>
       <r>   -3.6213    1.0000 </r>
       <r>   -3.6075    1.0000 </r>
       <r>   -3.5542    1.0000 </r>
       <r>   -3.5264    1.0000 </r>
       <r>   -3.5055    1.0000 </r>
       <r>   -3.4947    1.0000 </r>
       <r>   -3.4657    1.0000 </r>
       <r>   -3.4165    1.0000 </r>
       <r>   -3.3320    1.0000 </r>
       <r>   -3.2938    1.0000 </r>
       <r>   -3.2618    1.0000 </r>
       <r>   -3.2067    1.0000 </r>
       <r>   -3.1869    1.0000 </r>
       <r>   -3.1671    1.0000 </r>
       <r>   -3.1384    1.0000 </r>
       <r>   -3.1230    1.0000 </r>
       <r>   -3.1001    1.0000 </r>
       <r>   -2.9330    1.0000 </r>
       <r>   -2.8987    1.0000 </r>
       <r>   -2.0413    0.0000 </r>
       <r>   -2.0363    0.0000 </r>
       <r>   -2.0138    0.0000 </r>
       <r>   -1.4289    0.0000 </r>
       <r>   -1.4110    0.0000 </r>
       <r>   -1.4048    0.0000 </r>
       <r>   -1.3653    0.0000 </r>
       <r>   -1.3352    0.0000 </r>
       <r>   -1.3037    0.0000 </r>
       <r>   -0.6031    0.0000 </r>
       <r>   -0.5949    0.0000 </r>
       <r>   -0.5486    0.0000 </r>
       <r>   -0.5232    0.0000 </r>
       <r>   -0.4927    0.0000 </r>
       <r>   -0.4809    0.0000 </r>
       <r>   -0.4668    0.0000 </r>
       <r>   -0.4519    0.0000 </r>
       <r>   -0.4083    0.0000 </r>
       <r>   -0.3666    0.0000 </r>
       <r>   -0.3351    0.0000 </r>
       <r>   -0.3236    0.0000 </r>
       <r>   -0.2887    0.0000 </r>
       <r>   -0.2438    0.0000 </r>
       <r>   -0.2079    0.0000 </r>
       <r>    0.1437    0.0000 </r>
       <r>    0.1764    0.0000 </r>
       <r>    0.2205    0.0000 </r>
       <r>    0.2328    0.0000 </r>
       <r>    0.2635    0.0000 </r>
       <r>    0.2784    0.0000 </r>
       <r>    0.2889    0.0000 </r>
       <r>    0.3055    0.0000 </r>
       <r>    0.3164    0.0000 </r>
       <r>    0.3365    0.0000 </r>
       <r>    0.3694    0.0000 </r>
       <r>    0.3905    0.0000 </r>
       <r>    0.5267    0.0000 </r>
       <r>    0.6443    0.0000 </r>
       <r>    0.6798    0.0000 </r>
       <r>    0.6938    0.0000 </r>
       <r>    0.7186    0.0000 </r>
       <r>    0.7393    0.0000 </r>
       <r>    0.7588    0.0000 </r>
       <r>    0.7967    0.0000 </r>
       <r>    0.8109    0.0000 </r>
       <r>    0.8259    0.0000 </r>
       <r>    0.8453    0.0000 </r>
       <r>    0.8571    0.0000 </r>
       <r>    0.8683    0.0000 </r>
       <r>    0.8977    0.0000 </r>
       <r>    0.9051    0.0000 </r>
       <r>    0.9153    0.0000 </r>
       <r>    0.9240    0.0000 </r>
       <r>    0.9468    0.0000 </r>
       <r>    0.9629    0.0000 </r>
       <r>    0.9798    0.0000 </r>
       <r>    0.9975    0.0000 </r>
       <r>    1.0003    0.0000 </r>
       <r>    1.0134    0.0000 </r>
       <r>    1.0326    0.0000 </r>
       <r>    1.0522    0.0000 </r>
       <r>    1.0674    0.0000 </r>
       <r>    1.0933    0.0000 </r>
       <r>    1.1058    0.0000 </r>
      </set>
      <set comment="kpoint 2">
       <r>  -51.6142    1.0000 </r>
       <r>  -51.5960    1.0000 </r>
       <r>  -51.5297    1.0000 </r>
       <r>  -51.5155    1.0000 </r>
       <r>  -51.5132    1.0000 </r>
       <r>  -51.5028    1.0000 </r>
       <r>  -51.4855    1.0000 </r>
       <r>  -51.4782    1.0000 </r>
       <r>  -51.4713    1.0000 </r>
       <r>  -51.4683    1.0000 </r>
       <r>  -51.4250    1.0000 </r>
       <r>  -51.4194    1.0000 </r>
       <r>  -51.4018    1.0000 </r>
       <r>  -51.3849    1.0000 </r>
       <r>  -51.3576    1.0000 </r>
       <r>  -51.3544    1.0000 </r>
       <r>  -51.3497    1.0000 </r>
       <r>  -51.3317    1.0000 </r>
       <r>  -51.3163    1.0000 </r>
       <r>  -51.3149    1.0000 </r>
       <r>  -51.2899    1.0000 </r>
       <r>  -51.2750    1.0000 </r>
       <r>  -51.2611    1.0000 </r>
       <r>  -51.2393    1.0000 </r>
       <r>  -51.2291    1.0000 </r>
       <r>  -51.2072    1.0000 </r>
       <r>  -51.1902    1.0000 </r>
       <r>  -51.1848    1.0000 </r>
       <r>  -51.1765    1.0000 </r>
       <r>  -51.1166    1.0000 </r>
       <r>  -51.1116    1.0000 </r>
       <r>  -51.0736    1.0000 </r>
       <r>  -30.3397    1.0000 </r>
       <r>  -30.3173    1.0000 </r>
       <r>  -30.2842    1.0000 </r>
       <r>  -30.2815    1.0000 </r>
       <r>  -30.2669    1.0000 </r>
       <r>  -30.2648    1.0000 </r>
       <r>  -30.2627    1.0000 </r>
       <r>  -30.2569    1.0000 </r>
       <r>  -30.2547    1.0000 </r>
       <r>  -30.2469    1.0000 </r>
       <r>  -30.2387    1.0000 </r>
       <r>  -30.2350    1.0000 </r>
       <r>  -30.2288    1.0000 </r>
       <r>  -30.2250    1.0000 </r>
       <r>  -30.2208    1.0000 </r>
       <r>  -30.2167    1.0000 </r>
       <r>  -30.2094    1.0000 </r>
       <r>  -30.1973    1.0000 </r>
       <r>  -30.1758    1.0000 </r>
       <r>  -30.1732    1.0000 </r>
       <r>  -30.1631    1.0000 </r>
       <r>  -30.1549    1.0000 </r>
       <r>  -30.1497    1.0000 </r>
       <r>  -30.1429    1.0000 </r>
       <r>  -30.1344    1.0000 </r>
       <r>  -30.1291    1.0000 </r>
       <r>  -30.1257    1.0000 </r>
       <r>  -30.1178    1.0000 </r>
       <r>  -30.1155    1.0000 </r>
       <r>  -30.1076    1.0000 </r>
       <r>  -30.1063    1.0000 </r>
       <r>  -30.1037    1.0000 </r>
       <r>  -30.0924    1.0000 </r>
       <r>  -30.0911    1.0000 </r>
       <r>  -30.0829    1.0000 </r>
       <r>  -30.0794    1.0000 </r>
       <r>  -30.0743    1.0000 </r>
       <r>  -30.0723    1.0000 </r>
       <r>  -30.0661    1.0000 </r>
       <r>  -30.0632    1.0000 </r>
       <r>  -30.0579    1.0000 </r>
       <r>  -30.0480    1.0000 </r>
       <r>  -30.0416    1.0000 </r>
       <r>  -30.0403    1.0000 </r>
       <r>  -30.0328    1.0000 </r>
       <r>  -30.0308    1.0000 </r>
       <r>  -30.0280    1.0000 </r>
       <r>  -30.0219    1.0000 </r>
       <r>  -30.0160    1.0000 </r>
       <r>  -30.0095    1.0000 </r>
       <r>  -30.0062    1.0000 </r>
       <r>  -29.9972    1.0000 </r>
       <r>  -29.9924    1.0000 </r>
       <r>  -29.9833    1.0000 </r>
       <r>  -29.9787    1.0000 </r>
       <r>  -29.9668    1.0000 </r>
       <r>  -29.9629    1.0000 </r>
       <r>  -29.9594    1.0000 </r>
       <r>  -29.9553    1.0000 </r>
       <r>  -29.9469    1.0000 </r>
       <r>  -29.9433    1.0000 </r>
       <r>  -29.9389    1.0000 </r>
       <r>  -29.9331    1.0000 </r>
       <r>  -29.9287    1.0000 </r>
       <r>  -29.9263    1.0000 </r>
       <r>  -29.9240    1.0000 </r>
       <r>  -29.9196    1.0000 </r>
       <r>  -29.9152    1.0000 </r>
       <r>  -29.9084    1.0000 </r>
       <r>  -29.9045    1.0000 </r>
       <r>  -29.9004    1.0000 </r>
       <r>  -29.8924    1.0000 </r>
       <r>  -29.8861    1.0000 </r>
       <r>  -29.8783    1.0000 </r>
       <r>  -29.8730    1.0000 </r>
       <r>  -29.8664    1.0000 </r>
       <r>  -29.8560    1.0000 </r>
       <r>  -29.8477    1.0000 </r>
       <r>  -29.8396    1.0000 </r>
       <r>  -29.8349    1.0000 </r>
       <r>  -29.8150    1.0000 </r>
       <r>  -29.8073    1.0000 </r>
       <r>  -29.8003    1.0000 </r>
       <r>  -29.7845    1.0000 </r>
       <r>  -29.7801    1.0000 </r>
       <r>  -29.7763    1.0000 </r>
       <r>  -29.7740    1.0000 </r>
       <r>  -29.7630    1.0000 </r>
       <r>  -29.7562    1.0000 </r>
       <r>  -29.7536    1.0000 </r>
       <r>  -29.7470    1.0000 </r>
       <r>  -29.7421    1.0000 </r>
       <r>  -29.7262    1.0000 </r>
       <r>  -29.7207    1.0000 </r>
       <r>  -29.7139    1.0000 </r>
       <r>  -29.6992    1.0000 </r>
       <r>  -18.5457    1.0000 </r>
       <r>  -18.4618    1.0000 </r>
       <r>  -18.4104    1.0000 </r>
       <r>  -18.3772    1.0000 </r>
       <r>  -18.3562    1.0000 </r>
       <r>  -18.2908    1.0000 </r>
       <r>  -18.2818    1.0000 </r>
       <r>  -18.2678    1.0000 </r>
       <r>  -18.2297    1.0000 </r>
       <r>  -18.1952    1.0000 </r>
       <r>  -18.1793    1.0000 </r>
       <r>  -18.1416    1.0000 </r>
       <r>  -18.1289    1.0000 </r>
       <r>  -18.1042    1.0000 </r>
       <r>  -18.1031    1.0000 </r>
       <r>  -18.0596    1.0000 </r>
       <r>  -18.0320    1.0000 </r>
       <r>  -18.0010    1.0000 </r>
       <r>  -17.9785    1.0000 </r>
       <r>  -17.9772    1.0000 </r>
       <r>  -17.9254    1.0000 </r>
       <r>  -17.9172    1.0000 </r>
       <r>  -17.8900    1.0000 </r>
       <r>  -17.8230    1.0000 </r>
       <r>  -17.7911    1.0000 </r>
       <r>  -17.7808    1.0000 </r>
       <r>  -17.7626    1.0000 </r>
       <r>  -17.7262    1.0000 </r>
       <r>  -17.6668    1.0000 </r>
[...]
       <r>   -32.2071     0.0000    64.0000 </r>
       <r>   -32.0137     0.0000    64.0000 </r>
       <r>   -31.8204     0.0000    64.0000 </r>
       <r>   -31.6270     0.0000    64.0000 </r>
       <r>   -31.4336     0.0000    64.0000 </r>
       <r>   -31.2403     0.0000    64.0000 </r>
       <r>   -31.0469     0.0000    64.0000 </r>
       <r>   -30.8535     0.0000    64.0000 </r>
       <r>   -30.6602     0.0000    64.0000 </r>
       <r>   -30.4668     0.0019    64.0004 </r>
       <r>   -30.2734    59.8049    75.5647 </r>
       <r>   -30.0801   307.8515   135.0931 </r>
       <r>   -29.8867   373.0277   207.2244 </r>
       <r>   -29.6933   237.7754   253.2023 </r>
       <r>   -29.5000    14.4682   256.0000 </r>
       <r>   -29.3066     0.0000   256.0000 </r>
       <r>   -29.1132     0.0000   256.0000 </r>
       <r>   -28.9199     0.0000   256.0000 </r>
       <r>   -28.7265     0.0000   256.0000 </r>
       <r>   -28.5331     0.0000   256.0000 </r>
       <r>   -28.3398     0.0000   256.0000 </r>
       <r>   -28.1464     0.0000   256.0000 </r>
       <r>   -27.9530     0.0000   256.0000 </r>
       <r>   -27.7597     0.0000   256.0000 </r>
       <r>   -27.5663     0.0000   256.0000 </r>
       <r>   -27.3729     0.0000   256.0000 </r>
       <r>   -27.1796     0.0000   256.0000 </r>
       <r>   -26.9862     0.0000   256.0000 </r>
       <r>   -26.7928     0.0000   256.0000 </r>
       <r>   -26.5995     0.0000   256.0000 </r>
       <r>   -26.4061     0.0000   256.0000 </r>
       <r>   -26.2127     0.0000   256.0000 </r>
       <r>   -26.0194     0.0000   256.0000 </r>
       <r>   -25.8260     0.0000   256.0000 </r>
       <r>   -25.6326     0.0000   256.0000 </r>
       <r>   -25.4393     0.0000   256.0000 </r>
       <r>   -25.2459     0.0000   256.0000 </r>
       <r>   -25.0525     0.0000   256.0000 </r>
       <r>   -24.8592     0.0000   256.0000 </r>
       <r>   -24.6658     0.0000   256.0000 </r>
       <r>   -24.4724     0.0000   256.0000 </r>
       <r>   -24.2791     0.0000   256.0000 </r>
       <r>   -24.0857     0.0000   256.0000 </r>
       <r>   -23.8923     0.0000   256.0000 </r>
       <r>   -23.6990     0.0000   256.0000 </r>
       <r>   -23.5056     0.0000   256.0000 </r>
       <r>   -23.3122     0.0000   256.0000 </r>
       <r>   -23.1189     0.0000   256.0000 </r>
       <r>   -22.9255     0.0000   256.0000 </r>
       <r>   -22.7321     0.0000   256.0000 </r>
       <r>   -22.5388     0.0000   256.0000 </r>
       <r>   -22.3454     0.0000   256.0000 </r>
       <r>   -22.1520     0.0000   256.0000 </r>
       <r>   -21.9587     0.0000   256.0000 </r>
       <r>   -21.7653     0.0000   256.0000 </r>
       <r>   -21.5719     0.0000   256.0000 </r>
       <r>   -21.3786     0.0000   256.0000 </r>
       <r>   -21.1852     0.0000   256.0000 </r>
       <r>   -20.9918     0.0000   256.0000 </r>
       <r>   -20.7985     0.0000   256.0000 </r>
       <r>   -20.6051     0.0000   256.0000 </r>
       <r>   -20.4117     0.0000   256.0000 </r>
       <r>   -20.2183     0.0000   256.0000 </r>
       <r>   -20.0250     0.0000   256.0000 </r>
       <r>   -19.8316     0.0000   256.0000 </r>
       <r>   -19.6382     0.0000   256.0000 </r>
       <r>   -19.4449     0.0000   256.0000 </r>
       <r>   -19.2515     0.0000   256.0000 </r>
       <r>   -19.0581     0.0000   256.0000 </r>
       <r>   -18.8648     0.0000   256.0000 </r>
       <r>   -18.6714     0.0022   256.0004 </r>
       <r>   -18.4780    13.9497   258.6978 </r>
       <r>   -18.2847    50.3786   268.4394 </r>
       <r>   -18.0913    82.5804   284.4078 </r>
       <r>   -17.8979    80.0118   299.8794 </r>
       <r>   -17.7046    60.0272   311.4867 </r>
       <r>   -17.5112    40.8813   319.3918 </r>
       <r>   -17.3178     3.1453   320.0000 </r>
       <r>   -17.1245     0.0000   320.0000 </r>
       <r>   -16.9311     0.0000   320.0000 </r>
       <r>   -16.7377     0.0000   320.0000 </r>
       <r>   -16.5444     0.0000   320.0000 </r>
       <r>   -16.3510     0.0000   320.0000 </r>
       <r>   -16.1576     0.0000   320.0000 </r>
       <r>   -15.9643     0.0000   320.0000 </r>
       <r>   -15.7709     0.0000   320.0000 </r>
       <r>   -15.5775     0.0000   320.0000 </r>
       <r>   -15.3842     0.0000   320.0000 </r>
       <r>   -15.1908     0.0000   320.0000 </r>
       <r>   -14.9974     0.0000   320.0000 </r>
       <r>   -14.8041     0.0000   320.0000 </r>
       <r>   -14.6107     0.0000   320.0000 </r>
       <r>   -14.4173     0.0000   320.0000 </r>
       <r>   -14.2240     0.0000   320.0000 </r>
       <r>   -14.0306     0.0000   320.0000 </r>
       <r>   -13.8372     0.0000   320.0000 </r>
       <r>   -13.6439     0.0000   320.0000 </r>
       <r>   -13.4505     0.0000   320.0000 </r>
       <r>   -13.2571     0.0000   320.0000 </r>
       <r>   -13.0638     0.0000   320.0000 </r>
       <r>   -12.8704     0.0000   320.0000 </r>
       <r>   -12.6770     0.0000   320.0000 </r>
       <r>   -12.4837     0.0000   320.0000 </r>
       <r>   -12.2903     0.0000   320.0000 </r>
       <r>   -12.0969     0.0000   320.0000 </r>
       <r>   -11.9036     0.0000   320.0000 </r>
       <r>   -11.7102     2.4516   320.4740 </r>
       <r>   -11.5168    16.4938   323.6634 </r>
       <r>   -11.3235    19.4378   327.4220 </r>
       <r>   -11.1301    22.9797   331.8656 </r>
       <r>   -10.9367    32.2999   338.1113 </r>
       <r>   -10.7434    47.4319   347.2831 </r>
       <r>   -10.5500    24.3859   351.9985 </r>
       <r>   -10.3566     0.0077   352.0000 </r>
       <r>   -10.1633     0.0000   352.0000 </r>
       <r>    -9.9699     0.0000   352.0000 </r>
       <r>    -9.7765     0.0000   352.0000 </r>
       <r>    -9.5832     0.0000   352.0000 </r>
       <r>    -9.3898     0.0000   352.0000 </r>
       <r>    -9.1964     0.0000   352.0000 </r>
       <r>    -9.0031     0.0000   352.0000 </r>
       <r>    -8.8097     0.0000   352.0000 </r>
       <r>    -8.6163     0.0000   352.0000 </r>
       <r>    -8.4230     0.0000   352.0000 </r>
       <r>    -8.2296     0.0000   352.0000 </r>
       <r>    -8.0362     0.2461   352.0476 </r>
       <r>    -7.8428    19.1901   355.7583 </r>
       <r>    -7.6495    41.7196   363.8255 </r>
       <r>    -7.4561    73.0189   377.9450 </r>
       <r>    -7.2627    62.2863   389.9891 </r>
       <r>    -7.0694    54.5706   400.5413 </r>
       <r>    -6.8760    77.5989   415.5464 </r>
       <r>    -6.6826   117.7774   438.3207 </r>
       <r>    -6.4893   109.5184   459.4979 </r>
       <r>    -6.2959   100.8707   479.0030 </r>
       <r>    -6.1025    68.1279   492.1767 </r>
       <r>    -5.9092    58.5119   503.4910 </r>
       <r>    -5.7158    63.3162   515.7343 </r>
       <r>    -5.5224    64.3329   528.1741 </r>
       <r>    -5.3291    43.1742   536.5226 </r>
       <r>    -5.1357    33.6952   543.0382 </r>
       <r>    -4.9423     4.9756   544.0003 </r>
       <r>    -4.7490     9.8533   545.9056 </r>
       <r>    -4.5556    43.1036   554.2404 </r>
       <r>    -4.3622    41.8677   562.3363 </r>
       <r>    -4.1689    27.7243   567.6972 </r>
       <r>    -3.9755    27.3950   572.9945 </r>
       <r>    -3.7821    74.5691   587.4137 </r>
       <r>    -3.5888    84.1864   603.6926 </r>
       <r>    -3.3954    91.0200   621.2929 </r>
       <r>    -3.2020    52.4577   631.4365 </r>
       <r>    -3.0087    35.1367   638.2308 </r>
       <r>    -2.8153     9.1379   639.9978 </r>
       <r>    -2.6219     0.0115   640.0000 </r>
       <r>    -2.4286     0.0000   640.0000 </r>
       <r>    -2.2352     0.0000   640.0000 </r>
       <r>    -2.0418     1.3683   640.2646 </r>
       <r>    -1.8485     9.0286   642.0104 </r>
       <r>    -1.6551    22.0801   646.2800 </r>
       <r>    -1.4617    12.6884   648.7335 </r>
       <r>    -1.2684    20.2271   652.6447 </r>
       <r>    -1.0750    20.9352   656.6929 </r>
       <r>    -0.8816    36.2171   663.6961 </r>
       <r>    -0.6883    10.7701   665.7787 </r>
       <r>    -0.4949    27.4522   671.0871 </r>
       <r>    -0.3015    37.2508   678.2902 </r>
       <r>    -0.1082    30.8725   684.2599 </r>
       <r>     0.0852    30.1968   690.0989 </r>
       <r>     0.2786    34.8800   696.8436 </r>
       <r>     0.4719    37.8745   704.1673 </r>
       <r>     0.6653    51.0555   714.0397 </r>
       <r>     0.8587   112.1866   735.7329 </r>
       <r>     1.0520   132.9280   761.4369 </r>
       <r>     1.2454    33.9403   767.9998 </r>
       <r>     1.4388     0.0010   768.0000 </r>
       <r>     1.6321     0.0000   768.0000 </r>
       <r>     1.8255     0.0000   768.0000 </r>
       <r>     2.0189     0.0000   768.0000 </r>
       <r>     2.2122     0.0000   768.0000 </r>
       <r>     2.4056     0.0000   768.0000 </r>
       <r>     2.5990     0.0000   768.0000 </r>
       <r>     2.7923     0.0000   768.0000 </r>
       <r>     2.9857     0.0000   768.0000 </r>
       <r>     3.1791     0.0000   768.0000 </r>
       <r>     3.3724     0.0000   768.0000 </r>
       <r>     3.5658     0.0000   768.0000 </r>
       <r>     3.7592     0.0000   768.0000 </r>
      </set>
     </set>
    </array>
   </total>
  </dos>
 </calculation>
 <structure name="finalpos" >
  <crystal>
   <varray name="basis" >
    <v>      13.79398668       0.00000000       0.00000000 </v>
    <v>      -6.89699334      11.94594288       0.00000000 </v>
    <v>       0.00000000       0.00000000      27.81022107 </v>
   </varray>
   <i name="volume">   4582.62876984 </i>
   <varray name="rec_basis" >
    <v>       0.07249536       0.04185521       0.00000000 </v>
    <v>       0.00000000       0.08371043       0.00000000 </v>
    <v>       0.00000000       0.00000000       0.03595800 </v>
   </varray>
  </crystal>
  <varray name="positions" >
   <v>       0.08141078       0.16445569       0.54087178 </v>
   <v>       0.09237515       0.42110665       0.54603940 </v>
   <v>       0.08068384       0.66032418       0.54475280 </v>
   <v>       0.07474740       0.90776200       0.54344920 </v>
   <v>       0.32557436       0.16430051       0.54356342 </v>
   <v>       0.33823955       0.42133889       0.54334330 </v>
   <v>       0.33244276       0.66877129       0.54322780 </v>
   <v>       0.33654059       0.92126306       0.54859561 </v>
   <v>       0.57988819       0.16588461       0.54613843 </v>
   <v>       0.57608075       0.41644606       0.54239043 </v>
   <v>       0.58251624       0.66901329       0.54259895 </v>
   <v>       0.59045972       0.92765807       0.54884953 </v>
   <v>       0.83967595       0.16426370       0.54471306 </v>
   <v>       0.84537084       0.41405534       0.55186480 </v>
   <v>       0.82570678       0.66545252       0.54131923 </v>
   <v>       0.82342491       0.90634440       0.54123771 </v>
   <v>       0.16189819       0.07764932       0.45316127 </v>
   <v>       0.16744118       0.34080966       0.45542034 </v>
   <v>       0.17095128       0.59092249       0.45220511 </v>
   <v>       0.16482191       0.83175969       0.45384821 </v>
   <v>       0.42272867       0.08381943       0.45606281 </v>
   <v>       0.41801862       0.33640116       0.45511088 </v>
   <v>       0.41974697       0.58283854       0.45166385 </v>
   <v>       0.42282058       0.84293269       0.45830192 </v>
   <v>       0.67670887       0.09369664       0.45696600 </v>
   <v>       0.66824207       0.33982151       0.45999324 </v>
   <v>       0.66519475       0.57550714       0.45606729 </v>
   <v>       0.65641039       0.83004195       0.45740625 </v>
   <v>       0.91710190       0.08394387       0.45403346 </v>
   <v>       0.92537944       0.34111032       0.45848166 </v>
   <v>       0.91229131       0.57967240       0.45567534 </v>
   <v>       0.91720940       0.83987644       0.45210626 </v>
   <v>       0.08501167       0.16044700       0.39463763 </v>
   <v>       0.08586909       0.41386553       0.39268881 </v>
   <v>       0.07261839       0.66817571       0.39541895 </v>
   <v>       0.08463868       0.91533338       0.39378369 </v>
   <v>       0.33712395       0.17762902       0.39491244 </v>
   <v>       0.32238802       0.41001329       0.39636597 </v>
   <v>       0.33304027       0.66841065       0.39697938 </v>
   <v>       0.33309952       0.91538848       0.39936170 </v>
   <v>       0.57453223       0.15976623       0.39708498 </v>
   <v>       0.58367086       0.40878145       0.39703845 </v>
   <v>       0.59008189       0.67015008       0.39681358 </v>
   <v>       0.59721261       0.92654389       0.39376613 </v>
   <v>       0.83298370       0.15883275       0.39038109 </v>
   <v>       0.83939856       0.41436255       0.39976731 </v>
   <v>       0.82291856       0.66062398       0.39418822 </v>
   <v>       0.83036814       0.91735122       0.39452603 </v>
   <v>       0.15881840       0.07761744       0.60709804 </v>
   <v>       0.17070202       0.33143069       0.60023500 </v>
   <v>       0.17114020       0.58980233       0.60562178 </v>
   <v>       0.16427173       0.83914082       0.60389082 </v>
   <v>       0.40929154       0.08649042       0.60312959 </v>
   <v>       0.42082366       0.33036237       0.60526657 </v>
   <v>       0.41709237       0.58934887       0.60276557 </v>
   <v>       0.42204033       0.83093595       0.60655465 </v>
   <v>       0.67317948       0.08094469       0.60947926 </v>
   <v>       0.66017990       0.32931784       0.60751330 </v>
   <v>       0.65673845       0.57419978       0.60402803 </v>
   <v>       0.67658195       0.83277019       0.60361204 </v>
   <v>       0.92052270       0.07754519       0.59881655 </v>
   <v>       0.92015584       0.32819170       0.60767061 </v>
   <v>       0.90968311       0.57922689       0.60406218 </v>
   <v>       0.91619738       0.83390104       0.60252682 </v>
   <v>       0.99252892       0.99674002       0.49462183 </v>
   <v>       0.99898718       0.25197885       0.50052356 </v>
   <v>       0.00247027       0.50259017       0.50154318 </v>
   <v>       0.99244753       0.74787032       0.49791162 </v>
   <v>       0.25163101       0.00906696       0.49950947 </v>
   <v>       0.25122157       0.25138840       0.49758163 </v>
   <v>       0.24684657       0.50777683       0.49852953 </v>
   <v>       0.24725805       0.75236933       0.50027589 </v>
   <v>       0.49571482       0.99433659       0.50580217 </v>
   <v>       0.50520970       0.24913042       0.50286817 </v>
   <v>       0.49231687       0.50028839       0.49597712 </v>
   <v>       0.50368999       0.74919058       0.50175076 </v>
   <v>       0.75172835       0.00524822       0.50328945 </v>
   <v>       0.75445930       0.25445452       0.50421744 </v>
   <v>       0.74701248       0.50024543       0.49995876 </v>
   <v>       0.74367950       0.74507336       0.49770671 </v>
  </varray>
  <varray name="velocities" >
   <v>       0.00000000       0.00000000       0.00000000 </v>
   <v>       0.00000000       0.00000000       0.00000000 </v>
   <v>       0.00000000       0.00000000       0.00000000 </v>
   <v>       0.00000000       0.00000000       0.00000000 </v>
   <v>       0.00000000       0.00000000       0.00000000 </v>
   <v>       0.00000000       0.00000000       0.00000000 </v>
   <v>       0.00000000       0.00000000       0.00000000 </v>
   <v>       0.00000000       0.00000000       0.00000000 </v>
   <v>       0.00000000       0.00000000       0.00000000 </v>
   <v>       0.00000000       0.00000000       0.00000000 </v>
   <v>       0.00000000       0.00000000       0.00000000 </v>
   <v>       0.00000000       0.00000000       0.00000000 </v>
   <v>       0.00000000       0.00000000       0.00000000 </v>
   <v>       0.00000000       0.00000000       0.00000000 </v>
   <v>       0.00000000       0.00000000       0.00000000 </v>
   <v>       0.00000000       0.00000000       0.00000000 </v>
   <v>       0.00000000       0.00000000       0.00000000 </v>
   <v>       0.00000000       0.00000000       0.00000000 </v>
   <v>       0.00000000       0.00000000       0.00000000 </v>
   <v>       0.00000000       0.00000000       0.00000000 </v>
   <v>       0.00000000       0.00000000       0.00000000 </v>
   <v>       0.00000000       0.00000000       0.00000000 </v>
   <v>       0.00000000       0.00000000       0.00000000 </v>
   <v>       0.00000000       0.00000000       0.00000000 </v>
   <v>       0.00000000       0.00000000       0.00000000 </v>
   <v>       0.00000000       0.00000000       0.00000000 </v>
   <v>       0.00000000       0.00000000       0.00000000 </v>
   <v>       0.00000000       0.00000000       0.00000000 </v>
   <v>       0.00000000       0.00000000       0.00000000 </v>
   <v>       0.00000000       0.00000000       0.00000000 </v>
   <v>       0.00000000       0.00000000       0.00000000 </v>
   <v>       0.00000000       0.00000000       0.00000000 </v>
   <v>       0.00000000       0.00000000       0.00000000 </v>
   <v>       0.00000000       0.00000000       0.00000000 </v>
   <v>       0.00000000       0.00000000       0.00000000 </v>
   <v>       0.00000000       0.00000000       0.00000000 </v>
   <v>       0.00000000       0.00000000       0.00000000 </v>
   <v>       0.00000000       0.00000000       0.00000000 </v>
   <v>       0.00000000       0.00000000       0.00000000 </v>
   <v>       0.00000000       0.00000000       0.00000000 </v>
   <v>       0.00000000       0.00000000       0.00000000 </v>
   <v>       0.00000000       0.00000000       0.00000000 </v>
   <v>       0.00000000       0.00000000       0.00000000 </v>
   <v>       0.00000000       0.00000000       0.00000000 </v>
   <v>       0.00000000       0.00000000       0.00000000 </v>
   <v>       0.00000000       0.00000000       0.00000000 </v>
   <v>       0.00000000       0.00000000       0.00000000 </v>
   <v>       0.00000000       0.00000000       0.00000000 </v>
   <v>       0.00000000       0.00000000       0.00000000 </v>
   <v>       0.00000000       0.00000000       0.00000000 </v>
   <v>       0.00000000       0.00000000       0.00000000 </v>
   <v>       0.00000000       0.00000000       0.00000000 </v>
   <v>       0.00000000       0.00000000       0.00000000 </v>
   <v>       0.00000000       0.00000000       0.00000000 </v>
   <v>       0.00000000       0.00000000       0.00000000 </v>
   <v>       0.00000000       0.00000000       0.00000000 </v>
   <v>       0.00000000       0.00000000       0.00000000 </v>
   <v>       0.00000000       0.00000000       0.00000000 </v>
   <v>       0.00000000       0.00000000       0.00000000 </v>
   <v>       0.00000000       0.00000000       0.00000000 </v>
   <v>       0.00000000       0.00000000       0.00000000 </v>
   <v>       0.00000000       0.00000000       0.00000000 </v>
   <v>       0.00000000       0.00000000       0.00000000 </v>
   <v>       0.00000000       0.00000000       0.00000000 </v>
   <v>       0.00000000       0.00000000       0.00000000 </v>
   <v>       0.00000000       0.00000000       0.00000000 </v>
   <v>       0.00000000       0.00000000       0.00000000 </v>
   <v>       0.00000000       0.00000000       0.00000000 </v>
   <v>       0.00000000       0.00000000       0.00000000 </v>
   <v>       0.00000000       0.00000000       0.00000000 </v>
   <v>       0.00000000       0.00000000       0.00000000 </v>
   <v>       0.00000000       0.00000000       0.00000000 </v>
   <v>       0.00000000       0.00000000       0.00000000 </v>
   <v>       0.00000000       0.00000000       0.00000000 </v>
   <v>       0.00000000       0.00000000       0.00000000 </v>
   <v>       0.00000000       0.00000000       0.00000000 </v>
   <v>       0.00000000       0.00000000       0.00000000 </v>
   <v>       0.00000000       0.00000000       0.00000000 </v>
   <v>       0.00000000       0.00000000       0.00000000 </v>
   <v>       0.00000000       0.00000000       0.00000000 </v>
  </varray>
 </structure>
</modeling>
