 running on   52 total cores
 distrk:  each k-point on   52 cores,    1 groups
 distr:  one band on   13 cores,    4 groups
 using from now: INCAR     
 vasp.5.4.4.18Apr17-6-g9f103f2a35 (build Oct 31 2019 15:01:46) complex          
  
 POSCAR found type information on POSCAR  Sc F  C 
 POSCAR found :  3 types and      80 ions
 scaLAPACK is switched off
 LDA part: xc-table for Pade appr. of Perdew
 generate k-points for:    3    3    1
 POSCAR, INCAR and KPOINTS ok, starting setup
 FFT: planning ...
 WAVECAR not read
 entering main loop
       N       E                     dE             d eps       ncg     rms          rms(c)
DAV:   1     0.136280035753E+05    0.13628E+05   -0.27870E+05  4240   0.156E+03
DAV:   2     0.248617572773E+04   -0.11142E+05   -0.10846E+05  4608   0.533E+02
DAV:   3    -0.376792610103E+03   -0.28630E+04   -0.27461E+04  6800   0.294E+02
DAV:   4    -0.737213149522E+03   -0.36042E+03   -0.35608E+03  6064   0.139E+02
DAV:   5    -0.751889587868E+03   -0.14676E+02   -0.14615E+02  6080   0.354E+01    0.761E+01
DAV:   6    -0.596000569261E+03    0.15589E+03   -0.84880E+02  5744   0.648E+01    0.248E+01
DAV:   7    -0.596076890438E+03   -0.76321E-01   -0.56043E+01  5952   0.219E+01    0.162E+01
DAV:   8    -0.594651320287E+03    0.14256E+01   -0.10453E+01  5584   0.867E+00    0.461E+00
DAV:   9    -0.594151236909E+03    0.50008E+00   -0.25270E+00  5544   0.511E+00    0.222E+00
DAV:  10    -0.594115422563E+03    0.35814E-01   -0.30904E-01  5856   0.169E+00    0.122E+00
DAV:  11    -0.594015982425E+03    0.99440E-01   -0.13373E-01  5592   0.102E+00    0.662E-01
DAV:  12    -0.593985223606E+03    0.30759E-01   -0.41946E-02  5808   0.542E-01    0.311E-01
DAV:  13    -0.593975514342E+03    0.97093E-02   -0.32615E-02  5576   0.424E-01    0.289E-01
DAV:  14    -0.593972950442E+03    0.25639E-02   -0.85972E-03  5800   0.245E-01    0.158E-01
DAV:  15    -0.593978012082E+03   -0.50616E-02   -0.12573E-02  5680   0.225E-01    0.146E-01
DAV:  16    -0.593981204339E+03   -0.31923E-02   -0.22461E-03  5344   0.156E-01    0.102E-01
DAV:  17    -0.593985455104E+03   -0.42508E-02   -0.41190E-03  5760   0.133E-01    0.103E-01
DAV:  18    -0.593989368088E+03   -0.39130E-02   -0.71811E-04  5416   0.833E-02    0.657E-02
DAV:  19    -0.593990906131E+03   -0.15380E-02   -0.55082E-04  5512   0.523E-02    0.227E-02
DAV:  20    -0.593993183061E+03   -0.22769E-02   -0.22382E-04  5672   0.306E-02    0.224E-02
DAV:  21    -0.593995515277E+03   -0.23322E-02   -0.86819E-05  4904   0.178E-02    0.155E-02
DAV:  22    -0.593997035441E+03   -0.15202E-02   -0.92434E-05  4672   0.140E-02    0.675E-03
DAV:  23    -0.593997651721E+03   -0.61628E-03   -0.25927E-05  4736   0.951E-03    0.423E-03
DAV:  24    -0.593997976856E+03   -0.32514E-03   -0.96655E-06  4272   0.465E-03    0.251E-03
DAV:  25    -0.593998209037E+03   -0.23218E-03   -0.61392E-06  4152   0.335E-03    0.150E-03
DAV:  26    -0.593998298482E+03   -0.89445E-04   -0.16442E-06  3120   0.209E-03    0.136E-03
DAV:  27    -0.593998332611E+03   -0.34130E-04   -0.51390E-07  2760   0.202E-03    0.105E-03
DAV:  28    -0.593998355849E+03   -0.23237E-04   -0.62739E-07  2760   0.175E-03    0.633E-04
DAV:  29    -0.593998362211E+03   -0.63626E-05   -0.38991E-07  2616   0.181E-03    0.593E-04
DAV:  30    -0.593998365534E+03   -0.33232E-05   -0.29018E-07  2520   0.136E-03    0.602E-04
DAV:  31    -0.593998367476E+03   -0.19419E-05   -0.18655E-07  2616   0.125E-03    0.569E-04
DAV:  32    -0.593998368367E+03   -0.89090E-06   -0.11746E-07  2536   0.852E-04
   1 F= -.59399837E+03 E0= -.59399837E+03  d E =-.494959E-25
