 vasp.5.4.4.18Apr17-6-g9f103f2a35 (build Oct 31 2019 15:01:46) complex          
  
 executed on             LinuxIFC date 2024.04.20  12:49:14
 running on   52 total cores
 distrk:  each k-point on   52 cores,    1 groups
 distr:  one band on NCORES_PER_BAND=  13 cores,    4 groups


--------------------------------------------------------------------------------------------------------


 INCAR:
 POTCAR:    PAW_PBE Sc_sv 07Sep2000               
 POTCAR:    PAW_PBE F 08Apr2002                   
 POTCAR:    PAW_PBE C 08Apr2002                   
 POTCAR:    PAW_PBE Sc_sv 07Sep2000               
   VRHFIN =Sc: 3p4s3d                                                           
   LEXCH  = PE                                                                  
   EATOM  =  1273.2868 eV,   93.5839 Ry                                         
                                                                                
   TITEL  = PAW_PBE Sc_sv 07Sep2000                                             
   LULTRA =        F    use ultrasoft PP ?                                      
   IUNSCR =        1    unscreen: 0-lin 1-nonlin 2-no                           
   RPACOR =    2.200    partial core radius                                     
   POMASS =   44.956; ZVAL   =   11.000    mass and valenz                      
   RCORE  =    2.500    outmost cutoff radius                                   
   RWIGS  =    2.700; RWIGS  =    1.429    wigner-seitz radius (au A)           
   ENMAX  =  222.660; ENMIN  =  166.995 eV                                      
   RCLOC  =    1.805    cutoff for local pot                                    
   LCOR   =        T    correct aug charges                                     
   LPAW   =        T    paw PP                                                  
   EAUG   =  443.063                                                            
   RMAX   =    2.551    core radius for proj-oper                               
   RAUG   =    1.300    factor for augmentation sphere                          
   RDEP   =    2.650    radius for radial grids                                 
   RDEPT  =    2.038    core radius for aug-charge                              
                                                                                
   Atomic configuration                                                         
    8 entries                                                                   
     n  l   j            E        occ.                                          
     1  0  0.50     -4394.2533   2.0000                                         
     2  0  0.50      -471.0040   2.0000                                         
     2  1  1.50      -384.9788   6.0000                                         
     3  0  0.50       -52.1410   2.0000                                         
     4  0  0.50        -3.5584   1.0000                                         
     3  1  1.50       -30.8841   6.0000                                         
     3  2  2.50        -1.3655   2.0000                                         
     4  3  2.50        -1.3606   0.0000                                         
   Description                                                                  
     l       E           TYP  RCUT    TYP  RCUT                                 
     0    -52.1409870     23  1.800                                             
     0     -3.5583698     23  2.500                                             
     1    -30.8840697     23  2.300                                             
     1      4.0817478     23  2.300                                             
     2     -1.3655397     23  2.500                                             
     2      0.3564476     23  2.500                                             
  local pseudopotential read in
  partial core-charges read in
  partial kinetic energy density read in
  atomic valenz-charges read in
  non local Contribution for L=           0  read in
    real space projection operators read in
  non local Contribution for L=           0  read in
    real space projection operators read in
  non local Contribution for L=           1  read in
    real space projection operators read in
  non local Contribution for L=           1  read in
    real space projection operators read in
  non local Contribution for L=           2  read in
    real space projection operators read in
  non local Contribution for L=           2  read in
    real space projection operators read in
    PAW grid and wavefunctions read in
 
   number of l-projection  operators is LMAX  =           6
   number of lm-projection operators is LMMAX =          18
 
 POTCAR:    PAW_PBE F 08Apr2002                   
   VRHFIN =F: s2p5                                                              
   LEXCH  = PE                                                                  
   EATOM  =   659.6475 eV,   48.4827 Ry                                         
                                                                                
   TITEL  = PAW_PBE F 08Apr2002                                                 
   LULTRA =        F    use ultrasoft PP ?                                      
   IUNSCR =        1    unscreen: 0-lin 1-nonlin 2-no                           
   RPACOR =    1.200    partial core radius                                     
   POMASS =   18.998; ZVAL   =    7.000    mass and valenz                      
   RCORE  =    1.520    outmost cutoff radius                                   
   RWIGS  =    1.500; RWIGS  =    0.794    wigner-seitz radius (au A)           
   ENMAX  =  400.000; ENMIN  =  300.000 eV                                      
   ICORE  =        2    local potential                                         
   LCOR   =        T    correct aug charges                                     
   LPAW   =        T    paw PP                                                  
   EAUG   =  613.614                                                            
   RMAX   =    1.555    core radius for proj-oper                               
   RAUG   =    1.300    factor for augmentation sphere                          
   RDEP   =    1.539    radius for radial grids                                 
   RDEPT  =    1.299    core radius for aug-charge                              
                                                                                
   Atomic configuration                                                         
    4 entries                                                                   
     n  l   j            E        occ.                                          
     1  0  0.50      -663.3661   2.0000                                         
     2  0  0.50       -29.8995   2.0000                                         
     2  1  0.50       -11.1114   5.0000                                         
     3  2  1.50       -10.8847   0.0000                                         
   Description                                                                  
     l       E           TYP  RCUT    TYP  RCUT                                 
     0    -29.8995018     23  1.200                                             
     0     -9.5240782     23  1.200                                             
     1    -11.1113914     23  1.520                                             
     1      1.3605826     23  1.520                                             
     2    -10.8846608      7  1.500                                             
  local pseudopotential read in
  partial core-charges read in
  partial kinetic energy density read in
  atomic valenz-charges read in
  non local Contribution for L=           0  read in
    real space projection operators read in
  non local Contribution for L=           0  read in
    real space projection operators read in
  non local Contribution for L=           1  read in
    real space projection operators read in
  non local Contribution for L=           1  read in
    real space projection operators read in
    PAW grid and wavefunctions read in
 
   number of l-projection  operators is LMAX  =           4
   number of lm-projection operators is LMMAX =           8
 
 POTCAR:    PAW_PBE C 08Apr2002                   
   VRHFIN =C: s2p2                                                              
   LEXCH  = PE                                                                  
   EATOM  =   147.1560 eV,   10.8157 Ry                                         
                                                                                
   TITEL  = PAW_PBE C 08Apr2002                                                 
   LULTRA =        F    use ultrasoft PP ?                                      
   IUNSCR =        1    unscreen: 0-lin 1-nonlin 2-no                           
   RPACOR =    1.200    partial core radius                                     
   POMASS =   12.011; ZVAL   =    4.000    mass and valenz                      
   RCORE  =    1.500    outmost cutoff radius                                   
   RWIGS  =    1.630; RWIGS  =    0.863    wigner-seitz radius (au A)           
   ENMAX  =  400.000; ENMIN  =  300.000 eV                                      
   ICORE  =        2    local potential                                         
   LCOR   =        T    correct aug charges                                     
   LPAW   =        T    paw PP                                                  
   EAUG   =  644.873                                                            
   DEXC   =    0.000                                                            
   RMAX   =    1.529    core radius for proj-oper                               
   RAUG   =    1.300    factor for augmentation sphere                          
   RDEP   =    1.501    radius for radial grids                                 
   RDEPT  =    1.300    core radius for aug-charge                              
                                                                                
   Atomic configuration                                                         
    4 entries                                                                   
     n  l   j            E        occ.                                          
     1  0  0.50      -273.3789   2.0000                                         
     2  0  0.50       -13.7508   2.0000                                         
     2  1  0.50        -5.2854   2.0000                                         
     3  2  1.50        -5.4423   0.0000                                         
   Description                                                                  
     l       E           TYP  RCUT    TYP  RCUT                                 
     0    -13.7508458     23  1.200                                             
     0     -8.2022199     23  1.200                                             
     1     -5.2854383     23  1.500                                             
     1     34.0145650     23  1.500                                             
     2     -5.4423304      7  1.500                                             
  local pseudopotential read in
  partial core-charges read in
  partial kinetic energy density read in
  atomic valenz-charges read in
  non local Contribution for L=           0  read in
    real space projection operators read in
  non local Contribution for L=           0  read in
    real space projection operators read in
  non local Contribution for L=           1  read in
    real space projection operators read in
  non local Contribution for L=           1  read in
    real space projection operators read in
    PAW grid and wavefunctions read in
 
   number of l-projection  operators is LMAX  =           4
   number of lm-projection operators is LMMAX =           8
 
 Optimization of the real space projectors (new method)

 maximal supplied QI-value         = 15.12
 optimisation between [QCUT,QGAM] = [ 12.55, 25.10] = [ 44.09,176.36] Ry 
 Optimized for a Real-space Cutoff    1.56 Angstroem

   l    n(q)    QCUT    max X(q) W(low)/X(q) W(high)/X(q)  e(spline) 
   0     12    12.548     2.962    0.12E-05    0.11E-06    0.46E-07
   0     12    12.548    26.414    0.30E-04    0.15E-05    0.76E-07
   1     11    12.548     3.969    0.45E-05    0.12E-05    0.60E-07
   1     11    12.548     5.137    0.15E-04    0.18E-04    0.36E-06
   2     11    12.548   143.970    0.20E-03    0.19E-03    0.76E-06
   2     11    12.548   121.201    0.20E-03    0.19E-03    0.76E-06
 Optimization of the real space projectors (new method)

 maximal supplied QI-value         = 24.76
 optimisation between [QCUT,QGAM] = [ 12.38, 25.00] = [ 42.90,175.06] Ry 
 Optimized for a Real-space Cutoff    1.16 Angstroem

   l    n(q)    QCUT    max X(q) W(low)/X(q) W(high)/X(q)  e(spline) 
   0      9    12.378    14.049    0.11E-03    0.38E-05    0.23E-06
   0      9    12.378     8.945    0.15E-03    0.56E-05    0.30E-06
   1      8    12.378     7.086    0.18E-03    0.14E-03    0.29E-06
   1      8    12.378     6.747    0.16E-03    0.13E-03    0.26E-06
 Optimization of the real space projectors (new method)

 maximal supplied QI-value         = 25.13
 optimisation between [QCUT,QGAM] = [ 12.32, 24.88] = [ 42.47,173.37] Ry 
 Optimized for a Real-space Cutoff    1.16 Angstroem

   l    n(q)    QCUT    max X(q) W(low)/X(q) W(high)/X(q)  e(spline) 
   0      9    12.315   115.676    0.19E-03    0.80E-05    0.34E-06
   0      9    12.315    87.132    0.19E-03    0.82E-05    0.34E-06
   1      8    12.315     4.429    0.18E-03    0.13E-03    0.22E-06
   1      8    12.315     2.733    0.14E-03    0.10E-03    0.18E-06
  PAW_PBE Sc_sv 07Sep2000               :
 energy of atom  1       EATOM=-1273.2868
 kinetic energy error for atom=    0.0014 (will be added to EATOM!!)
  PAW_PBE F 08Apr2002                   :
 energy of atom  2       EATOM= -659.6475
 kinetic energy error for atom=    0.0256 (will be added to EATOM!!)
  PAW_PBE C 08Apr2002                   :
 energy of atom  3       EATOM= -147.1560
 kinetic energy error for atom=    0.0057 (will be added to EATOM!!)
 
 
 POSCAR: Sc  F  C                                
  positions in cartesian coordinates
  No initial velocities read in
 exchange correlation table for  LEXCH =        8
   RHO(1)=    0.500       N(1)  =     2000
   RHO(2)=  100.500       N(2)  =     4000
 


--------------------------------------------------------------------------------------------------------


 ion  position               nearest neighbor table
   1  0.082  0.165  0.454-  65 2.23  50 2.27  49 2.29  66 2.30  70 2.31  61 2.38  17 3.00   6 3.10
                            29 3.20  16 3.21   4 3.23  18 3.28  13 3.31   2 3.34   5 3.41
   2  0.078  0.417  0.457-  50 2.01  51 2.10  62 2.26  71 2.32  66 2.36  67 2.39  30 3.10  19 3.14
                            13 3.22   6 3.24  14 3.26   7 3.31  18 3.32   1 3.34   3 3.35
   3  0.074  0.671  0.454-  68 2.21  63 2.22  51 2.24  67 2.33  72 2.35  52 2.37  20 3.12  14 3.18
                            19 3.21   4 3.22  15 3.22  31 3.22   8 3.33   2 3.35   7 3.41
   4  0.095  0.926  0.448-  64 2.17  52 2.20  49 2.22  65 2.24  69 2.25  68 2.27  17 3.07   5 3.11
                            20 3.17   3 3.22   1 3.23  32 3.26  16 3.28   8 3.36
   5  0.337  0.157  0.446-  54 2.17  53 2.22  49 2.28  69 2.35  70 2.41  74 2.42   4 3.11  17 3.22
                             9 3.23  21 3.23   8 3.30  22 3.32   6 3.35  10 3.37   1 3.41
   6  0.317  0.402  0.452-  71 2.21  70 2.22  55 2.26  54 2.27  75 2.34  50 2.36   1 3.10  23 3.18
                            18 3.19   2 3.24  22 3.25  10 3.30   5 3.35   7 3.39
   7  0.330  0.666  0.442-  51 2.05  56 2.07  55 2.14  72 2.45  71 2.55  76 2.56   8 3.14  11 3.28
                             2 3.31  23 3.35   6 3.39   3 3.41  19 3.43
   8  0.341  0.909  0.455-  72 2.11  56 2.14  53 2.29  73 2.29  52 2.33  69 2.35  20 3.03  21 3.10
                            24 3.13   7 3.14   9 3.25  12 3.26   5 3.30   3 3.33   4 3.36
   9  0.585  0.161  0.452-  53 2.13  57 2.20  73 2.29  74 2.29  78 2.36  58 2.45  13 3.19  25 3.20
                            12 3.21  21 3.21   5 3.23   8 3.25  26 3.29  14 3.39
  10  0.579  0.426  0.451-  75 2.13  59 2.18  58 2.20  74 2.24  79 2.33  54 2.46  27 3.10  22 3.11
                            15 3.18  11 3.22   6 3.30  26 3.34  14 3.36   5 3.37
  11  0.582  0.672  0.454-  60 2.05  80 2.21  55 2.27  76 2.28  75 2.35  59 2.45  23 2.99  27 3.19
                            28 3.19  12 3.21  10 3.22  15 3.25   7 3.28  16 3.31
  12  0.597  0.923  0.459-  60 2.09  73 2.11  57 2.15  77 2.20  76 2.30  56 2.50  28 3.03  25 3.07
                            13 3.18  24 3.19   9 3.21  11 3.21  16 3.26   8 3.26
  13  0.833  0.172  0.455-  62 2.15  61 2.19  78 2.26  66 2.27  57 2.29  77 2.32  12 3.18  30 3.19
                            29 3.19   9 3.19  25 3.22   2 3.22   1 3.31  14 3.33  16 3.41
  14  0.835  0.426  0.449-  58 2.02  63 2.21  79 2.27  67 2.28  62 2.30  78 2.56   3 3.18  15 3.18
                            26 3.25   2 3.26  31 3.27  13 3.33  10 3.36   9 3.39  30 3.41
  15  0.825  0.664  0.452-  79 2.19  68 2.27  59 2.30  63 2.33  80 2.33  64 2.51  27 3.08  32 3.14
                            10 3.18  14 3.18   3 3.22  16 3.23  11 3.25  31 3.29
  16  0.841  0.917  0.448-  65 2.08  61 2.12  64 2.14  80 2.37  77 2.45  60 2.62  32 3.13   1 3.21
                            15 3.23  12 3.26   4 3.28  11 3.31  28 3.33  29 3.36  13 3.41
  17  0.164  0.082  0.541-  70 2.14  69 2.26  33 2.29  36 2.35  65 2.36  37 2.48   1 3.00   4 3.07
                            18 3.21   5 3.22  20 3.22  32 3.24  29 3.29  21 3.31  22 3.34
  18  0.172  0.329  0.554-  38 2.10  34 2.25  71 2.32  33 2.33  70 2.38  66 2.42   6 3.19  17 3.21
                            29 3.27   1 3.28   2 3.32  22 3.32  23 3.33  30 3.35
  19  0.165  0.590  0.549-  39 2.12  72 2.30  35 2.32  34 2.32  67 2.35  71 2.46   2 3.14   3 3.21
                            24 3.25  20 3.25  31 3.27  30 3.29   7 3.43
  20  0.176  0.844  0.544-  36 2.06  69 2.08  35 2.20  72 2.21  40 2.29  68 2.42   8 3.03  21 3.07
                             3 3.12   4 3.17  17 3.22  19 3.25  24 3.29  32 3.35
  21  0.412  0.075  0.547-  37 2.16  41 2.17  40 2.22  69 2.23  73 2.38  74 2.52  20 3.07   8 3.10
                             9 3.21   5 3.23  25 3.25  24 3.26  22 3.26  17 3.31
  22  0.425  0.330  0.546-  74 2.23  37 2.27  75 2.28  42 2.31  70 2.32  38 2.46  10 3.11  26 3.21
                            27 3.25   6 3.25  21 3.26   5 3.32  18 3.32  23 3.34  17 3.34
  23  0.423  0.583  0.542-  76 2.17  43 2.19  75 2.21  71 2.22  39 2.34  38 2.46  11 2.99   6 3.18
                            27 3.23  24 3.28  28 3.32  18 3.33  22 3.34   7 3.35
  24  0.420  0.830  0.551-  40 2.13  39 2.13  44 2.17  76 2.22  73 2.33  72 2.39   8 3.13  12 3.19
                            19 3.25  21 3.26  25 3.27  28 3.27  23 3.28  20 3.29
  25  0.664  0.084  0.551-  44 2.13  41 2.18  73 2.19  78 2.20  45 2.32  77 2.36  12 3.07   9 3.20
                            13 3.22  21 3.25  24 3.27  26 3.28  28 3.28  29 3.30  30 3.33
  26  0.673  0.338  0.549-  42 2.11  78 2.23  46 2.26  74 2.30  79 2.32  41 2.35  31 3.15  22 3.21
                            27 3.23  14 3.25  30 3.26  25 3.28   9 3.29  10 3.34
  27  0.668  0.581  0.546-  79 2.23  47 2.27  80 2.28  42 2.37  75 2.38  43 2.39  15 3.08  10 3.10
                            11 3.19  31 3.21  23 3.23  26 3.23  22 3.25  32 3.31  28 3.35
  28  0.673  0.838  0.549-  80 2.22  77 2.24  76 2.30  43 2.31  44 2.33  48 2.43  12 3.03  11 3.19
                            29 3.23  32 3.23  24 3.27  25 3.28  23 3.32  16 3.33  27 3.35
  29  0.916  0.087  0.550-  33 2.12  66 2.15  77 2.18  45 2.20  48 2.41  65 2.52  13 3.19   1 3.20
                            28 3.23  30 3.24  18 3.27  17 3.29  25 3.30  32 3.31  16 3.36
  30  0.920  0.335  0.552-  45 2.21  34 2.22  78 2.30  66 2.31  67 2.31  46 2.56   2 3.10  13 3.19
                            29 3.24  26 3.26  31 3.27  19 3.29  25 3.33  18 3.35  14 3.41
  31  0.911  0.580  0.552-  46 2.07  47 2.12  67 2.14  35 2.24  79 2.32  68 2.56  26 3.15  27 3.21
                             3 3.22  19 3.27  14 3.27  30 3.27  15 3.29  32 3.32
  32  0.918  0.836  0.544-  47 2.12  48 2.16  68 2.18  36 2.20  65 2.25  80 2.31  16 3.13  15 3.14
                            28 3.23  17 3.24   4 3.26  29 3.31  27 3.31  31 3.32  20 3.35
  33  0.071  0.147  0.594-  29 2.12  17 2.29  18 2.33
  34  0.087  0.417  0.594-  30 2.22  18 2.25  19 2.32
  35  0.083  0.686  0.591-  20 2.20  31 2.24  19 2.32
  36  0.084  0.903  0.585-  20 2.06  32 2.20  17 2.35
  37  0.344  0.163  0.593-  21 2.16  22 2.27  17 2.48
  38  0.326  0.410  0.597-  18 2.10  22 2.46  23 2.46
  39  0.328  0.664  0.587-  19 2.12  24 2.13  23 2.34
  40  0.342  0.913  0.592-  24 2.13  21 2.22  20 2.29
  41  0.572  0.158  0.591-  21 2.17  25 2.18  26 2.35
  42  0.592  0.408  0.594-  26 2.11  22 2.31  27 2.37
  43  0.573  0.664  0.593-  23 2.19  28 2.31  27 2.39
  44  0.582  0.925  0.593-  25 2.13  24 2.17  28 2.33
  45  0.839  0.171  0.596-  29 2.20  30 2.21  25 2.32
  46  0.829  0.438  0.600-  31 2.07  26 2.26  30 2.56
  47  0.843  0.679  0.586-  32 2.12  31 2.12  27 2.27
  48  0.852  0.910  0.598-  32 2.16  29 2.41  28 2.43
  49  0.166  0.088  0.402-   4 2.22   5 2.28   1 2.29
  50  0.134  0.334  0.412-   2 2.01   1 2.27   6 2.36
  51  0.159  0.577  0.418-   7 2.05   2 2.10   3 2.24
  52  0.177  0.844  0.404-   4 2.20   8 2.33   3 2.37
  53  0.429  0.077  0.408-   9 2.13   5 2.22   8 2.29
  54  0.395  0.317  0.403-   5 2.17   6 2.27  10 2.46
  55  0.411  0.574  0.410-   7 2.14   6 2.26  11 2.27
  56  0.413  0.829  0.408-   7 2.07   8 2.14  12 2.50
  57  0.662  0.073  0.410-  12 2.15   9 2.20  13 2.29
  58  0.679  0.355  0.412-  14 2.02  10 2.20   9 2.45
  59  0.663  0.577  0.401-  10 2.18  15 2.30  11 2.45
  60  0.629  0.818  0.410-  11 2.05  12 2.09  16 2.62
  61  0.900  0.078  0.410-  16 2.12  13 2.19   1 2.38
  62  0.915  0.327  0.409-  13 2.15   2 2.26  14 2.30
  63  0.918  0.588  0.404-  14 2.21   3 2.22  15 2.33
  64  0.934  0.853  0.405-  16 2.14   4 2.17  15 2.51
  65  0.992  0.990  0.492-  16 2.08   1 2.23   4 2.24  32 2.25  17 2.36  29 2.52
  66  0.995  0.242  0.504-  29 2.15  13 2.27   1 2.30  30 2.31   2 2.36  18 2.42
  67  0.987  0.504  0.504-  31 2.14  14 2.28  30 2.31   3 2.33  19 2.35   2 2.39
  68  0.997  0.761  0.495-  32 2.18   3 2.21   4 2.27  15 2.27  20 2.42  31 2.56
  69  0.250  0.995  0.500-  20 2.08  21 2.23   4 2.25  17 2.26   5 2.35   8 2.35
  70  0.252  0.243  0.500-  17 2.14   6 2.22   1 2.31  22 2.32  18 2.38   5 2.41
  71  0.253  0.492  0.502-   6 2.21  23 2.22  18 2.32   2 2.32  19 2.46   7 2.55
  72  0.251  0.755  0.499-   8 2.11  20 2.21  19 2.30   3 2.35  24 2.39   7 2.45
  73  0.512  0.996  0.501-  12 2.11  25 2.19   9 2.29   8 2.29  24 2.33  21 2.38
  74  0.513  0.261  0.496-  22 2.23  10 2.24   9 2.29  26 2.30   5 2.42  21 2.52
  75  0.494  0.493  0.497-  10 2.13  23 2.21  22 2.28   6 2.34  11 2.35  27 2.38
  76  0.501  0.752  0.504-  23 2.17  24 2.22  11 2.28  28 2.30  12 2.30   7 2.56
  77  0.759  0.004  0.504-  29 2.18  12 2.20  28 2.24  13 2.32  25 2.36  16 2.45
  78  0.748  0.246  0.506-  25 2.20  26 2.23  13 2.26  30 2.30   9 2.36  14 2.56
  79  0.751  0.504  0.498-  15 2.19  27 2.23  14 2.27  31 2.32  26 2.32  10 2.33
  80  0.742  0.751  0.501-  11 2.21  28 2.22  27 2.28  32 2.31  15 2.33  16 2.37
 
  LATTYP: Found a hexagonal cell.
 ALAT       =    13.1286233990
 C/A-ratio  =     2.0434811347
  
  Lattice vectors:
  
 A1 = (  13.1286234000,   0.0000000000,   0.0000000000)
 A2 = (  -6.5643117000,  11.3697213800,   0.0000000000)
 A3 = (   0.0000000000,   0.0000000000,  26.8280942400)


Analysis of symmetry for initial positions (statically):
=====================================================================
 Subroutine PRICEL returns:
 Original cell was already a primitive cell.
 

 Routine SETGRP: Setting up the symmetry group for a 
 hexagonal supercell.


 Subroutine GETGRP returns: Found  1 space group operations
 (whereof  1 operations were pure point group operations)
 out of a pool of 24 trial point group operations.


The static configuration has the point symmetry C_1 .


Analysis of symmetry for dynamics (positions and initial velocities):
=====================================================================
 Subroutine PRICEL returns:
 Original cell was already a primitive cell.
 

 Routine SETGRP: Setting up the symmetry group for a 
 hexagonal supercell.


 Subroutine GETGRP returns: Found  1 space group operations
 (whereof  1 operations were pure point group operations)
 out of a pool of 24 trial point group operations.


The dynamic configuration has the point symmetry C_1 .


 Subroutine INISYM returns: Found  1 space group operations
 (whereof  1 operations are pure point group operations),
 and found     1 'primitive' translations

 
 

Automatic generation of k-mesh.
 generate k-points for:    3    3    1
Space group operators:
 irot       det(A)        alpha          n_x          n_y          n_z        tau_x        tau_y        tau_z
    1     1.000000     0.000000     1.000000     0.000000     0.000000     0.000000     0.000000     0.000000
 
 Subroutine IBZKPT returns following result:
 ===========================================
 
 Found      5 irreducible k-points:
 
 Following reciprocal coordinates:
            Coordinates               Weight
  0.000000  0.000000  0.000000      1.000000
  0.333333 -0.000000  0.000000      2.000000
  0.000000  0.333333  0.000000      2.000000
  0.333333  0.333333  0.000000      2.000000
 -0.333333  0.333333  0.000000      2.000000
 
 Following cartesian coordinates:
            Coordinates               Weight
  0.000000  0.000000  0.000000      1.000000
  0.025390  0.014659  0.000000      2.000000
  0.000000  0.029318  0.000000      2.000000
  0.025390  0.043976  0.000000      2.000000
 -0.025390  0.014659  0.000000      2.000000
 


--------------------------------------------------------------------------------------------------------




 Dimension of arrays:
   k-points           NKPTS =      5   k-points in BZ     NKDIM =      5   number of bands    NBANDS=    384
   number of dos      NEDOS =    301   number of ions     NIONS =     80
   non local maximal  LDIM  =      6   non local SUM 2l+1 LMDIM =     18
   total plane-waves  NPLWV = ******
   max r-space proj   IRMAX =  10060   max aug-charges    IRDMAX= 222480
   dimension x,y,z NGX =   108 NGY =  108 NGZ =  216
   dimension x,y,z NGXF=   216 NGYF=  216 NGZF=  432
   support grid    NGXF=   432 NGYF=  432 NGZF=  864
   ions per type =              32  32  16
   NGX,Y,Z   is equivalent  to a cutoff of  13.68, 13.68, 13.38 a.u.
   NGXF,Y,Z  is equivalent  to a cutoff of  27.35, 27.35, 26.77 a.u.

 SYSTEM =  unknown system                          
 POSCAR =  Sc  F  C                                

 Startparameter for this run:
   NWRITE =      2    write-flag & timer
   PREC   = anorma    normal or accurate (medium, high low for compatibility)
   ISTART =      0    job   : 0-new  1-cont  2-samecut
   ICHARG =      2    charge: 1-file 2-atom 10-const
   ISPIN  =      1    spin polarized calculation?
   LNONCOLLINEAR =      F non collinear calculations
   LSORBIT =      F    spin-orbit coupling
   INIWAV =      1    electr: 0-lowe 1-rand  2-diag
   LASPH  =      F    aspherical Exc in radial PAW
   METAGGA=      F    non-selfconsistent MetaGGA calc.

 Electronic Relaxation 1
   ENCUT  =  600.0 eV  44.10 Ry    6.64 a.u.  26.22 26.22 53.58*2*pi/ulx,y,z
   ENINI  =  600.0     initial cutoff
   ENAUG  =  644.9 eV  augmentation charge cutoff
   NELM   =     60;   NELMIN=  2; NELMDL= -5     # of ELM steps 
   EDIFF  = 0.1E-05   stopping-criterion for ELM
   LREAL  =      T    real-space projection
   NLSPLINE    = F    spline interpolate recip. space projectors
   LCOMPAT=      F    compatible to vasp.4.4
   GGA_COMPAT  = T    GGA compatible to vasp.4.4-vasp.4.6
   LMAXPAW     = -100 max onsite density
   LMAXMIX     =    2 max onsite mixed and CHGCAR
   VOSKOWN=      0    Vosko Wilk Nusair interpolation
   ROPT   =   -0.00025  -0.00025  -0.00025
 Ionic relaxation
   EDIFFG = -.1E-01   stopping-criterion for IOM
   NSW    =      1    number of steps for IOM
   NBLOCK =      1;   KBLOCK =      1    inner block; outer block 
   IBRION =     -1    ionic relax: 0-MD 1-quasi-New 2-CG
   NFREE  =      0    steps in history (QN), initial steepest desc. (CG)
   ISIF   =      2    stress and relaxation
   IWAVPR =     10    prediction:  0-non 1-charg 2-wave 3-comb
   ISYM   =      2    0-nonsym 1-usesym 2-fastsym
   LCORR  =      T    Harris-Foulkes like correction to forces

   POTIM  = 1.0000    time-step for ionic-motion
   TEIN   =    0.0    initial temperature
   TEBEG  =    0.0;   TEEND  =   0.0 temperature during run
   SMASS  =  -3.00    Nose mass-parameter (am)
   estimated Nose-frequenzy (Omega)   =  0.10E-29 period in steps =****** mass=  -0.394E-26a.u.
   SCALEE = 1.0000    scale energy and forces
   NPACO  =    256;   APACO  = 16.0  distance and # of slots for P.C.
   PSTRESS=    0.0 pullay stress

  Mass of Ions in am
   POMASS =  44.96 19.00 12.01
  Ionic Valenz
   ZVAL   =  11.00  7.00  4.00
  Atomic Wigner-Seitz radii
   RWIGS  =  -1.00 -1.00 -1.00
  virtual crystal weights 
   VCA    =   1.00  1.00  1.00
   NELECT =     640.0000    total number of electrons
   NUPDOWN=      -1.0000    fix difference up-down

 DOS related values:
   EMIN   =  10.00;   EMAX   =-10.00  energy-range for DOS
   EFERMI =   0.00
   ISMEAR =     0;   SIGMA  =   0.05  broadening in eV -4-tet -1-fermi 0-gaus

 Electronic relaxation 2 (details)
   IALGO  =     38    algorithm
   LDIAG  =      T    sub-space diagonalisation (order eigenvalues)
   LSUBROT=      F    optimize rotation matrix (better conditioning)
   TURBO    =      0    0=normal 1=particle mesh
   IRESTART =      0    0=no restart 2=restart with 2 vectors
   NREBOOT  =      0    no. of reboots
   NMIN     =      0    reboot dimension
   EREF     =   0.00    reference energy to select bands
   IMIX   =      4    mixing-type and parameters
     AMIX     =   0.40;   BMIX     =  1.00
     AMIX_MAG =   1.60;   BMIX_MAG =  1.00
     AMIN     =   0.10
     WC   =   100.;   INIMIX=   1;  MIXPRE=   1;  MAXMIX= -45

 Intra band minimization:
   WEIMIN = 0.0000     energy-eigenvalue tresh-hold
   EBREAK =  0.65E-09  absolut break condition
   DEPER  =   0.30     relativ break condition  

   TIME   =   0.40     timestep for ELM

  volume/ion in A,a.u.               =      50.06       337.80
  Fermi-wavevector in a.u.,A,eV,Ry     =   0.888414  1.678858 10.738790  0.789279
  Thomas-Fermi vector in A             =   2.009840
 
 Write flags
   LWAVE        =      F    write WAVECAR
   LDOWNSAMPLE  =      F    k-point downsampling of WAVECAR
   LCHARG       =      F    write CHGCAR
   LVTOT        =      F    write LOCPOT, total local potential
   LVHAR        =      F    write LOCPOT, Hartree potential only
   LELF         =      F    write electronic localiz. function (ELF)
   LORBIT       =      0    0 simple, 1 ext, 2 COOP (PROOUT), +10 PAW based schemes


 Dipole corrections
   LMONO  =      F    monopole corrections only (constant potential shift)
   LDIPOL =      F    correct potential (dipole corrections)
   IDIPOL =      0    1-x, 2-y, 3-z, 4-all directions 
   EPSILON=  1.0000000 bulk dielectric constant

 Exchange correlation treatment:
   GGA     =    --    GGA type
   LEXCH   =     8    internal setting for exchange type
   VOSKOWN=      0    Vosko Wilk Nusair interpolation
   LHFCALC =     F    Hartree Fock is set to
   LHFONE  =     F    Hartree Fock one center treatment
   AEXX    =    0.0000 exact exchange contribution

 Linear response parameters
   LEPSILON=     F    determine dielectric tensor
   LRPA    =     F    only Hartree local field effects (RPA)
   LNABLA  =     F    use nabla operator in PAW spheres
   LVEL    =     F    velocity operator in full k-point grid
   LINTERFAST=   F  fast interpolation
   KINTER  =     0    interpolate to denser k-point grid
   CSHIFT  =0.1000    complex shift for real part using Kramers Kronig
   OMEGAMAX=  -1.0    maximum frequency
   DEG_THRESHOLD= 0.2000000E-02 threshold for treating states as degnerate
   RTIME   =   -0.100 relaxation time in fs
  (WPLASMAI=    0.000 imaginary part of plasma frequency in eV, 0.658/RTIME)
   DFIELD  = 0.0000000 0.0000000 0.0000000 field for delta impulse in time
 
 Orbital magnetization related:
   ORBITALMAG=     F  switch on orbital magnetization
   LCHIMAG   =     F  perturbation theory with respect to B field
   DQ        =  0.001000  dq finite difference perturbation B field
   LLRAUG    =     F  two centre corrections for induced B field



--------------------------------------------------------------------------------------------------------


 Static calculation
 charge density and potential will be updated during run
 non-spin polarized calculation
 Variant of blocked Davidson
 Davidson routine will perform the subspace rotation
 perform sub-space diagonalisation
    after iterative eigenvector-optimisation
 modified Broyden-mixing scheme, WC =      100.0
 initial mixing is a Kerker type mixing with AMIX =  0.4000 and BMIX =      1.0000
 Hartree-type preconditioning will be used
 using additional bands           64
 real space projection scheme for non local part
 use partial core corrections
 calculate Harris-corrections to forces 
   (improved forces if not selfconsistent)
 use gradient corrections 
 use of overlap-Matrix (Vanderbilt PP)
 Gauss-broadening in eV      SIGMA  =   0.05


--------------------------------------------------------------------------------------------------------


  energy-cutoff  :      600.00
  volume of cell :     4004.60
      direct lattice vectors                 reciprocal lattice vectors
    13.128623400  0.000000000  0.000000000     0.076169448  0.043976451  0.000000000
    -6.564311700 11.369721380  0.000000000     0.000000000  0.087952903  0.000000000
     0.000000000  0.000000000 26.828094240     0.000000000  0.000000000  0.037274358

  length of vectors
    13.128623400 13.128623399 26.828094240     0.087952903  0.087952903  0.037274358


 
 k-points in units of 2pi/SCALE and weight: read from INCAR                         
   0.00000000  0.00000000  0.00000000       0.111
   0.02538982  0.01465882  0.00000000       0.222
   0.00000000  0.02931763  0.00000000       0.222
   0.02538982  0.04397645  0.00000000       0.222
  -0.02538982  0.01465882  0.00000000       0.222
 
 k-points in reciprocal lattice and weights: read from INCAR                         
   0.00000000  0.00000000  0.00000000       0.111
   0.33333333 -0.00000000  0.00000000       0.222
   0.00000000  0.33333333  0.00000000       0.222
   0.33333333  0.33333333  0.00000000       0.222
  -0.33333333  0.33333333  0.00000000       0.222
 
 position of ions in fractional coordinates (direct lattice) 
   0.08162486  0.16484163  0.45366581
   0.07799311  0.41724387  0.45737770
   0.07427934  0.67078756  0.45351071
   0.09470846  0.92566560  0.44816950
   0.33689065  0.15735528  0.44637943
   0.31694429  0.40206520  0.45216927
   0.33025315  0.66592578  0.44186767
   0.34140670  0.90880505  0.45539909
   0.58453304  0.16075777  0.45195832
   0.57892613  0.42575926  0.45077276
   0.58219709  0.67245048  0.45353765
   0.59698646  0.92349332  0.45921712
   0.83291209  0.17181444  0.45513586
   0.83483898  0.42603072  0.44865740
   0.82518084  0.66350696  0.45238942
   0.84087598  0.91682174  0.44786389
   0.16372000  0.08234633  0.54123439
   0.17193384  0.32915527  0.55399416
   0.16513249  0.59046995  0.54867501
   0.17648785  0.84353475  0.54364519
   0.41215794  0.07503270  0.54674567
   0.42486729  0.32983203  0.54602639
   0.42328183  0.58348788  0.54215002
   0.41967479  0.83040929  0.55140677
   0.66368085  0.08390613  0.55118231
   0.67316877  0.33823468  0.54858059
   0.66767365  0.58115451  0.54575971
   0.67270997  0.83843978  0.54939044
   0.91647392  0.08705072  0.55022813
   0.91977469  0.33523894  0.55162578
   0.91104316  0.57997653  0.55166528
   0.91752139  0.83582558  0.54371111
   0.07115995  0.14706499  0.59382944
   0.08673598  0.41744853  0.59437105
   0.08327454  0.68637612  0.59068015
   0.08382505  0.90282158  0.58455724
   0.34435744  0.16282842  0.59261416
   0.32565049  0.41031238  0.59713665
   0.32759275  0.66358999  0.58738681
   0.34152709  0.91270686  0.59227674
   0.57187716  0.15815120  0.59133287
   0.59248918  0.40803124  0.59438132
   0.57317485  0.66448458  0.59342547
   0.58245610  0.92540862  0.59331267
   0.83892245  0.17066919  0.59555818
   0.82886195  0.43816707  0.59980325
   0.84310105  0.67919165  0.58620723
   0.85167402  0.91013333  0.59807707
   0.16588353  0.08788177  0.40247257
   0.13447518  0.33404015  0.41171246
   0.15907102  0.57685814  0.41823959
   0.17658957  0.84350095  0.40440449
   0.42879957  0.07678414  0.40809167
   0.39483122  0.31700976  0.40322220
   0.41135011  0.57433622  0.40997326
   0.41304378  0.82931030  0.40800916
   0.66229414  0.07264811  0.40999439
   0.67888583  0.35532838  0.41239740
   0.66321959  0.57691246  0.40120517
   0.62862890  0.81782624  0.41045012
   0.89976744  0.07829999  0.41005556
   0.91536550  0.32681576  0.40920353
   0.91843849  0.58814785  0.40351185
   0.93401167  0.85301281  0.40460793
   0.99231347  0.99033134  0.49157978
   0.99507671  0.24161220  0.50391062
   0.98678676  0.50429086  0.50432176
   0.99667885  0.76102639  0.49519227
   0.24976173  0.99471026  0.50025573
   0.25242982  0.24317841  0.49995179
   0.25265321  0.49199396  0.50197037
   0.25081361  0.75469809  0.49878459
   0.51242726  0.99623857  0.50073905
   0.51324298  0.26125007  0.49622580
   0.49353116  0.49250149  0.49666807
   0.50113230  0.75182052  0.50422459
   0.75892605  0.00419859  0.50409376
   0.74823658  0.24562679  0.50594808
   0.75095973  0.50405626  0.49793661
   0.74190012  0.75088928  0.50053192
 
 position of ions in cartesian coordinates  (Angst):
  -0.01044982  1.87420340 12.17098914
  -1.71497663  4.74394659 12.27057194
  -3.42807314  7.62666771 12.16682794
  -4.83296586 10.52455997 12.02353346
   3.38998142  1.78908569 11.97550930
   1.52176093  4.57136930 12.13083968
  -0.03557512  7.57139056 11.85446753
  -1.48347964 10.33286019 12.21748968
   6.61885010  1.82777102 12.12518048
   4.80568666  4.84076417 12.09337412
   3.22927174  7.64557461 12.16755085
   1.77551240 10.49986180 12.31992008
   9.80714565  1.95348229 12.21042785
   8.16368817  4.84385060 12.03662314
   6.47802203  7.54388922 12.13674600
   5.02124037 10.42400772 12.01533453
   1.60887125  0.93625478 14.52028715
   0.09657690  3.74240372 14.86260757
  -1.70806658  6.71347880 14.71990476
  -3.22018253  9.59075503 14.58496450
   4.91852839  0.85310084 14.66814448
   3.41280237  3.75009824 14.64884746
   1.72691146  6.63409464 14.54485172
   0.05868685  9.44152221 14.79319286
   8.16242995  0.95398935 14.78717092
   6.61750137  3.84563408 14.71737169
   4.95075658  6.60756489 14.64169298
   3.32797583  9.53282664 14.73909853
  11.46061285  0.98974244 14.76157221
   9.87476262  3.81157332 14.79906840
   8.15359585  6.59417155 14.80012823
   6.55917319  9.50310400 14.58673295
  -0.03114825  1.67208791 15.93131221
  -1.60153824  4.74627352 15.94584264
  -3.41230671  7.80390529 15.84682283
  -4.82589477 10.26482986 15.68255666
   3.45208267  1.85131372 15.89870866
   1.58192432  4.66513747 16.02003830
  -0.05516971  7.54483329 15.75846865
  -1.50751180 10.37722270 15.88965632
   6.46980610  1.79813512 15.86433387
   5.10012310  4.63920148 15.94611803
   3.16311276  7.55500457 15.92047438
   1.57217614 10.52163821 15.91744811
   9.89357107  1.94046119 15.97769104
   8.00555114  4.98183745 16.09157820
   6.61033046  7.72221978 15.72682269
   5.20690859 10.34796234 16.04526813
   1.60093911  0.99919123 10.79757200
  -0.42726975  3.79794347 11.04546080
  -1.69829305  6.55871628 11.22057118
  -3.21862513  9.59037076 10.84940176
   5.12551303  0.87301433 10.94832186
   3.10263944  3.60431268 10.81768316
   1.63033872  6.53004276 10.99880127
  -0.02115499  9.42902700 10.94610820
   8.21812549  0.82598881 10.99936823
   6.58035016  4.03998469 11.06383641
   4.92012699  6.55933396 10.76357004
   2.88456579  9.29845645 11.01159441
  11.29872238  0.89024908 11.00100927
   9.87216839  3.71580408 10.97815074
   8.19704718  6.68707722 10.82545394
   6.66284545  9.69851803 10.85485960
   6.52686624 11.25979144 13.18814872
  11.47796958  2.74706345 13.51896154
   9.64482937  5.73364659 13.52999167
   8.08940684  8.65265799 13.28506477
  -3.25056045 11.30957851 13.42090775
   1.71775723  2.76487073 13.41275377
   0.08738709  5.59383422 13.46690832
  -1.66123600  8.58070698 13.38144007
   0.18784400 11.32695502 13.43387430
   5.02324696  2.97034046 13.31279249
   3.24645143  5.59960472 13.32465766
   1.64399306  8.54798981 13.52738471
   9.93609342  0.04773678 13.52387492
   8.21094544  2.79270812 13.57362272
   6.55028507  5.73097923 13.35869024
   4.81105596  8.53740190 13.42831764
 


--------------------------------------------------------------------------------------------------------


 k-point  1 :   0.0000 0.0000 0.0000  plane waves:  133769
 k-point  2 :   0.3333-0.0000 0.0000  plane waves:  133588
 k-point  3 :   0.0000 0.3333 0.0000  plane waves:  133588
 k-point  4 :   0.3333 0.3333 0.0000  plane waves:  133608
 k-point  5 :  -0.3333 0.3333 0.0000  plane waves:  133588

 maximum and minimum number of plane-waves per node :     10323    10242

 maximum number of plane-waves:    133769
 maximum index in each direction: 
   IXMAX=   26   IYMAX=   26   IZMAX=   53
   IXMIN=  -26   IYMIN=  -26   IZMIN=  -53


 real space projection operators:
  total allocation   :      55715.53 KBytes
  max/ min on nodes  :       4719.02       4055.08


 parallel 3D FFT for wavefunctions:
    minimum data exchange during FFTs selected (reduces bandwidth)
 parallel 3D FFT for charge:
    minimum data exchange during FFTs selected (reduces bandwidth)


 total amount of memory used by VASP MPI-rank0   234703. kBytes
=======================================================================

   base      :      30000. kBytes
   nonlr-proj:      19435. kBytes
   fftplans  :      66973. kBytes
   grid      :      38377. kBytes
   one-center:        108. kBytes
   wavefun   :      79810. kBytes
 
     INWAV:  cpu time    0.0000: real time    0.0000
 Broyden mixing: mesh for mixing (old mesh)
   NGX = 53   NGY = 53   NGZ =107
  (NGX  =216   NGY  =216   NGZ  =432)
  gives a total of 300563 points

 initial charge density was supplied:
 charge density of overlapping atoms calculated
 number of electron     640.0000000 magnetization 
 keeping initial charge density in first step


--------------------------------------------------------------------------------------------------------


 Maximum index for non-local projection operator         1106
 Maximum index for augmentation-charges         5626 (set IRDMAX)


--------------------------------------------------------------------------------------------------------


 First call to EWALD:  gamma=   0.112
 Maximum number of real-space cells 4x 4x 2
 Maximum number of reciprocal cells 2x 2x 4

    FEWALD:  cpu time    0.0034: real time    0.0034


--------------------------------------- Iteration      1(   1)  ---------------------------------------


    POTLOK:  cpu time    0.3936: real time    0.4010
    SETDIJ:  cpu time    0.4175: real time    0.4194
     EDDAV:  cpu time   46.9185: real time   46.9213
       DOS:  cpu time    0.0012: real time    0.0012
    --------------------------------------------
      LOOP:  cpu time   47.7308: real time   47.7429

 eigenvalue-minimisations  :  4240
 total energy-change (2. order) : 0.1362800E+05  (-0.2786993E+05)
 number of electron     640.0000000 magnetization 
 augmentation part      640.0000000 magnetization 

 Free energy of the ion-electron system (eV)
  ---------------------------------------------------
  alpha Z        PSCENC =       871.83850952
  Ewald energy   TEWEN  =    283788.13081579
  -Hartree energ DENC   =   -338176.37764924
  -exchange      EXHF   =         0.00000000
  -V(xc)+E(xc)   XCENC  =      3041.30338199
  PAW double counting   =     50525.51240023   -50422.77561733
  entropy T*S    EENTRO =        -0.07540955
  eigenvalues    EBANDS =      -206.98878177
  atomic energy  EATOM  =     64207.43592568
  Solvation  Ediel_sol  =         0.00000000
  ---------------------------------------------------
  free energy    TOTEN  =     13628.00357532 eV

  energy without entropy =    13628.07898487  energy(sigma->0) =    13628.04128009


--------------------------------------------------------------------------------------------------------




--------------------------------------- Iteration      1(   2)  ---------------------------------------


     EDDAV:  cpu time   50.0169: real time   50.0311
       DOS:  cpu time    0.0014: real time    0.0014
    --------------------------------------------
      LOOP:  cpu time   50.0183: real time   50.0324

 eigenvalue-minimisations  :  4608
 total energy-change (2. order) :-0.1114183E+05  (-0.1084592E+05)
 number of electron     640.0000000 magnetization 
 augmentation part      640.0000000 magnetization 

 Free energy of the ion-electron system (eV)
  ---------------------------------------------------
  alpha Z        PSCENC =       871.83850952
  Ewald energy   TEWEN  =    283788.13081579
  -Hartree energ DENC   =   -338176.37764924
  -exchange      EXHF   =         0.00000000
  -V(xc)+E(xc)   XCENC  =      3041.30338199
  PAW double counting   =     50525.51240023   -50422.77561733
  entropy T*S    EENTRO =        -0.05199871
  eigenvalues    EBANDS =    -11348.84004019
  atomic energy  EATOM  =     64207.43592568
  Solvation  Ediel_sol  =         0.00000000
  ---------------------------------------------------
  free energy    TOTEN  =      2486.17572773 eV

  energy without entropy =     2486.22772644  energy(sigma->0) =     2486.20172709


--------------------------------------------------------------------------------------------------------




--------------------------------------- Iteration      1(   3)  ---------------------------------------


     EDDAV:  cpu time   68.5193: real time   68.5228
       DOS:  cpu time    0.0005: real time    0.0005
    --------------------------------------------
      LOOP:  cpu time   68.5199: real time   68.5233

 eigenvalue-minimisations  :  6800
 total energy-change (2. order) :-0.2862968E+04  (-0.2746063E+04)
 number of electron     640.0000000 magnetization 
 augmentation part      640.0000000 magnetization 

 Free energy of the ion-electron system (eV)
  ---------------------------------------------------
  alpha Z        PSCENC =       871.83850952
  Ewald energy   TEWEN  =    283788.13081579
  -Hartree energ DENC   =   -338176.37764924
  -exchange      EXHF   =         0.00000000
  -V(xc)+E(xc)   XCENC  =      3041.30338199
  PAW double counting   =     50525.51240023   -50422.77561733
  entropy T*S    EENTRO =        -0.00000000
  eigenvalues    EBANDS =    -14211.86037674
  atomic energy  EATOM  =     64207.43592568
  Solvation  Ediel_sol  =         0.00000000
  ---------------------------------------------------
  free energy    TOTEN  =      -376.79261010 eV

  energy without entropy =     -376.79261010  energy(sigma->0) =     -376.79261010


--------------------------------------------------------------------------------------------------------




--------------------------------------- Iteration      1(   4)  ---------------------------------------


     EDDAV:  cpu time   62.2175: real time   62.2279
       DOS:  cpu time    0.0005: real time    0.0005
    --------------------------------------------
      LOOP:  cpu time   62.2180: real time   62.2285

 eigenvalue-minimisations  :  6064
 total energy-change (2. order) :-0.3604205E+03  (-0.3560787E+03)
 number of electron     640.0000000 magnetization 
 augmentation part      640.0000000 magnetization 

 Free energy of the ion-electron system (eV)
  ---------------------------------------------------
  alpha Z        PSCENC =       871.83850952
  Ewald energy   TEWEN  =    283788.13081579
  -Hartree energ DENC   =   -338176.37764924
  -exchange      EXHF   =         0.00000000
  -V(xc)+E(xc)   XCENC  =      3041.30338199
  PAW double counting   =     50525.51240023   -50422.77561733
  entropy T*S    EENTRO =        -0.00000000
  eigenvalues    EBANDS =    -14572.28091616
  atomic energy  EATOM  =     64207.43592568
  Solvation  Ediel_sol  =         0.00000000
  ---------------------------------------------------
  free energy    TOTEN  =      -737.21314952 eV

  energy without entropy =     -737.21314952  energy(sigma->0) =     -737.21314952


--------------------------------------------------------------------------------------------------------




--------------------------------------- Iteration      1(   5)  ---------------------------------------


     EDDAV:  cpu time   62.4626: real time   62.4959
       DOS:  cpu time    0.0006: real time    0.0006
    CHARGE:  cpu time    3.6430: real time    3.6447
    MIXING:  cpu time    0.0194: real time    0.0197
    --------------------------------------------
      LOOP:  cpu time   66.1257: real time   66.1609

 eigenvalue-minimisations  :  6080
 total energy-change (2. order) :-0.1467644E+02  (-0.1461464E+02)
 number of electron     640.0000005 magnetization 
 augmentation part      134.4584256 magnetization 

 Broyden mixing:
  rms(total) = 0.76094E+01    rms(broyden)= 0.76091E+01
  rms(prec ) = 0.80189E+01
  weight for this iteration     100.00

 Free energy of the ion-electron system (eV)
  ---------------------------------------------------
  alpha Z        PSCENC =       871.83850952
  Ewald energy   TEWEN  =    283788.13081579
  -Hartree energ DENC   =   -338176.37764924
  -exchange      EXHF   =         0.00000000
  -V(xc)+E(xc)   XCENC  =      3041.30338199
  PAW double counting   =     50525.51240023   -50422.77561733
  entropy T*S    EENTRO =        -0.00000000
  eigenvalues    EBANDS =    -14586.95735450
  atomic energy  EATOM  =     64207.43592568
  Solvation  Ediel_sol  =         0.00000000
  ---------------------------------------------------
  free energy    TOTEN  =      -751.88958787 eV

  energy without entropy =     -751.88958787  energy(sigma->0) =     -751.88958787


--------------------------------------------------------------------------------------------------------




--------------------------------------- Iteration      1(   6)  ---------------------------------------


    POTLOK:  cpu time    0.3823: real time    0.3953
    SETDIJ:  cpu time    0.4155: real time    0.4155
     EDDAV:  cpu time   59.5900: real time   59.6009
       DOS:  cpu time    0.0006: real time    0.0006
    CHARGE:  cpu time    3.6640: real time    3.6640
    MIXING:  cpu time    0.0190: real time    0.0191
    --------------------------------------------
      LOOP:  cpu time   64.0714: real time   64.0953

 eigenvalue-minimisations  :  5744
 total energy-change (2. order) : 0.1558890E+03  (-0.8487960E+02)
 number of electron     640.0000006 magnetization 
 augmentation part      140.3806306 magnetization 

 Broyden mixing:
  rms(total) = 0.24831E+01    rms(broyden)= 0.24824E+01
  rms(prec ) = 0.25363E+01
  weight for this iteration     100.00

 eigenvalues of (default mixing * dielectric matrix)
  average eigenvalue GAMMA=   0.9695
  0.9695

 Free energy of the ion-electron system (eV)
  ---------------------------------------------------
  alpha Z        PSCENC =       871.83850952
  Ewald energy   TEWEN  =    283788.13081579
  -Hartree energ DENC   =   -338333.47309270
  -exchange      EXHF   =         0.00000000
  -V(xc)+E(xc)   XCENC  =      3053.82605035
  PAW double counting   =     56244.55683650   -56210.89376265
  entropy T*S    EENTRO =        -0.00000000
  eigenvalues    EBANDS =    -14217.42185176
  atomic energy  EATOM  =     64207.43592568
  Solvation  Ediel_sol  =         0.00000000
  ---------------------------------------------------
  free energy    TOTEN  =      -596.00056926 eV

  energy without entropy =     -596.00056926  energy(sigma->0) =     -596.00056926


--------------------------------------------------------------------------------------------------------




--------------------------------------- Iteration      1(   7)  ---------------------------------------


    POTLOK:  cpu time    0.3887: real time    0.3978
    SETDIJ:  cpu time    0.4153: real time    0.4153
     EDDAV:  cpu time   61.3453: real time   61.3477
       DOS:  cpu time    0.0006: real time    0.0006
    CHARGE:  cpu time    3.6584: real time    3.6583
    MIXING:  cpu time    0.0224: real time    0.0224
    --------------------------------------------
      LOOP:  cpu time   65.8306: real time   65.8422

 eigenvalue-minimisations  :  5952
 total energy-change (2. order) :-0.7632118E-01  (-0.5604303E+01)
 number of electron     640.0000006 magnetization 
 augmentation part      140.9369816 magnetization 

 Broyden mixing:
  rms(total) = 0.16210E+01    rms(broyden)= 0.16210E+01
  rms(prec ) = 0.16499E+01
  weight for this iteration     100.00

 eigenvalues of (default mixing * dielectric matrix)
  average eigenvalue GAMMA=   1.6074
  0.9577  2.2572

 Free energy of the ion-electron system (eV)
  ---------------------------------------------------
  alpha Z        PSCENC =       871.83850952
  Ewald energy   TEWEN  =    283788.13081579
  -Hartree energ DENC   =   -338460.00809125
  -exchange      EXHF   =         0.00000000
  -V(xc)+E(xc)   XCENC  =      3050.55469993
  PAW double counting   =     59805.01068097   -59777.70332182
  entropy T*S    EENTRO =        -0.00000000
  eigenvalues    EBANDS =    -14081.33610925
  atomic energy  EATOM  =     64207.43592568
  Solvation  Ediel_sol  =         0.00000000
  ---------------------------------------------------
  free energy    TOTEN  =      -596.07689044 eV

  energy without entropy =     -596.07689044  energy(sigma->0) =     -596.07689044


--------------------------------------------------------------------------------------------------------




--------------------------------------- Iteration      1(   8)  ---------------------------------------


    POTLOK:  cpu time    0.4097: real time    0.4189
    SETDIJ:  cpu time    0.4344: real time    0.4344
     EDDAV:  cpu time   58.1850: real time   58.1930
       DOS:  cpu time    0.0006: real time    0.0006
    CHARGE:  cpu time    3.6271: real time    3.6271
    MIXING:  cpu time    0.0260: real time    0.0260
    --------------------------------------------
      LOOP:  cpu time   62.6827: real time   62.7000

 eigenvalue-minimisations  :  5584
 total energy-change (2. order) : 0.1425570E+01  (-0.1045302E+01)
 number of electron     640.0000006 magnetization 
 augmentation part      141.0277095 magnetization 

 Broyden mixing:
  rms(total) = 0.46145E+00    rms(broyden)= 0.46136E+00
  rms(prec ) = 0.49398E+00
  weight for this iteration     100.00

 eigenvalues of (default mixing * dielectric matrix)
  average eigenvalue GAMMA=   1.4105
  2.4694  0.8810  0.8810

 Free energy of the ion-electron system (eV)
  ---------------------------------------------------
  alpha Z        PSCENC =       871.83850952
  Ewald energy   TEWEN  =    283788.13081579
  -Hartree energ DENC   =   -338686.40719913
  -exchange      EXHF   =         0.00000000
  -V(xc)+E(xc)   XCENC  =      3046.68762680
  PAW double counting   =     65801.68880320   -65790.91900109
  entropy T*S    EENTRO =        -0.00000000
  eigenvalues    EBANDS =    -13833.10680105
  atomic energy  EATOM  =     64207.43592568
  Solvation  Ediel_sol  =         0.00000000
  ---------------------------------------------------
  free energy    TOTEN  =      -594.65132029 eV

  energy without entropy =     -594.65132029  energy(sigma->0) =     -594.65132029


--------------------------------------------------------------------------------------------------------




--------------------------------------- Iteration      1(   9)  ---------------------------------------


    POTLOK:  cpu time    0.3638: real time    0.3765
    SETDIJ:  cpu time    0.4148: real time    0.4148
     EDDAV:  cpu time   57.9383: real time   57.9410
       DOS:  cpu time    0.0006: real time    0.0006
    CHARGE:  cpu time    3.5978: real time    3.5979
    MIXING:  cpu time    0.0225: real time    0.0225
    --------------------------------------------
      LOOP:  cpu time   62.3377: real time   62.3533

 eigenvalue-minimisations  :  5544
 total energy-change (2. order) : 0.5000834E+00  (-0.2527042E+00)
 number of electron     640.0000006 magnetization 
 augmentation part      141.4010132 magnetization 

 Broyden mixing:
  rms(total) = 0.22190E+00    rms(broyden)= 0.22190E+00
  rms(prec ) = 0.23858E+00
  weight for this iteration     100.00

 eigenvalues of (default mixing * dielectric matrix)
  average eigenvalue GAMMA=   1.2397
  2.1319  1.0639  0.8814  0.8814

 Free energy of the ion-electron system (eV)
  ---------------------------------------------------
  alpha Z        PSCENC =       871.83850952
  Ewald energy   TEWEN  =    283788.13081579
  -Hartree energ DENC   =   -338794.28237736
  -exchange      EXHF   =         0.00000000
  -V(xc)+E(xc)   XCENC  =      3048.54644077
  PAW double counting   =     66431.48027146   -66424.51017750
  entropy T*S    EENTRO =        -0.00000000
  eigenvalues    EBANDS =    -13722.79064527
  atomic energy  EATOM  =     64207.43592568
  Solvation  Ediel_sol  =         0.00000000
  ---------------------------------------------------
  free energy    TOTEN  =      -594.15123691 eV

  energy without entropy =     -594.15123691  energy(sigma->0) =     -594.15123691


--------------------------------------------------------------------------------------------------------




--------------------------------------- Iteration      1(  10)  ---------------------------------------


    POTLOK:  cpu time    0.3619: real time    0.3707
    SETDIJ:  cpu time    0.4163: real time    0.4163
     EDDAV:  cpu time   60.4944: real time   60.4976
       DOS:  cpu time    0.0007: real time    0.0007
    CHARGE:  cpu time    3.6152: real time    3.6153
    MIXING:  cpu time    0.0223: real time    0.0223
    --------------------------------------------
      LOOP:  cpu time   64.9108: real time   64.9229

 eigenvalue-minimisations  :  5856
 total energy-change (2. order) : 0.3581435E-01  (-0.3090389E-01)
 number of electron     640.0000006 magnetization 
 augmentation part      141.2550969 magnetization 

 Broyden mixing:
  rms(total) = 0.12173E+00    rms(broyden)= 0.12172E+00
  rms(prec ) = 0.14324E+00
  weight for this iteration     100.00

 eigenvalues of (default mixing * dielectric matrix)
  average eigenvalue GAMMA=   1.3821
  2.2092  2.2092  0.9125  0.9125  0.6670

 Free energy of the ion-electron system (eV)
  ---------------------------------------------------
  alpha Z        PSCENC =       871.83850952
  Ewald energy   TEWEN  =    283788.13081579
  -Hartree energ DENC   =   -338852.48041808
  -exchange      EXHF   =         0.00000000
  -V(xc)+E(xc)   XCENC  =      3049.87918416
  PAW double counting   =     65852.98691627   -65844.98020648
  entropy T*S    EENTRO =        -0.00000000
  eigenvalues    EBANDS =    -13666.92614942
  atomic energy  EATOM  =     64207.43592568
  Solvation  Ediel_sol  =         0.00000000
  ---------------------------------------------------
  free energy    TOTEN  =      -594.11542256 eV

  energy without entropy =     -594.11542256  energy(sigma->0) =     -594.11542256


--------------------------------------------------------------------------------------------------------




--------------------------------------- Iteration      1(  11)  ---------------------------------------


    POTLOK:  cpu time    0.3794: real time    0.3902
    SETDIJ:  cpu time    0.4175: real time    0.4175
     EDDAV:  cpu time   58.4325: real time   58.4344
       DOS:  cpu time    0.0006: real time    0.0006
    CHARGE:  cpu time    3.5962: real time    3.5963
    MIXING:  cpu time    0.0269: real time    0.0269
    --------------------------------------------
      LOOP:  cpu time   62.8531: real time   62.8659

 eigenvalue-minimisations  :  5592
 total energy-change (2. order) : 0.9944014E-01  (-0.1337303E-01)
 number of electron     640.0000006 magnetization 
 augmentation part      141.1741698 magnetization 

 Broyden mixing:
  rms(total) = 0.66222E-01    rms(broyden)= 0.66218E-01
  rms(prec ) = 0.82629E-01
  weight for this iteration     100.00

 eigenvalues of (default mixing * dielectric matrix)
  average eigenvalue GAMMA=   1.3621
  2.5685  2.0191  1.0263  0.9293  0.9293  0.7005

 Free energy of the ion-electron system (eV)
  ---------------------------------------------------
  alpha Z        PSCENC =       871.83850952
  Ewald energy   TEWEN  =    283788.13081579
  -Hartree energ DENC   =   -338992.95374933
  -exchange      EXHF   =         0.00000000
  -V(xc)+E(xc)   XCENC  =      3051.23887507
  PAW double counting   =     65814.57561518   -65806.66884046
  entropy T*S    EENTRO =        -0.00000000
  eigenvalues    EBANDS =    -13527.61313388
  atomic energy  EATOM  =     64207.43592568
  Solvation  Ediel_sol  =         0.00000000
  ---------------------------------------------------
  free energy    TOTEN  =      -594.01598242 eV

  energy without entropy =     -594.01598242  energy(sigma->0) =     -594.01598242


--------------------------------------------------------------------------------------------------------




--------------------------------------- Iteration      1(  12)  ---------------------------------------


    POTLOK:  cpu time    0.4014: real time    0.4108
    SETDIJ:  cpu time    0.4150: real time    0.4150
     EDDAV:  cpu time   60.2129: real time   60.2154
       DOS:  cpu time    0.0005: real time    0.0005
    CHARGE:  cpu time    3.6537: real time    3.6537
    MIXING:  cpu time    0.0253: real time    0.0253
    --------------------------------------------
      LOOP:  cpu time   64.7089: real time   64.7208

 eigenvalue-minimisations  :  5808
 total energy-change (2. order) : 0.3075882E-01  (-0.4194583E-02)
 number of electron     640.0000006 magnetization 
 augmentation part      141.2204597 magnetization 

 Broyden mixing:
  rms(total) = 0.31087E-01    rms(broyden)= 0.31086E-01
  rms(prec ) = 0.48191E-01
  weight for this iteration     100.00

 eigenvalues of (default mixing * dielectric matrix)
  average eigenvalue GAMMA=   1.4206
  2.5407  2.5407  1.1867  1.1867  0.9116  0.9116  0.6662

 Free energy of the ion-electron system (eV)
  ---------------------------------------------------
  alpha Z        PSCENC =       871.83850952
  Ewald energy   TEWEN  =    283788.13081579
  -Hartree energ DENC   =   -339054.89808643
  -exchange      EXHF   =         0.00000000
  -V(xc)+E(xc)   XCENC  =      3051.47767977
  PAW double counting   =     65958.04872340   -65950.53763736
  entropy T*S    EENTRO =        -0.00000000
  eigenvalues    EBANDS =    -13465.48115398
  atomic energy  EATOM  =     64207.43592568
  Solvation  Ediel_sol  =         0.00000000
  ---------------------------------------------------
  free energy    TOTEN  =      -593.98522361 eV

  energy without entropy =     -593.98522361  energy(sigma->0) =     -593.98522361


--------------------------------------------------------------------------------------------------------




--------------------------------------- Iteration      1(  13)  ---------------------------------------


    POTLOK:  cpu time    0.4287: real time    0.4391
    SETDIJ:  cpu time    0.4395: real time    0.4395
     EDDAV:  cpu time   58.2368: real time   58.2389
       DOS:  cpu time    0.0006: real time    0.0006
    CHARGE:  cpu time    3.5820: real time    3.5820
    MIXING:  cpu time    0.0246: real time    0.0246
    --------------------------------------------
      LOOP:  cpu time   62.7122: real time   62.7246

 eigenvalue-minimisations  :  5576
 total energy-change (2. order) : 0.9709264E-02  (-0.3261540E-02)
 number of electron     640.0000006 magnetization 
 augmentation part      141.1713101 magnetization 

 Broyden mixing:
  rms(total) = 0.28860E-01    rms(broyden)= 0.28857E-01
  rms(prec ) = 0.39232E-01
  weight for this iteration     100.00

 eigenvalues of (default mixing * dielectric matrix)
  average eigenvalue GAMMA=   1.3441
  2.7179  2.4464  1.2164  1.2164  0.8939  0.8939  0.7190  0.6493

 Free energy of the ion-electron system (eV)
  ---------------------------------------------------
  alpha Z        PSCENC =       871.83850952
  Ewald energy   TEWEN  =    283788.13081579
  -Hartree energ DENC   =   -339123.33117377
  -exchange      EXHF   =         0.00000000
  -V(xc)+E(xc)   XCENC  =      3051.76895167
  PAW double counting   =     65879.45870265   -65871.58599338
  entropy T*S    EENTRO =        -0.00000000
  eigenvalues    EBANDS =    -13397.69125250
  atomic energy  EATOM  =     64207.43592568
  Solvation  Ediel_sol  =         0.00000000
  ---------------------------------------------------
  free energy    TOTEN  =      -593.97551434 eV

  energy without entropy =     -593.97551434  energy(sigma->0) =     -593.97551434


--------------------------------------------------------------------------------------------------------




--------------------------------------- Iteration      1(  14)  ---------------------------------------


    POTLOK:  cpu time    0.3805: real time    0.3900
    SETDIJ:  cpu time    0.4152: real time    0.4152
     EDDAV:  cpu time   60.1337: real time   60.1401
       DOS:  cpu time    0.0005: real time    0.0005
    CHARGE:  cpu time    3.6489: real time    3.6488
    MIXING:  cpu time    0.0241: real time    0.0241
    --------------------------------------------
      LOOP:  cpu time   64.6029: real time   64.6188

 eigenvalue-minimisations  :  5800
 total energy-change (2. order) : 0.2563900E-02  (-0.8597217E-03)
 number of electron     640.0000006 magnetization 
 augmentation part      141.2020943 magnetization 

 Broyden mixing:
  rms(total) = 0.15785E-01    rms(broyden)= 0.15785E-01
  rms(prec ) = 0.25695E-01
  weight for this iteration     100.00

 eigenvalues of (default mixing * dielectric matrix)
  average eigenvalue GAMMA=   1.4459
  2.8151  2.8151  1.5655  1.5655  0.9483  0.9483  0.8493  0.8493  0.6564

 Free energy of the ion-electron system (eV)
  ---------------------------------------------------
  alpha Z        PSCENC =       871.83850952
  Ewald energy   TEWEN  =    283788.13081579
  -Hartree energ DENC   =   -339156.38968515
  -exchange      EXHF   =         0.00000000
  -V(xc)+E(xc)   XCENC  =      3051.83465892
  PAW double counting   =     65916.72660336   -65909.00192309
  entropy T*S    EENTRO =        -0.00000000
  eigenvalues    EBANDS =    -13364.54785548
  atomic energy  EATOM  =     64207.43592568
  Solvation  Ediel_sol  =         0.00000000
  ---------------------------------------------------
  free energy    TOTEN  =      -593.97295044 eV

  energy without entropy =     -593.97295044  energy(sigma->0) =     -593.97295044


--------------------------------------------------------------------------------------------------------




--------------------------------------- Iteration      1(  15)  ---------------------------------------


    POTLOK:  cpu time    0.3623: real time    0.3743
    SETDIJ:  cpu time    0.4143: real time    0.4143
     EDDAV:  cpu time   59.1664: real time   59.1685
       DOS:  cpu time    0.0005: real time    0.0005
    CHARGE:  cpu time    3.6040: real time    3.6040
    MIXING:  cpu time    0.0253: real time    0.0253
    --------------------------------------------
      LOOP:  cpu time   63.5728: real time   63.5869

 eigenvalue-minimisations  :  5680
 total energy-change (2. order) :-0.5061641E-02  (-0.1257296E-02)
 number of electron     640.0000006 magnetization 
 augmentation part      141.1972581 magnetization 

 Broyden mixing:
  rms(total) = 0.14606E-01    rms(broyden)= 0.14602E-01
  rms(prec ) = 0.18875E-01
  weight for this iteration     100.00

 eigenvalues of (default mixing * dielectric matrix)
  average eigenvalue GAMMA=   1.4727
  3.8698  2.7124  1.9359  1.0332  1.0332  0.9736  0.8612  0.8612  0.6486  0.7982

 Free energy of the ion-electron system (eV)
  ---------------------------------------------------
  alpha Z        PSCENC =       871.83850952
  Ewald energy   TEWEN  =    283788.13081579
  -Hartree energ DENC   =   -339214.94877989
  -exchange      EXHF   =         0.00000000
  -V(xc)+E(xc)   XCENC  =      3051.98757400
  PAW double counting   =     65878.90249214   -65871.12181535
  entropy T*S    EENTRO =        -0.00000000
  eigenvalues    EBANDS =    -13306.20273397
  atomic energy  EATOM  =     64207.43592568
  Solvation  Ediel_sol  =         0.00000000
  ---------------------------------------------------
  free energy    TOTEN  =      -593.97801208 eV

  energy without entropy =     -593.97801208  energy(sigma->0) =     -593.97801208


--------------------------------------------------------------------------------------------------------




--------------------------------------- Iteration      1(  16)  ---------------------------------------


    POTLOK:  cpu time    0.3961: real time    0.4100
    SETDIJ:  cpu time    0.4143: real time    0.4142
     EDDAV:  cpu time   56.2749: real time   56.2771
       DOS:  cpu time    0.0006: real time    0.0006
    CHARGE:  cpu time    3.6082: real time    3.6082
    MIXING:  cpu time    0.0231: real time    0.0231
    --------------------------------------------
      LOOP:  cpu time   60.7171: real time   60.7332

 eigenvalue-minimisations  :  5344
 total energy-change (2. order) :-0.3192257E-02  (-0.2246087E-03)
 number of electron     640.0000006 magnetization 
 augmentation part      141.2044158 magnetization 

 Broyden mixing:
  rms(total) = 0.10217E-01    rms(broyden)= 0.10217E-01
  rms(prec ) = 0.12859E-01
  weight for this iteration     100.00

 eigenvalues of (default mixing * dielectric matrix)
  average eigenvalue GAMMA=   1.4932
  4.1660  2.6745  2.1309  1.1160  1.1160  1.0096  1.0096  0.9234  0.9234  0.6464
  0.7099

 Free energy of the ion-electron system (eV)
  ---------------------------------------------------
  alpha Z        PSCENC =       871.83850952
  Ewald energy   TEWEN  =    283788.13081579
  -Hartree energ DENC   =   -339243.92561013
  -exchange      EXHF   =         0.00000000
  -V(xc)+E(xc)   XCENC  =      3052.02815262
  PAW double counting   =     65884.90775192   -65877.15167944
  entropy T*S    EENTRO =        -0.00000000
  eigenvalues    EBANDS =    -13277.24507031
  atomic energy  EATOM  =     64207.43592568
  Solvation  Ediel_sol  =         0.00000000
  ---------------------------------------------------
  free energy    TOTEN  =      -593.98120434 eV

  energy without entropy =     -593.98120434  energy(sigma->0) =     -593.98120434


--------------------------------------------------------------------------------------------------------




--------------------------------------- Iteration      1(  17)  ---------------------------------------


    POTLOK:  cpu time    0.4250: real time    0.4364
    SETDIJ:  cpu time    0.4142: real time    0.4142
     EDDAV:  cpu time   59.8053: real time   59.8068
       DOS:  cpu time    0.0006: real time    0.0006
    CHARGE:  cpu time    3.6431: real time    3.6431
    MIXING:  cpu time    0.0286: real time    0.0286
    --------------------------------------------
      LOOP:  cpu time   64.3168: real time   64.3297

 eigenvalue-minimisations  :  5760
 total energy-change (2. order) :-0.4250765E-02  (-0.4119027E-03)
 number of electron     640.0000006 magnetization 
 augmentation part      141.2048329 magnetization 

 Broyden mixing:
  rms(total) = 0.10343E-01    rms(broyden)= 0.10339E-01
  rms(prec ) = 0.11853E-01
  weight for this iteration     100.00

 eigenvalues of (default mixing * dielectric matrix)
  average eigenvalue GAMMA=   1.5657
  5.1720  2.7826  2.1412  1.7408  0.9795  0.9795  0.9968  0.9968  0.8499  0.8499
  0.6838  0.6159

 Free energy of the ion-electron system (eV)
  ---------------------------------------------------
  alpha Z        PSCENC =       871.83850952
  Ewald energy   TEWEN  =    283788.13081579
  -Hartree energ DENC   =   -339260.07638276
  -exchange      EXHF   =         0.00000000
  -V(xc)+E(xc)   XCENC  =      3052.06294608
  PAW double counting   =     65891.21641632   -65883.51237118
  entropy T*S    EENTRO =        -0.00000000
  eigenvalues    EBANDS =    -13261.08131456
  atomic energy  EATOM  =     64207.43592568
  Solvation  Ediel_sol  =         0.00000000
  ---------------------------------------------------
  free energy    TOTEN  =      -593.98545510 eV

  energy without entropy =     -593.98545510  energy(sigma->0) =     -593.98545510


--------------------------------------------------------------------------------------------------------




--------------------------------------- Iteration      1(  18)  ---------------------------------------


    POTLOK:  cpu time    0.4518: real time    0.4774
    SETDIJ:  cpu time    0.4331: real time    0.4331
     EDDAV:  cpu time   56.8512: real time   56.8528
       DOS:  cpu time    0.0006: real time    0.0006
    CHARGE:  cpu time    3.6467: real time    3.6467
    MIXING:  cpu time    0.0248: real time    0.0248
    --------------------------------------------
      LOOP:  cpu time   61.4082: real time   61.4353

 eigenvalue-minimisations  :  5416
 total energy-change (2. order) :-0.3912984E-02  (-0.7181099E-04)
 number of electron     640.0000006 magnetization 
 augmentation part      141.1950664 magnetization 

 Broyden mixing:
  rms(total) = 0.65655E-02    rms(broyden)= 0.65652E-02
  rms(prec ) = 0.75198E-02
  weight for this iteration     100.00

 eigenvalues of (default mixing * dielectric matrix)
  average eigenvalue GAMMA=   1.6036
  5.9908  2.8041  2.4143  1.8274  0.9305  0.9305  1.0362  1.0362  0.9186  0.9186
  0.7157  0.6619  0.6619

 Free energy of the ion-electron system (eV)
  ---------------------------------------------------
  alpha Z        PSCENC =       871.83850952
  Ewald energy   TEWEN  =    283788.13081579
  -Hartree energ DENC   =   -339276.19843937
  -exchange      EXHF   =         0.00000000
  -V(xc)+E(xc)   XCENC  =      3052.11051761
  PAW double counting   =     65879.63947158   -65871.93560486
  entropy T*S    EENTRO =        -0.00000000
  eigenvalues    EBANDS =    -13245.01056404
  atomic energy  EATOM  =     64207.43592568
  Solvation  Ediel_sol  =         0.00000000
  ---------------------------------------------------
  free energy    TOTEN  =      -593.98936809 eV

  energy without entropy =     -593.98936809  energy(sigma->0) =     -593.98936809


--------------------------------------------------------------------------------------------------------




--------------------------------------- Iteration      1(  19)  ---------------------------------------


    POTLOK:  cpu time    0.3930: real time    0.4038
    SETDIJ:  cpu time    0.4143: real time    0.4143
     EDDAV:  cpu time   57.6558: real time   57.6601
       DOS:  cpu time    0.0006: real time    0.0005
    CHARGE:  cpu time    3.6475: real time    3.6474
    MIXING:  cpu time    0.0243: real time    0.0243
    --------------------------------------------
      LOOP:  cpu time   62.1354: real time   62.1505

 eigenvalue-minimisations  :  5512
 total energy-change (2. order) :-0.1538042E-02  (-0.5508166E-04)
 number of electron     640.0000006 magnetization 
 augmentation part      141.1949349 magnetization 

 Broyden mixing:
  rms(total) = 0.22684E-02    rms(broyden)= 0.22658E-02
  rms(prec ) = 0.33449E-02
  weight for this iteration     100.00

 eigenvalues of (default mixing * dielectric matrix)
  average eigenvalue GAMMA=   1.6081
  6.3894  3.0123  2.4189  1.9382  0.9605  0.9605  1.0088  1.0088  0.8953  0.8953
  0.9350  0.8125  0.6639  0.6134

 Free energy of the ion-electron system (eV)
  ---------------------------------------------------
  alpha Z        PSCENC =       871.83850952
  Ewald energy   TEWEN  =    283788.13081579
  -Hartree energ DENC   =   -339282.26749894
  -exchange      EXHF   =         0.00000000
  -V(xc)+E(xc)   XCENC  =      3052.11871363
  PAW double counting   =     65880.30323910   -65872.61513155
  entropy T*S    EENTRO =        -0.00000000
  eigenvalues    EBANDS =    -13238.93547936
  atomic energy  EATOM  =     64207.43592568
  Solvation  Ediel_sol  =         0.00000000
  ---------------------------------------------------
  free energy    TOTEN  =      -593.99090613 eV

  energy without entropy =     -593.99090613  energy(sigma->0) =     -593.99090613


--------------------------------------------------------------------------------------------------------




--------------------------------------- Iteration      1(  20)  ---------------------------------------


    POTLOK:  cpu time    0.4074: real time    0.4173
    SETDIJ:  cpu time    0.4144: real time    0.4144
     EDDAV:  cpu time   59.0860: real time   59.0877
       DOS:  cpu time    0.0006: real time    0.0006
    CHARGE:  cpu time    3.5793: real time    3.5793
    MIXING:  cpu time    0.0277: real time    0.0277
    --------------------------------------------
      LOOP:  cpu time   63.5155: real time   63.5271

 eigenvalue-minimisations  :  5672
 total energy-change (2. order) :-0.2276931E-02  (-0.2238208E-04)
 number of electron     640.0000006 magnetization 
 augmentation part      141.1967913 magnetization 

 Broyden mixing:
  rms(total) = 0.22381E-02    rms(broyden)= 0.22373E-02
  rms(prec ) = 0.28534E-02
  weight for this iteration     100.00

 eigenvalues of (default mixing * dielectric matrix)
  average eigenvalue GAMMA=   1.6445
  6.8311  3.2530  2.3505  2.1807  1.4022  0.9473  0.9473  1.1425  0.9365  0.9365
  0.8681  0.8681  0.7582  0.6560  0.5898

 Free energy of the ion-electron system (eV)
  ---------------------------------------------------
  alpha Z        PSCENC =       871.83850952
  Ewald energy   TEWEN  =    283788.13081579
  -Hartree energ DENC   =   -339286.00750363
  -exchange      EXHF   =         0.00000000
  -V(xc)+E(xc)   XCENC  =      3052.11421811
  PAW double counting   =     65878.58000358   -65870.89334194
  entropy T*S    EENTRO =        -0.00000000
  eigenvalues    EBANDS =    -13235.19181017
  atomic energy  EATOM  =     64207.43592568
  Solvation  Ediel_sol  =         0.00000000
  ---------------------------------------------------
  free energy    TOTEN  =      -593.99318306 eV

  energy without entropy =     -593.99318306  energy(sigma->0) =     -593.99318306


--------------------------------------------------------------------------------------------------------




--------------------------------------- Iteration      1(  21)  ---------------------------------------


    POTLOK:  cpu time    0.4030: real time    0.4125
    SETDIJ:  cpu time    0.4245: real time    0.4245
     EDDAV:  cpu time   52.6346: real time   52.6344
       DOS:  cpu time    0.0006: real time    0.0006
    CHARGE:  cpu time    3.5866: real time    3.5883
    MIXING:  cpu time    0.0289: real time    0.0289
    --------------------------------------------
      LOOP:  cpu time   57.0782: real time   57.0893

 eigenvalue-minimisations  :  4904
 total energy-change (2. order) :-0.2332216E-02  (-0.8681930E-05)
 number of electron     640.0000006 magnetization 
 augmentation part      141.1963888 magnetization 

 Broyden mixing:
  rms(total) = 0.15450E-02    rms(broyden)= 0.15443E-02
[...]
    -6.564311700 11.369721380  0.000000000     0.000000000  0.087952903  0.000000000
     0.000000000  0.000000000 26.828094240     0.000000000  0.000000000  0.037274358

  length of vectors
    13.128623400 13.128623399 26.828094240     0.087952903  0.087952903  0.037274358


 FORCES acting on ions
    electron-ion (+dipol)            ewald-force                    non-local-force                 convergence-correction
 -----------------------------------------------------------------------------------------------
   -.209E+01 -.368E+02 0.122E+04   0.130E+01 0.355E+02 -.122E+04   0.382E-01 0.118E+01 -.635E+01   0.577E-04 0.101E-03 0.148E-03
   0.279E+02 -.181E+02 0.103E+04   -.264E+02 0.171E+02 -.103E+04   -.135E+01 0.730E+00 -.439E+01   -.736E-05 -.350E-04 0.137E-03
   -.161E+02 0.893E+01 0.123E+04   0.148E+02 -.735E+01 -.122E+04   0.141E+01 -.950E+00 -.622E+01   0.204E-04 -.420E-04 0.110E-03
   -.186E+02 0.107E+02 0.134E+04   0.169E+02 -.134E+02 -.134E+04   0.876E+00 0.117E+01 -.477E+01   -.316E-05 0.214E-04 0.308E-04
   -.225E+02 -.348E+02 0.136E+04   0.222E+02 0.370E+02 -.136E+04   0.148E+00 -.108E+01 -.523E+01   -.844E-04 0.639E-04 0.116E-03
   -.486E+01 0.367E+01 0.126E+04   0.651E+01 -.211E+01 -.125E+04   -.899E+00 -.510E+00 -.685E+01   -.266E-04 -.109E-03 0.158E-03
   -.213E+02 0.364E+02 0.146E+04   0.219E+02 -.360E+02 -.145E+04   0.944E-01 -.510E+00 -.497E+01   -.876E-05 0.315E-05 0.383E-04
   0.180E+02 -.188E+02 0.118E+04   -.181E+02 0.183E+02 -.118E+04   -.257E+00 0.110E+01 -.532E+01   -.525E-04 -.121E-03 -.116E-04
   0.808E+00 -.104E+03 0.127E+04   -.135E+01 0.103E+03 -.126E+04   0.722E+00 0.866E+00 -.626E+01   -.293E-04 0.132E-03 0.124E-04
   0.497E+02 0.532E+02 0.130E+04   -.485E+02 -.538E+02 -.129E+04   -.252E+00 -.465E+00 -.591E+01   0.575E-04 -.220E-04 0.950E-04
   -.462E+02 0.606E+02 0.122E+04   0.456E+02 -.599E+02 -.121E+04   0.472E+00 -.121E+01 -.573E+01   -.208E-04 -.768E-04 0.208E-04
   -.255E+01 0.178E+02 0.108E+04   0.281E+01 -.184E+02 -.107E+04   -.475E+00 -.165E+00 -.558E+01   -.493E-05 -.705E-04 -.840E-04
   0.214E+02 -.213E+02 0.117E+04   -.202E+02 0.206E+02 -.116E+04   -.738E+00 0.103E+00 -.572E+01   0.467E-04 0.138E-03 0.711E-04
   -.605E+02 0.428E+02 0.131E+04   0.589E+02 -.427E+02 -.130E+04   0.175E+01 -.558E+00 -.511E+01   -.449E-05 0.425E-04 0.132E-03
   0.207E+02 -.391E+02 0.129E+04   -.196E+02 0.395E+02 -.128E+04   -.431E+00 0.324E+00 -.668E+01   0.402E-04 -.855E-04 0.785E-04
   0.905E+02 0.696E+02 0.138E+04   -.888E+02 -.679E+02 -.138E+04   -.232E+01 -.145E+01 -.583E+01   0.498E-04 0.743E-05 -.750E-05
   -.166E+02 -.485E+02 -.114E+04   0.172E+02 0.484E+02 0.114E+04   -.155E+00 -.598E+00 0.632E+01   0.259E-04 0.192E-03 -.181E-03
   -.346E+01 0.290E+01 -.138E+04   0.354E+01 -.765E+00 0.138E+04   -.558E+00 -.151E+01 0.475E+01   0.194E-04 -.261E-04 -.184E-03
   -.110E+01 0.506E+02 -.126E+04   0.209E+01 -.503E+02 0.125E+04   -.548E+00 -.511E+00 0.546E+01   -.294E-04 -.169E-04 -.140E-03
   -.228E+02 0.327E+02 -.114E+04   0.208E+02 -.347E+02 0.114E+04   0.110E+01 0.132E+00 0.474E+01   0.893E-04 -.565E-04 -.121E-03
   0.237E+02 -.562E+02 -.118E+04   -.232E+02 0.576E+02 0.117E+04   0.964E-01 -.282E+00 0.401E+01   -.997E-04 0.538E-04 -.237E-04
   0.527E+02 -.221E+02 -.122E+04   -.527E+02 0.214E+02 0.122E+04   -.433E+00 0.472E+00 0.625E+01   -.838E-04 -.783E-04 -.152E-03
   0.199E+02 0.618E+02 -.113E+04   -.206E+02 -.614E+02 0.113E+04   -.355E+00 -.591E+00 0.575E+01   -.470E-04 -.741E-04 -.936E-04
   -.138E+02 0.572E+02 -.132E+04   0.148E+02 -.575E+02 0.131E+04   -.629E+00 0.108E-01 0.494E+01   -.675E-04 -.113E-03 -.233E-04
   -.448E+02 -.550E+02 -.134E+04   0.448E+02 0.551E+02 0.133E+04   0.573E+00 0.370E+00 0.553E+01   0.500E-04 0.126E-03 0.183E-04
   -.269E+02 0.392E+02 -.122E+04   0.262E+02 -.399E+02 0.121E+04   0.333E+00 -.347E-02 0.531E+01   0.338E-04 0.574E-04 -.143E-03
   0.669E+02 0.134E+02 -.125E+04   -.670E+02 -.124E+02 0.124E+04   -.400E+00 -.558E+00 0.662E+01   0.505E-04 -.590E-04 -.906E-04
   -.353E+02 0.790E+01 -.135E+04   0.352E+02 -.870E+01 0.134E+04   0.841E-01 0.304E+00 0.666E+01   0.344E-04 -.307E-04 0.867E-05
   -.227E+01 0.403E+02 -.130E+04   0.139E+01 -.400E+02 0.129E+04   0.970E+00 -.105E+01 0.521E+01   0.394E-04 0.101E-03 -.801E-04
   0.319E+02 -.438E+02 -.134E+04   -.314E+02 0.423E+02 0.134E+04   -.701E+00 0.109E+01 0.613E+01   0.362E-04 0.315E-04 -.152E-03
   -.417E+02 -.311E+01 -.130E+04   0.419E+02 0.377E+01 0.129E+04   -.245E+00 0.747E+00 0.428E+01   0.540E-04 -.131E-03 -.176E-03
   0.380E+02 -.231E+02 -.112E+04   -.376E+02 0.226E+02 0.111E+04   -.464E-01 0.554E+00 0.444E+01   -.590E-04 0.305E-04 -.847E-04
   -.508E+02 -.122E+02 -.160E+04   0.528E+02 0.109E+02 0.162E+04   -.126E+01 0.185E+01 -.184E+02   -.160E-04 0.103E-04 -.428E-04
   -.767E+01 -.253E+02 -.158E+04   0.911E+01 0.270E+02 0.160E+04   -.160E+01 -.170E+01 -.160E+02   -.163E-05 -.645E-05 -.327E-04
   -.222E+02 0.202E+02 -.157E+04   0.210E+02 -.179E+02 0.158E+04   0.167E+01 -.301E+01 -.162E+02   0.150E-04 0.311E-05 -.255E-04
   0.166E+02 -.480E+02 -.153E+04   -.186E+02 0.483E+02 0.154E+04   0.131E+01 0.564E+00 -.170E+02   -.172E-04 -.142E-04 -.342E-04
   0.592E+02 -.138E+02 -.158E+04   -.620E+02 0.138E+02 0.160E+04   0.258E+01 0.144E-01 -.180E+02   0.507E-05 0.217E-05 -.367E-04
   -.519E+02 -.276E+02 -.161E+04   0.562E+02 0.317E+02 0.163E+04   -.390E+01 -.425E+01 -.173E+02   -.175E-06 -.751E-05 -.429E-04
   -.297E+02 0.497E+02 -.153E+04   0.339E+02 -.531E+02 0.154E+04   -.421E+01 0.344E+01 -.155E+02   -.414E-05 0.111E-04 -.356E-04
   0.324E+02 0.551E+01 -.161E+04   -.340E+02 -.590E+01 0.163E+04   0.102E+01 0.751E+00 -.188E+02   -.114E-04 -.765E-05 -.230E-04
   0.571E+01 -.428E+02 -.157E+04   -.736E+01 0.451E+02 0.159E+04   0.181E+01 -.200E+01 -.167E+02   0.117E-04 -.403E-05 -.299E-04
   0.635E+02 -.266E+02 -.161E+04   -.651E+02 0.277E+02 0.163E+04   0.975E+00 -.678E+00 -.192E+02   0.295E-05 0.929E-05 -.180E-04
   -.161E+02 0.176E+02 -.160E+04   0.163E+02 -.173E+02 0.161E+04   0.244E+00 -.341E+00 -.169E+02   0.110E-04 0.137E-04 -.201E-04
   -.420E+02 0.302E+02 -.162E+04   0.434E+02 -.313E+02 0.164E+04   -.117E+01 0.542E+00 -.166E+02   0.125E-04 0.727E-05 -.709E-05
   0.141E+02 -.300E+01 -.162E+04   -.153E+02 0.206E+01 0.164E+04   0.113E+01 0.916E+00 -.166E+02   -.508E-05 -.554E-05 -.425E-04
   -.352E+02 0.469E+02 -.166E+04   0.354E+02 -.502E+02 0.168E+04   0.208E-02 0.262E+01 -.198E+02   0.105E-05 -.803E-06 -.269E-04
   0.435E+02 0.508E+01 -.153E+04   -.450E+02 -.343E+01 0.155E+04   0.856E+00 -.222E+01 -.166E+02   -.220E-04 0.203E-04 -.355E-04
   0.322E+02 -.163E+01 -.164E+04   -.320E+02 0.224E+01 0.166E+04   -.955E+00 -.372E+00 -.187E+02   0.134E-04 -.132E-04 -.266E-04
   0.149E+02 -.402E+02 0.164E+04   -.171E+02 0.418E+02 -.166E+04   0.258E+01 -.139E+01 0.182E+02   0.516E-05 0.562E-05 0.441E-04
   -.430E+02 0.107E+02 0.156E+04   0.434E+02 -.127E+02 -.158E+04   0.970E+00 0.154E+01 0.174E+02   0.618E-05 -.167E-04 0.431E-04
   0.334E+02 0.570E+01 0.146E+04   -.384E+02 -.659E+01 -.147E+04   0.472E+01 0.103E+01 0.126E+02   0.841E-05 0.132E-04 0.499E-04
   -.245E+02 0.275E+02 0.162E+04   0.265E+02 -.282E+02 -.164E+04   -.186E+01 0.504E+00 0.166E+02   0.287E-05 0.921E-05 0.418E-04
   0.239E+01 -.991E+01 0.159E+04   -.184E+01 0.637E+01 -.161E+04   -.107E+01 0.366E+01 0.176E+02   -.273E-05 0.107E-04 0.782E-05
   -.128E+02 -.371E+02 0.161E+04   0.132E+02 0.396E+02 -.163E+04   -.265E+00 -.236E+01 0.166E+02   -.948E-05 -.166E-04 0.412E-04
   -.231E+02 0.398E+02 0.155E+04   0.280E+02 -.425E+02 -.156E+04   -.520E+01 0.291E+01 0.139E+02   -.141E-05 0.172E-04 0.154E-04
   -.286E+02 -.293E+02 0.160E+04   0.336E+02 0.360E+02 -.161E+04   -.492E+01 -.682E+01 0.171E+02   0.169E-04 -.926E-05 0.199E-04
   -.109E+02 -.251E+02 0.159E+04   0.120E+02 0.238E+02 -.161E+04   -.933E+00 0.194E+01 0.182E+02   0.313E-05 -.193E-04 0.271E-04
   0.263E+02 0.704E+02 0.153E+04   -.309E+02 -.735E+02 -.154E+04   0.447E+01 0.221E+01 0.134E+02   0.426E-06 0.545E-05 0.508E-04
   0.232E+02 -.315E+02 0.165E+04   -.240E+02 0.331E+02 -.167E+04   0.707E+00 -.117E+01 0.187E+02   0.627E-06 -.379E-05 0.316E-04
   -.459E+02 -.208E+02 0.159E+04   0.455E+02 0.232E+02 -.160E+04   0.124E+01 -.206E+01 0.175E+02   -.233E-04 0.187E-04 0.568E-04
   0.448E+01 -.220E+02 0.157E+04   -.469E+01 0.248E+02 -.159E+04   0.580E+00 -.255E+01 0.158E+02   0.775E-05 -.193E-05 0.264E-04
   0.204E+02 -.126E+02 0.157E+04   -.189E+02 0.130E+02 -.159E+04   -.184E+01 0.103E+00 0.179E+02   0.135E-05 -.683E-05 0.353E-04
   -.738E+01 -.132E+02 0.164E+04   0.604E+01 0.155E+02 -.166E+04   0.139E+01 -.256E+01 0.190E+02   -.106E-04 -.152E-04 0.301E-04
   0.190E+02 0.606E+02 0.163E+04   -.164E+02 -.636E+02 -.164E+04   -.317E+01 0.236E+01 0.157E+02   -.959E-06 0.156E-04 0.416E-04
   0.726E+01 -.168E+02 0.517E+02   -.725E+01 0.165E+02 -.518E+02   0.803E+00 0.209E+01 0.164E+01   0.200E-05 -.262E-05 -.149E-08
   -.133E+02 -.250E+02 -.377E+02   0.133E+02 0.247E+02 0.376E+02   -.266E-01 0.153E+01 0.143E+00   0.122E-04 0.144E-04 -.154E-05
   -.176E+02 0.135E+02 -.366E+02   0.174E+02 -.136E+02 0.367E+02   0.193E+01 -.292E+00 -.622E+00   -.690E-05 -.873E-05 -.598E-05
   -.558E+01 0.190E+02 0.454E+02   0.525E+01 -.188E+02 -.456E+02   0.137E+01 -.119E+01 -.216E+00   -.184E-05 -.133E-05 -.216E-06
   -.175E+01 -.351E+02 0.138E+02   0.167E+01 0.351E+02 -.138E+02   0.631E+00 0.174E+01 -.125E+01   -.467E-05 0.932E-05 -.682E-05
   -.128E+02 -.194E+02 -.576E+01   0.131E+02 0.195E+02 0.577E+01   -.884E+00 -.162E+00 -.235E+00   -.568E-07 0.710E-05 -.449E-05
   0.140E+02 -.149E+02 -.293E+02   -.134E+02 0.147E+02 0.297E+02   -.197E+01 0.824E-01 -.843E+00   -.211E-05 -.129E-04 -.166E-07
   -.192E+02 0.436E+02 0.125E+02   0.190E+02 -.435E+02 -.124E+02   0.633E+00 -.123E+01 0.867E-02   -.412E-05 -.885E-05 -.104E-05
   0.233E+02 -.913E+01 -.744E+01   -.231E+02 0.905E+01 0.745E+01   -.245E+01 0.624E+00 0.372E+00   0.751E-05 -.283E-05 -.761E-05
   0.405E+01 0.126E+02 0.436E+02   -.368E+01 -.121E+02 -.438E+02   -.118E+01 -.209E+01 0.497E+00   -.690E-05 0.547E-05 -.596E-05
   0.133E+02 0.523E+01 0.233E+02   -.135E+02 -.536E+01 -.235E+02   0.395E+00 0.568E+00 0.102E+01   -.881E-05 -.112E-04 -.937E-06
   0.178E+02 0.152E+02 -.303E+02   -.177E+02 -.150E+02 0.308E+02   0.202E+00 -.334E+00 -.129E+01   -.878E-05 -.495E-05 -.124E-04
   -.198E+02 0.938E+00 -.353E+02   0.199E+02 -.771E+00 0.354E+02   -.828E+00 -.733E+00 -.217E+00   0.607E-05 0.572E-05 -.105E-05
   0.187E+01 -.295E+02 -.396E+02   -.190E+01 0.292E+02 0.399E+02   0.183E+00 0.115E+01 -.138E+01   0.546E-05 0.196E-04 -.198E-05
   -.278E+01 0.181E+02 0.182E+02   0.278E+01 -.181E+02 -.184E+02   -.223E+00 0.961E-01 0.721E+00   0.121E-04 -.108E-04 -.466E-05
   -.216E+00 -.321E+01 0.127E+01   0.366E-01 0.325E+01 -.971E+00   0.984E+00 -.540E+00 -.106E+01   0.116E-04 0.326E-05 0.815E-05
 -----------------------------------------------------------------------------------------------
   0.665E+01 0.804E+01 0.192E+02   0.431E-12 0.888E-13 0.230E-11   -.664E+01 -.805E+01 -.192E+02   0.884E-04 -.204E-04 -.539E-03
 
 
 POSITION                                       TOTAL-FORCE (eV/Angst)
 -----------------------------------------------------------------------------------
     -0.01045      1.87420     12.17099        -0.748735     -0.174832     -0.426780
     -1.71498      4.74395     12.27057         0.186099     -0.357111      0.933819
     -3.42807      7.62667     12.16683         0.047544      0.632142      0.113876
     -4.83297     10.52456     12.02353        -0.825361     -1.509730     -0.569619
      3.38998      1.78909     11.97551        -0.131683      1.171568      0.656873
      1.52176      4.57137     12.13084         0.758650      1.055478      0.025069
     -0.03558      7.57139     11.85447         0.683018     -0.023872      2.449617
     -1.48348     10.33286     12.21749        -0.365598      0.584170     -1.171178
      6.61885      1.82777     12.12518         0.176726      0.722240      0.785655
      4.80569      4.84076     12.09337         0.994580     -1.038439     -0.746544
      3.22927      7.64557     12.16755        -0.132842     -0.527899     -0.212393
      1.77551     10.49986     12.31992        -0.218131     -0.778377     -0.905977
      9.80715      1.95348     12.21043         0.438171     -0.645416      0.405742
      8.16369      4.84385     12.03662         0.174663     -0.363885      1.214645
      6.47802      7.54389     12.13675         0.640528      0.773975     -0.506818
      5.02124     10.42401     12.01533        -0.698120      0.250632      0.488152
      1.60887      0.93625     14.52029         0.461294     -0.693721      1.396140
      0.09658      3.74240     14.86261        -0.471969      0.622009     -0.598243
     -1.70807      6.71348     14.71990         0.438734     -0.213956     -0.131650
     -3.22018      9.59076     14.58496        -0.896679     -1.843043      1.070997
      4.91853      0.85310     14.66814         0.586256      1.094396      0.456860
      3.41280      3.75010     14.64885        -0.410071     -0.299964      0.181552
      1.72691      6.63409     14.54485        -1.058317     -0.192926      1.583892
      0.05869      9.44152     14.79319         0.380947     -0.200578     -0.723249
      8.16243      0.95399     14.78717         0.628473      0.464748      0.223737
      6.61750      3.84563     14.71737        -0.389866     -0.739096     -0.429513
      4.95076      6.60756     14.64169        -0.496013      0.501757      0.476087
      3.32798      9.53283     14.73910        -0.007724     -0.494525      0.503340
     11.46061      0.98974     14.76157         0.082791     -0.674064      0.166763
      9.87476      3.81157     14.79907        -0.176393     -0.443545     -0.239735
      8.15360      6.59417     14.80013        -0.051692      1.406635     -0.593521
      6.55917      9.50310     14.58673         0.333104      0.023396      0.430007
     -0.03115      1.67209     15.93131         0.692504      0.499163     -0.504913
     -1.60154      4.74627     15.94584        -0.160219      0.025602     -0.409248
     -3.41231      7.80391     15.84682         0.441328     -0.744309     -0.294372
     -4.82589     10.26483     15.68256        -0.669670      0.877964      0.324113
      3.45208      1.85131     15.89871        -0.290626      0.064432     -0.844894
      1.58192      4.66514     16.02004         0.383494     -0.098422     -0.787447
     -0.05517      7.54483     15.75847        -0.035033      0.004941      0.269606
     -1.50751     10.37722     15.88966        -0.582312      0.360970     -0.330285
      6.46981      1.79814     15.86433         0.160160      0.245684     -0.191678
      5.10012      4.63920     15.94612        -0.716982      0.434758     -0.654924
      3.16311      7.55500     15.92047         0.519660     -0.096163     -0.605421
      1.57218     10.52164     15.91745         0.238351     -0.476112      0.150617
      9.89357      1.94046     15.97769        -0.053532     -0.024683     -0.259073
      8.00555      4.98184     16.09158         0.269432     -0.623900     -0.676692
      6.61033      7.72222     15.72682        -0.572311     -0.574473      0.415148
      5.20691     10.34796     16.04527        -0.754107      0.234828     -1.066046
      1.60094      0.99919     10.79757         0.357233      0.128443      0.731539
     -0.42727      3.79794     11.04546         1.420963     -0.485414     -0.432727
     -1.69829      6.55872     11.22057        -0.292678      0.134961     -1.228227
     -3.21863      9.59037     10.84940         0.117545     -0.229258      0.695762
      5.12551      0.87301     10.94832        -0.520890      0.127678      0.209422
      3.10264      3.60431     10.81768         0.185317      0.221520      0.584904
      1.63034      6.53004     10.99880        -0.308779      0.203793     -0.199734
     -0.02115      9.42903     10.94611         0.049130     -0.085355      0.015306
      8.21813      0.82599     10.99937         0.182398      0.618475      0.234149
      6.58035      4.03998     11.06384        -0.122802     -0.929230     -0.849360
      4.92013      6.55933     10.76357        -0.095624      0.411789      0.991934
      2.88457      9.29846     11.01159         0.848342      0.374459     -0.636008
     11.29872      0.89025     11.00101         0.367639      0.297837     -0.093948
      9.87217      3.71580     10.97815        -0.359286      0.458104      0.459039
      8.19705      6.68708     10.82545         0.047779     -0.219479      0.822779
      6.66285      9.69852     10.85486        -0.541148     -0.588564     -0.084784
      6.52687     11.25979     13.18815         0.818184      1.875661      1.489854
     11.47797      2.74706     13.51896        -0.067547      1.268791      0.030866
      9.64483      5.73365     13.52999         1.691546     -0.352446     -0.527994
      8.08941      8.65266     13.28506         1.040049     -1.030962     -0.427663
     -3.25056     11.30958     13.42091         0.551440      1.741841     -1.261830
      1.71776      2.76487     13.41275        -0.642057     -0.073954     -0.216474
      0.08739      5.59383     13.46691        -1.449026     -0.068228     -0.490052
     -1.66124      8.58071     13.38144         0.378878     -1.171997      0.065875
      0.18784     11.32696     13.43387        -2.241028      0.545259      0.380415
      5.02325      2.97034     13.31279        -0.804752     -1.576815      0.263152
      3.24645      5.59960     13.32466         0.191758      0.445793      0.819659
      1.64399      8.54799     13.52738         0.301377     -0.133730     -0.836327
      9.93609      0.04774     13.52387        -0.647147     -0.566647     -0.145559
      8.21095      2.79271     13.57362         0.155285      0.843166     -1.019255
      6.55029      5.73098     13.35869        -0.219878      0.111487      0.571045
      4.81106      8.53740     13.42832         0.805256     -0.495422     -0.757849
 -----------------------------------------------------------------------------------
    total drift:                                0.009378     -0.013039      0.012332


--------------------------------------------------------------------------------------------------------



  FREE ENERGIE OF THE ION-ELECTRON SYSTEM (eV)
  ---------------------------------------------------
  free  energy   TOTEN  =      -593.99836837 eV

  energy  without entropy=     -593.99836837  energy(sigma->0) =     -593.99836837
 


--------------------------------------------------------------------------------------------------------


    POTLOK:  cpu time    0.7823: real time    0.7843


--------------------------------------------------------------------------------------------------------


     LOOP+:  cpu time 1845.9597: real time 1846.4232
    4ORBIT:  cpu time    0.0000: real time    0.0000

 total amount of memory used by VASP MPI-rank0   234703. kBytes
=======================================================================

   base      :      30000. kBytes
   nonlr-proj:      19435. kBytes
   fftplans  :      66973. kBytes
   grid      :      38377. kBytes
   one-center:        108. kBytes
   wavefun   :      79810. kBytes
 
  
  
 General timing and accounting informations for this job:
 ========================================================
  
                  Total CPU time used (sec):     1877.698
                            User time (sec):     1871.129
                          System time (sec):        6.569
                         Elapsed time (sec):     1878.489
  
                   Maximum memory used (kb):      436000.
                   Average memory used (kb):           0.
  
                          Minor page faults:       173869
                          Major page faults:            0
                 Voluntary context switches:         2294
