 vasp.5.4.4.18Apr17-6-g9f103f2a35 (build Oct 31 2019 15:01:46) complex          
  
 executed on             LinuxIFC date 2024.04.29  17:50:08
 running on   52 total cores
 distrk:  each k-point on   52 cores,    1 groups
 distr:  one band on NCORES_PER_BAND=  13 cores,    4 groups


--------------------------------------------------------------------------------------------------------


 INCAR:
 POTCAR:    PAW_PBE Ca_sv 06Sep2000               
 POTCAR:    PAW_PBE Si 05Jan2001                  
 POTCAR:    PAW_PBE O 08Apr2002                   
 POTCAR:    PAW_PBE Ca_sv 06Sep2000               
   SHA256 =  a47365830e737f14e0e6c5cf1ed81b94e081eecf0a33df105380881bc9da05d5 Ca
   COPYR  = (c) Copyright 06Sep2000 Georg Kresse                                
   COPYR  = This file is part of the software VASP. Any use, copying, and all ot
   COPYR  = If you do not have a valid VASP license, you may not use, copy or di
   VRHFIN =Ca: 3s3p4s                                                           
   LEXCH  = PE                                                                  
   EATOM  =  1006.0909 eV,   73.9456 Ry                                         
                                                                                
   TITEL  = PAW_PBE Ca_sv 06Sep2000                                             
   LULTRA =        F    use ultrasoft PP ?                                      
   IUNSCR =        1    unscreen: 0-lin 1-nonlin 2-no                           
   RPACOR =    2.000    partial core radius                                     
   POMASS =   40.078; ZVAL   =   10.000    mass and valenz                      
   RCORE  =    2.300    outmost cutoff radius                                   
   RWIGS  =    2.500; RWIGS  =    1.323    wigner-seitz radius (au A)           
   ENMAX  =  266.622; ENMIN  =  199.967 eV                                      
   RCLOC  =    1.808    cutoff for local pot                                    
   LCOR   =        T    correct aug charges                                     
   LPAW   =        T    paw PP                                                  
   EAUG   =  420.852                                                            
   RMAX   =    2.359    core radius for proj-oper                               
   RAUG   =    1.300    factor for augmentation sphere                          
   RDEP   =    2.392    radius for radial grids                                 
   RDEPT  =    1.987    core radius for aug-charge                              
                                                                                
   Atomic configuration                                                         
    7 entries                                                                   
     n  l   j            E        occ.                                          
     1  0  0.50     -3949.1705   2.0000                                         
     2  0  0.50      -414.3434   2.0000                                         
     2  1  1.50      -334.7047   6.0000                                         
     3  0  0.50       -47.0896   2.0000                                         
     4  0  0.50        -3.7663   2.0000                                         
     3  1  1.50       -28.0061   6.0000                                         
     3  2  1.50        -4.0817   0.0000                                         
   Description                                                                  
     l       E           TYP  RCUT    TYP  RCUT                                 
     0    -47.0896403     23  2.300                                             
     0     -3.7663320     23  2.300                                             
     1    -28.0060855     23  2.300                                             
     1      6.8029130     23  2.300                                             
     2     -4.0817478     23  2.300                                             
     2      0.4464412     23  2.300                                             
  local pseudopotential read in
  partial core-charges read in
  partial kinetic energy density read in
  atomic valenz-charges read in
  non local Contribution for L=           0  read in
    real space projection operators read in
  non local Contribution for L=           0  read in
    real space projection operators read in
  non local Contribution for L=           1  read in
    real space projection operators read in
  non local Contribution for L=           1  read in
    real space projection operators read in
  non local Contribution for L=           2  read in
    real space projection operators read in
  non local Contribution for L=           2  read in
    real space projection operators read in
    PAW grid and wavefunctions read in
 
   number of l-projection  operators is LMAX  =           6
   number of lm-projection operators is LMMAX =          18
 
 POTCAR:    PAW_PBE Si 05Jan2001                  
   SHA256 =  79d9987ad8750f624c4d6acb2a16d13abf6a777132adc04dc6c8399be72b42bb Si
   COPYR  = (c) Copyright 05Jan2001 Georg Kresse                                
   COPYR  = This file is part of the software VASP. Any use, copying, and all ot
   COPYR  = If you do not have a valid VASP license, you may not use, copy or di
   VRHFIN =Si: s2p2                                                             
   LEXCH  = PE                                                                  
   EATOM  =   103.0669 eV,    7.5752 Ry                                         
                                                                                
   TITEL  = PAW_PBE Si 05Jan2001                                                
   LULTRA =        F    use ultrasoft PP ?                                      
   IUNSCR =        1    unscreen: 0-lin 1-nonlin 2-no                           
   RPACOR =    1.500    partial core radius                                     
   POMASS =   28.085; ZVAL   =    4.000    mass and valenz                      
   RCORE  =    1.900    outmost cutoff radius                                   
   RWIGS  =    2.480; RWIGS  =    1.312    wigner-seitz radius (au A)           
   ENMAX  =  245.345; ENMIN  =  184.009 eV                                      
   ICORE  =        2    local potential                                         
   LCOR   =        T    correct aug charges                                     
   LPAW   =        T    paw PP                                                  
   EAUG   =  322.069                                                            
   DEXC   =    0.000                                                            
   RMAX   =    1.950    core radius for proj-oper                               
   RAUG   =    1.300    factor for augmentation sphere                          
   RDEP   =    1.993    radius for radial grids                                 
   RDEPT  =    1.837    core radius for aug-charge                              
                                                                                
   Atomic configuration                                                         
    6 entries                                                                   
     n  l   j            E        occ.                                          
     1  0  0.50     -1785.8828   2.0000                                         
     2  0  0.50      -139.4969   2.0000                                         
     2  1  1.50       -95.5546   6.0000                                         
     3  0  0.50       -10.8127   2.0000                                         
     3  1  0.50        -4.0811   2.0000                                         
     3  2  1.50        -4.0817   0.0000                                         
   Description                                                                  
     l       E           TYP  RCUT    TYP  RCUT                                 
     0    -10.8127223     23  1.900                                             
     0     -7.6451159     23  1.900                                             
     1     -4.0811372     23  1.900                                             
     1      2.4879257     23  1.900                                             
     2     -4.0817478      7  1.900                                             
  local pseudopotential read in
  partial core-charges read in
  partial kinetic energy density read in
  atomic valenz-charges read in
  non local Contribution for L=           0  read in
    real space projection operators read in
  non local Contribution for L=           0  read in
    real space projection operators read in
  non local Contribution for L=           1  read in
    real space projection operators read in
  non local Contribution for L=           1  read in
    real space projection operators read in
    PAW grid and wavefunctions read in
 
   number of l-projection  operators is LMAX  =           4
   number of lm-projection operators is LMMAX =           8
 
 POTCAR:    PAW_PBE O 08Apr2002                   
   SHA256 =  818f92134a0a090dccd8ba1447fa70422a3b330e708bb4f08108d8ae51209ddf O/
   COPYR  = (c) Copyright 08Apr2002 Georg Kresse                                
   COPYR  = This file is part of the software VASP. Any use, copying, and all ot
   COPYR  = If you do not have a valid VASP license, you may not use, copy or di
   VRHFIN =O: s2p4                                                              
   LEXCH  = PE                                                                  
   EATOM  =   432.3788 eV,   31.7789 Ry                                         
                                                                                
   TITEL  = PAW_PBE O 08Apr2002                                                 
   LULTRA =        F    use ultrasoft PP ?                                      
   IUNSCR =        1    unscreen: 0-lin 1-nonlin 2-no                           
   RPACOR =    1.200    partial core radius                                     
   POMASS =   16.000; ZVAL   =    6.000    mass and valenz                      
   RCORE  =    1.520    outmost cutoff radius                                   
   RWIGS  =    1.550; RWIGS  =    0.820    wigner-seitz radius (au A)           
   ENMAX  =  400.000; ENMIN  =  300.000 eV                                      
   ICORE  =        2    local potential                                         
   LCOR   =        T    correct aug charges                                     
   LPAW   =        T    paw PP                                                  
   EAUG   =  605.392                                                            
   DEXC   =    0.000                                                            
   RMAX   =    1.553    core radius for proj-oper                               
   RAUG   =    1.300    factor for augmentation sphere                          
   RDEP   =    1.550    radius for radial grids                                 
   RDEPT  =    1.329    core radius for aug-charge                              
                                                                                
   Atomic configuration                                                         
    4 entries                                                                   
     n  l   j            E        occ.                                          
     1  0  0.50      -514.6923   2.0000                                         
     2  0  0.50       -23.9615   2.0000                                         
     2  1  0.50        -9.0305   4.0000                                         
     3  2  1.50        -9.5241   0.0000                                         
   Description                                                                  
     l       E           TYP  RCUT    TYP  RCUT                                 
     0    -23.9615318     23  1.200                                             
     0     -9.5240782     23  1.200                                             
     1     -9.0304911     23  1.520                                             
     1      8.1634956     23  1.520                                             
     2     -9.5240782      7  1.500                                             
  local pseudopotential read in
  partial core-charges read in
  partial kinetic energy density read in
  kinetic energy density of atom read in
  atomic valenz-charges read in
  non local Contribution for L=           0  read in
    real space projection operators read in
  non local Contribution for L=           0  read in
    real space projection operators read in
  non local Contribution for L=           1  read in
    real space projection operators read in
  non local Contribution for L=           1  read in
    real space projection operators read in
    PAW grid and wavefunctions read in
 
   number of l-projection  operators is LMAX  =           4
   number of lm-projection operators is LMMAX =           8
 
 Optimization of the real space projectors (new method)

 maximal supplied QI-value         = 16.25
 optimisation between [QCUT,QGAM] = [ 12.51, 25.03] = [ 43.85,175.40] Ry 
 Optimized for a Real-space Cutoff    1.47 Angstroem

   l    n(q)    QCUT    max X(q) W(low)/X(q) W(high)/X(q)  e(spline) 
   0     11    12.514    11.817    0.25E-04    0.32E-05    0.87E-07
   0     11    12.514     8.461    0.39E-04    0.59E-05    0.18E-06
   1     11    12.514     3.957    0.97E-05    0.57E-05    0.28E-07
   1     11    12.514     4.314    0.42E-04    0.14E-04    0.23E-06
   2     10    12.514    14.565    0.79E-04    0.50E-03    0.16E-05
   2     10    12.514    14.552    0.75E-04    0.48E-03    0.15E-05
 Optimization of the real space projectors (new method)

 maximal supplied QI-value         = 19.84
 optimisation between [QCUT,QGAM] = [ 12.50, 25.00] = [ 43.76,175.03] Ry 
 Optimized for a Real-space Cutoff    1.16 Angstroem

   l    n(q)    QCUT    max X(q) W(low)/X(q) W(high)/X(q)  e(spline) 
   0      9    12.501   159.560    0.10E-03    0.83E-04    0.71E-07
   0      9    12.501   115.863    0.99E-04    0.81E-04    0.70E-07
   1      8    12.501    88.339    0.20E-03    0.25E-03    0.76E-07
   1      8    12.501    48.592    0.20E-03    0.24E-03    0.75E-07
 Optimization of the real space projectors (new method)

 maximal supplied QI-value         = 24.76
 optimisation between [QCUT,QGAM] = [ 12.38, 25.00] = [ 42.90,175.06] Ry 
 Optimized for a Real-space Cutoff    1.16 Angstroem

   l    n(q)    QCUT    max X(q) W(low)/X(q) W(high)/X(q)  e(spline) 
   0      9    12.378    20.381    0.16E-03    0.67E-05    0.31E-06
   0      9    12.378    15.268    0.17E-03    0.81E-05    0.33E-06
   1      8    12.378     5.964    0.20E-03    0.16E-03    0.30E-06
   1      8    12.378     5.382    0.18E-03    0.14E-03    0.26E-06
  PAW_PBE Ca_sv 06Sep2000               :
 energy of atom  1       EATOM=-1006.0909
 kinetic energy error for atom=    0.0012 (will be added to EATOM!!)
  PAW_PBE Si 05Jan2001                  :
 energy of atom  2       EATOM= -103.0669
 kinetic energy error for atom=    0.0003 (will be added to EATOM!!)
  PAW_PBE O 08Apr2002                   :
 energy of atom  3       EATOM= -432.3788
 kinetic energy error for atom=    0.0168 (will be added to EATOM!!)
 
 
 POSCAR: Ca Si  O                                
  positions in direct lattice
  No initial velocities read in
 exchange correlation table for  LEXCH =        8
   RHO(1)=    0.500       N(1)  =     2000
   RHO(2)=  100.500       N(2)  =     4000
 


--------------------------------------------------------------------------------------------------------


 ion  position               nearest neighbor table
   1  0.469  0.999  0.736- 117 2.22 107 2.33 125 2.34  52 3.02
   2  0.201  0.781  0.915- 127 1.97 124 2.48  31 3.06
   3  0.078  0.223  0.504-  57 2.03 128 2.23 114 2.30  75 2.43
   4  0.789  0.364  0.964-  93 1.96  92 2.19  84 2.36
   5  0.992  0.144  0.954-  78 2.06  84 2.23  90 2.41  64 2.41  46 2.76  33 3.09
   6  0.066  0.468  0.293- 133 2.24
   7  0.663  0.160  0.569-  73 2.02 100 2.21  60 2.45  58 2.51 121 2.53  38 2.68  23 2.93  41 3.05
                            37 3.06
   8  0.919  0.815  0.064-  66 2.13  59 2.35  83 2.45  34 2.87  42 3.05  18 3.13
   9  0.338  0.298  0.346- 126 2.33 108 2.42  57 2.44  80 2.52
  10  0.531  0.272  0.939- 122 2.36 115 2.46
  11  0.241  0.262  0.018-  64 2.24 130 2.54  65 2.55  54 2.95  30 3.06
  12  0.914  0.479  0.747-  74 2.17  61 2.45  93 2.48  39 2.79
  13  0.681  0.692  0.666- 116 2.00 111 2.23 103 2.44 123 2.57
  14  0.963  0.716  0.456-  96 1.82 134 2.17  35 2.80
  15  0.578  0.015  0.072-  82 2.08  85 2.12  91 2.43  31 3.05
  16  0.811  0.460  0.272- 133 2.13  55 2.21 101 2.36  89 2.51  45 2.79  48 2.99
  17  0.057  0.086  0.221-  64 2.12  67 2.29 128 2.33 132 2.40 120 2.44  29 2.61  50 2.64
  18  0.935  0.577  0.024-  70 2.13  93 2.26  83 2.28  59 2.28  89 2.33  43 2.95   8 3.13
  19  0.439  0.838  0.525- 123 2.19 104 2.20  99 2.25  47 2.92
  20  0.164  0.831  0.191- 131 2.05 132 2.21 102 2.35  50 2.97
  21  0.814  0.937  0.286-  77 2.20  67 2.23  79 2.25  94 2.54  66 2.55  42 2.72  44 2.89
  22  0.364  0.603  0.244- 102 1.99 126 2.24  86 2.34  54 2.73
  23  0.539  0.059  0.408-  94 1.95 121 2.19 100 2.24  72 2.43   7 2.93
  24  0.174  0.594  0.084-  59 2.02  54 2.65
  25  0.350  0.278  0.722- 125 2.15 110 2.39  71 2.50  30 3.11  52 3.14
  26  0.367  0.533  0.834-  71 1.88 127 2.14  62 2.45  27 3.15
  27  0.344  0.500  0.594- 105 2.11  80 2.12  62 2.25  26 3.15
  28  0.547  0.826  0.265- 104 1.63  82 2.05  44 3.11
  29  0.244  0.069  0.293- 108 1.62  76 1.64 132 1.84 128 1.90  53 2.40  17 2.61  50 3.03
  30  0.149  0.362  0.824-  81 1.46  63 1.58 110 1.72  61 2.21  46 2.80  11 3.06  25 3.11
  31  0.397  0.902  0.973- 107 1.56 124 1.76 106 2.15 117 2.46  53 3.05  15 3.05   2 3.06  36 3.09

  32  0.883  0.979  0.613-  87 1.44  73 1.85 135 1.92  38 2.67
  33  0.814  0.124  0.113-  79 1.61  85 1.74  90 1.79  84 1.95 101 2.51  51 2.66  48 2.84   5 3.09

  34  0.896  0.810  0.844-  68 1.55  83 1.59 103 1.59   8 2.87
  35  0.178  0.690  0.446- 109 1.65  96 1.73 105 1.74 134 1.78 102 2.50  40 2.73  14 2.80
  36  0.586  0.802  0.865-  91 1.53 111 1.54 106 1.59 119 1.81  31 3.09  43 3.10
  37  0.507  0.331  0.520-  80 1.57  60 1.66 121 1.68  98 2.02  49 2.80   7 3.06
  38  0.842  0.173  0.673-  73 1.48  97 1.49  58 1.74 114 1.79  32 2.67  46 2.68   7 2.68
  39  0.959  0.469  0.536-  74 1.50  75 1.68 133 1.93  12 2.79
  40  0.167  0.875  0.545-  99 1.70 129 1.72 134 1.74 109 1.97  95 2.43  35 2.73  50 2.84
  41  0.663  0.324  0.738-  92 1.71 115 1.72  60 1.83  58 1.96   7 3.05
  42  0.806  0.729  0.253-  66 1.48  77 1.52  55 1.70  21 2.72   8 3.05
  43  0.721  0.630  0.963- 113 1.49 119 1.49  70 2.17  93 2.19  45 2.79  18 2.95  36 3.10
  44  0.696  0.845  0.452- 123 1.59 135 1.72  94 1.76  77 1.82  21 2.89  28 3.11
  45  0.658  0.502  0.126- 118 1.60 112 1.72 113 1.77  70 1.80  43 2.79  16 2.79
  46  0.032  0.196  0.751- 114 1.57  78 1.57  81 1.95  97 2.15  61 2.19  38 2.68   5 2.76  30 2.80

  47  0.341  0.762  0.714-  62 1.54 117 1.69  95 1.73 127 2.14  19 2.92
  48  0.936  0.300  0.162-  84 1.72 120 1.72  89 1.79 101 1.87  33 2.84  16 2.99
  49  0.630  0.508  0.498-  56 1.49  98 1.74 116 1.80  37 2.80
  50  0.061  0.941  0.364- 131 1.60  67 1.75 129 1.86  76 2.15  17 2.64  40 2.84  20 2.97  29 3.03

  51  0.692  0.188  0.266-  69 1.45 100 1.76  79 1.96 101 2.01  33 2.66
  52  0.309  0.081  0.587-  72 1.48 125 1.55  99 2.12   1 3.02  25 3.14
  53  0.343  0.063  0.136-  65 1.56  88 1.70 108 1.81 132 1.98  29 2.40  31 3.05
  54  0.328  0.459  0.093- 122 1.73  86 1.82 130 1.86 126 1.92  24 2.65  22 2.73  11 2.95
  55  0.869  0.620  0.288-  42 1.70  16 2.21
  56  0.741  0.508  0.471-  49 1.49
  57  0.232  0.253  0.496-   3 2.03   9 2.44
  58  0.782  0.290  0.650-  38 1.74  41 1.96   7 2.51
  59  0.056  0.696  0.072-  24 2.02  18 2.28   8 2.35
  60  0.573  0.315  0.629-  37 1.66  41 1.83   7 2.45
  61  0.983  0.330  0.842-  46 2.19  30 2.21  12 2.45
  62  0.356  0.648  0.683-  47 1.54  27 2.25  26 2.45
  63  0.148  0.417  0.934-  30 1.58
  64  0.114  0.171  0.093-  17 2.12  11 2.24   5 2.41
  65  0.379  0.122  0.037-  53 1.56  11 2.55
  66  0.786  0.790  0.158-  42 1.48   8 2.13  21 2.55
  67  0.952  0.019  0.347-  50 1.75  21 2.23  17 2.29
  68  0.934  0.924  0.835-  34 1.55
  69  0.596  0.149  0.224-  51 1.45
  70  0.787  0.533  0.083-  45 1.80  18 2.13  43 2.17
  71  0.454  0.432  0.777-  26 1.88  25 2.50
  72  0.372  0.058  0.495-  52 1.48  23 2.43
  73  0.802  0.096  0.597-  38 1.48  32 1.85   7 2.02
  74  0.887  0.540  0.593-  39 1.50  12 2.17
  75  0.021  0.374  0.601-  39 1.68   3 2.43
  76  0.226  0.960  0.354-  29 1.64  50 2.15
  77  0.742  0.789  0.332-  42 1.52  44 1.82  21 2.20
  78  0.047  0.093  0.813-  46 1.57   5 2.06
  79  0.814  0.103  0.236-  33 1.61  51 1.96  21 2.25
  80  0.389  0.358  0.524-  37 1.57  27 2.12   9 2.52
  81  0.162  0.252  0.805-  30 1.46  46 1.95
  82  0.645  0.915  0.178-  28 2.05  15 2.08
  83  0.925  0.709  0.908-  34 1.59  18 2.28   8 2.45
  84  0.889  0.240  0.053-  48 1.72  33 1.95   5 2.23   4 2.36
  85  0.705  0.113  0.035-  33 1.74  15 2.12
  86  0.377  0.588  0.064-  54 1.82  22 2.34
  87  0.963  0.919  0.662-  32 1.44
  88  0.424  0.981  0.200-  53 1.70
  89  0.945  0.436  0.134-  48 1.79  18 2.33  16 2.51
  90  0.911  0.030  0.077-  33 1.79   5 2.41
  91  0.619  0.887  0.940-  36 1.53  15 2.43
  92  0.706  0.414  0.825-  41 1.71   4 2.19
  93  0.822  0.504  0.913-   4 1.96  43 2.19  18 2.26  12 2.48
  94  0.651  0.959  0.393-  44 1.76  23 1.95  21 2.54
  95  0.209  0.783  0.704-  47 1.73  40 2.43
  96  0.064  0.634  0.403-  35 1.73  14 1.82
  97  0.869  0.184  0.784-  38 1.49  46 2.15
  98  0.537  0.448  0.421-  49 1.74  37 2.02
  99  0.290  0.921  0.555-  40 1.70  52 2.12  19 2.25
 100  0.677  0.163  0.399-  51 1.76   7 2.21  23 2.24
 101  0.806  0.285  0.222-  48 1.87  51 2.01  16 2.36  33 2.51
 102  0.230  0.677  0.260-  22 1.99  20 2.35  35 2.50
 103  0.821  0.789  0.749-  34 1.59  13 2.44
 104  0.462  0.817  0.357-  28 1.63  19 2.20
 105  0.273  0.625  0.517-  35 1.74  27 2.11
 106  0.469  0.774  0.895-  36 1.59  31 2.15
 107  0.450  0.993  0.915-  31 1.56   1 2.33
 108  0.297  0.161  0.225-  29 1.62  53 1.81   9 2.42
 109  0.238  0.801  0.433-  35 1.65  40 1.97
 110  0.216  0.407  0.719-  30 1.72  25 2.39
 111  0.609  0.824  0.751-  36 1.54  13 2.23
 112  0.604  0.516  0.246-  45 1.72
 113  0.636  0.565  0.006-  43 1.49  45 1.77
 114  0.978  0.178  0.644-  46 1.57  38 1.79   3 2.30
 115  0.620  0.207  0.785-  41 1.72  10 2.46
 116  0.582  0.608  0.583-  49 1.80  13 2.00
 117  0.377  0.864  0.787-  47 1.69   1 2.22  31 2.46
 118  0.615  0.401  0.069-  45 1.60
 119  0.642  0.677  0.894-  43 1.49  36 1.81
 120  0.037  0.272  0.244-  48 1.72  17 2.44
 121  0.502  0.211  0.471-  37 1.68  23 2.19   7 2.53
 122  0.421  0.386  0.030-  54 1.73  10 2.36
 123  0.603  0.795  0.515-  44 1.59  19 2.19  13 2.57
 124  0.269  0.942  0.995-  31 1.76   2 2.48
 125  0.334  0.115  0.699-  52 1.55  25 2.15   1 2.34
 126  0.377  0.430  0.230-  54 1.92  22 2.24   9 2.33
 127  0.301  0.683  0.854-   2 1.97  26 2.14  47 2.14
 128  0.146  0.153  0.362-  29 1.90   3 2.23  17 2.33
 129  0.075  0.963  0.506-  40 1.72  50 1.86
 130  0.205  0.406  0.146-  54 1.86  11 2.54
 131  0.058  0.830  0.309-  50 1.60  20 2.05
 132  0.212  0.994  0.176-  29 1.84  53 1.98  20 2.21  17 2.40
 133  0.924  0.454  0.392-  39 1.93  16 2.13   6 2.24
 134  0.103  0.756  0.540-  40 1.74  35 1.78  14 2.17
 135  0.789  0.902  0.529-  44 1.72  32 1.92
 

IMPORTANT INFORMATION: All symmetrisations will be switched off!
NOSYMM: (Re-)initialisation of all symmetry stuff for point group C_1.

 
 

Automatic generation of k-mesh.
 generate k-points for:    2    2    2
Space group operators:
 irot       det(A)        alpha          n_x          n_y          n_z        tau_x        tau_y        tau_z
    1     1.000000     0.000000     1.000000     0.000000     0.000000     0.000000     0.000000     0.000000
 
 Subroutine IBZKPT returns following result:
 ===========================================
 
 Found      8 irreducible k-points:
 
 Following reciprocal coordinates:
            Coordinates               Weight
  0.000000  0.000000  0.000000      1.000000
  0.500000  0.000000  0.000000      1.000000
  0.000000  0.500000  0.000000      1.000000
  0.500000  0.500000  0.000000      1.000000
  0.000000  0.000000  0.500000      1.000000
  0.500000  0.000000  0.500000      1.000000
  0.000000  0.500000  0.500000      1.000000
  0.500000  0.500000  0.500000      1.000000
 
 Following cartesian coordinates:
            Coordinates               Weight
  0.000000  0.000000  0.000000      1.000000
  0.038669  0.000000  0.000000      1.000000
  0.000000  0.038669  0.000000      1.000000
  0.038669  0.038669  0.000000      1.000000
  0.000000  0.000000  0.038669      1.000000
  0.038669  0.000000  0.038669      1.000000
  0.000000  0.038669  0.038669      1.000000
  0.038669  0.038669  0.038669      1.000000
 


--------------------------------------------------------------------------------------------------------




 Dimension of arrays:
   k-points           NKPTS =      8   k-points in BZ     NKDIM =      8   number of bands    NBANDS=    520
   number of dos      NEDOS =    301   number of ions     NIONS =    135
   non local maximal  LDIM  =      6   non local SUM 2l+1 LMDIM =     18
   total plane-waves  NPLWV = ******
   max r-space proj   IRMAX =   7814   max aug-charges    IRDMAX= 222580
   dimension x,y,z NGX =   108 NGY =  108 NGZ =  108
   dimension x,y,z NGXF=   216 NGYF=  216 NGZF=  216
   support grid    NGXF=   432 NGYF=  432 NGZF=  432
   ions per type =              27  27  81
   NGX,Y,Z   is equivalent  to a cutoff of  13.89, 13.89, 13.89 a.u.
   NGXF,Y,Z  is equivalent  to a cutoff of  27.77, 27.77, 27.77 a.u.

 SYSTEM =  unknown system                          
 POSCAR =  Ca Si  O                                

 Startparameter for this run:
   NWRITE =      2    write-flag & timer
   PREC   = a         normal or accurate (medium, high low for compatibility)
   ISTART =      0    job   : 0-new  1-cont  2-samecut
   ICHARG =      2    charge: 1-file 2-atom 10-const
   ISPIN  =      1    spin polarized calculation?
   LNONCOLLINEAR =      F non collinear calculations
   LSORBIT =      F    spin-orbit coupling
   INIWAV =      1    electr: 0-lowe 1-rand  2-diag
   LASPH  =      F    aspherical Exc in radial PAW
   METAGGA=      F    non-selfconsistent MetaGGA calc.

 Electronic Relaxation 1
   ENCUT  =  600.0 eV  44.10 Ry    6.64 a.u.  25.83 25.83 25.83*2*pi/ulx,y,z
   ENINI  =  600.0     initial cutoff
   ENAUG  =  605.4 eV  augmentation charge cutoff
   NELM   =     60;   NELMIN=  2; NELMDL= -5     # of ELM steps 
   EDIFF  = 0.1E-05   stopping-criterion for ELM
   LREAL  =      T    real-space projection
   NLSPLINE    = F    spline interpolate recip. space projectors
   LCOMPAT=      F    compatible to vasp.4.4
   GGA_COMPAT  = T    GGA compatible to vasp.4.4-vasp.4.6
   LMAXPAW     = -100 max onsite density
   LMAXMIX     =    2 max onsite mixed and CHGCAR
   VOSKOWN=      0    Vosko Wilk Nusair interpolation
   ROPT   =   -0.00025  -0.00025  -0.00025
 Ionic relaxation
   EDIFFG = -.1E-01   stopping-criterion for IOM
   NSW    =      1    number of steps for IOM
   NBLOCK =      1;   KBLOCK =      1    inner block; outer block 
   IBRION =     -1    ionic relax: 0-MD 1-quasi-New 2-CG
   NFREE  =      0    steps in history (QN), initial steepest desc. (CG)
   ISIF   =      2    stress and relaxation
   IWAVPR =     10    prediction:  0-non 1-charg 2-wave 3-comb
   ISYM   =      0    0-nonsym 1-usesym 2-fastsym
   LCORR  =      T    Harris-Foulkes like correction to forces

   POTIM  = 1.0000    time-step for ionic-motion
   TEIN   =    0.0    initial temperature
   TEBEG  =    0.0;   TEEND  =   0.0 temperature during run
   SMASS  =  -3.00    Nose mass-parameter (am)
   estimated Nose-frequenzy (Omega)   =  0.10E-29 period in steps =****** mass=  -0.382E-26a.u.
   SCALEE = 1.0000    scale energy and forces
   NPACO  =    256;   APACO  = 16.0  distance and # of slots for P.C.
   PSTRESS=    0.0 pullay stress

  Mass of Ions in am
   POMASS =  40.08 28.09 16.00
  Ionic Valenz
   ZVAL   =  10.00  4.00  6.00
  Atomic Wigner-Seitz radii
   RWIGS  =  -1.00 -1.00 -1.00
  virtual crystal weights 
   VCA    =   1.00  1.00  1.00
   NELECT =     864.0000    total number of electrons
   NUPDOWN=      -1.0000    fix difference up-down

 DOS related values:
   EMIN   =  10.00;   EMAX   =-10.00  energy-range for DOS
   EFERMI =   0.00
   ISMEAR =     0;   SIGMA  =   0.05  broadening in eV -4-tet -1-fermi 0-gaus

 Electronic relaxation 2 (details)
   IALGO  =     38    algorithm
   LDIAG  =      T    sub-space diagonalisation (order eigenvalues)
   LSUBROT=      F    optimize rotation matrix (better conditioning)
   TURBO    =      0    0=normal 1=particle mesh
   IRESTART =      0    0=no restart 2=restart with 2 vectors
   NREBOOT  =      0    no. of reboots
   NMIN     =      0    reboot dimension
   EREF     =   0.00    reference energy to select bands
   IMIX   =      4    mixing-type and parameters
     AMIX     =   0.40;   BMIX     =  1.00
     AMIX_MAG =   1.60;   BMIX_MAG =  1.00
     AMIN     =   0.10
     WC   =   100.;   INIMIX=   1;  MIXPRE=   1;  MAXMIX= -45

 Intra band minimization:
   WEIMIN = 0.0000     energy-eigenvalue tresh-hold
   EBREAK =  0.48E-09  absolut break condition
   DEPER  =   0.30     relativ break condition  

   TIME   =   0.40     timestep for ELM

  volume/ion in A,a.u.               =      16.01       108.07
  Fermi-wavevector in a.u.,A,eV,Ry     =   1.205870  2.278763 19.784524  1.454122
  Thomas-Fermi vector in A             =   2.341553
 
 Write flags
   LWAVE        =      F    write WAVECAR
   LDOWNSAMPLE  =      F    k-point downsampling of WAVECAR
   LCHARG       =      F    write CHGCAR
   LVTOT        =      F    write LOCPOT, total local potential
   LVHAR        =      F    write LOCPOT, Hartree potential only
   LELF         =      F    write electronic localiz. function (ELF)
   LORBIT       =      0    0 simple, 1 ext, 2 COOP (PROOUT), +10 PAW based schemes


 Dipole corrections
   LMONO  =      F    monopole corrections only (constant potential shift)
   LDIPOL =      F    correct potential (dipole corrections)
   IDIPOL =      0    1-x, 2-y, 3-z, 4-all directions 
   EPSILON=  1.0000000 bulk dielectric constant

 Exchange correlation treatment:
   GGA     =    --    GGA type
   LEXCH   =     8    internal setting for exchange type
   VOSKOWN=      0    Vosko Wilk Nusair interpolation
   LHFCALC =     F    Hartree Fock is set to
   LHFONE  =     F    Hartree Fock one center treatment
   AEXX    =    0.0000 exact exchange contribution

 Linear response parameters
   LEPSILON=     F    determine dielectric tensor
   LRPA    =     F    only Hartree local field effects (RPA)
   LNABLA  =     F    use nabla operator in PAW spheres
   LVEL    =     F    velocity operator in full k-point grid
   LINTERFAST=   F  fast interpolation
   KINTER  =     0    interpolate to denser k-point grid
   CSHIFT  =0.1000    complex shift for real part using Kramers Kronig
   OMEGAMAX=  -1.0    maximum frequency
   DEG_THRESHOLD= 0.2000000E-02 threshold for treating states as degnerate
   RTIME   =   -0.100 relaxation time in fs
  (WPLASMAI=    0.000 imaginary part of plasma frequency in eV, 0.658/RTIME)
   DFIELD  = 0.0000000 0.0000000 0.0000000 field for delta impulse in time
 
 Orbital magnetization related:
   ORBITALMAG=     F  switch on orbital magnetization
   LCHIMAG   =     F  perturbation theory with respect to B field
   DQ        =  0.001000  dq finite difference perturbation B field
   LLRAUG    =     F  two centre corrections for induced B field



--------------------------------------------------------------------------------------------------------


 Static calculation
 charge density and potential will be updated during run
 non-spin polarized calculation
 Variant of blocked Davidson
 Davidson routine will perform the subspace rotation
 perform sub-space diagonalisation
    after iterative eigenvector-optimisation
 modified Broyden-mixing scheme, WC =      100.0
 initial mixing is a Kerker type mixing with AMIX =  0.4000 and BMIX =      1.0000
 Hartree-type preconditioning will be used
 using additional bands           88
 real space projection scheme for non local part
 use partial core corrections
 calculate Harris-corrections to forces 
   (improved forces if not selfconsistent)
 use gradient corrections 
 use of overlap-Matrix (Vanderbilt PP)
 Gauss-broadening in eV      SIGMA  =   0.05


--------------------------------------------------------------------------------------------------------


  energy-cutoff  :      600.00
  volume of cell :     2161.91
      direct lattice vectors                 reciprocal lattice vectors
    12.930412990  0.000000000  0.000000000     0.077337050  0.000000000  0.000000000
     0.000000000 12.930412990  0.000000000     0.000000000  0.077337050  0.000000000
     0.000000000  0.000000000 12.930412990     0.000000000  0.000000000  0.077337050

  length of vectors
    12.930412990 12.930412990 12.930412990     0.077337050  0.077337050  0.077337050


 
 k-points in units of 2pi/SCALE and weight: read from INCAR                         
   0.00000000  0.00000000  0.00000000       0.125
   0.03866853  0.00000000  0.00000000       0.125
   0.00000000  0.03866853  0.00000000       0.125
   0.03866853  0.03866853  0.00000000       0.125
   0.00000000  0.00000000  0.03866853       0.125
   0.03866853  0.00000000  0.03866853       0.125
   0.00000000  0.03866853  0.03866853       0.125
   0.03866853  0.03866853  0.03866853       0.125
 
 k-points in reciprocal lattice and weights: read from INCAR                         
   0.00000000  0.00000000  0.00000000       0.125
   0.50000000  0.00000000  0.00000000       0.125
   0.00000000  0.50000000  0.00000000       0.125
   0.50000000  0.50000000  0.00000000       0.125
   0.00000000  0.00000000  0.50000000       0.125
   0.50000000  0.00000000  0.50000000       0.125
   0.00000000  0.50000000  0.50000000       0.125
   0.50000000  0.50000000  0.50000000       0.125
 
 position of ions in fractional coordinates (direct lattice) 
   0.46905453  0.99947966  0.73566713
   0.20120775  0.78126785  0.91526036
   0.07787203  0.22345110  0.50444772
   0.78888706  0.36449248  0.96394341
   0.99198774  0.14351578  0.95407427
   0.06580497  0.46785506  0.29275631
   0.66315168  0.15997592  0.56889368
   0.91887697  0.81541669  0.06442791
   0.33790692  0.29754626  0.34645388
   0.53127877  0.27234651  0.93944784
   0.24124157  0.26168334  0.01811856
   0.91448369  0.47861348  0.74672853
   0.68143780  0.69212788  0.66614009
   0.96330331  0.71601379  0.45643213
   0.57842547  0.01544565  0.07151628
   0.81112956  0.46020254  0.27239071
   0.05692574  0.08553436  0.22069819
   0.93482415  0.57722227  0.02378234
   0.43929648  0.83754782  0.52475393
   0.16385630  0.83076377  0.19109856
   0.81365019  0.93671082  0.28615780
   0.36368079  0.60283962  0.24437063
   0.53925734  0.05857180  0.40805701
   0.17352931  0.59439519  0.08438336
   0.34992876  0.27848262  0.72152907
   0.36691082  0.53317258  0.83368592
   0.34391754  0.49977093  0.59376500
   0.54672920  0.82611454  0.26472269
   0.24435663  0.06919520  0.29287919
   0.14945375  0.36213107  0.82439896
   0.39681581  0.90178713  0.97272472
   0.88329855  0.97905575  0.61299206
   0.81438995  0.12370407  0.11313631
   0.89607817  0.81043486  0.84374954
   0.17815909  0.68955226  0.44615552
   0.58574136  0.80157859  0.86534655
   0.50735439  0.33122200  0.52023423
   0.84188397  0.17252177  0.67266631
   0.95854694  0.46864145  0.53612730
   0.16686027  0.87529211  0.54527246
   0.66265452  0.32419336  0.73788641
   0.80589745  0.72931462  0.25321461
   0.72098690  0.62954959  0.96347366
   0.69603362  0.84466628  0.45227236
   0.65841493  0.50198677  0.12579811
   0.03210651  0.19573590  0.75096427
   0.34073162  0.76245242  0.71363532
   0.93622780  0.29994149  0.16172942
   0.62980622  0.50806679  0.49836414
   0.06148209  0.94074814  0.36436064
   0.69228801  0.18816276  0.26603918
   0.30877891  0.08061162  0.58701122
   0.34329039  0.06294751  0.13636548
   0.32768101  0.45932655  0.09329103
   0.86932647  0.61980444  0.28772169
   0.74148520  0.50801203  0.47088992
   0.23195448  0.25319008  0.49608309
   0.78150064  0.29029405  0.65001079
   0.05585834  0.69613337  0.07164846
   0.57254424  0.31543102  0.62925597
   0.98283440  0.32975845  0.84219284
   0.35590816  0.64828113  0.68344736
   0.14757106  0.41731214  0.93367590
   0.11370336  0.17067366  0.09251623
   0.37858546  0.12162142  0.03716328
   0.78582763  0.78960270  0.15823967
   0.95240399  0.01880833  0.34733685
   0.93355493  0.92385919  0.83502735
   0.59607310  0.14946618  0.22354275
   0.78736812  0.53252299  0.08270349
   0.45374705  0.43170711  0.77666222
   0.37218823  0.05838511  0.49480995
   0.80239465  0.09597882  0.59724133
   0.88701895  0.54039873  0.59323544
   0.02060101  0.37448742  0.60086387
   0.22603451  0.95970179  0.35380343
   0.74247445  0.78882977  0.33200894
   0.04662296  0.09251713  0.81331900
   0.81386381  0.10318938  0.23571632
   0.38871431  0.35845390  0.52422310
   0.16175973  0.25202599  0.80455994
   0.64530751  0.91454878  0.17778993
   0.92547022  0.70936749  0.90773932
   0.88861054  0.24018687  0.05319476
   0.70549681  0.11318386  0.03538417
   0.37687182  0.58836468  0.06448838
   0.96304462  0.91858442  0.66168924
   0.42366842  0.98063179  0.20047243
   0.94524681  0.43562178  0.13444679
   0.91050258  0.03034472  0.07742342
   0.61911328  0.88735060  0.93970124
   0.70594003  0.41359670  0.82480075
   0.82169926  0.50368167  0.91256164
   0.65080632  0.95853230  0.39325819
   0.20899588  0.78330222  0.70384472
   0.06422398  0.63371902  0.40266820
   0.86940578  0.18365637  0.78419758
   0.53733026  0.44819593  0.42071084
   0.28997793  0.92080746  0.55544105
   0.67743673  0.16298349  0.39877217
   0.80576682  0.28465834  0.22159919
   0.22992152  0.67670341  0.26040221
   0.82080583  0.78922793  0.74854958
   0.46216590  0.81663200  0.35740108
   0.27288207  0.62538144  0.51698013
   0.46949977  0.77420293  0.89528289
   0.44950260  0.99332241  0.91474702
   0.29719042  0.16061942  0.22535692
   0.23817514  0.80112696  0.43328424
   0.21633831  0.40659035  0.71853266
   0.60858451  0.82391343  0.75088857
   0.60375328  0.51591407  0.24649284
   0.63589118  0.56455616  0.00600770
   0.97761009  0.17762479  0.64419121
   0.62037703  0.20691460  0.78452556
   0.58203508  0.60789145  0.58278937
   0.37658982  0.86413669  0.78747077
   0.61501134  0.40058779  0.06943417
   0.64208540  0.67689518  0.89380964
   0.03714554  0.27156116  0.24369483
   0.50213711  0.21149573  0.47051066
   0.42072363  0.38626441  0.03023813
   0.60306238  0.79508925  0.51521444
   0.26875868  0.94249281  0.99479606
   0.33439428  0.11456754  0.69921590
   0.37659750  0.43034005  0.23044115
   0.30057045  0.68344146  0.85383638
   0.14581385  0.15316882  0.36206568
   0.07454495  0.96291497  0.50619291
   0.20478479  0.40637865  0.14556999
   0.05792298  0.83021935  0.30918521
   0.21224883  0.99367218  0.17625666
   0.92423311  0.45394636  0.39166763
   0.10333354  0.75646378  0.53995508
   0.78914127  0.90158819  0.52850403
 
 position of ions in cartesian coordinates  (Angst):
   6.06506883 12.92368476  9.51247985
   2.60169930 10.10211596 11.83469445
   1.00691756  2.88931499  6.52271733
  10.20063553  4.71303832 12.46418642
  12.82681115  1.85571831 12.33657430
   0.85088546  6.04955920  3.78545998
   8.57482515  2.06855474  7.35603017
  11.88145875 10.54367460  0.83307946
   4.36927599  3.84739600  4.47979177
   6.86965395  3.52155285 12.14744852
   3.11935317  3.38367371  0.23428045
  11.82465174  6.18866992  9.65550827
   8.81127214  8.94949927  8.61346644
  12.45590964  9.25835400  5.90185598
   7.47928017  0.19971857  0.92473501
  10.48824016  5.95060895  3.52212433
   0.73607338  1.10599464  2.85371874
  12.08766228  7.46372239  0.30751547
   5.68028492 10.82983927  6.78528497
   2.11872962 10.74211860  2.47098329
  10.52083293 12.11205774  3.70013857
   4.70254283  7.79496522  3.15981318
   6.97282017  0.75735754  5.27634565
   2.24380562  7.68577535  1.09111168
   4.52472336  3.60089524  9.32966880
   4.74430842  6.89414159 10.77990326
   4.44699583  6.46224456  7.67762667
   7.06943438 10.68200224  3.42297377
   3.15963211  0.89472256  3.78704892
   1.93249877  4.68250434 10.65981902
   5.13099236 11.66048005 12.57773230
  11.42141504 12.65959520  7.92624045
  10.53039837  1.59954469  1.46289925
  11.58666077 10.47925750 10.91002996
   2.30367065  8.91619551  5.76897518
   7.57387767 10.36474218 11.18928824
   6.56030181  4.28283726  6.72684345
  10.88590738  2.23077771  8.69785313
  12.39440777  6.05972752  6.93234734
   2.15757219 11.31788852  7.05059810
   8.56839658  4.19195405  9.54117604
  10.42058684  9.43033919  3.27416954
   9.32265833  8.14033625 12.45811230
   9.00000220 10.92188386  5.84806842
   8.51357700  6.49089631  1.62662157
   0.41515038  2.53094602  9.71027815
   4.40580059  9.85882466  9.22759943
  12.10581211  3.87836734  2.09122820
   8.14365454  6.56951341  6.44405410
   0.79498887 12.16426203  4.71133359
   8.95156988  2.43302220  3.43999653
   3.99263877  1.04234152  7.59029753
   4.43888646  0.81393734  1.76326203
   4.23705073  5.93928200  1.20629150
  11.24075030  8.01432737  3.72036023
   9.58770982  6.56880535  6.08880117
   2.99926722  3.27385226  6.41455927
  10.10512598  3.75362195  8.40490793
   0.72227135  9.00129197  0.92644420
   7.40323349  4.07865339  8.13653956
  12.70845471  4.26391295 10.88990120
   4.60203954  8.38254272  8.83725668
   1.90815470  5.39601835 12.07281500
   1.47023141  2.20688096  1.19627312
   4.89526632  1.57261515  0.48053662
  10.16107581 10.20988905  2.04610429
  12.31497695  0.24319944  4.49120888
  12.07125074 11.94588092 10.79724846
   7.70747130  1.93265947  2.89050004
  10.18099500  6.88574222  1.06939033
   5.86713671  5.58215117 10.04256331
   4.81254751  0.75494362  6.39809701
  10.37529416  1.24104577  7.72257699
  11.46952136  6.98757878  7.67077924
   0.26637951  4.84227701  7.76941794
   2.92271960 12.40934048  4.57482450
   9.60050124 10.19989465  4.29301270
   0.60285417  1.19628464 10.51655056
  10.52359519  1.33428131  3.04790940
   5.02623656  4.63495702  6.77842112
   2.09162008  3.25880018 10.40329230
   8.34409261 11.82549342  2.29889718
  11.96671211  9.17241458 11.73744431
  11.49010127  3.10571541  0.68783018
   9.12236513  1.46351404  0.45753196
   4.87310824  7.60779829  0.83386134
  12.45256467 11.87767594  8.55591510
   5.47820760 12.67997402  2.59219131
  12.22243160  5.63276949  1.73845250
  11.77317443  0.39236981  1.00111683
   8.00539044 11.47380973 12.15072506
   9.12809616  5.34797608 10.66501429
  10.62491075  6.51281199 11.79979891
   8.41519447 12.39421855  5.08499082
   2.70240310 10.12842123  9.10100289
   0.83044255  8.19424866  5.20666607
  11.24177574  2.37475271 10.13999855
   6.94790218  5.79535852  5.43996492
   3.74953443 11.90642072  7.18208223
   8.75953663  2.10744385  5.15628881
  10.41889780  3.68074996  2.86536900
   2.97298023  8.75005454  3.36710806
  10.61335842 10.20504313  9.67905515
   5.97599599 10.55938902  4.62134360
   3.52847781  8.08644034  6.68476653
   6.07082596 10.01076362 11.57637750
   5.81225429 12.84406901 11.82805669
   3.84279487  2.07687539  2.91395804
   3.07970297 10.35890246  5.60254411
   2.79734369  5.25738119  9.29092408
   7.86924901 10.65354095  9.70929933
   7.80677922  6.67098204  3.18725420
   8.22233559  7.29994426  0.07768204
  12.64090221  2.29676191  8.32965844
   8.02173123  2.67549122 10.14423955
   7.52595392  7.86028756  7.53570726
   4.86946192 11.17364427 10.18232233
   7.95235059  5.17976562  0.89781250
   8.30242936  8.75253423 11.55732774
   0.48030714  3.51139792  3.15107475
   6.49284016  2.73472719  6.08389711
   5.44013025  4.99455830  0.39099151
   7.79784564 10.28083236  6.66193548
   3.47516075 12.18682122 12.86312384
   4.32385620  1.48140566  9.04115041
   4.86956122  5.56447454  2.97969930
   3.88650011  8.83718028 11.04045702
   1.88543333  1.98053612  4.68165881
   0.96389702 12.45088827  6.54528339
   2.64795196  5.25464379  1.88228006
   0.74896804 10.73507902  3.99789241
   2.74446502 12.84859167  2.27907137
  11.95071578  5.86971395  5.06442422
   1.33614529  9.78138910  6.98184221
  10.20392254 11.65790765  6.83377539
 


--------------------------------------------------------------------------------------------------------


 k-point  1 :   0.0000 0.0000 0.0000  plane waves:   72359
 k-point  2 :   0.5000 0.0000 0.0000  plane waves:   72020
 k-point  3 :   0.0000 0.5000 0.0000  plane waves:   72020
 k-point  4 :   0.5000 0.5000 0.0000  plane waves:   72184
 k-point  5 :   0.0000 0.0000 0.5000  plane waves:   72020
 k-point  6 :   0.5000 0.0000 0.5000  plane waves:   72184
 k-point  7 :   0.0000 0.5000 0.5000  plane waves:   72184
 k-point  8 :   0.5000 0.5000 0.5000  plane waves:   72264

 maximum and minimum number of plane-waves per node :      5618     5466

 maximum number of plane-waves:     72359
 maximum index in each direction: 
   IXMAX=   25   IYMAX=   25   IZMAX=   25
   IXMIN=  -26   IYMIN=  -26   IZMIN=  -26


 real space projection operators:
  total allocation   :      53622.81 KBytes
  max/ min on nodes  :       4634.23       3862.30


 parallel 3D FFT for wavefunctions:
    minimum data exchange during FFTs selected (reduces bandwidth)
 parallel 3D FFT for charge:
    minimum data exchange during FFTs selected (reduces bandwidth)


 total amount of memory used by VASP MPI-rank0   200871. kBytes
=======================================================================

   base      :      30000. kBytes
   nonlr-proj:      23498. kBytes
   fftplans  :      33572. kBytes
   grid      :      19248. kBytes
   one-center:        171. kBytes
   wavefun   :      94382. kBytes
 
     INWAV:  cpu time    0.0000: real time    0.0002
 Broyden mixing: mesh for mixing (old mesh)
   NGX = 51   NGY = 51   NGZ = 51
  (NGX  =216   NGY  =216   NGZ  =216)
  gives a total of 132651 points

 initial charge density was supplied:
 charge density of overlapping atoms calculated
 number of electron     864.0000000 magnetization 
 keeping initial charge density in first step


--------------------------------------------------------------------------------------------------------


 Maximum index for non-local projection operator          903
 Maximum index for augmentation-charges         8163 (set IRDMAX)


--------------------------------------------------------------------------------------------------------


 First call to EWALD:  gamma=   0.137
 Maximum number of real-space cells 3x 3x 3
 Maximum number of reciprocal cells 3x 3x 3

    FEWALD:  cpu time    0.0107: real time    0.0107


--------------------------------------- Iteration      1(   1)  ---------------------------------------


    POTLOK:  cpu time    0.1982: real time    0.2069
    SETDIJ:  cpu time    0.3920: real time    0.3951
     EDDAV:  cpu time   47.3096: real time   47.3160
       DOS:  cpu time    0.0028: real time    0.0027
    --------------------------------------------
      LOOP:  cpu time   47.9025: real time   47.9208

 eigenvalue-minimisations  :  8320
 total energy-change (2. order) : 0.9298452E+04  (-0.4669731E+05)
 number of electron     864.0000000 magnetization 
 augmentation part      864.0000000 magnetization 

 Free energy of the ion-electron system (eV)
  ---------------------------------------------------
  alpha Z        PSCENC =      2210.34415451
  Ewald energy   TEWEN  =    -39185.56562661
  -Hartree energ DENC   =    -22346.57774322
  -exchange      EXHF   =         0.00000000
  -V(xc)+E(xc)   XCENC  =      3132.90180315
  PAW double counting   =     50594.51003143   -49994.65612350
  entropy T*S    EENTRO =        -0.03681372
  eigenvalues    EBANDS =       -81.00838386
  atomic energy  EATOM  =     64968.54023382
  Solvation  Ediel_sol  =         0.00000000
  ---------------------------------------------------
  free energy    TOTEN  =      9298.45153202 eV

  energy without entropy =     9298.48834573  energy(sigma->0) =     9298.46993888


--------------------------------------------------------------------------------------------------------




--------------------------------------- Iteration      1(   2)  ---------------------------------------


     EDDAV:  cpu time   55.1640: real time   55.1845
       DOS:  cpu time    0.0010: real time    0.0010
    --------------------------------------------
      LOOP:  cpu time   55.1650: real time   55.1855

 eigenvalue-minimisations  : 10152
 total energy-change (2. order) :-0.9234362E+04  (-0.8944470E+04)
 number of electron     864.0000000 magnetization 
 augmentation part      864.0000000 magnetization 

 Free energy of the ion-electron system (eV)
  ---------------------------------------------------
  alpha Z        PSCENC =      2210.34415451
  Ewald energy   TEWEN  =    -39185.56562661
  -Hartree energ DENC   =    -22346.57774322
  -exchange      EXHF   =         0.00000000
  -V(xc)+E(xc)   XCENC  =      3132.90180315
  PAW double counting   =     50594.51003143   -49994.65612350
  entropy T*S    EENTRO =        -0.00000000
  eigenvalues    EBANDS =     -9315.40753629
  atomic energy  EATOM  =     64968.54023382
  Solvation  Ediel_sol  =         0.00000000
  ---------------------------------------------------
  free energy    TOTEN  =        64.08919330 eV

  energy without entropy =       64.08919330  energy(sigma->0) =       64.08919330


--------------------------------------------------------------------------------------------------------




--------------------------------------- Iteration      1(   3)  ---------------------------------------


     EDDAV:  cpu time   55.6258: real time   55.6287
       DOS:  cpu time    0.0011: real time    0.0011
    --------------------------------------------
      LOOP:  cpu time   55.6269: real time   55.6298

 eigenvalue-minimisations  : 10248
 total energy-change (2. order) :-0.1043633E+04  (-0.1033726E+04)
 number of electron     864.0000000 magnetization 
 augmentation part      864.0000000 magnetization 

 Free energy of the ion-electron system (eV)
  ---------------------------------------------------
  alpha Z        PSCENC =      2210.34415451
  Ewald energy   TEWEN  =    -39185.56562661
  -Hartree energ DENC   =    -22346.57774322
  -exchange      EXHF   =         0.00000000
  -V(xc)+E(xc)   XCENC  =      3132.90180315
  PAW double counting   =     50594.51003143   -49994.65612350
  entropy T*S    EENTRO =        -0.00000000
  eigenvalues    EBANDS =    -10359.04009695
  atomic energy  EATOM  =     64968.54023382
  Solvation  Ediel_sol  =         0.00000000
  ---------------------------------------------------
  free energy    TOTEN  =      -979.54336736 eV

  energy without entropy =     -979.54336736  energy(sigma->0) =     -979.54336736


--------------------------------------------------------------------------------------------------------




--------------------------------------- Iteration      1(   4)  ---------------------------------------


     EDDAV:  cpu time   59.9537: real time   59.9687
       DOS:  cpu time    0.0010: real time    0.0010
    --------------------------------------------
      LOOP:  cpu time   59.9547: real time   59.9697

 eigenvalue-minimisations  : 11256
 total energy-change (2. order) :-0.4916854E+02  (-0.4898208E+02)
 number of electron     864.0000000 magnetization 
 augmentation part      864.0000000 magnetization 

 Free energy of the ion-electron system (eV)
  ---------------------------------------------------
  alpha Z        PSCENC =      2210.34415451
  Ewald energy   TEWEN  =    -39185.56562661
  -Hartree energ DENC   =    -22346.57774322
  -exchange      EXHF   =         0.00000000
  -V(xc)+E(xc)   XCENC  =      3132.90180315
  PAW double counting   =     50594.51003143   -49994.65612350
  entropy T*S    EENTRO =        -0.00000000
  eigenvalues    EBANDS =    -10408.20863450
  atomic energy  EATOM  =     64968.54023382
  Solvation  Ediel_sol  =         0.00000000
  ---------------------------------------------------
  free energy    TOTEN  =     -1028.71190491 eV

  energy without entropy =    -1028.71190491  energy(sigma->0) =    -1028.71190491


--------------------------------------------------------------------------------------------------------




--------------------------------------- Iteration      1(   5)  ---------------------------------------


     EDDAV:  cpu time   74.8522: real time   74.8550
       DOS:  cpu time    0.0012: real time    0.0012
    CHARGE:  cpu time    2.1709: real time    2.1708
    MIXING:  cpu time    0.0091: real time    0.0092
    --------------------------------------------
      LOOP:  cpu time   77.0334: real time   77.0362

 eigenvalue-minimisations  : 14832
 total energy-change (2. order) :-0.6331845E+01  (-0.6328577E+01)
 number of electron     864.0000007 magnetization 
 augmentation part      133.3840969 magnetization 

 Broyden mixing:
  rms(total) = 0.85124E+01    rms(broyden)= 0.85115E+01
  rms(prec ) = 0.10194E+02
  weight for this iteration     100.00

 Free energy of the ion-electron system (eV)
  ---------------------------------------------------
  alpha Z        PSCENC =      2210.34415451
  Ewald energy   TEWEN  =    -39185.56562661
  -Hartree energ DENC   =    -22346.57774322
  -exchange      EXHF   =         0.00000000
  -V(xc)+E(xc)   XCENC  =      3132.90180315
  PAW double counting   =     50594.51003143   -49994.65612350
  entropy T*S    EENTRO =        -0.00000000
  eigenvalues    EBANDS =    -10414.54047944
  atomic energy  EATOM  =     64968.54023382
  Solvation  Ediel_sol  =         0.00000000
  ---------------------------------------------------
  free energy    TOTEN  =     -1035.04374984 eV

  energy without entropy =    -1035.04374984  energy(sigma->0) =    -1035.04374984


--------------------------------------------------------------------------------------------------------




--------------------------------------- Iteration      1(   6)  ---------------------------------------


    POTLOK:  cpu time    0.1981: real time    0.2121
    SETDIJ:  cpu time    0.4040: real time    0.4040
     EDDAV:  cpu time   54.3870: real time   54.3858
       DOS:  cpu time    0.0027: real time    0.0027
    CHARGE:  cpu time    2.1751: real time    2.1751
    MIXING:  cpu time    0.0086: real time    0.0087
    --------------------------------------------
      LOOP:  cpu time   57.1754: real time   57.1883

 eigenvalue-minimisations  : 10024
 total energy-change (2. order) : 0.1667964E+03  (-0.8225099E+02)
 number of electron     864.0000006 magnetization 
 augmentation part      116.5007097 magnetization 

 Broyden mixing:
  rms(total) = 0.41347E+01    rms(broyden)= 0.41328E+01
  rms(prec ) = 0.46969E+01
  weight for this iteration     100.00

 eigenvalues of (default mixing * dielectric matrix)
  average eigenvalue GAMMA=   0.8533
  0.8533

 Free energy of the ion-electron system (eV)
  ---------------------------------------------------
  alpha Z        PSCENC =      2210.34415451
  Ewald energy   TEWEN  =    -39185.56562661
  -Hartree energ DENC   =    -23952.72680234
  -exchange      EXHF   =         0.00000000
  -V(xc)+E(xc)   XCENC  =      3232.43565808
  PAW double counting   =     63480.75883411   -63021.08865001
  entropy T*S    EENTRO =        -0.03353925
  eigenvalues    EBANDS =     -8600.91158976
  atomic energy  EATOM  =     64968.54023382
  Solvation  Ediel_sol  =         0.00000000
  ---------------------------------------------------
  free energy    TOTEN  =      -868.24732745 eV

  energy without entropy =     -868.21378819  energy(sigma->0) =     -868.23055782


--------------------------------------------------------------------------------------------------------




--------------------------------------- Iteration      1(   7)  ---------------------------------------


    POTLOK:  cpu time    0.1852: real time    0.1893
    SETDIJ:  cpu time    0.3824: real time    0.3823
     EDDAV:  cpu time   55.9850: real time   55.9840
       DOS:  cpu time    0.0031: real time    0.0031
    CHARGE:  cpu time    2.1878: real time    2.1878
    MIXING:  cpu time    0.0081: real time    0.0081
    --------------------------------------------
      LOOP:  cpu time   58.7517: real time   58.7546

 eigenvalue-minimisations  : 10408
 total energy-change (2. order) :-0.3882624E+01  (-0.1166503E+02)
 number of electron     864.0000006 magnetization 
 augmentation part      117.4002890 magnetization 

 Broyden mixing:
  rms(total) = 0.26801E+01    rms(broyden)= 0.26795E+01
  rms(prec ) = 0.33586E+01
  weight for this iteration     100.00

 eigenvalues of (default mixing * dielectric matrix)
  average eigenvalue GAMMA=   0.8247
  0.8247  0.8247

 Free energy of the ion-electron system (eV)
  ---------------------------------------------------
  alpha Z        PSCENC =      2210.34415451
  Ewald energy   TEWEN  =    -39185.56562661
  -Hartree energ DENC   =    -23898.43355723
  -exchange      EXHF   =         0.00000000
  -V(xc)+E(xc)   XCENC  =      3226.26794918
  PAW double counting   =     71971.32545629   -71553.72354274
  entropy T*S    EENTRO =        -0.04692725
  eigenvalues    EBANDS =     -8610.83809130
  atomic energy  EATOM  =     64968.54023382
  Solvation  Ediel_sol  =         0.00000000
  ---------------------------------------------------
  free energy    TOTEN  =      -872.12995132 eV

  energy without entropy =     -872.08302407  energy(sigma->0) =     -872.10648769


--------------------------------------------------------------------------------------------------------




--------------------------------------- Iteration      1(   8)  ---------------------------------------


    POTLOK:  cpu time    0.1845: real time    0.1982
    SETDIJ:  cpu time    0.3914: real time    0.3914
     EDDAV:  cpu time   64.6017: real time   64.6011
       DOS:  cpu time    0.0027: real time    0.0027
    CHARGE:  cpu time    2.1632: real time    2.1632
    MIXING:  cpu time    0.0085: real time    0.0085
    --------------------------------------------
      LOOP:  cpu time   67.3520: real time   67.3652

 eigenvalue-minimisations  : 12456
 total energy-change (2. order) : 0.8014004E+01  (-0.3248512E+01)
 number of electron     864.0000006 magnetization 
 augmentation part      117.3464031 magnetization 

 Broyden mixing:
  rms(total) = 0.17089E+01    rms(broyden)= 0.17085E+01
  rms(prec ) = 0.20388E+01
  weight for this iteration     100.00

 eigenvalues of (default mixing * dielectric matrix)
  average eigenvalue GAMMA=   0.8730
  1.1637  0.9074  0.5480

 Free energy of the ion-electron system (eV)
  ---------------------------------------------------
  alpha Z        PSCENC =      2210.34415451
  Ewald energy   TEWEN  =    -39185.56562661
  -Hartree energ DENC   =    -23916.21623395
  -exchange      EXHF   =         0.00000000
  -V(xc)+E(xc)   XCENC  =      3226.04442911
  PAW double counting   =     75529.69728751   -75135.15818761
  entropy T*S    EENTRO =        -0.04434323
  eigenvalues    EBANDS =     -8561.75766090
  atomic energy  EATOM  =     64968.54023382
  Solvation  Ediel_sol  =         0.00000000
  ---------------------------------------------------
  free energy    TOTEN  =      -864.11594734 eV

  energy without entropy =     -864.07160411  energy(sigma->0) =     -864.09377572


--------------------------------------------------------------------------------------------------------




--------------------------------------- Iteration      1(   9)  ---------------------------------------


    POTLOK:  cpu time    0.2102: real time    0.2225
    SETDIJ:  cpu time    0.4272: real time    0.4272
     EDDAV:  cpu time   55.6897: real time   55.6903
       DOS:  cpu time    0.0029: real time    0.0029
    CHARGE:  cpu time    2.1639: real time    2.1639
    MIXING:  cpu time    0.0085: real time    0.0085
    --------------------------------------------
      LOOP:  cpu time   58.5024: real time   58.5152

 eigenvalue-minimisations  : 10280
 total energy-change (2. order) :-0.1629635E+01  (-0.3187871E+01)
 number of electron     864.0000006 magnetization 
 augmentation part      116.8213410 magnetization 

 Broyden mixing:
  rms(total) = 0.25663E+01    rms(broyden)= 0.25657E+01
  rms(prec ) = 0.36297E+01
  weight for this iteration     100.00

 eigenvalues of (default mixing * dielectric matrix)
  average eigenvalue GAMMA=   0.8309
  1.5652  0.9682  0.3952  0.3952

 Free energy of the ion-electron system (eV)
  ---------------------------------------------------
  alpha Z        PSCENC =      2210.34415451
  Ewald energy   TEWEN  =    -39185.56562661
  -Hartree energ DENC   =    -23979.61111242
  -exchange      EXHF   =         0.00000000
  -V(xc)+E(xc)   XCENC  =      3228.32914190
  PAW double counting   =     79570.33108916   -79196.96367121
  entropy T*S    EENTRO =        -0.04980421
  eigenvalues    EBANDS =     -8481.09998738
  atomic energy  EATOM  =     64968.54023382
  Solvation  Ediel_sol  =         0.00000000
  ---------------------------------------------------
  free energy    TOTEN  =      -865.74558243 eV

  energy without entropy =     -865.69577822  energy(sigma->0) =     -865.72068032


--------------------------------------------------------------------------------------------------------




--------------------------------------- Iteration      1(  10)  ---------------------------------------


    POTLOK:  cpu time    0.1828: real time    0.1872
    SETDIJ:  cpu time    0.3820: real time    0.3820
     EDDAV:  cpu time   57.6714: real time   57.6718
       DOS:  cpu time    0.0025: real time    0.0025
    CHARGE:  cpu time    2.1456: real time    2.1456
    MIXING:  cpu time    0.0079: real time    0.0079
    --------------------------------------------
      LOOP:  cpu time   60.3923: real time   60.3970

 eigenvalue-minimisations  : 10800
 total energy-change (2. order) : 0.1683187E+01  (-0.1676355E+01)
 number of electron     864.0000006 magnetization 
 augmentation part      116.9923795 magnetization 

 Broyden mixing:
  rms(total) = 0.14185E+01    rms(broyden)= 0.14177E+01
  rms(prec ) = 0.19435E+01
  weight for this iteration     100.00

 eigenvalues of (default mixing * dielectric matrix)
  average eigenvalue GAMMA=   0.7730
  1.7654  0.9522  0.4368  0.4368  0.2739

 Free energy of the ion-electron system (eV)
  ---------------------------------------------------
  alpha Z        PSCENC =      2210.34415451
  Ewald energy   TEWEN  =    -39185.56562661
  -Hartree energ DENC   =    -24007.76990876
  -exchange      EXHF   =         0.00000000
  -V(xc)+E(xc)   XCENC  =      3229.24555909
  PAW double counting   =     82257.32951073   -81898.81773790
  entropy T*S    EENTRO =        -0.01554783
  eigenvalues    EBANDS =     -8437.35303203
  atomic energy  EATOM  =     64968.54023382
  Solvation  Ediel_sol  =         0.00000000
  ---------------------------------------------------
  free energy    TOTEN  =      -864.06239497 eV

  energy without entropy =     -864.04684714  energy(sigma->0) =     -864.05462105


--------------------------------------------------------------------------------------------------------




--------------------------------------- Iteration      1(  11)  ---------------------------------------


    POTLOK:  cpu time    0.2319: real time    0.2444
    SETDIJ:  cpu time    0.4130: real time    0.4133
     EDDAV:  cpu time   59.4065: real time   59.4065
       DOS:  cpu time    0.0027: real time    0.0027
    CHARGE:  cpu time    2.1693: real time    2.1693
    MIXING:  cpu time    0.0075: real time    0.0075
    --------------------------------------------
      LOOP:  cpu time   62.2311: real time   62.2437

 eigenvalue-minimisations  : 11080
 total energy-change (2. order) : 0.1270302E+01  (-0.6736741E+00)
 number of electron     864.0000006 magnetization 
 augmentation part      116.9829199 magnetization 

 Broyden mixing:
  rms(total) = 0.11686E+01    rms(broyden)= 0.11678E+01
  rms(prec ) = 0.15888E+01
  weight for this iteration     100.00

 eigenvalues of (default mixing * dielectric matrix)
  average eigenvalue GAMMA=   0.7315
  1.9207  0.9424  0.5046  0.5046  0.2583  0.2583

 Free energy of the ion-electron system (eV)
  ---------------------------------------------------
  alpha Z        PSCENC =      2210.34415451
  Ewald energy   TEWEN  =    -39185.56562661
  -Hartree energ DENC   =    -24030.30383453
  -exchange      EXHF   =         0.00000000
  -V(xc)+E(xc)   XCENC  =      3230.13493810
  PAW double counting   =     83535.74563186   -83183.70786006
  entropy T*S    EENTRO =        -0.00909676
  eigenvalues    EBANDS =     -8407.97063335
  atomic energy  EATOM  =     64968.54023382
  Solvation  Ediel_sol  =         0.00000000
  ---------------------------------------------------
  free energy    TOTEN  =      -862.79209302 eV

  energy without entropy =     -862.78299626  energy(sigma->0) =     -862.78754464


--------------------------------------------------------------------------------------------------------




--------------------------------------- Iteration      1(  12)  ---------------------------------------


    POTLOK:  cpu time    0.2172: real time    0.2310
    SETDIJ:  cpu time    0.4120: real time    0.4120
     EDDAV:  cpu time   55.2821: real time   55.2835
       DOS:  cpu time    0.0027: real time    0.0027
    CHARGE:  cpu time    2.1899: real time    2.1899
    MIXING:  cpu time    0.0086: real time    0.0086
    --------------------------------------------
      LOOP:  cpu time   58.1124: real time   58.1276

 eigenvalue-minimisations  : 10192
 total energy-change (2. order) : 0.3036954E-01  (-0.2920119E+00)
 number of electron     864.0000006 magnetization 
 augmentation part      116.9020389 magnetization 

 Broyden mixing:
  rms(total) = 0.84895E+00    rms(broyden)= 0.84834E+00
  rms(prec ) = 0.11794E+01
  weight for this iteration     100.00

 eigenvalues of (default mixing * dielectric matrix)
  average eigenvalue GAMMA=   0.7224
  2.1276  0.8866  0.8075  0.4220  0.3017  0.3017  0.2095

 Free energy of the ion-electron system (eV)
  ---------------------------------------------------
  alpha Z        PSCENC =      2210.34415451
  Ewald energy   TEWEN  =    -39185.56562661
  -Hartree energ DENC   =    -24046.33674158
  -exchange      EXHF   =         0.00000000
  -V(xc)+E(xc)   XCENC  =      3230.93187011
  PAW double counting   =     84269.02277614   -83920.43944063
  entropy T*S    EENTRO =        -0.04840297
  eigenvalues    EBANDS =     -8389.21054628
  atomic energy  EATOM  =     64968.54023382
  Solvation  Ediel_sol  =         0.00000000
  ---------------------------------------------------
  free energy    TOTEN  =      -862.76172347 eV

  energy without entropy =     -862.71332051  energy(sigma->0) =     -862.73752199


--------------------------------------------------------------------------------------------------------




--------------------------------------- Iteration      1(  13)  ---------------------------------------


    POTLOK:  cpu time    0.1607: real time    0.1650
    SETDIJ:  cpu time    0.3816: real time    0.3855
     EDDAV:  cpu time   59.4823: real time   59.4895
       DOS:  cpu time    0.0027: real time    0.0027
    CHARGE:  cpu time    2.1708: real time    2.1708
    MIXING:  cpu time    0.0098: real time    0.0098
    --------------------------------------------
      LOOP:  cpu time   62.2080: real time   62.2232

 eigenvalue-minimisations  : 11208
 total energy-change (2. order) : 0.5168075E+00  (-0.4245527E+00)
 number of electron     864.0000006 magnetization 
 augmentation part      116.8383744 magnetization 

 Broyden mixing:
  rms(total) = 0.10576E+01    rms(broyden)= 0.10567E+01
  rms(prec ) = 0.14422E+01
  weight for this iteration     100.00

 eigenvalues of (default mixing * dielectric matrix)
  average eigenvalue GAMMA=   0.6443
  2.1432  0.8588  0.8588  0.3261  0.3261  0.3170  0.2286  0.0959

 Free energy of the ion-electron system (eV)
  ---------------------------------------------------
  alpha Z        PSCENC =      2210.34415451
  Ewald energy   TEWEN  =    -39185.56562661
  -Hartree energ DENC   =    -24066.24535015
  -exchange      EXHF   =         0.00000000
  -V(xc)+E(xc)   XCENC  =      3231.82812372
  PAW double counting   =     85044.08764822   -84699.14543976
  entropy T*S    EENTRO =        -0.01338741
  eigenvalues    EBANDS =     -8366.07527233
  atomic energy  EATOM  =     64968.54023382
  Solvation  Ediel_sol  =         0.00000000
  ---------------------------------------------------
  free energy    TOTEN  =      -862.24491597 eV

  energy without entropy =     -862.23152856  energy(sigma->0) =     -862.23822227


--------------------------------------------------------------------------------------------------------




--------------------------------------- Iteration      1(  14)  ---------------------------------------


    POTLOK:  cpu time    0.2061: real time    0.2195
    SETDIJ:  cpu time    0.3820: real time    0.3819
     EDDAV:  cpu time   55.3053: real time   55.3060
       DOS:  cpu time    0.0027: real time    0.0027
    CHARGE:  cpu time    2.1678: real time    2.1677
    MIXING:  cpu time    0.0108: real time    0.0108
    --------------------------------------------
      LOOP:  cpu time   58.0747: real time   58.0887

 eigenvalue-minimisations  : 10224
 total energy-change (2. order) : 0.3195172E+00  (-0.3940780E-01)
 number of electron     864.0000006 magnetization 
 augmentation part      116.9498174 magnetization 

 Broyden mixing:
  rms(total) = 0.58419E+00    rms(broyden)= 0.58310E+00
  rms(prec ) = 0.85494E+00
  weight for this iteration     100.00

 eigenvalues of (default mixing * dielectric matrix)
  average eigenvalue GAMMA=   0.6264
  2.2135  0.9061  0.9061  0.3736  0.3736  0.2795  0.2795  0.2290  0.0772

 Free energy of the ion-electron system (eV)
  ---------------------------------------------------
  alpha Z        PSCENC =      2210.34415451
  Ewald energy   TEWEN  =    -39185.56562661
  -Hartree energ DENC   =    -24068.48963072
  -exchange      EXHF   =         0.00000000
  -V(xc)+E(xc)   XCENC  =      3231.92286252
  PAW double counting   =     85094.65283181   -84749.88245333
  entropy T*S    EENTRO =        -0.03229665
  eigenvalues    EBANDS =     -8363.41547413
  atomic energy  EATOM  =     64968.54023382
  Solvation  Ediel_sol  =         0.00000000
  ---------------------------------------------------
  free energy    TOTEN  =      -861.92539877 eV

  energy without entropy =     -861.89310211  energy(sigma->0) =     -861.90925044


--------------------------------------------------------------------------------------------------------




--------------------------------------- Iteration      1(  15)  ---------------------------------------


    POTLOK:  cpu time    0.2213: real time    0.2261
    SETDIJ:  cpu time    0.4071: real time    0.4071
     EDDAV:  cpu time   59.6313: real time   59.6320
       DOS:  cpu time    0.0027: real time    0.0027
    CHARGE:  cpu time    2.1711: real time    2.1711
    MIXING:  cpu time    0.0096: real time    0.0096
    --------------------------------------------
      LOOP:  cpu time   62.4432: real time   62.4485

 eigenvalue-minimisations  : 11240
 total energy-change (2. order) : 0.1583813E+00  (-0.8880090E-01)
 number of electron     864.0000006 magnetization 
 augmentation part      116.7092812 magnetization 

 Broyden mixing:
  rms(total) = 0.64424E+00    rms(broyden)= 0.64391E+00
  rms(prec ) = 0.88754E+00
  weight for this iteration     100.00

 eigenvalues of (default mixing * dielectric matrix)
  average eigenvalue GAMMA=   0.6098
  2.2456  0.9217  0.9217  0.4593  0.4593  0.2947  0.2947  0.2674  0.1630  0.0709

 Free energy of the ion-electron system (eV)
  ---------------------------------------------------
  alpha Z        PSCENC =      2210.34415451
  Ewald energy   TEWEN  =    -39185.56562661
  -Hartree energ DENC   =    -24078.51234939
  -exchange      EXHF   =         0.00000000
  -V(xc)+E(xc)   XCENC  =      3232.33628832
  PAW double counting   =     85303.49373001   -84959.54522235
  entropy T*S    EENTRO =        -0.06167803
  eigenvalues    EBANDS =     -8352.79654778
  atomic energy  EATOM  =     64968.54023382
  Solvation  Ediel_sol  =         0.00000000
  ---------------------------------------------------
  free energy    TOTEN  =      -861.76701749 eV

  energy without entropy =     -861.70533946  energy(sigma->0) =     -861.73617847


--------------------------------------------------------------------------------------------------------




--------------------------------------- Iteration      1(  16)  ---------------------------------------


    POTLOK:  cpu time    0.2033: real time    0.2182
    SETDIJ:  cpu time    0.3913: real time    0.3913
     EDDAV:  cpu time   58.3995: real time   58.3989
       DOS:  cpu time    0.0027: real time    0.0027
    CHARGE:  cpu time    2.1860: real time    2.1859
    MIXING:  cpu time    0.0110: real time    0.0110
    --------------------------------------------
      LOOP:  cpu time   61.1938: real time   61.2080

 eigenvalue-minimisations  : 10960
 total energy-change (2. order) : 0.2369286E+00  (-0.5388571E-01)
 number of electron     864.0000006 magnetization 
 augmentation part      116.6847977 magnetization 

 Broyden mixing:
  rms(total) = 0.48631E+00    rms(broyden)= 0.48616E+00
  rms(prec ) = 0.67186E+00
  weight for this iteration     100.00

 eigenvalues of (default mixing * dielectric matrix)
  average eigenvalue GAMMA=   0.6040
  2.2374  1.0172  0.6884  0.6884  0.5073  0.5073  0.2831  0.2831  0.1881  0.1708
  0.0729

 Free energy of the ion-electron system (eV)
  ---------------------------------------------------
  alpha Z        PSCENC =      2210.34415451
  Ewald energy   TEWEN  =    -39185.56562661
  -Hartree energ DENC   =    -24086.14497502
  -exchange      EXHF   =         0.00000000
  -V(xc)+E(xc)   XCENC  =      3232.63869800
  PAW double counting   =     85426.39331300   -85082.76110664
  entropy T*S    EENTRO =        -0.06024355
  eigenvalues    EBANDS =     -8344.91453638
  atomic energy  EATOM  =     64968.54023382
  Solvation  Ediel_sol  =         0.00000000
  ---------------------------------------------------
  free energy    TOTEN  =      -861.53008887 eV

  energy without entropy =     -861.46984532  energy(sigma->0) =     -861.49996709


--------------------------------------------------------------------------------------------------------




--------------------------------------- Iteration      1(  17)  ---------------------------------------


    POTLOK:  cpu time    0.2058: real time    0.2201
    SETDIJ:  cpu time    0.3889: real time    0.3889
     EDDAV:  cpu time   61.1744: real time   61.1733
       DOS:  cpu time    0.0028: real time    0.0028
    CHARGE:  cpu time    2.1537: real time    2.1537
    MIXING:  cpu time    0.0107: real time    0.0106
    --------------------------------------------
      LOOP:  cpu time   63.9362: real time   63.9494

 eigenvalue-minimisations  : 11592
 total energy-change (2. order) : 0.9002911E-01  (-0.4361545E-01)
 number of electron     864.0000006 magnetization 
 augmentation part      116.7543631 magnetization 

 Broyden mixing:
  rms(total) = 0.42639E+00    rms(broyden)= 0.42628E+00
  rms(prec ) = 0.59924E+00
  weight for this iteration     100.00

 eigenvalues of (default mixing * dielectric matrix)
  average eigenvalue GAMMA=   0.6360
  2.2554  1.2182  0.8815  0.8815  0.5504  0.4385  0.4385  0.2705  0.2705  0.1772
  0.1772  0.0725

 Free energy of the ion-electron system (eV)
  ---------------------------------------------------
  alpha Z        PSCENC =      2210.34415451
  Ewald energy   TEWEN  =    -39185.56562661
  -Hartree energ DENC   =    -24087.39762295
  -exchange      EXHF   =         0.00000000
  -V(xc)+E(xc)   XCENC  =      3232.63734593
  PAW double counting   =     85429.56866035   -85085.86033571
  entropy T*S    EENTRO =        -0.05894471
  eigenvalues    EBANDS =     -8343.64792441
  atomic energy  EATOM  =     64968.54023382
  Solvation  Ediel_sol  =         0.00000000
  ---------------------------------------------------
  free energy    TOTEN  =      -861.44005977 eV

  energy without entropy =     -861.38111505  energy(sigma->0) =     -861.41058741


--------------------------------------------------------------------------------------------------------




--------------------------------------- Iteration      1(  18)  ---------------------------------------


    POTLOK:  cpu time    0.2049: real time    0.2192
    SETDIJ:  cpu time    0.4154: real time    0.4154
     EDDAV:  cpu time   58.5321: real time   58.5313
       DOS:  cpu time    0.0027: real time    0.0027
    CHARGE:  cpu time    2.1612: real time    2.1612
    MIXING:  cpu time    0.0126: real time    0.0126
    --------------------------------------------
      LOOP:  cpu time   61.3291: real time   61.3424

 eigenvalue-minimisations  : 10984
 total energy-change (2. order) : 0.4928464E-01  (-0.7642619E-01)
 number of electron     864.0000006 magnetization 
 augmentation part      116.6966531 magnetization 

 Broyden mixing:
  rms(total) = 0.64861E+00    rms(broyden)= 0.64802E+00
  rms(prec ) = 0.89810E+00
  weight for this iteration     100.00

 eigenvalues of (default mixing * dielectric matrix)
  average eigenvalue GAMMA=   0.6381
  2.2263  1.4739  0.9054  0.9054  0.5720  0.5720  0.3418  0.3418  0.3113  0.2006
  0.2006  0.1719  0.0725

 Free energy of the ion-electron system (eV)
  ---------------------------------------------------
  alpha Z        PSCENC =      2210.34415451
  Ewald energy   TEWEN  =    -39185.56562661
  -Hartree energ DENC   =    -24095.19274325
  -exchange      EXHF   =         0.00000000
  -V(xc)+E(xc)   XCENC  =      3232.88189351
  PAW double counting   =     85443.33381393   -85099.31559149
  entropy T*S    EENTRO =        -0.04614344
  eigenvalues    EBANDS =     -8336.37076613
  atomic energy  EATOM  =     64968.54023382
  Solvation  Ediel_sol  =         0.00000000
  ---------------------------------------------------
  free energy    TOTEN  =      -861.39077513 eV

  energy without entropy =     -861.34463169  energy(sigma->0) =     -861.36770341


--------------------------------------------------------------------------------------------------------




--------------------------------------- Iteration      1(  19)  ---------------------------------------


    POTLOK:  cpu time    0.1605: real time    0.1743
    SETDIJ:  cpu time    0.3794: real time    0.3815
     EDDAV:  cpu time   58.2877: real time   58.2879
       DOS:  cpu time    0.0028: real time    0.0028
    CHARGE:  cpu time    2.1741: real time    2.1740
    MIXING:  cpu time    0.0115: real time    0.0115
    --------------------------------------------
      LOOP:  cpu time   61.0160: real time   61.0321

 eigenvalue-minimisations  : 10936
 total energy-change (2. order) : 0.3723312E-01  (-0.1476338E-01)
 number of electron     864.0000006 magnetization 
 augmentation part      116.7052435 magnetization 

 Broyden mixing:
  rms(total) = 0.41283E+00    rms(broyden)= 0.41224E+00
  rms(prec ) = 0.56584E+00
  weight for this iteration     100.00

 eigenvalues of (default mixing * dielectric matrix)
[...]
   -.534E+02 0.125E+03 -.109E+02   0.668E+02 -.142E+03 0.249E+02   -.147E+02 0.185E+02 -.156E+02   0.443E-02 -.444E-02 -.155E-02
   -.976E+02 -.124E+02 0.270E+02   0.985E+02 0.288E+02 -.336E+02   -.489E+00 -.196E+02 0.815E+01   -.226E-02 0.393E-02 -.182E-02
   0.405E+01 0.164E+03 0.141E+03   0.694E+01 -.178E+03 -.148E+03   -.122E+02 0.140E+02 0.846E+01   -.454E-02 -.335E-02 -.161E-02
   -.148E+03 -.470E+02 -.283E+02   0.159E+03 0.715E+02 0.477E+02   -.869E+01 -.225E+02 -.168E+02   -.103E-02 -.218E-02 0.176E-03
   0.116E+03 -.871E+02 0.129E+03   -.111E+03 0.110E+03 -.115E+03   -.777E+01 -.266E+02 -.184E+02   -.196E-02 0.193E-02 0.481E-03
   -.281E+02 -.142E+03 0.195E+03   0.270E+02 0.140E+03 -.200E+03   0.305E+01 0.696E+01 0.314E+01   -.157E-02 0.198E-02 -.396E-03
   -.158E+02 0.500E+02 -.323E+02   0.139E+02 -.353E+02 0.226E+02   0.521E+01 -.197E+02 0.107E+02   -.909E-03 -.276E-02 -.146E-02
   0.210E+03 -.114E+02 -.679E+02   -.233E+03 0.843E+01 0.677E+02   0.241E+02 0.441E+01 -.575E+00   0.238E-02 -.386E-02 0.412E-02
   -.695E+02 0.189E+03 -.577E+01   0.595E+02 -.202E+03 -.683E+01   0.154E+02 0.930E+01 0.109E+02   -.860E-04 0.126E-02 0.690E-03
   0.126E+03 0.967E+02 -.126E+03   -.123E+03 -.914E+02 0.165E+03   -.308E+01 -.646E+01 -.333E+02   -.242E-02 0.968E-04 0.245E-03
   -.110E+00 -.702E+02 0.992E+02   -.136E+02 0.699E+02 -.124E+03   0.156E+02 -.121E+01 0.296E+02   0.174E-02 0.298E-02 -.118E-02
   0.214E+02 -.378E+02 -.145E+03   -.421E+01 0.395E+02 0.139E+03   -.198E+02 0.166E+00 0.930E+01   0.198E-02 -.571E-02 0.201E-02
   -.128E+03 -.153E+03 -.318E+01   0.128E+03 0.151E+03 0.179E+02   0.203E+01 0.363E+01 -.166E+02   -.585E-03 -.696E-03 -.382E-04
   0.120E+03 -.264E+02 -.120E+03   -.124E+03 0.302E+02 0.123E+03   0.383E+01 -.302E+01 -.273E+01   -.389E-02 0.137E-02 -.744E-03
   -.424E+02 0.225E+02 -.270E+02   0.396E+02 -.192E+02 0.311E+02   0.302E+00 -.305E+01 -.511E+01   0.199E-02 -.167E-03 -.123E-02
   -.213E+02 0.114E+02 0.577E+02   0.421E+01 -.117E+02 -.804E+02   0.166E+02 -.133E+01 0.223E+02   -.126E-02 -.122E-02 0.780E-03
   0.232E+02 0.143E+03 0.107E+03   -.419E+02 -.147E+03 -.945E+02   0.198E+02 0.462E+01 -.137E+02   0.333E-02 -.227E-02 -.284E-02
   -.114E+02 0.808E+02 0.363E+02   0.256E+02 -.828E+02 -.236E+02   -.172E+02 0.203E+01 -.163E+02   0.125E-02 0.241E-02 0.214E-02
   0.197E+02 0.113E+03 -.132E+03   -.466E+02 -.129E+03 0.135E+03   0.242E+02 0.168E+02 0.657E+00   -.232E-02 -.337E-02 -.371E-03
   -.257E+02 -.116E+03 0.337E+02   0.367E+02 0.141E+03 -.455E+02   -.942E+01 -.236E+02 0.110E+02   0.252E-02 -.308E-02 0.364E-03
   -.131E+03 -.140E+03 0.298E+02   0.133E+03 0.172E+03 -.376E+02   0.433E+00 -.319E+02 0.765E+01   0.760E-02 -.394E-03 -.417E-02
   -.137E+03 0.611E+02 0.437E+02   0.158E+03 -.427E+02 -.576E+02   -.215E+02 -.179E+02 0.141E+02   0.171E-02 -.296E-02 0.108E-02
   0.887E+02 -.137E+03 0.726E+02   -.833E+02 0.145E+03 -.929E+02   -.547E+01 -.681E+01 0.225E+02   0.221E-02 0.679E-02 0.572E-02
   -.639E+02 -.105E+03 0.793E+02   0.728E+02 0.115E+03 -.108E+03   -.962E+01 -.925E+01 0.249E+02   -.687E-03 -.895E-03 0.196E-02
   0.108E+03 -.770E+02 -.954E+02   -.123E+03 0.769E+02 0.119E+03   0.184E+02 0.773E+00 -.267E+02   -.930E-03 0.213E-02 -.138E-02
   0.237E+03 -.726E+02 -.819E+01   -.272E+03 0.581E+02 0.195E+01   0.289E+02 0.108E+02 0.119E+02   -.122E-02 0.127E-02 -.735E-03
   -.414E+02 0.551E+02 0.105E+03   0.421E+02 -.610E+02 -.132E+03   -.129E+01 0.567E+01 0.215E+02   -.430E-02 -.477E-03 0.315E-02
   0.201E+02 0.166E+03 -.682E+02   -.235E+02 -.188E+03 0.768E+02   0.352E+01 0.239E+02 -.910E+01   -.641E-03 0.904E-03 0.671E-03
   0.712E+02 0.640E+02 0.309E+02   -.852E+02 -.514E+02 -.232E+02   0.138E+02 -.181E+02 -.111E+02   -.558E-03 0.774E-03 0.157E-02
   0.768E+02 -.593E+02 0.288E-01   -.740E+02 0.724E+02 0.156E+02   -.306E+01 -.130E+02 -.195E+02   0.200E-03 -.565E-02 0.229E-02
   0.128E+03 0.102E+03 -.572E+02   -.145E+03 -.121E+03 0.474E+02   0.179E+02 0.165E+02 0.959E+01   -.127E-02 0.212E-02 -.112E-02
   0.398E+02 -.143E+02 0.689E+02   -.618E+02 0.101E+02 -.819E+02   0.197E+02 0.103E+02 0.649E+01   -.156E-02 0.769E-03 0.662E-03
   -.300E+02 -.721E+02 -.120E+03   0.518E+02 0.658E+02 0.134E+03   -.254E+02 0.737E+01 -.155E+02   -.505E-02 0.592E-02 -.486E-03
   0.276E+02 -.589E+02 0.371E+02   -.337E+02 0.402E+02 -.464E+02   0.703E+01 0.209E+02 0.105E+02   0.547E-02 -.562E-03 0.198E-03
   -.497E+02 0.102E+02 0.142E+02   0.700E+02 -.156E+02 -.184E+02   -.242E+02 0.518E+01 0.349E+01   0.154E-02 0.353E-02 -.171E-02
   -.174E+02 0.104E+03 -.386E+02   -.407E+01 -.118E+03 0.526E+02   0.234E+02 0.143E+02 -.137E+02   -.447E-03 -.786E-03 -.296E-03
   0.990E+02 -.889E+01 0.829E+02   -.118E+03 0.224E+02 -.803E+02   0.220E+02 -.171E+02 -.266E+01   0.292E-02 -.531E-02 -.228E-02
   0.724E+02 0.452E+02 -.137E+03   -.719E+02 -.396E+02 0.168E+03   0.323E+00 -.620E+01 -.299E+02   0.393E-02 -.285E-02 0.502E-02
   -.121E+03 0.208E+02 -.680E+02   0.130E+03 -.265E+02 0.769E+02   -.104E+02 0.651E+01 -.101E+02   0.281E-02 0.397E-02 -.282E-02
   0.505E+02 0.586E+02 -.525E+02   -.464E+02 -.625E+02 0.538E+02   -.483E+01 0.444E+01 -.756E+00   0.211E-02 -.168E-02 0.674E-03
   0.408E+01 -.838E+02 -.890E+02   -.113E+02 0.950E+02 0.962E+02   0.965E+01 -.144E+02 -.983E+01   -.455E-02 -.500E-02 -.511E-02
   0.730E+02 -.851E+02 -.171E+03   -.899E+02 0.105E+03 0.182E+03   0.182E+02 -.218E+02 -.131E+02   -.175E-02 -.615E-02 0.255E-02
   0.128E+02 0.102E+02 -.438E+02   -.264E+02 -.210E+02 0.524E+02   0.151E+02 0.133E+02 -.109E+02   0.396E-02 0.607E-02 -.225E-02
   0.119E+03 0.936E+02 0.184E+02   -.120E+03 -.123E+03 -.272E+02   -.121E+01 0.296E+02 0.981E+01   -.658E-03 -.359E-02 -.127E-03
   -.415E+02 0.723E+02 0.178E+03   0.337E+02 -.837E+02 -.190E+03   0.957E+01 0.148E+02 0.120E+02   0.393E-02 -.686E-02 -.210E-02
   0.669E+01 0.835E+02 -.170E+03   -.145E+02 -.847E+02 0.161E+03   0.110E+02 0.734E+00 0.135E+02   -.282E-02 0.347E-02 0.704E-03
   0.941E+02 0.804E+02 -.274E+03   -.107E+03 -.905E+02 0.291E+03   0.121E+02 0.112E+02 -.163E+02   0.663E-03 -.178E-02 0.229E-02
   -.452E+02 0.451E+02 -.129E+03   0.481E+02 -.421E+02 0.136E+03   -.137E+01 -.315E+01 -.605E+01   -.196E-02 -.173E-02 0.687E-03
 -----------------------------------------------------------------------------------------------
   -.149E+03 -.888E+02 0.300E+01   0.178E-12 0.810E-12 0.199E-12   0.149E+03 0.888E+02 -.298E+01   0.147E-03 -.235E-01 -.443E-02
 
 
 POSITION                                       TOTAL-FORCE (eV/Angst)
 -----------------------------------------------------------------------------------
      6.06507     12.92368      9.51248         0.221337     -1.106558      2.940886
      2.60170     10.10212     11.83469        -1.181607      1.542436     -1.451762
      1.00692      2.88931      6.52272        -0.595081     -0.074410     -1.285874
     10.20064      4.71304     12.46419        -0.669362     -1.670415      1.173317
     12.82681      1.85572     12.33657        -0.079415     -0.986187      1.421762
      0.85089      6.04956      3.78546         0.049712     -0.287459     -0.624462
      8.57483      2.06855      7.35603        -3.219710      2.508513     -1.898037
     11.88146     10.54367      0.83308         1.026044      1.490201     -1.515868
      4.36928      3.84740      4.47979         0.144869      0.311993      0.331896
      6.86965      3.52155     12.14745         0.160344      1.569693      1.487087
      3.11935      3.38367      0.23428        -0.794246     -0.464508      1.448667
     11.82465      6.18867      9.65551        -0.605528     -1.310232      2.485687
      8.81127      8.94950      8.61347         1.479332      2.035096      1.700511
     12.45591      9.25835      5.90186        -4.573852      2.462640      1.901626
      7.47928      0.19972      0.92474        -0.460350     -0.057066     -0.617427
     10.48824      5.95061      3.52212        -1.359182      0.003483      0.801080
      0.73607      1.10599      2.85372        -1.717440      2.913530     -2.414431
     12.08766      7.46372      0.30752         0.273745     -1.388403     -0.110607
      5.68028     10.82984      6.78528        -0.922820     -1.466171     -1.874705
      2.11873     10.74212      2.47098         2.594227     -1.715019     -0.286711
     10.52083     12.11206      3.70014        -1.185658      3.203711     -1.068548
      4.70254      7.79497      3.15981         3.497446      0.021287      1.269795
      6.97282      0.75736      5.27635        -3.292326      2.117536     -2.702029
      2.24381      7.68578      1.09111         1.145743     -1.000972      0.486088
      4.52472      3.60090      9.32967        -0.340262      2.693524     -0.746462
      4.74431      6.89414     10.77990        -1.602211      2.366168      2.672082
      4.44700      6.46224      7.67763        -0.609837      1.262478      0.654980
      7.06943     10.68200      3.42297         0.686657      2.104433     -1.744787
      3.15963      0.89472      3.78705        -4.677600     -0.347236      2.890904
      1.93250      4.68250     10.65982        -2.482448      9.751996     -1.191553
      5.13099     11.66048     12.57773        -2.163766     -0.601419     -2.766028
     11.42142     12.65960      7.92624        -7.042327      0.011159     -4.988521
     10.53040      1.59954      1.46290         0.358595     -2.470985     -5.827928
     11.58666     10.47926     10.91003        -1.819220      0.142867     -4.317639
      2.30367      8.91620      5.76898         2.541471     -1.078940      1.900400
      7.57388     10.36474     11.18929         1.339935     -1.643632      1.822705
      6.56030      4.28284      6.72684        -0.223462     -0.943245     -2.931522
     10.88591      2.23078      8.69785         4.156087      9.570476      3.638651
     12.39441      6.05973      6.93235         1.248956     -5.262672     -5.879593
      2.15757     11.31789      7.05060         1.959420     -3.822745     -1.230607
      8.56840      4.19195      9.54118         0.412093     -1.133876      0.614911
     10.42059      9.43034      3.27417         3.293585    -10.084434      2.017552
      9.32266      8.14034     12.45811         7.220969     -3.127110      0.301604
      9.00000     10.92188      5.84807        -1.400058      4.455886      0.032182
      8.51358      6.49090      1.62662        -2.732645      0.758858     -1.172138
      0.41515      2.53095      9.71028        -0.562036      1.268353      6.229716
      4.40580      9.85882      9.22760        -6.134273      0.764551      5.879913
     12.10581      3.87837      2.09123         0.945461      2.083571      1.411131
      8.14365      6.56951      6.44405        -6.427144      3.293534      0.717884
      0.79499     12.16426      4.71133         0.449335      2.818152      4.960961
      8.95157      2.43302      3.44000         8.596252      0.911930      6.176287
      3.99264      1.04234      7.59030        -4.037034     -0.639268     -0.518373
      4.43889      0.81394      1.76326        -0.423226     -2.288467      1.140345
      4.23705      5.93928      1.20629         5.690279     -2.907171      3.053237
     11.24075      8.01433      3.72036        -1.393041      4.824786     -0.982441
      9.58771      6.56881      6.08880         2.883987     -0.442127     -1.192634
      2.99927      3.27385      6.41456         1.391814     -0.968056      1.517673
     10.10513      3.75362      8.40491        -1.977445     -1.290522     -0.077313
      0.72227      9.00129      0.92644        -0.174419      2.144929      0.248889
      7.40323      4.07865      8.13654         1.554275      1.087694      0.237384
     12.70845      4.26391     10.88990         2.568449     -0.619703     -2.711679
      4.60204      8.38254      8.83726         3.112028     -1.091677     -1.290731
      1.90815      5.39602     12.07281         1.480303      0.574706      0.450557
      1.47023      2.20688      1.19627         0.186170      0.500539     -2.258063
      4.89527      1.57262      0.48054        -0.098343      1.967859     -0.324469
     10.16108     10.20989      2.04610         0.931082      1.893267     -4.758402
     12.31498      0.24320      4.49121         3.217076     -2.830768      0.463452
     12.07125     11.94588     10.79725         0.967278      0.325991      3.507895
      7.70747      1.93266      2.89050        -6.111014     -1.652982     -3.575623
     10.18099      6.88574      1.06939        -1.517407      0.645577      3.964757
      5.86714      5.58215     10.04256         1.556778     -4.628088     -1.954964
      4.81255      0.75494      6.39810         5.227686      0.280408     -4.507801
     10.37529      1.24105      7.72258         1.054868     -8.178640     -3.484479
     11.46952      6.98758      7.67078        -0.878579      3.274925      1.842074
      0.26638      4.84228      7.76942        -1.511851      2.928346     -1.997208
      2.92272     12.40934      4.57482        -2.040567      0.514513      0.516319
      9.60050     10.19989      4.29301        -2.352896      1.406400      7.067879
      0.60285      1.19628     10.51655         1.482960     -0.104078     -1.270297
     10.52360      1.33428      3.04791        -2.686727      0.616661      0.760106
      5.02624      4.63496      6.77842        -0.473115      0.329238      0.936109
      2.09162      3.25880     10.40329         0.892969     -9.890842     -1.693801
      8.34409     11.82549      2.29890        -1.902474     -2.169958      3.280725
     11.96671      9.17241     11.73744         0.115475      0.432240      1.342401
     11.49010      3.10572      0.68783        -0.298857     -0.750283      2.243337
      9.12237      1.46351      0.45753         3.529088      1.780222      1.950489
      4.87311      7.60780      0.83386        -3.919003     -2.786743      1.096596
     12.45256     11.87768      8.55592         4.174635     -2.125339      1.707533
      5.47821     12.67997      2.59219        -1.237317      1.639282     -1.590192
     12.22243      5.63277      1.73845         0.476549     -3.118510      1.532715
     11.77317      0.39237      1.00112        -1.188379      0.911667      1.131021
      8.00539     11.47381     12.15073         1.849953      1.970748      2.606799
      9.12810      5.34798     10.66501        -2.437389     -3.226143     -4.392893
     10.62491      6.51281     11.79980         1.909254      5.138328     -2.099268
      8.41519     12.39422      5.08499         3.337446     -5.005097      0.947364
      2.70240     10.12842      9.10100         1.066208      1.464048     -0.828431
      0.83044      8.19425      5.20667         5.448830     -3.956857     -1.666523
     11.24178      2.37475     10.14000        -0.176900     -1.176604      5.480135
      6.94790      5.79536      5.43996         1.873978     -1.490307      4.335047
      3.74953     11.90642      7.18208        -2.584163      1.795086      3.355906
      8.75954      2.10744      5.15629         2.294560      1.613618     -1.950069
     10.41890      3.68075      2.86537        -1.015876      0.781079      0.376105
      2.97298      8.75005      3.36711        -2.503013      0.275236     -0.984063
     10.61336     10.20504      9.67906        -0.553282     -1.682414     -0.395693
      5.97600     10.55939      4.62134         1.083824      0.422721     -1.303114
      3.52848      8.08644      6.68477        -3.002005     -0.019355     -3.587677
      6.07083     10.01076     11.57638        -2.754885      0.047131      3.380102
      5.81225     12.84407     11.82806         1.576531      1.371315     -0.767363
      3.84279      2.07688      2.91396         2.432302     -0.492043     -0.089806
      3.07970     10.35890      5.60254        -0.621440      0.555494      0.210952
      2.79734      5.25738      9.29092        -0.056944      0.698603      2.142145
      7.86925     10.65354      9.70930        -0.747797      0.680113     -3.968715
      7.80678      6.67098      3.18725         3.191212      0.704709     -3.350704
      8.22234      7.29994      0.07768        -6.013395     -3.751461      5.700411
     12.64090      2.29676      8.32966        -0.623536     -0.210703     -4.636941
      8.02173      2.67549     10.14424         0.070030      1.713148     -0.458517
      7.52595      7.86029      7.53571        -0.127209     -5.444010     -3.428436
      4.86946     11.17364     10.18232        -0.247965      0.044794     -3.844968
      7.95235      5.17977      0.89781         1.415293     -2.779646     -0.212533
      8.30243      8.75253     11.55733        -2.231451      6.067185     -6.436019
      0.48031      3.51140      3.15107        -3.606687      1.138606     -1.584997
      6.49284      2.73473      6.08390         0.865897      2.240717      1.165923
      5.44013      4.99456      0.39099        -3.932802     -0.239084     -0.660366
      7.79785     10.28083      6.66194         1.905395     -0.238067      0.220103
      3.47516     12.18682     12.86312         2.749000     -3.591924     -0.079915
      4.32386      1.48141      9.04115         0.786806     -0.613714      1.237350
      4.86956      5.56447      2.97970        -1.232784      0.765728     -1.146648
      3.88650      8.83718     11.04046        -0.732177      0.557946      0.579696
      1.88543      1.98054      4.68166         2.385717     -3.278266     -2.613916
      0.96390     12.45089      6.54528         1.313874     -1.515945     -2.157815
      2.64795      5.25464      1.88228         1.619635      2.431512     -2.237152
      0.74897     10.73508      3.99789        -2.620203      0.506080      0.933375
      2.74447     12.84859      2.27907         1.748823      3.370112     -0.077715
     11.95072      5.86971      5.06442         3.179595     -0.469894      4.912135
      1.33615      9.78139      6.98184        -0.975263      1.039382      0.723301
     10.20392     11.65791      6.83378         1.493199     -0.202295      0.127354
 -----------------------------------------------------------------------------------
    total drift:                                0.009126     -0.001581      0.017416


--------------------------------------------------------------------------------------------------------



  FREE ENERGIE OF THE ION-ELECTRON SYSTEM (eV)
  ---------------------------------------------------
  free  energy   TOTEN  =      -861.27817945 eV

  energy  without entropy=     -861.20459638  energy(sigma->0) =     -861.24138791
 


--------------------------------------------------------------------------------------------------------


    POTLOK:  cpu time    0.5396: real time    0.5396


--------------------------------------------------------------------------------------------------------


     LOOP+:  cpu time 2023.6374: real time 2024.0746
    4ORBIT:  cpu time    0.0000: real time    0.0000

 total amount of memory used by VASP MPI-rank0   200871. kBytes
=======================================================================

   base      :      30000. kBytes
   nonlr-proj:      23498. kBytes
   fftplans  :      33572. kBytes
   grid      :      19248. kBytes
   one-center:        171. kBytes
   wavefun   :      94382. kBytes
 
  
  
 General timing and accounting informations for this job:
 ========================================================
  
                  Total CPU time used (sec):     2052.577
                            User time (sec):     2046.968
                          System time (sec):        5.609
                         Elapsed time (sec):     2053.316
  
                   Maximum memory used (kb):      364852.
                   Average memory used (kb):           0.
  
                          Minor page faults:       262508
                          Major page faults:            0
                 Voluntary context switches:         2690
