<?xml version="1.0" encoding="ISO-8859-1"?>
<modeling>
 <generator>
  <i name="program" type="string">vasp </i>
  <i name="version" type="string">5.4.4.18Apr17-6-g9f103f2a35  </i>
  <i name="subversion" type="string">(build Oct 31 2019 15:01:46) complex            parallel </i>
  <i name="platform" type="string">LinuxIFC </i>
  <i name="date" type="string">2024 04 19 </i>
  <i name="time" type="string">14:28:14 </i>
 </generator>
 <incar>
  <i type="int" name="ISTART">     0</i>
  <i type="string" name="PREC">anormal</i>
  <i type="logical" name="ADDGRID"> T  </i>
  <i type="int" name="IBRION">    -1</i>
  <i name="EDIFF">      0.00000100</i>
  <i name="EDIFFG">     -0.01000000</i>
  <i type="int" name="NSW">     1</i>
  <i type="int" name="ISIF">     2</i>
  <i type="int" name="ISYM">     2</i>
  <i name="ENCUT">    600.00000000</i>
  <i name="POTIM">      1.00000000</i>
  <i type="string" name="LREAL"> Auto.</i>
  <i type="int" name="ISMEAR">     0</i>
  <i name="SIGMA">      0.05000000</i>
  <i name="KSPACING">      0.25000000</i>
  <i type="logical" name="LWAVE"> F  </i>
  <i type="logical" name="LCHARG"> F  </i>
  <i type="logical" name="LSCALAPACK"> F  </i>
  <v type="int" name="KPOINT_BSE">    -1     0     0     0</v>
 </incar>
 <structure name="primitive_cell" >
  <crystal>
   <varray name="basis" >
    <v>      13.12862340       0.00000000       0.00000000 </v>
    <v>      -6.56431170      11.36972138       0.00000000 </v>
    <v>       0.00000000       0.00000000      26.82809424 </v>
   </varray>
   <i name="volume">   4004.59716953 </i>
   <varray name="rec_basis" >
    <v>       0.07616945       0.04397645       0.00000000 </v>
    <v>       0.00000000       0.08795290       0.00000000 </v>
    <v>       0.00000000       0.00000000       0.03727436 </v>
   </varray>
  </crystal>
  <varray name="positions" >
   <v>       0.07934531       0.15736922       0.44590699 </v>
   <v>       0.23656017       0.24499583       0.49317978 </v>
   <v>      -0.00893968       0.00211371       0.49450074 </v>
   <v>       0.16698549       0.07783262       0.40468158 </v>
   <v>      -0.09179718       0.06975777       0.40218664 </v>
   <v>       0.17535858       0.34092955       0.40704373 </v>
   <v>      -0.00206222       0.25591794       0.49372764 </v>
   <v>       0.15604050       0.08443597      -0.45637017 </v>
   <v>      -0.16815463      -0.08486095       0.44761478 </v>
   <v>       0.32999523       0.16917654       0.45023750 </v>
   <v>      -0.15859644       0.17177533       0.44719504 </v>
   <v>       0.08996597      -0.08223212       0.45293779 </v>
   <v>       0.16393633       0.32926687      -0.45785773 </v>
   <v>       0.08902144       0.40992084       0.44936908 </v>
   <v>      -0.09153459       0.07810260      -0.45612811 </v>
   <v>       0.33328303       0.41818136       0.45219365 </v>
   <v>       0.07149353       0.16780161      -0.41701310 </v>
   <v>      -0.08684837      -0.17073332       0.40895658 </v>
   <v>       0.40673223       0.32156481       0.40687907 </v>
   <v>       0.24361328      -0.00584611       0.49824203 </v>
   <v>      -0.06978096       0.34808549       0.40780016 </v>
   <v>      -0.25527319       0.00205836       0.49795258 </v>
   <v>       0.24993557       0.49867436       0.49855061 </v>
   <v>      -0.08433822      -0.16114393      -0.45799503 </v>
   <v>      -0.07225740       0.34006762      -0.44875088 </v>
   <v>       0.42796224       0.33831238      -0.45189970 </v>
   <v>       0.32213504       0.16773499      -0.41142190 </v>
   <v>      -0.32230771      -0.16611460       0.40663677 </v>
   <v>      -0.16108997      -0.07933111      -0.41085134 </v>
   <v>      -0.16711188       0.16105389      -0.41457178 </v>
   <v>       0.33254602       0.41287036      -0.41689815 </v>
   <v>       0.09696742       0.40495332      -0.40975185 </v>
   <v>       0.06791560      -0.09558433      -0.41163393 </v>
   <v>       0.41270308       0.07926020       0.40793839 </v>
   <v>      -0.00379154      -0.24915167      -0.49865521 </v>
   <v>       0.49263054       0.24689945       0.49863521 </v>
   <v>      -0.34364126       0.07395321       0.41266702 </v>
   <v>       0.16771636      -0.17986085       0.41489242 </v>
   <v>      -0.26197138      -0.25023021      -0.49742608 </v>
   <v>      -0.24591265       0.25444330       0.49846279 </v>
   <v>       0.17736057      -0.40961717       0.40942618 </v>
   <v>      -0.49534076      -0.49644500      -0.49715837 </v>
   <v>       0.42969700      -0.40080774       0.41158106 </v>
   <v>      -0.00281765      -0.49421162      -0.49808812 </v>
   <v>       0.41026435       0.08517074      -0.45359013 </v>
   <v>      -0.17133799      -0.33354059       0.45811146 </v>
   <v>      -0.41302629      -0.08447449       0.45335345 </v>
   <v>       0.33780622      -0.07669681       0.45256732 </v>
   <v>      -0.33424109      -0.16634045      -0.44969513 </v>
   <v>       0.16835207      -0.17008445      -0.45195630 </v>
   <v>      -0.33644050       0.08401629      -0.45512792 </v>
   <v>       0.16917859      -0.41721791      -0.45641405 </v>
   <v>       0.41270436      -0.42029704      -0.45372307 </v>
   <v>      -0.41536338       0.42216276       0.45679687 </v>
   <v>       0.33728746      -0.33169056       0.45008205 </v>
   <v>      -0.16835605       0.42170992       0.45725232 </v>
   <v>      -0.40712024      -0.32783435       0.45671301 </v>
   <v>      -0.40463386       0.17068061       0.45154416 </v>
   <v>       0.08178566      -0.33306039       0.45426996 </v>
   <v>       0.32483010      -0.07858854      -0.41200064 </v>
   <v>      -0.09310457      -0.41739741       0.41724408 </v>
   <v>      -0.16718325      -0.32737670      -0.40657533 </v>
   <v>       0.31691229      -0.34553455      -0.41147855 </v>
   <v>      -0.33235935      -0.42644314       0.41673486 </v>
   <v>      -0.49482375      -0.25224590      -0.49842882 </v>
   <v>      -0.33116054       0.34067221       0.41249627 </v>
   <v>      -0.42377346      -0.07566089      -0.40800595 </v>
   <v>      -0.49863476      -0.00170850      -0.49788104 </v>
   <v>       0.25753548      -0.24728065      -0.49814404 </v>
   <v>      -0.15835131       0.42087746      -0.40459083 </v>
   <v>      -0.41898682       0.40525124      -0.40292712 </v>
   <v>      -0.07816109      -0.41215423      -0.44775282 </v>
   <v>      -0.32906241       0.32851922      -0.44863880 </v>
   <v>      -0.34391911      -0.42227192      -0.44403861 </v>
   <v>       0.42918095      -0.15725448       0.41261404 </v>
   <v>       0.08893285      -0.32534106      -0.40973149 </v>
   <v>      -0.42808280       0.15505322      -0.40746121 </v>
   <v>      -0.41885749      -0.33172303      -0.40744050 </v>
   <v>      -0.24807821       0.49768475      -0.49194593 </v>
   <v>       0.41099624      -0.16969800      -0.44392337 </v>
  </varray>
 </structure>
 <varray name="primitive_index" >
  <v type="int" >        1 </v>
  <v type="int" >       70 </v>
  <v type="int" >       65 </v>
  <v type="int" >       49 </v>
  <v type="int" >       61 </v>
  <v type="int" >       50 </v>
  <v type="int" >       66 </v>
  <v type="int" >       17 </v>
  <v type="int" >       16 </v>
  <v type="int" >        5 </v>
  <v type="int" >       13 </v>
  <v type="int" >        4 </v>
  <v type="int" >       18 </v>
  <v type="int" >        2 </v>
  <v type="int" >       29 </v>
  <v type="int" >        6 </v>
  <v type="int" >       33 </v>
  <v type="int" >       64 </v>
  <v type="int" >       54 </v>
  <v type="int" >       69 </v>
  <v type="int" >       62 </v>
  <v type="int" >       77 </v>
  <v type="int" >       71 </v>
  <v type="int" >       32 </v>
  <v type="int" >       30 </v>
  <v type="int" >       22 </v>
  <v type="int" >       37 </v>
  <v type="int" >       60 </v>
  <v type="int" >       48 </v>
  <v type="int" >       45 </v>
  <v type="int" >       38 </v>
  <v type="int" >       34 </v>
  <v type="int" >       36 </v>
  <v type="int" >       53 </v>
  <v type="int" >       68 </v>
  <v type="int" >       74 </v>
  <v type="int" >       57 </v>
  <v type="int" >       52 </v>
  <v type="int" >       80 </v>
  <v type="int" >       78 </v>
  <v type="int" >       51 </v>
  <v type="int" >       75 </v>
  <v type="int" >       55 </v>
  <v type="int" >       67 </v>
  <v type="int" >       21 </v>
  <v type="int" >       15 </v>
  <v type="int" >       12 </v>
  <v type="int" >        8 </v>
  <v type="int" >       28 </v>
  <v type="int" >       20 </v>
  <v type="int" >       25 </v>
  <v type="int" >       19 </v>
  <v type="int" >       23 </v>
  <v type="int" >       10 </v>
  <v type="int" >        7 </v>
  <v type="int" >       14 </v>
  <v type="int" >       11 </v>
  <v type="int" >        9 </v>
  <v type="int" >        3 </v>
  <v type="int" >       40 </v>
  <v type="int" >       63 </v>
  <v type="int" >       47 </v>
  <v type="int" >       39 </v>
  <v type="int" >       59 </v>
  <v type="int" >       76 </v>
  <v type="int" >       58 </v>
  <v type="int" >       44 </v>
  <v type="int" >       73 </v>
  <v type="int" >       72 </v>
  <v type="int" >       46 </v>
  <v type="int" >       42 </v>
  <v type="int" >       31 </v>
  <v type="int" >       26 </v>
  <v type="int" >       27 </v>
  <v type="int" >       56 </v>
  <v type="int" >       35 </v>
  <v type="int" >       41 </v>
  <v type="int" >       43 </v>
  <v type="int" >       79 </v>
  <v type="int" >       24 </v>
 </varray>
 <kpoints>
  <generation param="Gamma">
   <v type="int" name="divisions">       3        3        1 </v>
   <v name="usershift">      0.00000000       0.00000000       0.00000000 </v>
   <v name="genvec1">      0.33333333       0.00000000       0.00000000 </v>
   <v name="genvec2">      0.00000000       0.33333333       0.00000000 </v>
   <v name="genvec3">      0.00000000       0.00000000       1.00000000 </v>
   <v name="shift">      0.00000000       0.00000000       0.00000000 </v>
  </generation>
  <varray name="kpointlist" >
   <v>       0.00000000       0.00000000       0.00000000 </v>
   <v>       0.33333333      -0.00000000       0.00000000 </v>
   <v>       0.00000000       0.33333333       0.00000000 </v>
   <v>       0.33333333       0.33333333       0.00000000 </v>
   <v>      -0.33333333       0.33333333       0.00000000 </v>
  </varray>
  <varray name="weights" >
   <v>       0.11111111 </v>
   <v>       0.22222222 </v>
   <v>       0.22222222 </v>
   <v>       0.22222222 </v>
   <v>       0.22222222 </v>
  </varray>
 </kpoints>
 <parameters>
  <separator name="general" >
   <i type="string" name="SYSTEM">unknown system</i>
   <i type="logical" name="LCOMPAT"> F  </i>
  </separator>
  <separator name="electronic" >
   <i type="string" name="PREC">anorma</i>
   <i name="ENMAX">    600.00000000</i>
   <i name="ENAUG">    644.87300000</i>
   <i name="EDIFF">      0.00000100</i>
   <i type="int" name="IALGO">    38</i>
   <i type="int" name="IWAVPR">    10</i>
   <i type="int" name="NBANDS">   384</i>
   <i name="NELECT">    640.00000000</i>
   <i type="int" name="TURBO">     0</i>
   <i type="int" name="IRESTART">     0</i>
   <i type="int" name="NREBOOT">     0</i>
   <i type="int" name="NMIN">     0</i>
   <i name="EREF">      0.00000000</i>
   <separator name="electronic smearing" >
    <i type="int" name="ISMEAR">     0</i>
    <i name="SIGMA">      0.05000000</i>
    <i name="KSPACING">      0.25000000</i>
    <i type="logical" name="KGAMMA"> T  </i>
   </separator>
   <separator name="electronic projectors" >
    <i type="logical" name="LREAL"> T  </i>
    <v name="ROPT">     -0.00025000     -0.00025000     -0.00025000</v>
    <i type="int" name="LMAXPAW">  -100</i>
    <i type="int" name="LMAXMIX">     2</i>
    <i type="logical" name="NLSPLINE"> F  </i>
   </separator>
   <separator name="electronic startup" >
    <i type="int" name="ISTART">     0</i>
    <i type="int" name="ICHARG">     2</i>
    <i type="int" name="INIWAV">     1</i>
   </separator>
   <separator name="electronic spin" >
    <i type="int" name="ISPIN">     1</i>
    <i type="logical" name="LNONCOLLINEAR"> F  </i>
    <v name="MAGMOM">      1.00000000      1.00000000      1.00000000      1.00000000      1.00000000      1.00000000      1.00000000      1.00000000      1.00000000      1.00000000      1.00000000      1.00000000      1.00000000      1.00000000      1.00000000      1.00000000      1.00000000      1.00000000      1.00000000      1.00000000
      1.00000000      1.00000000      1.00000000      1.00000000      1.00000000      1.00000000      1.00000000      1.00000000      1.00000000      1.00000000      1.00000000      1.00000000      1.00000000      1.00000000      1.00000000      1.00000000      1.00000000      1.00000000      1.00000000      1.00000000
      1.00000000      1.00000000      1.00000000      1.00000000      1.00000000      1.00000000      1.00000000      1.00000000      1.00000000      1.00000000      1.00000000      1.00000000      1.00000000      1.00000000      1.00000000      1.00000000      1.00000000      1.00000000      1.00000000      1.00000000
      1.00000000      1.00000000      1.00000000      1.00000000      1.00000000      1.00000000      1.00000000      1.00000000      1.00000000      1.00000000      1.00000000      1.00000000      1.00000000      1.00000000      1.00000000      1.00000000      1.00000000      1.00000000      1.00000000      1.00000000
</v>
    <i name="NUPDOWN">     -1.00000000</i>
    <i type="logical" name="LSORBIT"> F  </i>
    <v name="SAXIS">      0.00000000      0.00000000      1.00000000</v>
    <i type="logical" name="LSPIRAL"> F  </i>
    <v name="QSPIRAL">      0.00000000      0.00000000      0.00000000</v>
    <i type="logical" name="LZEROZ"> F  </i>
   </separator>
   <separator name="electronic exchange-correlation" >
    <i type="logical" name="LASPH"> F  </i>
    <i type="logical" name="LMETAGGA"> F  </i>
   </separator>
   <separator name="electronic convergence" >
    <i type="int" name="NELM">    60</i>
    <i type="int" name="NELMDL">    -5</i>
    <i type="int" name="NELMIN">     2</i>
    <i name="ENINI">    600.00000000</i>
    <separator name="electronic convergence detail" >
     <i type="logical" name="LDIAG"> T  </i>
     <i type="logical" name="LSUBROT"> F  </i>
     <i name="WEIMIN">      0.00000000</i>
     <i name="EBREAK">      0.00000000</i>
     <i name="DEPER">      0.30000000</i>
     <i type="int" name="NRMM">     4</i>
     <i name="TIME">      0.40000000</i>
    </separator>
   </separator>
   <separator name="electronic mixer" >
    <i name="AMIX">      0.40000000</i>
    <i name="BMIX">      1.00000000</i>
    <i name="AMIN">      0.10000000</i>
    <i name="AMIX_MAG">      1.60000000</i>
    <i name="BMIX_MAG">      1.00000000</i>
    <separator name="electronic mixer details" >
     <i type="int" name="IMIX">     4</i>
     <i type="logical" name="MIXFIRST"> F  </i>
     <i type="int" name="MAXMIX">   -45</i>
     <i name="WC">    100.00000000</i>
     <i type="int" name="INIMIX">     1</i>
     <i type="int" name="MIXPRE">     1</i>
     <i type="int" name="MREMOVE">     5</i>
    </separator>
   </separator>
   <separator name="electronic dipolcorrection" >
    <i type="logical" name="LDIPOL"> F  </i>
    <i type="logical" name="LMONO"> F  </i>
    <i type="int" name="IDIPOL">     0</i>
    <i name="EPSILON">      1.00000000</i>
    <v name="DIPOL">   -100.00000000   -100.00000000   -100.00000000</v>
    <i name="EFIELD">      0.00000000</i>
   </separator>
  </separator>
  <separator name="grids" >
   <i type="int" name="NGX">   108</i>
   <i type="int" name="NGY">   108</i>
   <i type="int" name="NGZ">   216</i>
   <i type="int" name="NGXF">   216</i>
   <i type="int" name="NGYF">   216</i>
   <i type="int" name="NGZF">   432</i>
   <i type="logical" name="ADDGRID"> T  </i>
  </separator>
  <separator name="ionic" >
   <i type="int" name="NSW">     1</i>
   <i type="int" name="IBRION">    -1</i>
   <i type="int" name="MDALGO">     0</i>
   <i type="int" name="ISIF">     2</i>
   <i name="PSTRESS">      0.00000000</i>
   <i name="EDIFFG">     -0.01000000</i>
   <i type="int" name="NFREE">     0</i>
   <i name="POTIM">      1.00000000</i>
   <i name="SMASS">     -3.00000000</i>
   <i name="SCALEE">      1.00000000</i>
  </separator>
  <separator name="ionic md" >
   <i name="TEBEG">      0.00010000</i>
   <i name="TEEND">      0.00010000</i>
   <i type="int" name="NBLOCK">     1</i>
   <i type="int" name="KBLOCK">     1</i>
   <i type="int" name="NPACO">   256</i>
   <i name="APACO">     16.00000000</i>
  </separator>
  <separator name="symmetry" >
   <i type="int" name="ISYM">     2</i>
   <i name="SYMPREC">      0.00001000</i>
  </separator>
  <separator name="dos" >
   <i type="int" name="LORBIT">     0</i>
   <v name="RWIGS">     -1.00000000     -1.00000000     -1.00000000</v>
   <i type="int" name="NEDOS">   301</i>
   <i name="EMIN">     10.00000000</i>
   <i name="EMAX">    -10.00000000</i>
   <i name="EFERMI">      0.00000000</i>
  </separator>
  <separator name="writing" >
   <i type="int" name="NWRITE">     2</i>
   <i type="logical" name="LWAVE"> F  </i>
   <i type="logical" name="LDOWNSAMPLE"> F  </i>
   <i type="logical" name="LCHARG"> F  </i>
   <i type="logical" name="LPARD"> F  </i>
   <i type="logical" name="LVTOT"> F  </i>
   <i type="logical" name="LVHAR"> F  </i>
   <i type="logical" name="LELF"> F  </i>
   <i type="logical" name="LOPTICS"> F  </i>
   <v name="STM">      0.00000000      0.00000000      0.00000000      0.00000000      0.00000000      0.00000000      0.00000000</v>
  </separator>
  <separator name="performance" >
   <i type="int" name="NPAR">     4</i>
   <i type="int" name="NSIM">     4</i>
   <i type="int" name="NBLK">    -1</i>
   <i type="logical" name="LPLANE"> T  </i>
   <i type="logical" name="LSCALAPACK"> F  </i>
   <i type="logical" name="LSCAAWARE"> F  </i>
   <i type="logical" name="LSCALU"> F  </i>
   <i type="logical" name="LASYNC"> F  </i>
   <i type="logical" name="LORBITALREAL"> F  </i>
  </separator>
  <separator name="miscellaneous" >
   <i type="int" name="IDIOT">     3</i>
   <i type="int" name="ISPECIAL">     0</i>
   <i type="logical" name="LMUSIC"> F  </i>
   <v name="POMASS">     44.95600000     18.99800000     12.01100000</v>
   <v name="DARWINR">      0.00000000      0.00000000      0.00000000</v>
   <v name="DARWINV">      1.00000000      1.00000000      1.00000000</v>
   <i type="logical" name="LCORR"> T  </i>
  </separator>
  <i type="logical" name="GGA_COMPAT"> T  </i>
  <i type="logical" name="LBERRY"> F  </i>
  <i type="int" name="ICORELEVEL">     0</i>
  <i type="logical" name="LDAU"> F  </i>
  <i type="int" name="I_CONSTRAINED_M">     0</i>
  <separator name="electronic exchange-correlation" >
   <i type="string" name="GGA">--</i>
   <i type="int" name="VOSKOWN">     0</i>
   <i type="logical" name="LHFCALC"> F  </i>
   <i type="string" name="PRECFOCK"></i>
   <i type="logical" name="LSYMGRAD"> F  </i>
   <i type="logical" name="LHFONE"> F  </i>
   <i type="logical" name="LRHFCALC"> F  </i>
   <i type="logical" name="LTHOMAS"> F  </i>
   <i type="logical" name="LMODELHF"> F  </i>
   <i name="ENCUT4O">     -1.00000000</i>
   <i type="int" name="EXXOEP">     0</i>
   <i type="int" name="FOURORBIT">     0</i>
   <i name="AEXX">      0.00000000</i>
   <i name="HFALPHA">      0.00000000</i>
   <i name="MCALPHA">      0.00000000</i>
   <i name="ALDAX">      1.00000000</i>
   <i name="AGGAX">      1.00000000</i>
   <i name="ALDAC">      1.00000000</i>
   <i name="AGGAC">      1.00000000</i>
   <i type="int" name="NKREDX">     1</i>
   <i type="int" name="NKREDY">     1</i>
   <i type="int" name="NKREDZ">     1</i>
   <i type="logical" name="SHIFTRED"> F  </i>
   <i type="logical" name="ODDONLY"> F  </i>
   <i type="logical" name="EVENONLY"> F  </i>
   <i type="int" name="LMAXFOCK">     0</i>
   <i type="int" name="NMAXFOCKAE">     0</i>
   <i type="logical" name="LFOCKAEDFT"> F  </i>
   <i name="HFSCREEN">      0.00000000</i>
   <i name="HFSCREENC">      0.00000000</i>
   <i type="int" name="NBANDSGWLOW">     0</i>
  </separator>
  <separator name="vdW DFT" >
   <i type="logical" name="LUSE_VDW"> F  </i>
   <i name="Zab_VDW">     -0.84910000</i>
   <i name="PARAM1">      0.12340000</i>
   <i name="PARAM2">      1.00000000</i>
   <i name="PARAM3">      0.00000000</i>
  </separator>
  <separator name="model GW" >
   <i type="int" name="MODEL_GW">     0</i>
   <i name="MODEL_EPS0">     30.03447877</i>
   <i name="MODEL_ALPHA">      1.00000000</i>
  </separator>
  <separator name="linear response parameters" >
   <i type="logical" name="LEPSILON"> F  </i>
   <i type="logical" name="LRPA"> F  </i>
   <i type="logical" name="LNABLA"> F  </i>
   <i type="logical" name="LVEL"> F  </i>
   <i type="int" name="KINTER">     0</i>
   <i name="CSHIFT">      0.10000000</i>
   <i name="OMEGAMAX">     -1.00000000</i>
   <i name="DEG_THRESHOLD">      0.00200000</i>
   <i name="RTIME">     -0.10000000</i>
   <i name="WPLASMAI">      0.00000000</i>
   <v name="DFIELD">      0.00000000      0.00000000      0.00000000</v>
   <v name="WPLASMA">      0.00000000      0.00000000      0.00000000      0.00000000      0.00000000      0.00000000      0.00000000      0.00000000      0.00000000</v>
  </separator>
  <separator name="orbital magnetization" >
   <i type="logical" name="NUCIND"> F  </i>
   <v name="MAGPOS">      0.00000000      0.00000000      0.00000000</v>
   <i type="logical" name="LNICSALL"> T  </i>
   <i type="logical" name="ORBITALMAG"> F  </i>
   <i type="logical" name="LMAGBLOCH"> F  </i>
   <i type="logical" name="LCHIMAG"> F  </i>
   <i type="logical" name="LGAUGE"> T  </i>
   <i type="int" name="MAGATOM">     0</i>
   <v name="MAGDIPOL">      0.00000000      0.00000000      0.00000000</v>
   <v name="AVECCONST">      0.00000000      0.00000000      0.00000000</v>
  </separator>
  <separator name="response functions" >
   <i type="logical" name="LADDER"> F  </i>
   <i type="logical" name="LRPAFORCE"> F  </i>
   <i type="logical" name="LFXC"> F  </i>
   <i type="logical" name="LHARTREE"> T  </i>
   <i type="int" name="IBSE">     0</i>
   <v type="int" name="KPOINT">    -1     0     0     0</v>
   <i type="logical" name="LTCTE"> F  </i>
   <i type="logical" name="LTETE"> F  </i>
   <i type="logical" name="LTRIPLET"> F  </i>
   <i type="logical" name="LFXCEPS"> F  </i>
   <i type="logical" name="LFXHEG"> F  </i>
   <i type="int" name="NATURALO">     2</i>
   <i type="logical" name="L2ORDER"> F  </i>
   <i type="logical" name="LMP2LT"> F  </i>
   <i type="logical" name="LUSEW"> F  </i>
   <i name="ENCUTGW">     -2.00000000</i>
   <i name="ENCUTGWSOFT">     -2.00000000</i>
   <i name="ENCUTLF">     -1.00000000</i>
   <i type="int" name="LMAXMP2">    -1</i>
   <i name="SCISSOR">      0.00000000</i>
   <i type="int" name="NOMEGA">     0</i>
   <i type="int" name="NOMEGAR">     0</i>
   <i type="int" name="NBANDSGW">    -1</i>
   <i type="int" name="NBANDSO">    -1</i>
   <i type="int" name="NBANDSV">    -1</i>
   <i type="int" name="NELM">     1</i>
   <i type="int" name="NELMHF">     1</i>
   <i type="int" name="DIM">     3</i>
   <i type="int" name="ANTIRES">     0</i>
   <i name="OMEGAMAX">    -30.00000000</i>
   <i name="OMEGAMIN">    -30.00000000</i>
   <i name="OMEGATL">   -200.00000000</i>
   <i type="int" name="OMEGAGRID">   140</i>
   <i name="CSHIFT">     -0.10000000</i>
   <i type="logical" name="SELFENERGY"> F  </i>
   <i type="logical" name="LSPECTRAL"> F  </i>
   <i type="logical" name="LSPECTRALGW"> F  </i>
   <i type="logical" name="LSINGLES"> F  </i>
   <i type="logical" name="LFERMIGW"> F  </i>
   <i type="logical" name="ODDONLYGW"> F  </i>
   <i type="logical" name="EVENONLYGW"> F  </i>
   <i type="int" name="NKREDLFX">     1</i>
   <i type="int" name="NKREDLFY">     1</i>
   <i type="int" name="NKREDLFZ">     1</i>
   <i type="int" name="MAXMEM">  2800</i>
   <i type="int" name="TELESCOPE">     0</i>
   <i type="int" name="TAUPAR">     1</i>
   <i type="int" name="OMEGAPAR">    -1</i>
   <i name="LAMBDA">      1.00000000</i>
  </separator>
  <separator name="External order field" >
   <i name="OFIELD_KAPPA">      0.00000000</i>
   <v name="OFIELD_K">      0.00000000      0.00000000      0.00000000</v>
   <i name="OFIELD_Q6_NEAR">      0.00000000</i>
   <i name="OFIELD_Q6_FAR">      0.00000000</i>
   <i name="OFIELD_A">      0.00000000</i>
  </separator>
 </parameters>
 <atominfo>
  <atoms>      80 </atoms>
  <types>       3 </types>
  <array name="atoms" >
   <dimension dim="1">ion</dimension>
   <field type="string">element</field>
   <field type="int">atomtype</field>
   <set>
    <rc><c>Sc</c><c>   1</c></rc>
    <rc><c>Sc</c><c>   1</c></rc>
    <rc><c>Sc</c><c>   1</c></rc>
    <rc><c>Sc</c><c>   1</c></rc>
    <rc><c>Sc</c><c>   1</c></rc>
    <rc><c>Sc</c><c>   1</c></rc>
    <rc><c>Sc</c><c>   1</c></rc>
    <rc><c>Sc</c><c>   1</c></rc>
    <rc><c>Sc</c><c>   1</c></rc>
    <rc><c>Sc</c><c>   1</c></rc>
    <rc><c>Sc</c><c>   1</c></rc>
    <rc><c>Sc</c><c>   1</c></rc>
    <rc><c>Sc</c><c>   1</c></rc>
    <rc><c>Sc</c><c>   1</c></rc>
    <rc><c>Sc</c><c>   1</c></rc>
    <rc><c>Sc</c><c>   1</c></rc>
    <rc><c>Sc</c><c>   1</c></rc>
    <rc><c>Sc</c><c>   1</c></rc>
    <rc><c>Sc</c><c>   1</c></rc>
    <rc><c>Sc</c><c>   1</c></rc>
    <rc><c>Sc</c><c>   1</c></rc>
    <rc><c>Sc</c><c>   1</c></rc>
    <rc><c>Sc</c><c>   1</c></rc>
    <rc><c>Sc</c><c>   1</c></rc>
    <rc><c>Sc</c><c>   1</c></rc>
    <rc><c>Sc</c><c>   1</c></rc>
    <rc><c>Sc</c><c>   1</c></rc>
    <rc><c>Sc</c><c>   1</c></rc>
    <rc><c>Sc</c><c>   1</c></rc>
    <rc><c>Sc</c><c>   1</c></rc>
    <rc><c>Sc</c><c>   1</c></rc>
    <rc><c>Sc</c><c>   1</c></rc>
    <rc><c>F </c><c>   2</c></rc>
    <rc><c>F </c><c>   2</c></rc>
    <rc><c>F </c><c>   2</c></rc>
    <rc><c>F </c><c>   2</c></rc>
    <rc><c>F </c><c>   2</c></rc>
    <rc><c>F </c><c>   2</c></rc>
    <rc><c>F </c><c>   2</c></rc>
    <rc><c>F </c><c>   2</c></rc>
    <rc><c>F </c><c>   2</c></rc>
    <rc><c>F </c><c>   2</c></rc>
    <rc><c>F </c><c>   2</c></rc>
    <rc><c>F </c><c>   2</c></rc>
    <rc><c>F </c><c>   2</c></rc>
    <rc><c>F </c><c>   2</c></rc>
    <rc><c>F </c><c>   2</c></rc>
    <rc><c>F </c><c>   2</c></rc>
    <rc><c>F </c><c>   2</c></rc>
    <rc><c>F </c><c>   2</c></rc>
    <rc><c>F </c><c>   2</c></rc>
    <rc><c>F </c><c>   2</c></rc>
    <rc><c>F </c><c>   2</c></rc>
    <rc><c>F </c><c>   2</c></rc>
    <rc><c>F </c><c>   2</c></rc>
    <rc><c>F </c><c>   2</c></rc>
    <rc><c>F </c><c>   2</c></rc>
    <rc><c>F </c><c>   2</c></rc>
    <rc><c>F </c><c>   2</c></rc>
    <rc><c>F </c><c>   2</c></rc>
    <rc><c>F </c><c>   2</c></rc>
    <rc><c>F </c><c>   2</c></rc>
    <rc><c>F </c><c>   2</c></rc>
    <rc><c>F </c><c>   2</c></rc>
    <rc><c>C </c><c>   3</c></rc>
    <rc><c>C </c><c>   3</c></rc>
    <rc><c>C </c><c>   3</c></rc>
    <rc><c>C </c><c>   3</c></rc>
    <rc><c>C </c><c>   3</c></rc>
    <rc><c>C </c><c>   3</c></rc>
    <rc><c>C </c><c>   3</c></rc>
    <rc><c>C </c><c>   3</c></rc>
    <rc><c>C </c><c>   3</c></rc>
    <rc><c>C </c><c>   3</c></rc>
    <rc><c>C </c><c>   3</c></rc>
    <rc><c>C </c><c>   3</c></rc>
    <rc><c>C </c><c>   3</c></rc>
    <rc><c>C </c><c>   3</c></rc>
    <rc><c>C </c><c>   3</c></rc>
    <rc><c>C </c><c>   3</c></rc>
   </set>
  </array>
  <array name="atomtypes" >
   <dimension dim="1">type</dimension>
   <field type="int">atomspertype</field>
   <field type="string">element</field>
   <field>mass</field>
   <field>valence</field>
   <field type="string">pseudopotential</field>
   <set>
    <rc><c>  32</c><c>Sc</c><c>     44.95600000</c><c>     11.00000000</c><c>  PAW_PBE Sc_sv 07Sep2000               </c></rc>
    <rc><c>  32</c><c>F </c><c>     18.99800000</c><c>      7.00000000</c><c>  PAW_PBE F 08Apr2002                   </c></rc>
    <rc><c>  16</c><c>C </c><c>     12.01100000</c><c>      4.00000000</c><c>  PAW_PBE C 08Apr2002                   </c></rc>
   </set>
  </array>
 </atominfo>
 <structure name="initialpos" >
  <crystal>
   <varray name="basis" >
    <v>      13.12862340       0.00000000       0.00000000 </v>
    <v>      -6.56431170      11.36972138       0.00000000 </v>
    <v>       0.00000000       0.00000000      26.82809424 </v>
   </varray>
   <i name="volume">   4004.59716953 </i>
   <varray name="rec_basis" >
    <v>       0.07616945       0.04397645       0.00000000 </v>
    <v>       0.00000000       0.08795290       0.00000000 </v>
    <v>       0.00000000       0.00000000       0.03727436 </v>
   </varray>
  </crystal>
  <varray name="positions" >
   <v>       0.07934531       0.15736922       0.44590699 </v>
   <v>       0.08902144       0.40992084       0.44936908 </v>
   <v>       0.08178566       0.66693961       0.45426996 </v>
   <v>       0.08996597       0.91776788       0.45293779 </v>
   <v>       0.32999523       0.16917654       0.45023750 </v>
   <v>       0.33328303       0.41818136       0.45219365 </v>
   <v>       0.33728746       0.66830944       0.45008205 </v>
   <v>       0.33780622       0.92330319       0.45256732 </v>
   <v>       0.59536614       0.17068061       0.45154416 </v>
   <v>       0.58463662       0.42216276       0.45679687 </v>
   <v>       0.59287976       0.67216565       0.45671301 </v>
   <v>       0.58697371       0.91552551       0.45335345 </v>
   <v>       0.84140356       0.17177533       0.44719504 </v>
   <v>       0.83164395       0.42170992       0.45725232 </v>
   <v>       0.82866201       0.66645941       0.45811146 </v>
   <v>       0.83184537       0.91513905       0.44761478 </v>
   <v>       0.15604050       0.08443597       0.54362983 </v>
   <v>       0.16393633       0.32926687       0.54214227 </v>
   <v>       0.16917859       0.58278209       0.54358595 </v>
   <v>       0.16835207       0.82991555       0.54804370 </v>
   <v>       0.41026435       0.08517074       0.54640987 </v>
   <v>       0.42796224       0.33831238       0.54810030 </v>
   <v>       0.41270436       0.57970296       0.54627693 </v>
   <v>       0.41099624       0.83030200       0.55607663 </v>
   <v>       0.66355950       0.08401629       0.54487208 </v>
   <v>       0.67093759       0.32851922       0.55136120 </v>
   <v>       0.65608089       0.57772808       0.55596139 </v>
   <v>       0.66575891       0.83365955       0.55030487 </v>
   <v>       0.90846541       0.07810260       0.54387189 </v>
   <v>       0.92774260       0.34006762       0.55124912 </v>
   <v>       0.92183891       0.58784577       0.55224718 </v>
   <v>       0.91566178       0.83885607       0.54200497 </v>
   <v>       0.07149353       0.16780161       0.58298690 </v>
   <v>       0.09696742       0.40495332       0.59024815 </v>
   <v>       0.08893285       0.67465894       0.59026851 </v>
   <v>       0.06791560       0.90441567       0.58836607 </v>
   <v>       0.32213504       0.16773499       0.58857810 </v>
   <v>       0.33254602       0.41287036       0.58310185 </v>
   <v>       0.31691229       0.65446545       0.58852145 </v>
   <v>       0.32483010       0.92141146       0.58799936 </v>
   <v>       0.57191720       0.15505322       0.59253879 </v>
   <v>       0.58101318       0.40525124       0.59707288 </v>
   <v>       0.58114251       0.66827697       0.59255950 </v>
   <v>       0.57622654       0.92433911       0.59199405 </v>
   <v>       0.83288812       0.16105389       0.58542822 </v>
   <v>       0.84164869       0.42087746       0.59540917 </v>
   <v>       0.83281675       0.67262330       0.59342467 </v>
   <v>       0.83891003       0.92066889       0.58914866 </v>
   <v>       0.16698549       0.07783262       0.40468158 </v>
   <v>       0.17535858       0.34092955       0.40704373 </v>
   <v>       0.17736057       0.59038283       0.40942618 </v>
   <v>       0.16771636       0.82013915       0.41489242 </v>
   <v>       0.41270308       0.07926020       0.40793839 </v>
   <v>       0.40673223       0.32156481       0.40687907 </v>
   <v>       0.42969700       0.59919226       0.41158106 </v>
   <v>       0.42918095       0.84274552       0.41261404 </v>
   <v>       0.65635874       0.07395321       0.41266702 </v>
   <v>       0.66883946       0.34067221       0.41249627 </v>
   <v>       0.66764065       0.57355686       0.41673486 </v>
   <v>       0.67769229       0.83388540       0.40663677 </v>
   <v>       0.90820282       0.06975777       0.40218664 </v>
   <v>       0.93021904       0.34808549       0.40780016 </v>
   <v>       0.90689543       0.58260259       0.41724408 </v>
   <v>       0.91315163       0.82926668       0.40895658 </v>
   <v>       0.99106032       0.00211371       0.49450074 </v>
   <v>       0.99793778       0.25591794       0.49372764 </v>
   <v>       0.99718235       0.50578838       0.50191188 </v>
   <v>       0.99620846       0.75084833       0.50134479 </v>
   <v>       0.24361328       0.99415389       0.49824203 </v>
   <v>       0.23656017       0.24499583       0.49317978 </v>
   <v>       0.24993557       0.49867436       0.49855061 </v>
   <v>       0.25753548       0.75271935       0.50185596 </v>
   <v>       0.50136524       0.99829150       0.50211896 </v>
   <v>       0.49263054       0.24689945       0.49863521 </v>
   <v>       0.50465924       0.50355500       0.50284163 </v>
   <v>       0.50517625       0.74775410       0.50157118 </v>
   <v>       0.74472681       0.00205836       0.49795258 </v>
   <v>       0.75408735       0.25444330       0.49846279 </v>
   <v>       0.75192179       0.49768475       0.50805407 </v>
   <v>       0.73802862       0.74976979       0.50257392 </v>
  </varray>
  <varray name="velocities" >
   <v>       0.00000000       0.00000000       0.00000000 </v>
   <v>       0.00000000       0.00000000       0.00000000 </v>
   <v>       0.00000000       0.00000000       0.00000000 </v>
   <v>       0.00000000       0.00000000       0.00000000 </v>
   <v>       0.00000000       0.00000000       0.00000000 </v>
   <v>       0.00000000       0.00000000       0.00000000 </v>
   <v>       0.00000000       0.00000000       0.00000000 </v>
   <v>       0.00000000       0.00000000       0.00000000 </v>
   <v>       0.00000000       0.00000000       0.00000000 </v>
   <v>       0.00000000       0.00000000       0.00000000 </v>
   <v>       0.00000000       0.00000000       0.00000000 </v>
   <v>       0.00000000       0.00000000       0.00000000 </v>
   <v>       0.00000000       0.00000000       0.00000000 </v>
   <v>       0.00000000       0.00000000       0.00000000 </v>
   <v>       0.00000000       0.00000000       0.00000000 </v>
   <v>       0.00000000       0.00000000       0.00000000 </v>
   <v>       0.00000000       0.00000000       0.00000000 </v>
   <v>       0.00000000       0.00000000       0.00000000 </v>
   <v>       0.00000000       0.00000000       0.00000000 </v>
   <v>       0.00000000       0.00000000       0.00000000 </v>
   <v>       0.00000000       0.00000000       0.00000000 </v>
   <v>       0.00000000       0.00000000       0.00000000 </v>
   <v>       0.00000000       0.00000000       0.00000000 </v>
   <v>       0.00000000       0.00000000       0.00000000 </v>
   <v>       0.00000000       0.00000000       0.00000000 </v>
   <v>       0.00000000       0.00000000       0.00000000 </v>
   <v>       0.00000000       0.00000000       0.00000000 </v>
   <v>       0.00000000       0.00000000       0.00000000 </v>
   <v>       0.00000000       0.00000000       0.00000000 </v>
   <v>       0.00000000       0.00000000       0.00000000 </v>
   <v>       0.00000000       0.00000000       0.00000000 </v>
   <v>       0.00000000       0.00000000       0.00000000 </v>
   <v>       0.00000000       0.00000000       0.00000000 </v>
   <v>       0.00000000       0.00000000       0.00000000 </v>
   <v>       0.00000000       0.00000000       0.00000000 </v>
   <v>       0.00000000       0.00000000       0.00000000 </v>
   <v>       0.00000000       0.00000000       0.00000000 </v>
   <v>       0.00000000       0.00000000       0.00000000 </v>
   <v>       0.00000000       0.00000000       0.00000000 </v>
   <v>       0.00000000       0.00000000       0.00000000 </v>
   <v>       0.00000000       0.00000000       0.00000000 </v>
   <v>       0.00000000       0.00000000       0.00000000 </v>
   <v>       0.00000000       0.00000000       0.00000000 </v>
   <v>       0.00000000       0.00000000       0.00000000 </v>
   <v>       0.00000000       0.00000000       0.00000000 </v>
   <v>       0.00000000       0.00000000       0.00000000 </v>
   <v>       0.00000000       0.00000000       0.00000000 </v>
   <v>       0.00000000       0.00000000       0.00000000 </v>
   <v>       0.00000000       0.00000000       0.00000000 </v>
   <v>       0.00000000       0.00000000       0.00000000 </v>
   <v>       0.00000000       0.00000000       0.00000000 </v>
   <v>       0.00000000       0.00000000       0.00000000 </v>
   <v>       0.00000000       0.00000000       0.00000000 </v>
   <v>       0.00000000       0.00000000       0.00000000 </v>
   <v>       0.00000000       0.00000000       0.00000000 </v>
   <v>       0.00000000       0.00000000       0.00000000 </v>
   <v>       0.00000000       0.00000000       0.00000000 </v>
   <v>       0.00000000       0.00000000       0.00000000 </v>
   <v>       0.00000000       0.00000000       0.00000000 </v>
   <v>       0.00000000       0.00000000       0.00000000 </v>
   <v>       0.00000000       0.00000000       0.00000000 </v>
   <v>       0.00000000       0.00000000       0.00000000 </v>
   <v>       0.00000000       0.00000000       0.00000000 </v>
   <v>       0.00000000       0.00000000       0.00000000 </v>
   <v>       0.00000000       0.00000000       0.00000000 </v>
   <v>       0.00000000       0.00000000       0.00000000 </v>
   <v>       0.00000000       0.00000000       0.00000000 </v>
   <v>       0.00000000       0.00000000       0.00000000 </v>
   <v>       0.00000000       0.00000000       0.00000000 </v>
   <v>       0.00000000       0.00000000       0.00000000 </v>
   <v>       0.00000000       0.00000000       0.00000000 </v>
   <v>       0.00000000       0.00000000       0.00000000 </v>
   <v>       0.00000000       0.00000000       0.00000000 </v>
   <v>       0.00000000       0.00000000       0.00000000 </v>
   <v>       0.00000000       0.00000000       0.00000000 </v>
   <v>       0.00000000       0.00000000       0.00000000 </v>
   <v>       0.00000000       0.00000000       0.00000000 </v>
   <v>       0.00000000       0.00000000       0.00000000 </v>
   <v>       0.00000000       0.00000000       0.00000000 </v>
   <v>       0.00000000       0.00000000       0.00000000 </v>
  </varray>
 </structure>
 <calculation>
  <scstep>
   <time name="dav">   47.49   47.50</time>
   <time name="total">   48.36   48.38</time>
   <energy>
    <i name="alphaZ">    871.83850952 </i>
    <i name="ewald"> 287416.31500172 </i>
    <i name="hartreedc">-341753.36605408 </i>
    <i name="XCdc">   3043.60044485 </i>
    <i name="pawpsdc">  50525.51240023 </i>
    <i name="pawaedc"> -50422.77561733 </i>
    <i name="eentropy">     -0.06875743 </i>
    <i name="bandstr">   -161.04695816 </i>
    <i name="atom">  64207.43592568 </i>
    <i name="e_fr_energy">  13727.44489500 </i>
    <i name="e_wo_entrp">  13727.51365243 </i>
    <i name="e_0_energy">  13727.47927372 </i>
   </energy>
  </scstep>
  <scstep>
   <time name="dav">   50.41   50.44</time>
   <time name="total">   50.41   50.44</time>
   <energy>
    <i name="e_fr_energy">   2508.75345546 </i>
    <i name="e_wo_entrp">   2508.79983998 </i>
    <i name="e_0_energy">   2508.77664772 </i>
   </energy>
  </scstep>
  <scstep>
   <time name="dav">   68.50   68.51</time>
   <time name="total">   68.50   68.51</time>
   <energy>
    <i name="e_fr_energy">   -382.09553460 </i>
    <i name="e_wo_entrp">   -382.09553460 </i>
    <i name="e_0_energy">   -382.09553460 </i>
   </energy>
  </scstep>
  <scstep>
   <time name="dav">   62.20   62.21</time>
   <time name="total">   62.20   62.21</time>
   <energy>
    <i name="e_fr_energy">   -741.02648935 </i>
    <i name="e_wo_entrp">   -741.02648935 </i>
    <i name="e_0_energy">   -741.02648935 </i>
   </energy>
  </scstep>
  <scstep>
   <time name="dav">   62.28   62.29</time>
   <time name="total">   65.94   65.94</time>
   <energy>
    <i name="e_fr_energy">   -755.52312027 </i>
    <i name="e_wo_entrp">   -755.52312027 </i>
    <i name="e_0_energy">   -755.52312027 </i>
   </energy>
  </scstep>
  <scstep>
   <time name="dav">   58.54   58.54</time>
   <time name="total">   63.05   63.06</time>
   <energy>
    <i name="e_fr_energy">   -599.14677262 </i>
    <i name="e_wo_entrp">   -599.14677262 </i>
    <i name="e_0_energy">   -599.14677262 </i>
   </energy>
  </scstep>
  <scstep>
   <time name="dav">   61.05   61.05</time>
   <time name="total">   65.53   65.55</time>
   <energy>
    <i name="e_fr_energy">   -599.02399011 </i>
    <i name="e_wo_entrp">   -599.02399011 </i>
    <i name="e_0_energy">   -599.02399011 </i>
   </energy>
  </scstep>
  <scstep>
   <time name="dav">   57.68   57.68</time>
   <time name="total">   62.26   62.27</time>
   <energy>
    <i name="e_fr_energy">   -597.33600678 </i>
    <i name="e_wo_entrp">   -597.33600678 </i>
    <i name="e_0_energy">   -597.33600678 </i>
   </energy>
  </scstep>
  <scstep>
   <time name="dav">   58.02   58.02</time>
   <time name="total">   62.53   62.54</time>
   <energy>
    <i name="e_fr_energy">   -596.79964412 </i>
    <i name="e_wo_entrp">   -596.79964412 </i>
    <i name="e_0_energy">   -596.79964412 </i>
   </energy>
  </scstep>
  <scstep>
   <time name="dav">   60.80   60.80</time>
   <time name="total">   65.30   65.31</time>
   <energy>
    <i name="e_fr_energy">   -596.75840331 </i>
    <i name="e_wo_entrp">   -596.75840331 </i>
    <i name="e_0_energy">   -596.75840331 </i>
   </energy>
  </scstep>
  <scstep>
   <time name="dav">   57.74   57.74</time>
   <time name="total">   62.25   62.26</time>
   <energy>
    <i name="e_fr_energy">   -596.62049813 </i>
    <i name="e_wo_entrp">   -596.62049813 </i>
    <i name="e_0_energy">   -596.62049813 </i>
   </energy>
  </scstep>
  <scstep>
   <time name="dav">   62.02   62.02</time>
   <time name="total">   66.43   66.44</time>
   <energy>
    <i name="e_fr_energy">   -596.58692543 </i>
    <i name="e_wo_entrp">   -596.58692543 </i>
    <i name="e_0_energy">   -596.58692543 </i>
   </energy>
  </scstep>
  <scstep>
   <time name="dav">   59.96   59.96</time>
   <time name="total">   64.44   64.45</time>
   <energy>
    <i name="e_fr_energy">   -596.57637905 </i>
    <i name="e_wo_entrp">   -596.57637905 </i>
    <i name="e_0_energy">   -596.57637905 </i>
   </energy>
  </scstep>
  <scstep>
   <time name="dav">   59.91   59.91</time>
   <time name="total">   64.38   64.39</time>
   <energy>
    <i name="e_fr_energy">   -596.57302131 </i>
    <i name="e_wo_entrp">   -596.57302131 </i>
    <i name="e_0_energy">   -596.57302131 </i>
   </energy>
  </scstep>
  <scstep>
   <time name="dav">   59.53   59.54</time>
   <time name="total">   64.01   64.03</time>
   <energy>
    <i name="e_fr_energy">   -596.57894105 </i>
    <i name="e_wo_entrp">   -596.57894105 </i>
    <i name="e_0_energy">   -596.57894105 </i>
   </energy>
  </scstep>
  <scstep>
   <time name="dav">   57.26   57.26</time>
   <time name="total">   61.72   61.75</time>
   <energy>
    <i name="e_fr_energy">   -596.58244537 </i>
    <i name="e_wo_entrp">   -596.58244537 </i>
    <i name="e_0_energy">   -596.58244537 </i>
   </energy>
  </scstep>
  <scstep>
   <time name="dav">   59.21   59.22</time>
   <time name="total">   63.76   63.79</time>
   <energy>
    <i name="e_fr_energy">   -596.58811290 </i>
    <i name="e_wo_entrp">   -596.58811290 </i>
    <i name="e_0_energy">   -596.58811290 </i>
   </energy>
  </scstep>
  <scstep>
   <time name="dav">   56.66   56.66</time>
   <time name="total">   61.13   61.14</time>
   <energy>
    <i name="e_fr_energy">   -596.59156351 </i>
    <i name="e_wo_entrp">   -596.59156351 </i>
    <i name="e_0_energy">   -596.59156351 </i>
   </energy>
  </scstep>
  <scstep>
   <time name="dav">   59.07   59.07</time>
   <time name="total">   63.62   63.63</time>
   <energy>
    <i name="e_fr_energy">   -596.59310044 </i>
    <i name="e_wo_entrp">   -596.59310044 </i>
    <i name="e_0_energy">   -596.59310044 </i>
   </energy>
  </scstep>
  <scstep>
   <time name="dav">   56.02   56.02</time>
   <time name="total">   60.47   60.49</time>
   <energy>
    <i name="e_fr_energy">   -596.59619687 </i>
    <i name="e_wo_entrp">   -596.59619687 </i>
    <i name="e_0_energy">   -596.59619687 </i>
   </energy>
  </scstep>
  <scstep>
   <time name="dav">   49.45   49.45</time>
   <time name="total">   53.93   53.94</time>
   <energy>
    <i name="e_fr_energy">   -596.59905863 </i>
    <i name="e_wo_entrp">   -596.59905863 </i>
    <i name="e_0_energy">   -596.59905863 </i>
   </energy>
  </scstep>
  <scstep>
   <time name="dav">   50.93   50.93</time>
   <time name="total">   55.39   55.40</time>
   <energy>
    <i name="e_fr_energy">   -596.60034847 </i>
    <i name="e_wo_entrp">   -596.60034847 </i>
    <i name="e_0_energy">   -596.60034847 </i>
   </energy>
  </scstep>
  <scstep>
   <time name="dav">   51.84   51.84</time>
   <time name="total">   56.28   56.29</time>
   <energy>
    <i name="e_fr_energy">   -596.60084188 </i>
    <i name="e_wo_entrp">   -596.60084188 </i>
    <i name="e_0_energy">   -596.60084188 </i>
   </energy>
  </scstep>
  <scstep>
   <time name="dav">   50.17   50.17</time>
   <time name="total">   54.66   54.66</time>
   <energy>
    <i name="e_fr_energy">   -596.60114981 </i>
    <i name="e_wo_entrp">   -596.60114981 </i>
    <i name="e_0_energy">   -596.60114981 </i>
   </energy>
  </scstep>
  <scstep>
   <time name="dav">   46.87   46.87</time>
   <time name="total">   51.37   51.39</time>
   <energy>
    <i name="e_fr_energy">   -596.60134999 </i>
    <i name="e_wo_entrp">   -596.60134999 </i>
    <i name="e_0_energy">   -596.60134999 </i>
   </energy>
  </scstep>
  <scstep>
   <time name="dav">   37.04   37.04</time>
   <time name="total">   41.51   41.52</time>
   <energy>
    <i name="e_fr_energy">   -596.60142488 </i>
    <i name="e_wo_entrp">   -596.60142488 </i>
    <i name="e_0_energy">   -596.60142488 </i>
   </energy>
  </scstep>
  <scstep>
   <time name="dav">   33.65   33.65</time>
   <time name="total">   38.18   38.20</time>
   <energy>
    <i name="e_fr_energy">   -596.60144591 </i>
    <i name="e_wo_entrp">   -596.60144591 </i>
    <i name="e_0_energy">   -596.60144591 </i>
   </energy>
  </scstep>
  <scstep>
   <time name="dav">   34.89   34.89</time>
   <time name="total">   39.32   39.33</time>
   <energy>
    <i name="e_fr_energy">   -596.60147496 </i>
    <i name="e_wo_entrp">   -596.60147496 </i>
    <i name="e_0_energy">   -596.60147496 </i>
   </energy>
  </scstep>
  <scstep>
   <time name="dav">   33.48   33.48</time>
   <time name="total">   37.91   37.93</time>
   <energy>
    <i name="e_fr_energy">   -596.60148166 </i>
    <i name="e_wo_entrp">   -596.60148166 </i>
    <i name="e_0_energy">   -596.60148166 </i>
   </energy>
  </scstep>
  <scstep>
   <time name="dav">   33.06   33.06</time>
   <time name="total">   37.47   37.48</time>
   <energy>
    <i name="e_fr_energy">   -596.60148517 </i>
    <i name="e_wo_entrp">   -596.60148517 </i>
    <i name="e_0_energy">   -596.60148517 </i>
   </energy>
  </scstep>
  <scstep>
   <time name="dav">   32.88   32.88</time>
   <time name="total">   37.39   37.40</time>
   <energy>
    <i name="e_fr_energy">   -596.60148720 </i>
    <i name="e_wo_entrp">   -596.60148720 </i>
    <i name="e_0_energy">   -596.60148720 </i>
   </energy>
  </scstep>
  <scstep>
   <time name="dav">   32.74   32.74</time>
   <time name="total">   37.26   37.26</time>
   <energy>
    <i name="e_fr_energy">   -596.60148839 </i>
    <i name="e_wo_entrp">   -596.60148839 </i>
    <i name="e_0_energy">   -596.60148839 </i>
   </energy>
  </scstep>
  <scstep>
   <time name="dav">   32.63   32.63</time>
   <time name="total">   33.49   33.50</time>
   <energy>
    <i name="alphaZ">    871.83850952 </i>
    <i name="ewald"> 287416.31500172 </i>
    <i name="hartreedc">-343056.85962632 </i>
    <i name="XCdc">   3055.39803810 </i>
    <i name="pawpsdc">  66410.95838507 </i>
    <i name="pawaedc"> -66403.84944531 </i>
    <i name="eentropy">     -0.00000000 </i>
    <i name="bandstr"> -13097.83827738 </i>
    <i name="atom">  64207.43592568 </i>
    <i name="e_fr_energy">   -596.60148893 </i>
    <i name="e_wo_entrp">   -596.60148893 </i>
    <i name="e_0_energy">   -596.60148893 </i>
   </energy>
  </scstep>
  <structure>
   <crystal>
    <varray name="basis" >
     <v>      13.12862340       0.00000000       0.00000000 </v>
     <v>      -6.56431170      11.36972138       0.00000000 </v>
     <v>       0.00000000       0.00000000      26.82809424 </v>
    </varray>
    <i name="volume">   4004.59716953 </i>
    <varray name="rec_basis" >
     <v>       0.07616945       0.04397645       0.00000000 </v>
     <v>       0.00000000       0.08795290       0.00000000 </v>
     <v>       0.00000000       0.00000000       0.03727436 </v>
    </varray>
   </crystal>
   <varray name="positions" >
    <v>       0.07934531       0.15736922       0.44590699 </v>
    <v>       0.08902144       0.40992084       0.44936908 </v>
    <v>       0.08178566       0.66693961       0.45426996 </v>
    <v>       0.08996597       0.91776788       0.45293779 </v>
    <v>       0.32999523       0.16917654       0.45023750 </v>
    <v>       0.33328303       0.41818136       0.45219365 </v>
    <v>       0.33728746       0.66830944       0.45008205 </v>
    <v>       0.33780622       0.92330319       0.45256732 </v>
    <v>       0.59536614       0.17068061       0.45154416 </v>
    <v>       0.58463662       0.42216276       0.45679687 </v>
    <v>       0.59287976       0.67216565       0.45671301 </v>
    <v>       0.58697371       0.91552551       0.45335345 </v>
    <v>       0.84140356       0.17177533       0.44719504 </v>
    <v>       0.83164395       0.42170992       0.45725232 </v>
    <v>       0.82866201       0.66645941       0.45811146 </v>
    <v>       0.83184537       0.91513905       0.44761478 </v>
    <v>       0.15604050       0.08443597       0.54362983 </v>
    <v>       0.16393633       0.32926687       0.54214227 </v>
    <v>       0.16917859       0.58278209       0.54358595 </v>
    <v>       0.16835207       0.82991555       0.54804370 </v>
    <v>       0.41026435       0.08517074       0.54640987 </v>
    <v>       0.42796224       0.33831238       0.54810030 </v>
    <v>       0.41270436       0.57970296       0.54627693 </v>
    <v>       0.41099624       0.83030200       0.55607663 </v>
    <v>       0.66355950       0.08401629       0.54487208 </v>
    <v>       0.67093759       0.32851922       0.55136120 </v>
    <v>       0.65608089       0.57772808       0.55596139 </v>
    <v>       0.66575891       0.83365955       0.55030487 </v>
    <v>       0.90846541       0.07810260       0.54387189 </v>
    <v>       0.92774260       0.34006762       0.55124912 </v>
    <v>       0.92183891       0.58784577       0.55224718 </v>
    <v>       0.91566178       0.83885607       0.54200497 </v>
    <v>       0.07149353       0.16780161       0.58298690 </v>
    <v>       0.09696742       0.40495332       0.59024815 </v>
    <v>       0.08893285       0.67465894       0.59026851 </v>
    <v>       0.06791560       0.90441567       0.58836607 </v>
    <v>       0.32213504       0.16773499       0.58857810 </v>
    <v>       0.33254602       0.41287036       0.58310185 </v>
    <v>       0.31691229       0.65446545       0.58852145 </v>
    <v>       0.32483010       0.92141146       0.58799936 </v>
    <v>       0.57191720       0.15505322       0.59253879 </v>
    <v>       0.58101318       0.40525124       0.59707288 </v>
    <v>       0.58114251       0.66827697       0.59255950 </v>
    <v>       0.57622654       0.92433911       0.59199405 </v>
    <v>       0.83288812       0.16105389       0.58542822 </v>
    <v>       0.84164869       0.42087746       0.59540917 </v>
    <v>       0.83281675       0.67262330       0.59342467 </v>
    <v>       0.83891003       0.92066889       0.58914866 </v>
    <v>       0.16698549       0.07783262       0.40468158 </v>
    <v>       0.17535858       0.34092955       0.40704373 </v>
    <v>       0.17736057       0.59038283       0.40942618 </v>
    <v>       0.16771636       0.82013915       0.41489242 </v>
    <v>       0.41270308       0.07926020       0.40793839 </v>
    <v>       0.40673223       0.32156481       0.40687907 </v>
    <v>       0.42969700       0.59919226       0.41158106 </v>
    <v>       0.42918095       0.84274552       0.41261404 </v>
    <v>       0.65635874       0.07395321       0.41266702 </v>
    <v>       0.66883946       0.34067221       0.41249627 </v>
    <v>       0.66764065       0.57355686       0.41673486 </v>
    <v>       0.67769229       0.83388540       0.40663677 </v>
    <v>       0.90820282       0.06975777       0.40218664 </v>
    <v>       0.93021904       0.34808549       0.40780016 </v>
    <v>       0.90689543       0.58260259       0.41724408 </v>
    <v>       0.91315163       0.82926668       0.40895658 </v>
    <v>       0.99106032       0.00211371       0.49450074 </v>
    <v>       0.99793778       0.25591794       0.49372764 </v>
    <v>       0.99718235       0.50578838       0.50191188 </v>
    <v>       0.99620846       0.75084833       0.50134479 </v>
    <v>       0.24361328       0.99415389       0.49824203 </v>
    <v>       0.23656017       0.24499583       0.49317978 </v>
    <v>       0.24993557       0.49867436       0.49855061 </v>
    <v>       0.25753548       0.75271935       0.50185596 </v>
    <v>       0.50136524       0.99829150       0.50211896 </v>
    <v>       0.49263054       0.24689945       0.49863521 </v>
    <v>       0.50465924       0.50355500       0.50284163 </v>
    <v>       0.50517625       0.74775410       0.50157118 </v>
    <v>       0.74472681       0.00205836       0.49795258 </v>
    <v>       0.75408735       0.25444330       0.49846279 </v>
    <v>       0.75192179       0.49768475       0.50805407 </v>
    <v>       0.73802862       0.74976979       0.50257392 </v>
   </varray>
  </structure>
  <varray name="forces" >
   <v>      -0.12115501       0.70417579       0.13087180 </v>
   <v>      -1.16367874       1.15604698      -0.06288531 </v>
   <v>       0.12537899      -0.65453227       0.34883703 </v>
   <v>      -0.66028407      -0.85650061      -0.63635290 </v>
   <v>       0.69717439      -0.23922785       0.07692391 </v>
   <v>       0.46835054      -0.17263263      -0.35581443 </v>
   <v>       0.07172860       0.61033305       0.90750749 </v>
   <v>       0.70221954      -0.47961557       0.56185497 </v>
   <v>      -1.46825264      -0.19693590       0.52696143 </v>
   <v>       0.66341273      -1.23204641       0.25709069 </v>
   <v>      -1.43031849      -0.55425502      -0.71421539 </v>
   <v>      -0.55965308      -0.24825816       0.61618367 </v>
   <v>      -0.65647236      -0.07570033       0.84936725 </v>
   <v>       0.51267948      -0.02039609      -0.10093560 </v>
   <v>       0.56894935      -0.08721383       0.06141895 </v>
   <v>      -0.15506993      -0.03127915       0.54679881 </v>
   <v>       0.89393934      -0.09254205       0.00311988 </v>
   <v>       0.38354971       0.01610019      -0.17278299 </v>
   <v>      -0.52089089       0.01236800      -0.04266196 </v>
   <v>      -1.00599075       0.45552771      -0.57255718 </v>
   <v>       0.63215308       0.04913709      -0.31967783 </v>
   <v>      -0.78181345      -1.10204445      -0.27820360 </v>
   <v>      -0.04109074       0.64230254      -0.06108942 </v>
   <v>       0.32798168       0.45042444      -2.25859699 </v>
   <v>       0.23356364      -0.29724426       0.31210355 </v>
   <v>      -0.23157645       0.39044338      -0.45875706 </v>
   <v>       1.54749002       0.83774917      -0.75442024 </v>
   <v>      -0.43332206       0.07158982      -0.65698332 </v>
   <v>      -0.34380471       0.36477951      -0.67612493 </v>
   <v>      -0.51436542      -0.36409168      -1.42170241 </v>
   <v>      -0.73153566      -0.05939746      -0.24032898 </v>
   <v>       0.16284613      -0.69485612       1.48614388 </v>
   <v>       0.48092778      -0.14253833       0.56394090 </v>
   <v>      -1.01030764       0.36790239       0.10284208 </v>
   <v>       0.19419541      -0.37404263       0.41203209 </v>
   <v>       0.19003853       0.74127023      -0.07124622 </v>
   <v>       0.03263271      -0.06442940      -0.18438133 </v>
   <v>      -0.11707505      -0.19409712       0.78395617 </v>
   <v>       0.76990376       0.39961992       0.81783523 </v>
   <v>       0.42650760      -0.08326380       0.87017989 </v>
   <v>       0.13158031       0.48943025      -0.30053462 </v>
   <v>      -0.32961293       0.20344334      -0.44972706 </v>
   <v>      -0.20169038      -0.11759532       0.39023220 </v>
   <v>       0.54356832      -0.19765023       0.31319765 </v>
   <v>      -0.09223489       0.46441984       0.57260950 </v>
   <v>       0.08851418      -0.41875386      -0.17228842 </v>
   <v>      -0.11029957      -0.09349800      -0.26863811 </v>
   <v>      -0.23805785       0.11854206      -0.05091791 </v>
   <v>      -0.18534873      -0.09600855       0.22577321 </v>
   <v>      -0.04460384      -0.14063662      -0.34546894 </v>
   <v>      -0.34675604      -0.12600348      -0.01949086 </v>
   <v>      -0.32528730       0.87489302      -0.94288725 </v>
   <v>       0.10507660       0.13844826       0.17313415 </v>
   <v>       0.04716431       0.81616276       0.26266170 </v>
   <v>      -0.00911542      -0.68348922      -0.33340916 </v>
   <v>      -0.53109466      -0.51941422      -0.46099626 </v>
   <v>       0.38962016       0.57395204      -0.97236507 </v>
   <v>       0.04618972      -0.12835427      -0.05472142 </v>
   <v>      -0.21274118       0.76229827      -0.84319650 </v>
   <v>      -0.63851220      -0.33477576       0.12531949 </v>
   <v>      -0.09991541       0.56907590       0.25291660 </v>
   <v>      -0.38068293      -0.43752866      -0.00250834 </v>
   <v>       0.24382311       0.22551254      -0.72336215 </v>
   <v>      -0.00510742      -0.19023790       0.19953695 </v>
   <v>       1.08117511      -0.15036491       0.41004161 </v>
   <v>       0.34941909      -0.79455558       0.59246085 </v>
   <v>       0.98458437      -0.48254251       0.57672480 </v>
   <v>       0.36556829       0.05292270      -0.34255171 </v>
   <v>      -0.00372006       0.83905059       0.36265340 </v>
   <v>       0.78134989      -0.03422400       0.62892024 </v>
   <v>       0.36038809       0.06850142      -0.56391997 </v>
   <v>      -0.51937548      -0.38813743      -0.05801642 </v>
   <v>      -0.76190179       0.28224087      -0.36999859 </v>
   <v>       0.38400301       0.36705029       0.65532464 </v>
   <v>      -0.18087645      -0.74676586       0.08023897 </v>
   <v>      -0.77623596       0.16480931       0.50502979 </v>
   <v>       1.14270725       0.05122499       0.13570850 </v>
   <v>      -0.18596741      -0.34795296       0.67386604 </v>
   <v>      -1.00338318       0.03372826      -0.34924289 </v>
   <v>       1.99882335       0.38015354       0.29163976 </v>
  </varray>
  <varray name="stress" >
   <v>       3.61829394       1.10339630       3.51020109 </v>
   <v>       1.10339633       4.00175011       1.37804259 </v>
   <v>       3.51020111       1.37804260      -0.12386454 </v>
  </varray>
  <energy>
   <i name="e_fr_energy">   -596.60148893 </i>
   <i name="e_wo_entrp">   -596.60148893 </i>
   <i name="e_0_energy">     -0.00000000 </i>
  </energy>
  <time name="totalsc"> 1886.87 1887.31</time>
  <eigenvalues>
   <array>
    <dimension dim="1">band</dimension>
    <dimension dim="2">kpoint</dimension>
    <dimension dim="3">spin</dimension>
    <field>eigene</field>
    <field>occ</field>
    <set>
     <set comment="spin 1">
      <set comment="kpoint 1">
       <r>  -51.7573    1.0000 </r>
       <r>  -51.7056    1.0000 </r>
       <r>  -51.7007    1.0000 </r>
       <r>  -51.5372    1.0000 </r>
       <r>  -51.5245    1.0000 </r>
       <r>  -51.5225    1.0000 </r>
       <r>  -51.5010    1.0000 </r>
       <r>  -51.4750    1.0000 </r>
       <r>  -51.4489    1.0000 </r>
       <r>  -51.4176    1.0000 </r>
       <r>  -51.3924    1.0000 </r>
       <r>  -51.3908    1.0000 </r>
       <r>  -51.2764    1.0000 </r>
       <r>  -51.2713    1.0000 </r>
       <r>  -51.2517    1.0000 </r>
       <r>  -51.2387    1.0000 </r>
       <r>  -51.2332    1.0000 </r>
       <r>  -51.2301    1.0000 </r>
       <r>  -51.2219    1.0000 </r>
       <r>  -51.2192    1.0000 </r>
       <r>  -51.2104    1.0000 </r>
       <r>  -51.2096    1.0000 </r>
       <r>  -51.1965    1.0000 </r>
       <r>  -51.1932    1.0000 </r>
       <r>  -51.1865    1.0000 </r>
       <r>  -51.1246    1.0000 </r>
       <r>  -51.0014    1.0000 </r>
       <r>  -51.0010    1.0000 </r>
       <r>  -50.9685    1.0000 </r>
       <r>  -50.9184    1.0000 </r>
       <r>  -50.9154    1.0000 </r>
       <r>  -50.7319    1.0000 </r>
       <r>  -30.6288    1.0000 </r>
       <r>  -30.6214    1.0000 </r>
       <r>  -30.5902    1.0000 </r>
       <r>  -30.5671    1.0000 </r>
       <r>  -30.5400    1.0000 </r>
       <r>  -30.5276    1.0000 </r>
       <r>  -30.5031    1.0000 </r>
       <r>  -30.4790    1.0000 </r>
       <r>  -30.4760    1.0000 </r>
       <r>  -30.4591    1.0000 </r>
       <r>  -30.4329    1.0000 </r>
       <r>  -30.4249    1.0000 </r>
       <r>  -30.4169    1.0000 </r>
       <r>  -30.4033    1.0000 </r>
       <r>  -30.3937    1.0000 </r>
       <r>  -30.3694    1.0000 </r>
       <r>  -30.3691    1.0000 </r>
       <r>  -30.3526    1.0000 </r>
       <r>  -30.3370    1.0000 </r>
       <r>  -30.3325    1.0000 </r>
       <r>  -30.3171    1.0000 </r>
       <r>  -30.3013    1.0000 </r>
       <r>  -30.2938    1.0000 </r>
       <r>  -30.2731    1.0000 </r>
       <r>  -30.2717    1.0000 </r>
       <r>  -30.2614    1.0000 </r>
       <r>  -30.2524    1.0000 </r>
       <r>  -30.2408    1.0000 </r>
       <r>  -30.2334    1.0000 </r>
       <r>  -30.2211    1.0000 </r>
       <r>  -30.2154    1.0000 </r>
       <r>  -30.2046    1.0000 </r>
       <r>  -30.1975    1.0000 </r>
       <r>  -30.1758    1.0000 </r>
       <r>  -30.1696    1.0000 </r>
       <r>  -30.1533    1.0000 </r>
       <r>  -30.1445    1.0000 </r>
       <r>  -30.1358    1.0000 </r>
       <r>  -30.1123    1.0000 </r>
       <r>  -30.1099    1.0000 </r>
       <r>  -30.0849    1.0000 </r>
       <r>  -30.0759    1.0000 </r>
       <r>  -30.0673    1.0000 </r>
       <r>  -30.0571    1.0000 </r>
       <r>  -30.0403    1.0000 </r>
       <r>  -30.0350    1.0000 </r>
       <r>  -30.0229    1.0000 </r>
       <r>  -30.0146    1.0000 </r>
       <r>  -30.0034    1.0000 </r>
       <r>  -30.0008    1.0000 </r>
       <r>  -29.9895    1.0000 </r>
       <r>  -29.9857    1.0000 </r>
       <r>  -29.9846    1.0000 </r>
       <r>  -29.9624    1.0000 </r>
       <r>  -29.9547    1.0000 </r>
       <r>  -29.9501    1.0000 </r>
       <r>  -29.9453    1.0000 </r>
       <r>  -29.9343    1.0000 </r>
       <r>  -29.9307    1.0000 </r>
       <r>  -29.9265    1.0000 </r>
       <r>  -29.9165    1.0000 </r>
       <r>  -29.9160    1.0000 </r>
       <r>  -29.9074    1.0000 </r>
       <r>  -29.9001    1.0000 </r>
       <r>  -29.8886    1.0000 </r>
       <r>  -29.8855    1.0000 </r>
       <r>  -29.8813    1.0000 </r>
       <r>  -29.8780    1.0000 </r>
       <r>  -29.8553    1.0000 </r>
       <r>  -29.8472    1.0000 </r>
       <r>  -29.8447    1.0000 </r>
       <r>  -29.8365    1.0000 </r>
       <r>  -29.8302    1.0000 </r>
       <r>  -29.8072    1.0000 </r>
       <r>  -29.8037    1.0000 </r>
       <r>  -29.7925    1.0000 </r>
       <r>  -29.7721    1.0000 </r>
       <r>  -29.7647    1.0000 </r>
       <r>  -29.7643    1.0000 </r>
       <r>  -29.7487    1.0000 </r>
       <r>  -29.7373    1.0000 </r>
       <r>  -29.7151    1.0000 </r>
       <r>  -29.6882    1.0000 </r>
       <r>  -29.6855    1.0000 </r>
       <r>  -29.6697    1.0000 </r>
       <r>  -29.6579    1.0000 </r>
       <r>  -29.6501    1.0000 </r>
       <r>  -29.6471    1.0000 </r>
       <r>  -29.6244    1.0000 </r>
       <r>  -29.6076    1.0000 </r>
       <r>  -29.5972    1.0000 </r>
       <r>  -29.5869    1.0000 </r>
       <r>  -29.5858    1.0000 </r>
       <r>  -29.4811    1.0000 </r>
       <r>  -29.4610    1.0000 </r>
       <r>  -29.4397    1.0000 </r>
       <r>  -26.9003    1.0000 </r>
       <r>  -26.8597    1.0000 </r>
       <r>  -26.8203    1.0000 </r>
       <r>  -26.7818    1.0000 </r>
       <r>  -26.7728    1.0000 </r>
       <r>  -26.7247    1.0000 </r>
       <r>  -26.7176    1.0000 </r>
       <r>  -26.7099    1.0000 </r>
       <r>  -26.6917    1.0000 </r>
       <r>  -26.6734    1.0000 </r>
       <r>  -26.6400    1.0000 </r>
       <r>  -26.6340    1.0000 </r>
       <r>  -26.5922    1.0000 </r>
       <r>  -26.5634    1.0000 </r>
       <r>  -26.5584    1.0000 </r>
       <r>  -26.5496    1.0000 </r>
       <r>  -26.5115    1.0000 </r>
       <r>  -26.5013    1.0000 </r>
       <r>  -26.4976    1.0000 </r>
       <r>  -26.4777    1.0000 </r>
       <r>  -26.4371    1.0000 </r>
       <r>  -26.4109    1.0000 </r>
       <r>  -26.4062    1.0000 </r>
       <r>  -26.3849    1.0000 </r>
       <r>  -26.3128    1.0000 </r>
       <r>  -26.3069    1.0000 </r>
       <r>  -26.2829    1.0000 </r>
       <r>  -26.2323    1.0000 </r>
       <r>  -26.2148    1.0000 </r>
       <r>  -26.1330    1.0000 </r>
       <r>  -26.0954    1.0000 </r>
       <r>  -25.9352    1.0000 </r>
       <r>  -11.8734    1.0000 </r>
       <r>  -11.5325    1.0000 </r>
       <r>  -11.4635    1.0000 </r>
       <r>  -11.4409    1.0000 </r>
       <r>  -11.4093    1.0000 </r>
       <r>  -11.3750    1.0000 </r>
       <r>  -11.3124    1.0000 </r>
       <r>  -10.9383    1.0000 </r>
       <r>  -10.9210    1.0000 </r>
       <r>  -10.8599    1.0000 </r>
       <r>  -10.8134    1.0000 </r>
       <r>  -10.7810    1.0000 </r>
       <r>  -10.7437    1.0000 </r>
       <r>  -10.7327    1.0000 </r>
       <r>  -10.6647    1.0000 </r>
       <r>  -10.6065    1.0000 </r>
       <r>   -9.3276    1.0000 </r>
       <r>   -9.2919    1.0000 </r>
       <r>   -9.2627    1.0000 </r>
       <r>   -9.1999    1.0000 </r>
       <r>   -9.1820    1.0000 </r>
       <r>   -9.1432    1.0000 </r>
       <r>   -9.1301    1.0000 </r>
       <r>   -9.1191    1.0000 </r>
       <r>   -9.0768    1.0000 </r>
       <r>   -9.0657    1.0000 </r>
       <r>   -9.0364    1.0000 </r>
       <r>   -9.0251    1.0000 </r>
       <r>   -9.0072    1.0000 </r>
       <r>   -8.9487    1.0000 </r>
       <r>   -8.9413    1.0000 </r>
       <r>   -8.9273    1.0000 </r>
       <r>   -8.9083    1.0000 </r>
       <r>   -8.8912    1.0000 </r>
       <r>   -8.8763    1.0000 </r>
       <r>   -8.8623    1.0000 </r>
       <r>   -8.8483    1.0000 </r>
       <r>   -8.8130    1.0000 </r>
       <r>   -8.8036    1.0000 </r>
       <r>   -8.7847    1.0000 </r>
       <r>   -8.7805    1.0000 </r>
       <r>   -8.7703    1.0000 </r>
       <r>   -8.7631    1.0000 </r>
       <r>   -8.7425    1.0000 </r>
       <r>   -8.7224    1.0000 </r>
       <r>   -8.7052    1.0000 </r>
       <r>   -8.6834    1.0000 </r>
       <r>   -8.6822    1.0000 </r>
       <r>   -8.6633    1.0000 </r>
       <r>   -8.6377    1.0000 </r>
       <r>   -8.6168    1.0000 </r>
       <r>   -8.6079    1.0000 </r>
       <r>   -8.5861    1.0000 </r>
       <r>   -8.5692    1.0000 </r>
       <r>   -8.5599    1.0000 </r>
       <r>   -8.5396    1.0000 </r>
       <r>   -8.5292    1.0000 </r>
       <r>   -8.5196    1.0000 </r>
       <r>   -8.5055    1.0000 </r>
       <r>   -8.5010    1.0000 </r>
       <r>   -8.4947    1.0000 </r>
       <r>   -8.4853    1.0000 </r>
       <r>   -8.4739    1.0000 </r>
       <r>   -8.4677    1.0000 </r>
       <r>   -8.4638    1.0000 </r>
       <r>   -8.4525    1.0000 </r>
       <r>   -8.4466    1.0000 </r>
       <r>   -8.4350    1.0000 </r>
       <r>   -8.4259    1.0000 </r>
       <r>   -8.4131    1.0000 </r>
       <r>   -8.3992    1.0000 </r>
       <r>   -8.3942    1.0000 </r>
       <r>   -8.3815    1.0000 </r>
       <r>   -8.3781    1.0000 </r>
       <r>   -8.3738    1.0000 </r>
       <r>   -8.3563    1.0000 </r>
       <r>   -8.3402    1.0000 </r>
       <r>   -8.3137    1.0000 </r>
       <r>   -8.3049    1.0000 </r>
       <r>   -8.2922    1.0000 </r>
       <r>   -8.2793    1.0000 </r>
       <r>   -8.2617    1.0000 </r>
       <r>   -8.2553    1.0000 </r>
       <r>   -8.2480    1.0000 </r>
       <r>   -8.2351    1.0000 </r>
       <r>   -8.2229    1.0000 </r>
       <r>   -8.2037    1.0000 </r>
       <r>   -8.1849    1.0000 </r>
       <r>   -8.1690    1.0000 </r>
       <r>   -8.1642    1.0000 </r>
       <r>   -8.1551    1.0000 </r>
       <r>   -8.1239    1.0000 </r>
       <r>   -8.1179    1.0000 </r>
       <r>   -8.1067    1.0000 </r>
       <r>   -8.1014    1.0000 </r>
       <r>   -8.0834    1.0000 </r>
       <r>   -8.0720    1.0000 </r>
       <r>   -8.0590    1.0000 </r>
       <r>   -8.0435    1.0000 </r>
       <r>   -8.0290    1.0000 </r>
       <r>   -8.0268    1.0000 </r>
       <r>   -7.9950    1.0000 </r>
       <r>   -7.9844    1.0000 </r>
       <r>   -7.9687    1.0000 </r>
       <r>   -7.9668    1.0000 </r>
       <r>   -7.9476    1.0000 </r>
       <r>   -7.9348    1.0000 </r>
       <r>   -7.8429    1.0000 </r>
       <r>   -7.8059    1.0000 </r>
       <r>   -7.7958    1.0000 </r>
       <r>   -7.7017    1.0000 </r>
       <r>   -7.6020    1.0000 </r>
       <r>   -4.9806    1.0000 </r>
       <r>   -4.9504    1.0000 </r>
       <r>   -4.9051    1.0000 </r>
       <r>   -4.6909    1.0000 </r>
       <r>   -4.6612    1.0000 </r>
       <r>   -4.5955    1.0000 </r>
       <r>   -4.5806    1.0000 </r>
       <r>   -4.5611    1.0000 </r>
       <r>   -4.5557    1.0000 </r>
       <r>   -4.2783    1.0000 </r>
       <r>   -4.2247    1.0000 </r>
       <r>   -4.1396    1.0000 </r>
       <r>   -4.1117    1.0000 </r>
       <r>   -4.1002    1.0000 </r>
       <r>   -4.0946    1.0000 </r>
       <r>   -4.0766    1.0000 </r>
       <r>   -4.0191    1.0000 </r>
       <r>   -4.0093    1.0000 </r>
       <r>   -3.9726    1.0000 </r>
       <r>   -3.9516    1.0000 </r>
       <r>   -3.9225    1.0000 </r>
       <r>   -3.9060    1.0000 </r>
       <r>   -3.8969    1.0000 </r>
       <r>   -3.8712    1.0000 </r>
       <r>   -3.8387    1.0000 </r>
       <r>   -3.8369    1.0000 </r>
       <r>   -3.8252    1.0000 </r>
       <r>   -3.7888    1.0000 </r>
       <r>   -3.7496    1.0000 </r>
       <r>   -3.7033    1.0000 </r>
       <r>   -3.6989    1.0000 </r>
       <r>   -3.6491    1.0000 </r>
       <r>   -3.6355    1.0000 </r>
       <r>   -3.6263    1.0000 </r>
       <r>   -3.5813    1.0000 </r>
       <r>   -3.5247    1.0000 </r>
       <r>   -3.4089    1.0000 </r>
       <r>   -3.1419    1.0000 </r>
       <r>   -3.0823    1.0000 </r>
       <r>   -3.0332    1.0000 </r>
       <r>   -3.0174    1.0000 </r>
       <r>   -2.9381    1.0000 </r>
       <r>   -2.9039    1.0000 </r>
       <r>   -2.8640    1.0000 </r>
       <r>   -2.8418    1.0000 </r>
       <r>   -2.7950    1.0000 </r>
       <r>   -2.5929    1.0000 </r>
       <r>   -2.5726    1.0000 </r>
       <r>   -1.6667    0.0000 </r>
       <r>   -1.6083    0.0000 </r>
       <r>   -1.5954    0.0000 </r>
       <r>   -1.0655    0.0000 </r>
       <r>   -1.0362    0.0000 </r>
       <r>   -1.0094    0.0000 </r>
       <r>   -0.9983    0.0000 </r>
       <r>   -0.9000    0.0000 </r>
       <r>   -0.8802    0.0000 </r>
       <r>   -0.4058    0.0000 </r>
       <r>   -0.3545    0.0000 </r>
       <r>   -0.2370    0.0000 </r>
       <r>   -0.2309    0.0000 </r>
       <r>   -0.1969    0.0000 </r>
       <r>   -0.1370    0.0000 </r>
       <r>   -0.1158    0.0000 </r>
       <r>   -0.0584    0.0000 </r>
       <r>   -0.0256    0.0000 </r>
       <r>    0.0015    0.0000 </r>
       <r>    0.0697    0.0000 </r>
       <r>    0.1290    0.0000 </r>
       <r>    0.1860    0.0000 </r>
       <r>    0.2118    0.0000 </r>
       <r>    0.2357    0.0000 </r>
       <r>    0.4447    0.0000 </r>
       <r>    0.4993    0.0000 </r>
       <r>    0.5179    0.0000 </r>
       <r>    0.5359    0.0000 </r>
       <r>    0.5619    0.0000 </r>
       <r>    0.5812    0.0000 </r>
       <r>    0.6016    0.0000 </r>
       <r>    0.6285    0.0000 </r>
       <r>    0.6544    0.0000 </r>
       <r>    0.6952    0.0000 </r>
       <r>    0.7110    0.0000 </r>
       <r>    0.7433    0.0000 </r>
       <r>    0.7596    0.0000 </r>
       <r>    0.7778    0.0000 </r>
       <r>    0.8045    0.0000 </r>
       <r>    0.8463    0.0000 </r>
       <r>    0.8581    0.0000 </r>
       <r>    0.8741    0.0000 </r>
       <r>    0.8920    0.0000 </r>
       <r>    0.9166    0.0000 </r>
       <r>    0.9363    0.0000 </r>
       <r>    0.9504    0.0000 </r>
       <r>    0.9984    0.0000 </r>
       <r>    1.0149    0.0000 </r>
       <r>    1.0527    0.0000 </r>
       <r>    1.0599    0.0000 </r>
       <r>    1.0803    0.0000 </r>
       <r>    1.1002    0.0000 </r>
       <r>    1.1284    0.0000 </r>
       <r>    1.1481    0.0000 </r>
       <r>    1.1771    0.0000 </r>
       <r>    1.2086    0.0000 </r>
       <r>    1.2181    0.0000 </r>
       <r>    1.2361    0.0000 </r>
       <r>    1.2665    0.0000 </r>
       <r>    1.2900    0.0000 </r>
       <r>    1.3214    0.0000 </r>
       <r>    1.3339    0.0000 </r>
       <r>    1.3531    0.0000 </r>
       <r>    1.4078    0.0000 </r>
      </set>
      <set comment="kpoint 2">
       <r>  -51.7573    1.0000 </r>
       <r>  -51.7056    1.0000 </r>
       <r>  -51.7007    1.0000 </r>
       <r>  -51.5372    1.0000 </r>
       <r>  -51.5245    1.0000 </r>
       <r>  -51.5225    1.0000 </r>
       <r>  -51.5010    1.0000 </r>
       <r>  -51.4750    1.0000 </r>
       <r>  -51.4489    1.0000 </r>
       <r>  -51.4176    1.0000 </r>
       <r>  -51.3924    1.0000 </r>
       <r>  -51.3907    1.0000 </r>
       <r>  -51.2764    1.0000 </r>
       <r>  -51.2713    1.0000 </r>
       <r>  -51.2517    1.0000 </r>
       <r>  -51.2387    1.0000 </r>
       <r>  -51.2330    1.0000 </r>
       <r>  -51.2302    1.0000 </r>
       <r>  -51.2219    1.0000 </r>
       <r>  -51.2194    1.0000 </r>
       <r>  -51.2104    1.0000 </r>
       <r>  -51.2094    1.0000 </r>
       <r>  -51.1965    1.0000 </r>
       <r>  -51.1932    1.0000 </r>
       <r>  -51.1866    1.0000 </r>
       <r>  -51.1246    1.0000 </r>
       <r>  -51.0015    1.0000 </r>
       <r>  -51.0010    1.0000 </r>
       <r>  -50.9685    1.0000 </r>
       <r>  -50.9184    1.0000 </r>
       <r>  -50.9154    1.0000 </r>
       <r>  -50.7319    1.0000 </r>
       <r>  -30.6232    1.0000 </r>
       <r>  -30.6166    1.0000 </r>
       <r>  -30.5935    1.0000 </r>
       <r>  -30.5663    1.0000 </r>
       <r>  -30.5363    1.0000 </r>
       <r>  -30.5323    1.0000 </r>
       <r>  -30.5043    1.0000 </r>
       <r>  -30.4780    1.0000 </r>
       <r>  -30.4691    1.0000 </r>
       <r>  -30.4572    1.0000 </r>
       <r>  -30.4361    1.0000 </r>
       <r>  -30.4296    1.0000 </r>
       <r>  -30.4153    1.0000 </r>
       <r>  -30.4043    1.0000 </r>
       <r>  -30.3960    1.0000 </r>
       <r>  -30.3770    1.0000 </r>
       <r>  -30.3661    1.0000 </r>
       <r>  -30.3513    1.0000 </r>
       <r>  -30.3358    1.0000 </r>
       <r>  -30.3329    1.0000 </r>
       <r>  -30.3092    1.0000 </r>
       <r>  -30.3052    1.0000 </r>
       <r>  -30.2958    1.0000 </r>
       <r>  -30.2817    1.0000 </r>
       <r>  -30.2719    1.0000 </r>
       <r>  -30.2629    1.0000 </r>
       <r>  -30.2563    1.0000 </r>
       <r>  -30.2437    1.0000 </r>
       <r>  -30.2363    1.0000 </r>
       <r>  -30.2211    1.0000 </r>
       <r>  -30.2143    1.0000 </r>
       <r>  -30.2083    1.0000 </r>
       <r>  -30.1984    1.0000 </r>
       <r>  -30.1822    1.0000 </r>
       <r>  -30.1706    1.0000 </r>
       <r>  -30.1619    1.0000 </r>
       <r>  -30.1409    1.0000 </r>
       <r>  -30.1314    1.0000 </r>
       <r>  -30.1155    1.0000 </r>
       <r>  -30.1101    1.0000 </r>
       <r>  -30.0859    1.0000 </r>
       <r>  -30.0780    1.0000 </r>
       <r>  -30.0677    1.0000 </r>
       <r>  -30.0589    1.0000 </r>
       <r>  -30.0363    1.0000 </r>
       <r>  -30.0320    1.0000 </r>
       <r>  -30.0204    1.0000 </r>
       <r>  -30.0116    1.0000 </r>
       <r>  -30.0060    1.0000 </r>
       <r>  -30.0024    1.0000 </r>
       <r>  -29.9908    1.0000 </r>
       <r>  -29.9846    1.0000 </r>
       <r>  -29.9816    1.0000 </r>
       <r>  -29.9631    1.0000 </r>
       <r>  -29.9558    1.0000 </r>
       <r>  -29.9491    1.0000 </r>
       <r>  -29.9417    1.0000 </r>
       <r>  -29.9375    1.0000 </r>
       <r>  -29.9237    1.0000 </r>
       <r>  -29.9184    1.0000 </r>
       <r>  -29.9135    1.0000 </r>
       <r>  -29.9072    1.0000 </r>
       <r>  -29.9028    1.0000 </r>
       <r>  -29.8962    1.0000 </r>
       <r>  -29.8879    1.0000 </r>
       <r>  -29.8833    1.0000 </r>
       <r>  -29.8771    1.0000 </r>
       <r>  -29.8608    1.0000 </r>
       <r>  -29.8502    1.0000 </r>
       <r>  -29.8462    1.0000 </r>
       <r>  -29.8398    1.0000 </r>
       <r>  -29.8357    1.0000 </r>
       <r>  -29.8304    1.0000 </r>
       <r>  -29.8119    1.0000 </r>
       <r>  -29.8054    1.0000 </r>
       <r>  -29.7992    1.0000 </r>
       <r>  -29.7786    1.0000 </r>
       <r>  -29.7691    1.0000 </r>
       <r>  -29.7652    1.0000 </r>
       <r>  -29.7519    1.0000 </r>
       <r>  -29.7377    1.0000 </r>
       <r>  -29.7162    1.0000 </r>
       <r>  -29.6936    1.0000 </r>
       <r>  -29.6837    1.0000 </r>
       <r>  -29.6692    1.0000 </r>
       <r>  -29.6637    1.0000 </r>
       <r>  -29.6512    1.0000 </r>
       <r>  -29.6469    1.0000 </r>
       <r>  -29.6253    1.0000 </r>
       <r>  -29.6101    1.0000 </r>
       <r>  -29.5975    1.0000 </r>
       <r>  -29.5885    1.0000 </r>
       <r>  -29.5865    1.0000 </r>
       <r>  -29.4813    1.0000 </r>
       <r>  -29.4619    1.0000 </r>
       <r>  -29.4400    1.0000 </r>
       <r>  -26.8991    1.0000 </r>
       <r>  -26.8586    1.0000 </r>
       <r>  -26.8210    1.0000 </r>
       <r>  -26.7829    1.0000 </r>
       <r>  -26.7725    1.0000 </r>
       <r>  -26.7232    1.0000 </r>
       <r>  -26.7169    1.0000 </r>
       <r>  -26.7116    1.0000 </r>
       <r>  -26.6920    1.0000 </r>
       <r>  -26.6732    1.0000 </r>
       <r>  -26.6404    1.0000 </r>
       <r>  -26.6344    1.0000 </r>
       <r>  -26.5919    1.0000 </r>
       <r>  -26.5634    1.0000 </r>
       <r>  -26.5588    1.0000 </r>
       <r>  -26.5493    1.0000 </r>
       <r>  -26.5114    1.0000 </r>
       <r>  -26.5011    1.0000 </r>
       <r>  -26.4979    1.0000 </r>
       <r>  -26.4776    1.0000 </r>
       <r>  -26.4372    1.0000 </r>
       <r>  -26.4112    1.0000 </r>
       <r>  -26.4062    1.0000 </r>
       <r>  -26.3846    1.0000 </r>
       <r>  -26.3130    1.0000 </r>
       <r>  -26.3067    1.0000 </r>
       <r>  -26.2829    1.0000 </r>
       <r>  -26.2322    1.0000 </r>
       <r>  -26.2148    1.0000 </r>
[...]
       <r>   -32.1905     0.0000    64.0000 </r>
       <r>   -31.9955     0.0000    64.0000 </r>
       <r>   -31.8006     0.0000    64.0000 </r>
       <r>   -31.6056     0.0000    64.0000 </r>
       <r>   -31.4107     0.0000    64.0000 </r>
       <r>   -31.2157     0.0000    64.0000 </r>
       <r>   -31.0207     0.0000    64.0000 </r>
       <r>   -30.8258     0.0000    64.0000 </r>
       <r>   -30.6308     9.7362    65.8982 </r>
       <r>   -30.4359   103.3888    86.0547 </r>
       <r>   -30.2409   173.4789   119.8759 </r>
       <r>   -30.0460   169.5791   152.9368 </r>
       <r>   -29.8510   253.2272   202.3056 </r>
       <r>   -29.6560   173.1105   236.0550 </r>
       <r>   -29.4611    86.9774   253.0120 </r>
       <r>   -29.2661    15.3263   256.0000 </r>
       <r>   -29.0712     0.0000   256.0000 </r>
       <r>   -28.8762     0.0000   256.0000 </r>
       <r>   -28.6812     0.0000   256.0000 </r>
       <r>   -28.4863     0.0000   256.0000 </r>
       <r>   -28.2913     0.0000   256.0000 </r>
       <r>   -28.0964     0.0000   256.0000 </r>
       <r>   -27.9014     0.0000   256.0000 </r>
       <r>   -27.7064     0.0000   256.0000 </r>
       <r>   -27.5115     0.0000   256.0000 </r>
       <r>   -27.3165     0.0000   256.0000 </r>
       <r>   -27.1216     0.0000   256.0000 </r>
       <r>   -26.9266     2.4999   256.4874 </r>
       <r>   -26.7317    59.2357   268.0359 </r>
       <r>   -26.5367    98.9720   287.3313 </r>
       <r>   -26.3417    87.9906   304.4859 </r>
       <r>   -26.1468    52.7654   314.7729 </r>
       <r>   -25.9518    19.8278   318.6386 </r>
       <r>   -25.7569     6.9833   320.0000 </r>
       <r>   -25.5619     0.0000   320.0000 </r>
       <r>   -25.3669     0.0000   320.0000 </r>
       <r>   -25.1720     0.0000   320.0000 </r>
       <r>   -24.9770     0.0000   320.0000 </r>
       <r>   -24.7821     0.0000   320.0000 </r>
       <r>   -24.5871     0.0000   320.0000 </r>
       <r>   -24.3922     0.0000   320.0000 </r>
       <r>   -24.1972     0.0000   320.0000 </r>
       <r>   -24.0022     0.0000   320.0000 </r>
       <r>   -23.8073     0.0000   320.0000 </r>
       <r>   -23.6123     0.0000   320.0000 </r>
       <r>   -23.4174     0.0000   320.0000 </r>
       <r>   -23.2224     0.0000   320.0000 </r>
       <r>   -23.0274     0.0000   320.0000 </r>
       <r>   -22.8325     0.0000   320.0000 </r>
       <r>   -22.6375     0.0000   320.0000 </r>
       <r>   -22.4426     0.0000   320.0000 </r>
       <r>   -22.2476     0.0000   320.0000 </r>
       <r>   -22.0526     0.0000   320.0000 </r>
       <r>   -21.8577     0.0000   320.0000 </r>
       <r>   -21.6627     0.0000   320.0000 </r>
       <r>   -21.4678     0.0000   320.0000 </r>
       <r>   -21.2728     0.0000   320.0000 </r>
       <r>   -21.0779     0.0000   320.0000 </r>
       <r>   -20.8829     0.0000   320.0000 </r>
       <r>   -20.6879     0.0000   320.0000 </r>
       <r>   -20.4930     0.0000   320.0000 </r>
       <r>   -20.2980     0.0000   320.0000 </r>
       <r>   -20.1031     0.0000   320.0000 </r>
       <r>   -19.9081     0.0000   320.0000 </r>
       <r>   -19.7131     0.0000   320.0000 </r>
       <r>   -19.5182     0.0000   320.0000 </r>
       <r>   -19.3232     0.0000   320.0000 </r>
       <r>   -19.1283     0.0000   320.0000 </r>
       <r>   -18.9333     0.0000   320.0000 </r>
       <r>   -18.7384     0.0000   320.0000 </r>
       <r>   -18.5434     0.0000   320.0000 </r>
       <r>   -18.3484     0.0000   320.0000 </r>
       <r>   -18.1535     0.0000   320.0000 </r>
       <r>   -17.9585     0.0000   320.0000 </r>
       <r>   -17.7636     0.0000   320.0000 </r>
       <r>   -17.5686     0.0000   320.0000 </r>
       <r>   -17.3736     0.0000   320.0000 </r>
       <r>   -17.1787     0.0000   320.0000 </r>
       <r>   -16.9837     0.0000   320.0000 </r>
       <r>   -16.7888     0.0000   320.0000 </r>
       <r>   -16.5938     0.0000   320.0000 </r>
       <r>   -16.3988     0.0000   320.0000 </r>
       <r>   -16.2039     0.0000   320.0000 </r>
       <r>   -16.0089     0.0000   320.0000 </r>
       <r>   -15.8140     0.0000   320.0000 </r>
       <r>   -15.6190     0.0000   320.0000 </r>
       <r>   -15.4241     0.0000   320.0000 </r>
       <r>   -15.2291     0.0000   320.0000 </r>
       <r>   -15.0341     0.0000   320.0000 </r>
       <r>   -14.8392     0.0000   320.0000 </r>
       <r>   -14.6442     0.0000   320.0000 </r>
       <r>   -14.4493     0.0000   320.0000 </r>
       <r>   -14.2543     0.0000   320.0000 </r>
       <r>   -14.0593     0.0000   320.0000 </r>
       <r>   -13.8644     0.0000   320.0000 </r>
       <r>   -13.6694     0.0000   320.0000 </r>
       <r>   -13.4745     0.0000   320.0000 </r>
       <r>   -13.2795     0.0000   320.0000 </r>
       <r>   -13.0846     0.0000   320.0000 </r>
       <r>   -12.8896     0.0000   320.0000 </r>
       <r>   -12.6946     0.0000   320.0000 </r>
       <r>   -12.4997     0.0000   320.0000 </r>
       <r>   -12.3047     0.0000   320.0000 </r>
       <r>   -12.1098     0.0000   320.0000 </r>
       <r>   -11.9148     0.1811   320.0353 </r>
       <r>   -11.7198    11.5475   322.2866 </r>
       <r>   -11.5249    15.5700   325.3221 </r>
       <r>   -11.3299    16.8582   328.6087 </r>
       <r>   -11.1350    22.6811   333.0306 </r>
       <r>   -10.9400    27.8150   338.4534 </r>
       <r>   -10.7450    36.4526   345.5601 </r>
       <r>   -10.5501    29.1686   351.2468 </r>
       <r>   -10.3551     3.8635   352.0000 </r>
       <r>   -10.1602     0.0000   352.0000 </r>
       <r>    -9.9652     0.0000   352.0000 </r>
       <r>    -9.7703     0.0000   352.0000 </r>
       <r>    -9.5753     0.0000   352.0000 </r>
       <r>    -9.3803     0.1876   352.0366 </r>
       <r>    -9.1854    43.0653   360.4325 </r>
       <r>    -8.9904    86.1948   377.2370 </r>
       <r>    -8.7955   114.6438   399.5878 </r>
       <r>    -8.6005   125.0060   423.9588 </r>
       <r>    -8.4055   189.0227   460.8104 </r>
       <r>    -8.2106   160.6513   492.1307 </r>
       <r>    -8.0156   147.8438   520.9542 </r>
       <r>    -7.8207    79.4398   536.4416 </r>
       <r>    -7.6257    30.6780   542.4226 </r>
       <r>    -7.4308     8.0911   544.0000 </r>
       <r>    -7.2358     0.0000   544.0000 </r>
       <r>    -7.0408     0.0000   544.0000 </r>
       <r>    -6.8459     0.0000   544.0000 </r>
       <r>    -6.6509     0.0000   544.0000 </r>
       <r>    -6.4560     0.0000   544.0000 </r>
       <r>    -6.2610     0.0000   544.0000 </r>
       <r>    -6.0660     0.0000   544.0000 </r>
       <r>    -5.8711     0.0000   544.0000 </r>
       <r>    -5.6761     0.0000   544.0000 </r>
       <r>    -5.4812     0.0000   544.0000 </r>
       <r>    -5.2862     0.0000   544.0000 </r>
       <r>    -5.0912     0.0012   544.0002 </r>
       <r>    -4.8963    14.6743   546.8611 </r>
       <r>    -4.7013    31.7353   553.0482 </r>
       <r>    -4.5064    40.7874   561.0000 </r>
       <r>    -4.3114    22.9797   565.4801 </r>
       <r>    -4.1165    39.6988   573.2197 </r>
       <r>    -3.9215    42.6421   581.5332 </r>
       <r>    -3.7265    73.3625   595.8358 </r>
       <r>    -3.5316    78.6860   611.1763 </r>
       <r>    -3.3366    34.9755   617.9951 </r>
       <r>    -3.1417    33.8389   624.5923 </r>
       <r>    -2.9467    36.3492   631.6789 </r>
       <r>    -2.7517    27.3489   637.0108 </r>
       <r>    -2.5568    14.4978   639.8373 </r>
       <r>    -2.3618     0.8347   640.0000 </r>
       <r>    -2.1669     0.0000   640.0000 </r>
       <r>    -1.9719     0.0000   640.0000 </r>
       <r>    -1.7770     0.0010   640.0002 </r>
       <r>    -1.5820     4.6287   640.9026 </r>
       <r>    -1.3870     8.6069   642.5806 </r>
       <r>    -1.1921    25.2605   647.5053 </r>
       <r>    -0.9971    12.0543   649.8554 </r>
       <r>    -0.8022    23.2990   654.3978 </r>
       <r>    -0.6072    22.5704   658.7981 </r>
       <r>    -0.4122    27.2327   664.1073 </r>
       <r>    -0.2173    29.5277   669.8640 </r>
       <r>    -0.0223    32.4650   676.1933 </r>
       <r>     0.1726    34.3625   682.8926 </r>
       <r>     0.3676    29.4334   688.6309 </r>
       <r>     0.5626    34.6721   695.3905 </r>
       <r>     0.7575    63.8478   707.8382 </r>
       <r>     0.9525    94.7317   726.3069 </r>
       <r>     1.1474    99.4875   745.7029 </r>
       <r>     1.3424    91.1205   763.4676 </r>
       <r>     1.5373    23.2473   767.9999 </r>
       <r>     1.7323     0.0007   768.0000 </r>
       <r>     1.9273     0.0000   768.0000 </r>
       <r>     2.1222     0.0000   768.0000 </r>
       <r>     2.3172     0.0000   768.0000 </r>
       <r>     2.5121     0.0000   768.0000 </r>
       <r>     2.7071     0.0000   768.0000 </r>
       <r>     2.9021     0.0000   768.0000 </r>
       <r>     3.0970     0.0000   768.0000 </r>
       <r>     3.2920     0.0000   768.0000 </r>
       <r>     3.4869     0.0000   768.0000 </r>
       <r>     3.6819     0.0000   768.0000 </r>
       <r>     3.8768     0.0000   768.0000 </r>
       <r>     4.0718     0.0000   768.0000 </r>
      </set>
     </set>
    </array>
   </total>
  </dos>
 </calculation>
 <structure name="finalpos" >
  <crystal>
   <varray name="basis" >
    <v>      13.12862340       0.00000000       0.00000000 </v>
    <v>      -6.56431170      11.36972138       0.00000000 </v>
    <v>       0.00000000       0.00000000      26.82809424 </v>
   </varray>
   <i name="volume">   4004.59716953 </i>
   <varray name="rec_basis" >
    <v>       0.07616945       0.04397645       0.00000000 </v>
    <v>       0.00000000       0.08795290       0.00000000 </v>
    <v>       0.00000000       0.00000000       0.03727436 </v>
   </varray>
  </crystal>
  <varray name="positions" >
   <v>       0.07934531       0.15736922       0.44590699 </v>
   <v>       0.08902144       0.40992084       0.44936908 </v>
   <v>       0.08178566       0.66693961       0.45426996 </v>
   <v>       0.08996597       0.91776788       0.45293779 </v>
   <v>       0.32999523       0.16917654       0.45023750 </v>
   <v>       0.33328303       0.41818136       0.45219365 </v>
   <v>       0.33728746       0.66830944       0.45008205 </v>
   <v>       0.33780622       0.92330319       0.45256732 </v>
   <v>       0.59536614       0.17068061       0.45154416 </v>
   <v>       0.58463662       0.42216276       0.45679687 </v>
   <v>       0.59287976       0.67216565       0.45671301 </v>
   <v>       0.58697371       0.91552551       0.45335345 </v>
   <v>       0.84140356       0.17177533       0.44719504 </v>
   <v>       0.83164395       0.42170992       0.45725232 </v>
   <v>       0.82866201       0.66645941       0.45811146 </v>
   <v>       0.83184537       0.91513905       0.44761478 </v>
   <v>       0.15604050       0.08443597       0.54362983 </v>
   <v>       0.16393633       0.32926687       0.54214227 </v>
   <v>       0.16917859       0.58278209       0.54358595 </v>
   <v>       0.16835207       0.82991555       0.54804370 </v>
   <v>       0.41026435       0.08517074       0.54640987 </v>
   <v>       0.42796224       0.33831238       0.54810030 </v>
   <v>       0.41270436       0.57970296       0.54627693 </v>
   <v>       0.41099624       0.83030200       0.55607663 </v>
   <v>       0.66355950       0.08401629       0.54487208 </v>
   <v>       0.67093759       0.32851922       0.55136120 </v>
   <v>       0.65608089       0.57772808       0.55596139 </v>
   <v>       0.66575891       0.83365955       0.55030487 </v>
   <v>       0.90846541       0.07810260       0.54387189 </v>
   <v>       0.92774260       0.34006762       0.55124912 </v>
   <v>       0.92183891       0.58784577       0.55224718 </v>
   <v>       0.91566178       0.83885607       0.54200497 </v>
   <v>       0.07149353       0.16780161       0.58298690 </v>
   <v>       0.09696742       0.40495332       0.59024815 </v>
   <v>       0.08893285       0.67465894       0.59026851 </v>
   <v>       0.06791560       0.90441567       0.58836607 </v>
   <v>       0.32213504       0.16773499       0.58857810 </v>
   <v>       0.33254602       0.41287036       0.58310185 </v>
   <v>       0.31691229       0.65446545       0.58852145 </v>
   <v>       0.32483010       0.92141146       0.58799936 </v>
   <v>       0.57191720       0.15505322       0.59253879 </v>
   <v>       0.58101318       0.40525124       0.59707288 </v>
   <v>       0.58114251       0.66827697       0.59255950 </v>
   <v>       0.57622654       0.92433911       0.59199405 </v>
   <v>       0.83288812       0.16105389       0.58542822 </v>
   <v>       0.84164869       0.42087746       0.59540917 </v>
   <v>       0.83281675       0.67262330       0.59342467 </v>
   <v>       0.83891003       0.92066889       0.58914866 </v>
   <v>       0.16698549       0.07783262       0.40468158 </v>
   <v>       0.17535858       0.34092955       0.40704373 </v>
   <v>       0.17736057       0.59038283       0.40942618 </v>
   <v>       0.16771636       0.82013915       0.41489242 </v>
   <v>       0.41270308       0.07926020       0.40793839 </v>
   <v>       0.40673223       0.32156481       0.40687907 </v>
   <v>       0.42969700       0.59919226       0.41158106 </v>
   <v>       0.42918095       0.84274552       0.41261404 </v>
   <v>       0.65635874       0.07395321       0.41266702 </v>
   <v>       0.66883946       0.34067221       0.41249627 </v>
   <v>       0.66764065       0.57355686       0.41673486 </v>
   <v>       0.67769229       0.83388540       0.40663677 </v>
   <v>       0.90820282       0.06975777       0.40218664 </v>
   <v>       0.93021904       0.34808549       0.40780016 </v>
   <v>       0.90689543       0.58260259       0.41724408 </v>
   <v>       0.91315163       0.82926668       0.40895658 </v>
   <v>       0.99106032       0.00211371       0.49450074 </v>
   <v>       0.99793778       0.25591794       0.49372764 </v>
   <v>       0.99718235       0.50578838       0.50191188 </v>
   <v>       0.99620846       0.75084833       0.50134479 </v>
   <v>       0.24361328       0.99415389       0.49824203 </v>
   <v>       0.23656017       0.24499583       0.49317978 </v>
   <v>       0.24993557       0.49867436       0.49855061 </v>
   <v>       0.25753548       0.75271935       0.50185596 </v>
   <v>       0.50136524       0.99829150       0.50211896 </v>
   <v>       0.49263054       0.24689945       0.49863521 </v>
   <v>       0.50465924       0.50355500       0.50284163 </v>
   <v>       0.50517625       0.74775410       0.50157118 </v>
   <v>       0.74472681       0.00205836       0.49795258 </v>
   <v>       0.75408735       0.25444330       0.49846279 </v>
   <v>       0.75192179       0.49768475       0.50805407 </v>
   <v>       0.73802862       0.74976979       0.50257392 </v>
  </varray>
  <varray name="velocities" >
   <v>       0.00000000       0.00000000       0.00000000 </v>
   <v>       0.00000000       0.00000000       0.00000000 </v>
   <v>       0.00000000       0.00000000       0.00000000 </v>
   <v>       0.00000000       0.00000000       0.00000000 </v>
   <v>       0.00000000       0.00000000       0.00000000 </v>
   <v>       0.00000000       0.00000000       0.00000000 </v>
   <v>       0.00000000       0.00000000       0.00000000 </v>
   <v>       0.00000000       0.00000000       0.00000000 </v>
   <v>       0.00000000       0.00000000       0.00000000 </v>
   <v>       0.00000000       0.00000000       0.00000000 </v>
   <v>       0.00000000       0.00000000       0.00000000 </v>
   <v>       0.00000000       0.00000000       0.00000000 </v>
   <v>       0.00000000       0.00000000       0.00000000 </v>
   <v>       0.00000000       0.00000000       0.00000000 </v>
   <v>       0.00000000       0.00000000       0.00000000 </v>
   <v>       0.00000000       0.00000000       0.00000000 </v>
   <v>       0.00000000       0.00000000       0.00000000 </v>
   <v>       0.00000000       0.00000000       0.00000000 </v>
   <v>       0.00000000       0.00000000       0.00000000 </v>
   <v>       0.00000000       0.00000000       0.00000000 </v>
   <v>       0.00000000       0.00000000       0.00000000 </v>
   <v>       0.00000000       0.00000000       0.00000000 </v>
   <v>       0.00000000       0.00000000       0.00000000 </v>
   <v>       0.00000000       0.00000000       0.00000000 </v>
   <v>       0.00000000       0.00000000       0.00000000 </v>
   <v>       0.00000000       0.00000000       0.00000000 </v>
   <v>       0.00000000       0.00000000       0.00000000 </v>
   <v>       0.00000000       0.00000000       0.00000000 </v>
   <v>       0.00000000       0.00000000       0.00000000 </v>
   <v>       0.00000000       0.00000000       0.00000000 </v>
   <v>       0.00000000       0.00000000       0.00000000 </v>
   <v>       0.00000000       0.00000000       0.00000000 </v>
   <v>       0.00000000       0.00000000       0.00000000 </v>
   <v>       0.00000000       0.00000000       0.00000000 </v>
   <v>       0.00000000       0.00000000       0.00000000 </v>
   <v>       0.00000000       0.00000000       0.00000000 </v>
   <v>       0.00000000       0.00000000       0.00000000 </v>
   <v>       0.00000000       0.00000000       0.00000000 </v>
   <v>       0.00000000       0.00000000       0.00000000 </v>
   <v>       0.00000000       0.00000000       0.00000000 </v>
   <v>       0.00000000       0.00000000       0.00000000 </v>
   <v>       0.00000000       0.00000000       0.00000000 </v>
   <v>       0.00000000       0.00000000       0.00000000 </v>
   <v>       0.00000000       0.00000000       0.00000000 </v>
   <v>       0.00000000       0.00000000       0.00000000 </v>
   <v>       0.00000000       0.00000000       0.00000000 </v>
   <v>       0.00000000       0.00000000       0.00000000 </v>
   <v>       0.00000000       0.00000000       0.00000000 </v>
   <v>       0.00000000       0.00000000       0.00000000 </v>
   <v>       0.00000000       0.00000000       0.00000000 </v>
   <v>       0.00000000       0.00000000       0.00000000 </v>
   <v>       0.00000000       0.00000000       0.00000000 </v>
   <v>       0.00000000       0.00000000       0.00000000 </v>
   <v>       0.00000000       0.00000000       0.00000000 </v>
   <v>       0.00000000       0.00000000       0.00000000 </v>
   <v>       0.00000000       0.00000000       0.00000000 </v>
   <v>       0.00000000       0.00000000       0.00000000 </v>
   <v>       0.00000000       0.00000000       0.00000000 </v>
   <v>       0.00000000       0.00000000       0.00000000 </v>
   <v>       0.00000000       0.00000000       0.00000000 </v>
   <v>       0.00000000       0.00000000       0.00000000 </v>
   <v>       0.00000000       0.00000000       0.00000000 </v>
   <v>       0.00000000       0.00000000       0.00000000 </v>
   <v>       0.00000000       0.00000000       0.00000000 </v>
   <v>       0.00000000       0.00000000       0.00000000 </v>
   <v>       0.00000000       0.00000000       0.00000000 </v>
   <v>       0.00000000       0.00000000       0.00000000 </v>
   <v>       0.00000000       0.00000000       0.00000000 </v>
   <v>       0.00000000       0.00000000       0.00000000 </v>
   <v>       0.00000000       0.00000000       0.00000000 </v>
   <v>       0.00000000       0.00000000       0.00000000 </v>
   <v>       0.00000000       0.00000000       0.00000000 </v>
   <v>       0.00000000       0.00000000       0.00000000 </v>
   <v>       0.00000000       0.00000000       0.00000000 </v>
   <v>       0.00000000       0.00000000       0.00000000 </v>
   <v>       0.00000000       0.00000000       0.00000000 </v>
   <v>       0.00000000       0.00000000       0.00000000 </v>
   <v>       0.00000000       0.00000000       0.00000000 </v>
   <v>       0.00000000       0.00000000       0.00000000 </v>
   <v>       0.00000000       0.00000000       0.00000000 </v>
  </varray>
 </structure>
</modeling>
