<?xml version="1.0" encoding="ISO-8859-1"?>
<modeling>
 <generator>
  <i name="program" type="string">vasp </i>
  <i name="version" type="string">5.4.4.18Apr17-6-g9f103f2a35  </i>
  <i name="subversion" type="string">(build Oct 31 2019 15:01:46) complex            parallel </i>
  <i name="platform" type="string">LinuxIFC </i>
  <i name="date" type="string">2024 04 30 </i>
  <i name="time" type="string">15:24:27 </i>
 </generator>
 <incar>
  <i type="int" name="ISTART">     0</i>
  <i type="string" name="PREC">anormal</i>
  <i type="logical" name="ADDGRID"> T  </i>
  <i type="int" name="IBRION">    -1</i>
  <i name="EDIFF">      0.00000100</i>
  <i name="EDIFFG">     -0.01000000</i>
  <i type="int" name="NSW">     1</i>
  <i type="int" name="ISIF">     2</i>
  <i type="int" name="ISYM">     2</i>
  <i name="ENCUT">    600.00000000</i>
  <i name="POTIM">      1.00000000</i>
  <i type="string" name="LREAL"> Auto.</i>
  <i type="int" name="ISMEAR">     0</i>
  <i name="SIGMA">      0.05000000</i>
  <i name="KSPACING">      0.25000000</i>
  <i type="logical" name="LWAVE"> F  </i>
  <i type="logical" name="LCHARG"> F  </i>
  <i type="logical" name="LSCALAPACK"> F  </i>
  <v type="int" name="KPOINT_BSE">    -1     0     0     0</v>
 </incar>
 <structure name="primitive_cell" >
  <crystal>
   <varray name="basis" >
    <v>      13.79398668       0.00000000       0.00000000 </v>
    <v>      -6.89699334      11.94594288       0.00000000 </v>
    <v>       0.00000000       0.00000000      27.81022107 </v>
   </varray>
   <i name="volume">   4582.62876984 </i>
   <varray name="rec_basis" >
    <v>       0.07249536       0.04185521       0.00000000 </v>
    <v>       0.00000000       0.08371043       0.00000000 </v>
    <v>       0.00000000       0.00000000       0.03595800 </v>
   </varray>
  </crystal>
  <varray name="positions" >
   <v>       0.08626593       0.16539724      -0.45370189 </v>
   <v>       0.24243851       0.24297474      -0.49686433 </v>
   <v>       0.00733300       0.00312411       0.49677888 </v>
   <v>      -0.00346113       0.25549703      -0.49278482 </v>
   <v>       0.16480941       0.32001391      -0.39367220 </v>
   <v>      -0.07646572       0.08779152      -0.39677074 </v>
   <v>       0.16687414       0.07209001      -0.39304276 </v>
   <v>       0.17036263       0.08350459       0.46175764 </v>
   <v>       0.16817148       0.33918409       0.45485244 </v>
   <v>      -0.08321520       0.07948477       0.45247528 </v>
   <v>       0.32519767       0.40929199      -0.45404819 </v>
   <v>      -0.15813917      -0.08540223      -0.44932858 </v>
   <v>       0.33763156       0.17256263      -0.45129689 </v>
   <v>       0.09509707      -0.07816382      -0.45959386 </v>
   <v>      -0.16336654       0.16430025      -0.46094889 </v>
   <v>       0.08222316       0.42041629      -0.45656792 </v>
   <v>       0.08636093       0.17311208       0.39694121 </v>
   <v>       0.25075856      -0.00502120      -0.49897019 </v>
   <v>      -0.24825372      -0.00585424       0.49940263 </v>
   <v>       0.26082806      -0.49104206      -0.49777803 </v>
   <v>       0.41870525       0.34113754      -0.39476751 </v>
   <v>      -0.08506549      -0.16865503      -0.39468556 </v>
   <v>      -0.08588178       0.34220858      -0.39602145 </v>
   <v>       0.40262152       0.32655769       0.45539702 </v>
   <v>      -0.08590350      -0.17088650       0.45819356 </v>
   <v>      -0.09396952       0.33725319       0.44760384 </v>
   <v>       0.48958725       0.25110337      -0.49738452 </v>
   <v>       0.32973245       0.16633009       0.39637948 </v>
   <v>       0.00627776       0.49781536      -0.49529391 </v>
   <v>       0.41538050       0.08912048      -0.39999127 </v>
   <v>       0.06713684      -0.08710516       0.39488962 </v>
   <v>      -0.31837125      -0.15818375      -0.39249601 </v>
   <v>       0.49981536       0.49319501       0.49545868 </v>
   <v>      -0.24887389      -0.25110951      -0.49679586 </v>
   <v>      -0.00135293      -0.25170748       0.49907815 </v>
   <v>      -0.17043095      -0.09374930       0.39854852 </v>
   <v>       0.08733108       0.42646555       0.39736498 </v>
   <v>      -0.14458347       0.17962255       0.38824323 </v>
   <v>       0.15652330      -0.42504526      -0.39172025 </v>
   <v>       0.17435724      -0.16470278      -0.39343118 </v>
   <v>       0.33476951       0.42126035       0.39108822 </v>
   <v>      -0.24639123       0.25960847       0.49443090 </v>
   <v>       0.42033225      -0.41360814      -0.39292834 </v>
   <v>       0.40556602       0.07858574       0.45802540 </v>
   <v>       0.16994426      -0.16112633       0.45512172 </v>
   <v>      -0.34959416       0.08647486      -0.39582816 </v>
   <v>      -0.33214200      -0.16397717       0.45767100 </v>
   <v>       0.33633241      -0.34516987      -0.45446851 </v>
   <v>      -0.16367101       0.41009619      -0.45776146 </v>
   <v>       0.41829840      -0.40875634       0.45500276 </v>
   <v>      -0.41059158      -0.07754899      -0.45883397 </v>
   <v>       0.16819712      -0.40789853       0.45479972 </v>
   <v>      -0.41280718       0.42069736      -0.45443073 </v>
   <v>      -0.16343618      -0.33565243      -0.45332696 </v>
   <v>       0.33376634      -0.09027968      -0.45131394 </v>
   <v>      -0.33961605       0.08115247       0.44669133 </v>
   <v>       0.08885397      -0.34280489      -0.45650642 </v>
   <v>      -0.42360814       0.16372812      -0.45582760 </v>
   <v>      -0.40259360      -0.33033196      -0.45503942 </v>
   <v>       0.32658704      -0.08145942       0.39408564 </v>
   <v>      -0.34311108       0.32958106      -0.39302059 </v>
   <v>      -0.48806507       0.01318012       0.49719686 </v>
   <v>      -0.08328058      -0.40954866      -0.39534346 </v>
   <v>       0.25269943      -0.25429327      -0.49775281 </v>
   <v>      -0.33949363      -0.42312546      -0.39435877 </v>
   <v>       0.32843009      -0.33001714       0.39996752 </v>
   <v>       0.49690970      -0.24795050      -0.49917094 </v>
   <v>      -0.41415012       0.42123626       0.39480891 </v>
   <v>      -0.16384261      -0.33951440       0.39572739 </v>
   <v>      -0.17410549       0.41004694       0.39350490 </v>
   <v>      -0.34120010       0.33620529       0.45614052 </v>
   <v>      -0.42146697      -0.09287305       0.38873511 </v>
   <v>      -0.34221994      -0.42211118       0.45442609 </v>
   <v>      -0.08846216      -0.41536925       0.45725945 </v>
   <v>      -0.24787373       0.48784767      -0.49462920 </v>
   <v>       0.43637472      -0.16841496      -0.39440623 </v>
   <v>      -0.42881630      -0.35045406       0.39178726 </v>
   <v>       0.08751327      -0.32145390       0.39263495 </v>
   <v>      -0.41781105       0.16769750       0.38638577 </v>
   <v>       0.42246133      -0.15718659       0.46257383 </v>
  </varray>
 </structure>
 <varray name="primitive_index" >
  <v type="int" >        1 </v>
  <v type="int" >       70 </v>
  <v type="int" >       65 </v>
  <v type="int" >       66 </v>
  <v type="int" >       50 </v>
  <v type="int" >       61 </v>
  <v type="int" >       49 </v>
  <v type="int" >       17 </v>
  <v type="int" >       18 </v>
  <v type="int" >       29 </v>
  <v type="int" >        6 </v>
  <v type="int" >       16 </v>
  <v type="int" >        5 </v>
  <v type="int" >        4 </v>
  <v type="int" >       13 </v>
  <v type="int" >        2 </v>
  <v type="int" >       33 </v>
  <v type="int" >       69 </v>
  <v type="int" >       77 </v>
  <v type="int" >       71 </v>
  <v type="int" >       54 </v>
  <v type="int" >       64 </v>
  <v type="int" >       62 </v>
  <v type="int" >       22 </v>
  <v type="int" >       32 </v>
  <v type="int" >       30 </v>
  <v type="int" >       74 </v>
  <v type="int" >       37 </v>
  <v type="int" >       67 </v>
  <v type="int" >       53 </v>
  <v type="int" >       36 </v>
  <v type="int" >       60 </v>
  <v type="int" >       75 </v>
  <v type="int" >       80 </v>
  <v type="int" >       68 </v>
  <v type="int" >       48 </v>
  <v type="int" >       34 </v>
  <v type="int" >       45 </v>
  <v type="int" >       51 </v>
  <v type="int" >       52 </v>
  <v type="int" >       38 </v>
  <v type="int" >       78 </v>
  <v type="int" >       55 </v>
  <v type="int" >       21 </v>
  <v type="int" >       20 </v>
  <v type="int" >       57 </v>
  <v type="int" >       28 </v>
  <v type="int" >        7 </v>
  <v type="int" >       14 </v>
  <v type="int" >       23 </v>
  <v type="int" >       12 </v>
  <v type="int" >       19 </v>
  <v type="int" >       10 </v>
  <v type="int" >       15 </v>
  <v type="int" >        8 </v>
  <v type="int" >       25 </v>
  <v type="int" >        3 </v>
  <v type="int" >        9 </v>
  <v type="int" >       11 </v>
  <v type="int" >       40 </v>
  <v type="int" >       58 </v>
  <v type="int" >       73 </v>
  <v type="int" >       63 </v>
  <v type="int" >       72 </v>
  <v type="int" >       59 </v>
  <v type="int" >       39 </v>
  <v type="int" >       76 </v>
  <v type="int" >       42 </v>
  <v type="int" >       47 </v>
  <v type="int" >       46 </v>
  <v type="int" >       26 </v>
  <v type="int" >       44 </v>
  <v type="int" >       27 </v>
  <v type="int" >       31 </v>
  <v type="int" >       79 </v>
  <v type="int" >       56 </v>
  <v type="int" >       43 </v>
  <v type="int" >       35 </v>
  <v type="int" >       41 </v>
  <v type="int" >       24 </v>
 </varray>
 <kpoints>
  <generation param="Gamma">
   <v type="int" name="divisions">       3        3        1 </v>
   <v name="usershift">      0.00000000       0.00000000       0.00000000 </v>
   <v name="genvec1">      0.33333333      -0.00000000       0.00000000 </v>
   <v name="genvec2">      0.00000000       0.33333333       0.00000000 </v>
   <v name="genvec3">      0.00000000       0.00000000       1.00000000 </v>
   <v name="shift">      0.00000000       0.00000000       0.00000000 </v>
  </generation>
  <varray name="kpointlist" >
   <v>       0.00000000       0.00000000       0.00000000 </v>
   <v>       0.33333333      -0.00000000       0.00000000 </v>
   <v>       0.00000000       0.33333333       0.00000000 </v>
   <v>       0.33333333       0.33333333       0.00000000 </v>
   <v>      -0.33333333       0.33333333       0.00000000 </v>
  </varray>
  <varray name="weights" >
   <v>       0.11111111 </v>
   <v>       0.22222222 </v>
   <v>       0.22222222 </v>
   <v>       0.22222222 </v>
   <v>       0.22222222 </v>
  </varray>
 </kpoints>
 <parameters>
  <separator name="general" >
   <i type="string" name="SYSTEM">unknown system</i>
   <i type="logical" name="LCOMPAT"> F  </i>
  </separator>
  <separator name="electronic" >
   <i type="string" name="PREC">anorma</i>
   <i name="ENMAX">    600.00000000</i>
   <i name="ENAUG">    644.87300000</i>
   <i name="EDIFF">      0.00000100</i>
   <i type="int" name="IALGO">    38</i>
   <i type="int" name="IWAVPR">    10</i>
   <i type="int" name="NBANDS">   384</i>
   <i name="NELECT">    640.00000000</i>
   <i type="int" name="TURBO">     0</i>
   <i type="int" name="IRESTART">     0</i>
   <i type="int" name="NREBOOT">     0</i>
   <i type="int" name="NMIN">     0</i>
   <i name="EREF">      0.00000000</i>
   <separator name="electronic smearing" >
    <i type="int" name="ISMEAR">     0</i>
    <i name="SIGMA">      0.05000000</i>
    <i name="KSPACING">      0.25000000</i>
    <i type="logical" name="KGAMMA"> T  </i>
   </separator>
   <separator name="electronic projectors" >
    <i type="logical" name="LREAL"> T  </i>
    <v name="ROPT">     -0.00025000     -0.00025000     -0.00025000</v>
    <i type="int" name="LMAXPAW">  -100</i>
    <i type="int" name="LMAXMIX">     2</i>
    <i type="logical" name="NLSPLINE"> F  </i>
   </separator>
   <separator name="electronic startup" >
    <i type="int" name="ISTART">     0</i>
    <i type="int" name="ICHARG">     2</i>
    <i type="int" name="INIWAV">     1</i>
   </separator>
   <separator name="electronic spin" >
    <i type="int" name="ISPIN">     1</i>
    <i type="logical" name="LNONCOLLINEAR"> F  </i>
    <v name="MAGMOM">      1.00000000      1.00000000      1.00000000      1.00000000      1.00000000      1.00000000      1.00000000      1.00000000      1.00000000      1.00000000      1.00000000      1.00000000      1.00000000      1.00000000      1.00000000      1.00000000      1.00000000      1.00000000      1.00000000      1.00000000
      1.00000000      1.00000000      1.00000000      1.00000000      1.00000000      1.00000000      1.00000000      1.00000000      1.00000000      1.00000000      1.00000000      1.00000000      1.00000000      1.00000000      1.00000000      1.00000000      1.00000000      1.00000000      1.00000000      1.00000000
      1.00000000      1.00000000      1.00000000      1.00000000      1.00000000      1.00000000      1.00000000      1.00000000      1.00000000      1.00000000      1.00000000      1.00000000      1.00000000      1.00000000      1.00000000      1.00000000      1.00000000      1.00000000      1.00000000      1.00000000
      1.00000000      1.00000000      1.00000000      1.00000000      1.00000000      1.00000000      1.00000000      1.00000000      1.00000000      1.00000000      1.00000000      1.00000000      1.00000000      1.00000000      1.00000000      1.00000000      1.00000000      1.00000000      1.00000000      1.00000000
</v>
    <i name="NUPDOWN">     -1.00000000</i>
    <i type="logical" name="LSORBIT"> F  </i>
    <v name="SAXIS">      0.00000000      0.00000000      1.00000000</v>
    <i type="logical" name="LSPIRAL"> F  </i>
    <v name="QSPIRAL">      0.00000000      0.00000000      0.00000000</v>
    <i type="logical" name="LZEROZ"> F  </i>
   </separator>
   <separator name="electronic exchange-correlation" >
    <i type="logical" name="LASPH"> F  </i>
    <i type="logical" name="LMETAGGA"> F  </i>
   </separator>
   <separator name="electronic convergence" >
    <i type="int" name="NELM">    60</i>
    <i type="int" name="NELMDL">    -5</i>
    <i type="int" name="NELMIN">     2</i>
    <i name="ENINI">    600.00000000</i>
    <separator name="electronic convergence detail" >
     <i type="logical" name="LDIAG"> T  </i>
     <i type="logical" name="LSUBROT"> F  </i>
     <i name="WEIMIN">      0.00000000</i>
     <i name="EBREAK">      0.00000000</i>
     <i name="DEPER">      0.30000000</i>
     <i type="int" name="NRMM">     4</i>
     <i name="TIME">      0.40000000</i>
    </separator>
   </separator>
   <separator name="electronic mixer" >
    <i name="AMIX">      0.40000000</i>
    <i name="BMIX">      1.00000000</i>
    <i name="AMIN">      0.10000000</i>
    <i name="AMIX_MAG">      1.60000000</i>
    <i name="BMIX_MAG">      1.00000000</i>
    <separator name="electronic mixer details" >
     <i type="int" name="IMIX">     4</i>
     <i type="logical" name="MIXFIRST"> F  </i>
     <i type="int" name="MAXMIX">   -45</i>
     <i name="WC">    100.00000000</i>
     <i type="int" name="INIMIX">     1</i>
     <i type="int" name="MIXPRE">     1</i>
     <i type="int" name="MREMOVE">     5</i>
    </separator>
   </separator>
   <separator name="electronic dipolcorrection" >
    <i type="logical" name="LDIPOL"> F  </i>
    <i type="logical" name="LMONO"> F  </i>
    <i type="int" name="IDIPOL">     0</i>
    <i name="EPSILON">      1.00000000</i>
    <v name="DIPOL">   -100.00000000   -100.00000000   -100.00000000</v>
    <i name="EFIELD">      0.00000000</i>
   </separator>
  </separator>
  <separator name="grids" >
   <i type="int" name="NGX">   112</i>
   <i type="int" name="NGY">   112</i>
   <i type="int" name="NGZ">   224</i>
   <i type="int" name="NGXF">   224</i>
   <i type="int" name="NGYF">   224</i>
   <i type="int" name="NGZF">   448</i>
   <i type="logical" name="ADDGRID"> T  </i>
  </separator>
  <separator name="ionic" >
   <i type="int" name="NSW">     1</i>
   <i type="int" name="IBRION">    -1</i>
   <i type="int" name="MDALGO">     0</i>
   <i type="int" name="ISIF">     2</i>
   <i name="PSTRESS">      0.00000000</i>
   <i name="EDIFFG">     -0.01000000</i>
   <i type="int" name="NFREE">     0</i>
   <i name="POTIM">      1.00000000</i>
   <i name="SMASS">     -3.00000000</i>
   <i name="SCALEE">      1.00000000</i>
  </separator>
  <separator name="ionic md" >
   <i name="TEBEG">      0.00010000</i>
   <i name="TEEND">      0.00010000</i>
   <i type="int" name="NBLOCK">     1</i>
   <i type="int" name="KBLOCK">     1</i>
   <i type="int" name="NPACO">   256</i>
   <i name="APACO">     16.00000000</i>
  </separator>
  <separator name="symmetry" >
   <i type="int" name="ISYM">     2</i>
   <i name="SYMPREC">      0.00001000</i>
  </separator>
  <separator name="dos" >
   <i type="int" name="LORBIT">     0</i>
   <v name="RWIGS">     -1.00000000     -1.00000000     -1.00000000</v>
   <i type="int" name="NEDOS">   301</i>
   <i name="EMIN">     10.00000000</i>
   <i name="EMAX">    -10.00000000</i>
   <i name="EFERMI">      0.00000000</i>
  </separator>
  <separator name="writing" >
   <i type="int" name="NWRITE">     2</i>
   <i type="logical" name="LWAVE"> F  </i>
   <i type="logical" name="LDOWNSAMPLE"> F  </i>
   <i type="logical" name="LCHARG"> F  </i>
   <i type="logical" name="LPARD"> F  </i>
   <i type="logical" name="LVTOT"> F  </i>
   <i type="logical" name="LVHAR"> F  </i>
   <i type="logical" name="LELF"> F  </i>
   <i type="logical" name="LOPTICS"> F  </i>
   <v name="STM">      0.00000000      0.00000000      0.00000000      0.00000000      0.00000000      0.00000000      0.00000000</v>
  </separator>
  <separator name="performance" >
   <i type="int" name="NPAR">     4</i>
   <i type="int" name="NSIM">     4</i>
   <i type="int" name="NBLK">    -1</i>
   <i type="logical" name="LPLANE"> T  </i>
   <i type="logical" name="LSCALAPACK"> F  </i>
   <i type="logical" name="LSCAAWARE"> F  </i>
   <i type="logical" name="LSCALU"> F  </i>
   <i type="logical" name="LASYNC"> F  </i>
   <i type="logical" name="LORBITALREAL"> F  </i>
  </separator>
  <separator name="miscellaneous" >
   <i type="int" name="IDIOT">     3</i>
   <i type="int" name="ISPECIAL">     0</i>
   <i type="logical" name="LMUSIC"> F  </i>
   <v name="POMASS">     44.95600000     35.45300000     12.01100000</v>
   <v name="DARWINR">      0.00000000      0.00000000      0.00000000</v>
   <v name="DARWINV">      1.00000000      1.00000000      1.00000000</v>
   <i type="logical" name="LCORR"> T  </i>
  </separator>
  <i type="logical" name="GGA_COMPAT"> T  </i>
  <i type="logical" name="LBERRY"> F  </i>
  <i type="int" name="ICORELEVEL">     0</i>
  <i type="logical" name="LDAU"> F  </i>
  <i type="int" name="I_CONSTRAINED_M">     0</i>
  <separator name="electronic exchange-correlation" >
   <i type="string" name="GGA">--</i>
   <i type="int" name="VOSKOWN">     0</i>
   <i type="logical" name="LHFCALC"> F  </i>
   <i type="string" name="PRECFOCK"></i>
   <i type="logical" name="LSYMGRAD"> F  </i>
   <i type="logical" name="LHFONE"> F  </i>
   <i type="logical" name="LRHFCALC"> F  </i>
   <i type="logical" name="LTHOMAS"> F  </i>
   <i type="logical" name="LMODELHF"> F  </i>
   <i name="ENCUT4O">     -1.00000000</i>
   <i type="int" name="EXXOEP">     0</i>
   <i type="int" name="FOURORBIT">     0</i>
   <i name="AEXX">      0.00000000</i>
   <i name="HFALPHA">      0.00000000</i>
   <i name="MCALPHA">      0.00000000</i>
   <i name="ALDAX">      1.00000000</i>
   <i name="AGGAX">      1.00000000</i>
   <i name="ALDAC">      1.00000000</i>
   <i name="AGGAC">      1.00000000</i>
   <i type="int" name="NKREDX">     1</i>
   <i type="int" name="NKREDY">     1</i>
   <i type="int" name="NKREDZ">     1</i>
   <i type="logical" name="SHIFTRED"> F  </i>
   <i type="logical" name="ODDONLY"> F  </i>
   <i type="logical" name="EVENONLY"> F  </i>
   <i type="int" name="LMAXFOCK">     0</i>
   <i type="int" name="NMAXFOCKAE">     0</i>
   <i type="logical" name="LFOCKAEDFT"> F  </i>
   <i name="HFSCREEN">      0.00000000</i>
   <i name="HFSCREENC">      0.00000000</i>
   <i type="int" name="NBANDSGWLOW">     0</i>
  </separator>
  <separator name="vdW DFT" >
   <i type="logical" name="LUSE_VDW"> F  </i>
   <i name="Zab_VDW">     -0.84910000</i>
   <i name="PARAM1">      0.12340000</i>
   <i name="PARAM2">      1.00000000</i>
   <i name="PARAM3">      0.00000000</i>
  </separator>
  <separator name="model GW" >
   <i type="int" name="MODEL_GW">     0</i>
   <i name="MODEL_EPS0">     34.36971577</i>
   <i name="MODEL_ALPHA">      1.00000000</i>
  </separator>
  <separator name="linear response parameters" >
   <i type="logical" name="LEPSILON"> F  </i>
   <i type="logical" name="LRPA"> F  </i>
   <i type="logical" name="LNABLA"> F  </i>
   <i type="logical" name="LVEL"> F  </i>
   <i type="int" name="KINTER">     0</i>
   <i name="CSHIFT">      0.10000000</i>
   <i name="OMEGAMAX">     -1.00000000</i>
   <i name="DEG_THRESHOLD">      0.00200000</i>
   <i name="RTIME">     -0.10000000</i>
   <i name="WPLASMAI">      0.00000000</i>
   <v name="DFIELD">      0.00000000      0.00000000      0.00000000</v>
   <v name="WPLASMA">      0.00000000      0.00000000      0.00000000      0.00000000      0.00000000      0.00000000      0.00000000      0.00000000      0.00000000</v>
  </separator>
  <separator name="orbital magnetization" >
   <i type="logical" name="NUCIND"> F  </i>
   <v name="MAGPOS">      0.00000000      0.00000000      0.00000000</v>
   <i type="logical" name="LNICSALL"> T  </i>
   <i type="logical" name="ORBITALMAG"> F  </i>
   <i type="logical" name="LMAGBLOCH"> F  </i>
   <i type="logical" name="LCHIMAG"> F  </i>
   <i type="logical" name="LGAUGE"> T  </i>
   <i type="int" name="MAGATOM">     0</i>
   <v name="MAGDIPOL">      0.00000000      0.00000000      0.00000000</v>
   <v name="AVECCONST">      0.00000000      0.00000000      0.00000000</v>
  </separator>
  <separator name="response functions" >
   <i type="logical" name="LADDER"> F  </i>
   <i type="logical" name="LRPAFORCE"> F  </i>
   <i type="logical" name="LFXC"> F  </i>
   <i type="logical" name="LHARTREE"> T  </i>
   <i type="int" name="IBSE">     0</i>
   <v type="int" name="KPOINT">    -1     0     0     0</v>
   <i type="logical" name="LTCTE"> F  </i>
   <i type="logical" name="LTETE"> F  </i>
   <i type="logical" name="LTRIPLET"> F  </i>
   <i type="logical" name="LFXCEPS"> F  </i>
   <i type="logical" name="LFXHEG"> F  </i>
   <i type="int" name="NATURALO">     2</i>
   <i type="logical" name="L2ORDER"> F  </i>
   <i type="logical" name="LMP2LT"> F  </i>
   <i type="logical" name="LUSEW"> F  </i>
   <i name="ENCUTGW">     -2.00000000</i>
   <i name="ENCUTGWSOFT">     -2.00000000</i>
   <i name="ENCUTLF">     -1.00000000</i>
   <i type="int" name="LMAXMP2">    -1</i>
   <i name="SCISSOR">      0.00000000</i>
   <i type="int" name="NOMEGA">     0</i>
   <i type="int" name="NOMEGAR">     0</i>
   <i type="int" name="NBANDSGW">    -1</i>
   <i type="int" name="NBANDSO">    -1</i>
   <i type="int" name="NBANDSV">    -1</i>
   <i type="int" name="NELM">     1</i>
   <i type="int" name="NELMHF">     1</i>
   <i type="int" name="DIM">     3</i>
   <i type="int" name="ANTIRES">     0</i>
   <i name="OMEGAMAX">    -30.00000000</i>
   <i name="OMEGAMIN">    -30.00000000</i>
   <i name="OMEGATL">   -200.00000000</i>
   <i type="int" name="OMEGAGRID">   140</i>
   <i name="CSHIFT">     -0.10000000</i>
   <i type="logical" name="SELFENERGY"> F  </i>
   <i type="logical" name="LSPECTRAL"> F  </i>
   <i type="logical" name="LSPECTRALGW"> F  </i>
   <i type="logical" name="LSINGLES"> F  </i>
   <i type="logical" name="LFERMIGW"> F  </i>
   <i type="logical" name="ODDONLYGW"> F  </i>
   <i type="logical" name="EVENONLYGW"> F  </i>
   <i type="int" name="NKREDLFX">     1</i>
   <i type="int" name="NKREDLFY">     1</i>
   <i type="int" name="NKREDLFZ">     1</i>
   <i type="int" name="MAXMEM">  2800</i>
   <i type="int" name="TELESCOPE">     0</i>
   <i type="int" name="TAUPAR">     1</i>
   <i type="int" name="OMEGAPAR">    -1</i>
   <i name="LAMBDA">      1.00000000</i>
  </separator>
  <separator name="External order field" >
   <i name="OFIELD_KAPPA">      0.00000000</i>
   <v name="OFIELD_K">      0.00000000      0.00000000      0.00000000</v>
   <i name="OFIELD_Q6_NEAR">      0.00000000</i>
   <i name="OFIELD_Q6_FAR">      0.00000000</i>
   <i name="OFIELD_A">      0.00000000</i>
  </separator>
 </parameters>
 <atominfo>
  <atoms>      80 </atoms>
  <types>       3 </types>
  <array name="atoms" >
   <dimension dim="1">ion</dimension>
   <field type="string">element</field>
   <field type="int">atomtype</field>
   <set>
    <rc><c>Sc</c><c>   1</c></rc>
    <rc><c>Sc</c><c>   1</c></rc>
    <rc><c>Sc</c><c>   1</c></rc>
    <rc><c>Sc</c><c>   1</c></rc>
    <rc><c>Sc</c><c>   1</c></rc>
    <rc><c>Sc</c><c>   1</c></rc>
    <rc><c>Sc</c><c>   1</c></rc>
    <rc><c>Sc</c><c>   1</c></rc>
    <rc><c>Sc</c><c>   1</c></rc>
    <rc><c>Sc</c><c>   1</c></rc>
    <rc><c>Sc</c><c>   1</c></rc>
    <rc><c>Sc</c><c>   1</c></rc>
    <rc><c>Sc</c><c>   1</c></rc>
    <rc><c>Sc</c><c>   1</c></rc>
    <rc><c>Sc</c><c>   1</c></rc>
    <rc><c>Sc</c><c>   1</c></rc>
    <rc><c>Sc</c><c>   1</c></rc>
    <rc><c>Sc</c><c>   1</c></rc>
    <rc><c>Sc</c><c>   1</c></rc>
    <rc><c>Sc</c><c>   1</c></rc>
    <rc><c>Sc</c><c>   1</c></rc>
    <rc><c>Sc</c><c>   1</c></rc>
    <rc><c>Sc</c><c>   1</c></rc>
    <rc><c>Sc</c><c>   1</c></rc>
    <rc><c>Sc</c><c>   1</c></rc>
    <rc><c>Sc</c><c>   1</c></rc>
    <rc><c>Sc</c><c>   1</c></rc>
    <rc><c>Sc</c><c>   1</c></rc>
    <rc><c>Sc</c><c>   1</c></rc>
    <rc><c>Sc</c><c>   1</c></rc>
    <rc><c>Sc</c><c>   1</c></rc>
    <rc><c>Sc</c><c>   1</c></rc>
    <rc><c>Cl</c><c>   2</c></rc>
    <rc><c>Cl</c><c>   2</c></rc>
    <rc><c>Cl</c><c>   2</c></rc>
    <rc><c>Cl</c><c>   2</c></rc>
    <rc><c>Cl</c><c>   2</c></rc>
    <rc><c>Cl</c><c>   2</c></rc>
    <rc><c>Cl</c><c>   2</c></rc>
    <rc><c>Cl</c><c>   2</c></rc>
    <rc><c>Cl</c><c>   2</c></rc>
    <rc><c>Cl</c><c>   2</c></rc>
    <rc><c>Cl</c><c>   2</c></rc>
    <rc><c>Cl</c><c>   2</c></rc>
    <rc><c>Cl</c><c>   2</c></rc>
    <rc><c>Cl</c><c>   2</c></rc>
    <rc><c>Cl</c><c>   2</c></rc>
    <rc><c>Cl</c><c>   2</c></rc>
    <rc><c>Cl</c><c>   2</c></rc>
    <rc><c>Cl</c><c>   2</c></rc>
    <rc><c>Cl</c><c>   2</c></rc>
    <rc><c>Cl</c><c>   2</c></rc>
    <rc><c>Cl</c><c>   2</c></rc>
    <rc><c>Cl</c><c>   2</c></rc>
    <rc><c>Cl</c><c>   2</c></rc>
    <rc><c>Cl</c><c>   2</c></rc>
    <rc><c>Cl</c><c>   2</c></rc>
    <rc><c>Cl</c><c>   2</c></rc>
    <rc><c>Cl</c><c>   2</c></rc>
    <rc><c>Cl</c><c>   2</c></rc>
    <rc><c>Cl</c><c>   2</c></rc>
    <rc><c>Cl</c><c>   2</c></rc>
    <rc><c>Cl</c><c>   2</c></rc>
    <rc><c>Cl</c><c>   2</c></rc>
    <rc><c>C </c><c>   3</c></rc>
    <rc><c>C </c><c>   3</c></rc>
    <rc><c>C </c><c>   3</c></rc>
    <rc><c>C </c><c>   3</c></rc>
    <rc><c>C </c><c>   3</c></rc>
    <rc><c>C </c><c>   3</c></rc>
    <rc><c>C </c><c>   3</c></rc>
    <rc><c>C </c><c>   3</c></rc>
    <rc><c>C </c><c>   3</c></rc>
    <rc><c>C </c><c>   3</c></rc>
    <rc><c>C </c><c>   3</c></rc>
    <rc><c>C </c><c>   3</c></rc>
    <rc><c>C </c><c>   3</c></rc>
    <rc><c>C </c><c>   3</c></rc>
    <rc><c>C </c><c>   3</c></rc>
    <rc><c>C </c><c>   3</c></rc>
   </set>
  </array>
  <array name="atomtypes" >
   <dimension dim="1">type</dimension>
   <field type="int">atomspertype</field>
   <field type="string">element</field>
   <field>mass</field>
   <field>valence</field>
   <field type="string">pseudopotential</field>
   <set>
    <rc><c>  32</c><c>Sc</c><c>     44.95600000</c><c>     11.00000000</c><c>  PAW_PBE Sc_sv 07Sep2000               </c></rc>
    <rc><c>  32</c><c>Cl</c><c>     35.45300000</c><c>      7.00000000</c><c>  PAW_PBE Cl 06Sep2000                  </c></rc>
    <rc><c>  16</c><c>C </c><c>     12.01100000</c><c>      4.00000000</c><c>  PAW_PBE C 08Apr2002                   </c></rc>
   </set>
  </array>
 </atominfo>
 <structure name="initialpos" >
  <crystal>
   <varray name="basis" >
    <v>      13.79398668       0.00000000       0.00000000 </v>
    <v>      -6.89699334      11.94594288       0.00000000 </v>
    <v>       0.00000000       0.00000000      27.81022107 </v>
   </varray>
   <i name="volume">   4582.62876984 </i>
   <varray name="rec_basis" >
    <v>       0.07249536       0.04185521       0.00000000 </v>
    <v>       0.00000000       0.08371043       0.00000000 </v>
    <v>       0.00000000       0.00000000       0.03595800 </v>
   </varray>
  </crystal>
  <varray name="positions" >
   <v>       0.08626593       0.16539724       0.54629811 </v>
   <v>       0.08222316       0.42041629       0.54343208 </v>
   <v>       0.08885397       0.65719511       0.54349358 </v>
   <v>       0.09509707       0.92183618       0.54040614 </v>
   <v>       0.33763156       0.17256263       0.54870311 </v>
   <v>       0.32519767       0.40929199       0.54595181 </v>
   <v>       0.33633241       0.65483013       0.54553149 </v>
   <v>       0.33376634       0.90972032       0.54868606 </v>
   <v>       0.57639186       0.16372812       0.54417240 </v>
   <v>       0.58719282       0.42069736       0.54556927 </v>
   <v>       0.59740640       0.66966804       0.54496058 </v>
   <v>       0.58940842       0.92245101       0.54116603 </v>
   <v>       0.83663346       0.16430025       0.53905111 </v>
   <v>       0.83632899       0.41009619       0.54223854 </v>
   <v>       0.83656382       0.66434757       0.54667304 </v>
   <v>       0.84186083       0.91459777       0.55067142 </v>
   <v>       0.17036263       0.08350459       0.46175764 </v>
   <v>       0.16817148       0.33918409       0.45485244 </v>
   <v>       0.16819712       0.59210147       0.45479972 </v>
   <v>       0.16994426       0.83887367       0.45512172 </v>
   <v>       0.40556602       0.07858574       0.45802540 </v>
   <v>       0.40262152       0.32655769       0.45539702 </v>
   <v>       0.41829840       0.59124366       0.45500276 </v>
   <v>       0.42246133       0.84281341       0.46257383 </v>
   <v>       0.66038395       0.08115247       0.44669133 </v>
   <v>       0.65879990       0.33620529       0.45614052 </v>
   <v>       0.65778006       0.57788882       0.45442609 </v>
   <v>       0.66785800       0.83602283       0.45767100 </v>
   <v>       0.91678480       0.07948477       0.45247528 </v>
   <v>       0.90603048       0.33725319       0.44760384 </v>
   <v>       0.91153784       0.58463075       0.45725945 </v>
   <v>       0.91409650       0.82911350       0.45819356 </v>
   <v>       0.08636093       0.17311208       0.39694121 </v>
   <v>       0.08733108       0.42646555       0.39736498 </v>
   <v>       0.08751327       0.67854610       0.39263495 </v>
   <v>       0.06713684       0.91289484       0.39488962 </v>
   <v>       0.32973245       0.16633009       0.39637948 </v>
   <v>       0.33476951       0.42126035       0.39108822 </v>
   <v>       0.32843009       0.66998286       0.39996752 </v>
   <v>       0.32658704       0.91854058       0.39408564 </v>
   <v>       0.58218895       0.16769750       0.38638577 </v>
   <v>       0.58584988       0.42123626       0.39480891 </v>
   <v>       0.57118370       0.64954594       0.39178726 </v>
   <v>       0.57853303       0.90712695       0.38873511 </v>
   <v>       0.85541653       0.17962255       0.38824323 </v>
   <v>       0.82589451       0.41004694       0.39350490 </v>
   <v>       0.83615739       0.66048560       0.39572739 </v>
   <v>       0.82956905       0.90625070       0.39854852 </v>
   <v>       0.16687414       0.07209001       0.60695724 </v>
   <v>       0.16480941       0.32001391       0.60632780 </v>
   <v>       0.15652330       0.57495474       0.60827975 </v>
   <v>       0.17435724       0.83529722       0.60656882 </v>
   <v>       0.41538050       0.08912048       0.60000873 </v>
   <v>       0.41870525       0.34113754       0.60523249 </v>
   <v>       0.42033225       0.58639186       0.60707166 </v>
   <v>       0.43637472       0.83158504       0.60559377 </v>
   <v>       0.65040584       0.08647486       0.60417184 </v>
   <v>       0.65688892       0.32958106       0.60697941 </v>
   <v>       0.66050637       0.57687454       0.60564123 </v>
   <v>       0.68162875       0.84181625       0.60750399 </v>
   <v>       0.92353428       0.08779152       0.60322926 </v>
   <v>       0.91411822       0.34220858       0.60397855 </v>
   <v>       0.91671942       0.59045134       0.60465654 </v>
   <v>       0.91493451       0.83134497       0.60531444 </v>
   <v>       0.00733300       0.00312411       0.49677888 </v>
   <v>       0.99653887       0.25549703       0.50721518 </v>
   <v>       0.00627776       0.49781536       0.50470609 </v>
   <v>       0.99864707       0.74829252       0.49907815 </v>
   <v>       0.25075856       0.99497880       0.50102981 </v>
   <v>       0.24243851       0.24297474       0.50313567 </v>
   <v>       0.26082806       0.50895794       0.50222197 </v>
   <v>       0.25269943       0.74570673       0.50224719 </v>
   <v>       0.51193493       0.01318012       0.49719686 </v>
   <v>       0.48958725       0.25110337       0.50261548 </v>
   <v>       0.49981536       0.49319501       0.49545868 </v>
   <v>       0.49690970       0.75204950       0.50082906 </v>
   <v>       0.75174628       0.99414576       0.49940263 </v>
   <v>       0.75360877       0.25960847       0.49443090 </v>
   <v>       0.75212627       0.48784767       0.50537080 </v>
   <v>       0.75112611       0.74889049       0.50320414 </v>
  </varray>
  <varray name="velocities" >
   <v>       0.00000000       0.00000000       0.00000000 </v>
   <v>       0.00000000       0.00000000       0.00000000 </v>
   <v>       0.00000000       0.00000000       0.00000000 </v>
   <v>       0.00000000       0.00000000       0.00000000 </v>
   <v>       0.00000000       0.00000000       0.00000000 </v>
   <v>       0.00000000       0.00000000       0.00000000 </v>
   <v>       0.00000000       0.00000000       0.00000000 </v>
   <v>       0.00000000       0.00000000       0.00000000 </v>
   <v>       0.00000000       0.00000000       0.00000000 </v>
   <v>       0.00000000       0.00000000       0.00000000 </v>
   <v>       0.00000000       0.00000000       0.00000000 </v>
   <v>       0.00000000       0.00000000       0.00000000 </v>
   <v>       0.00000000       0.00000000       0.00000000 </v>
   <v>       0.00000000       0.00000000       0.00000000 </v>
   <v>       0.00000000       0.00000000       0.00000000 </v>
   <v>       0.00000000       0.00000000       0.00000000 </v>
   <v>       0.00000000       0.00000000       0.00000000 </v>
   <v>       0.00000000       0.00000000       0.00000000 </v>
   <v>       0.00000000       0.00000000       0.00000000 </v>
   <v>       0.00000000       0.00000000       0.00000000 </v>
   <v>       0.00000000       0.00000000       0.00000000 </v>
   <v>       0.00000000       0.00000000       0.00000000 </v>
   <v>       0.00000000       0.00000000       0.00000000 </v>
   <v>       0.00000000       0.00000000       0.00000000 </v>
   <v>       0.00000000       0.00000000       0.00000000 </v>
   <v>       0.00000000       0.00000000       0.00000000 </v>
   <v>       0.00000000       0.00000000       0.00000000 </v>
   <v>       0.00000000       0.00000000       0.00000000 </v>
   <v>       0.00000000       0.00000000       0.00000000 </v>
   <v>       0.00000000       0.00000000       0.00000000 </v>
   <v>       0.00000000       0.00000000       0.00000000 </v>
   <v>       0.00000000       0.00000000       0.00000000 </v>
   <v>       0.00000000       0.00000000       0.00000000 </v>
   <v>       0.00000000       0.00000000       0.00000000 </v>
   <v>       0.00000000       0.00000000       0.00000000 </v>
   <v>       0.00000000       0.00000000       0.00000000 </v>
   <v>       0.00000000       0.00000000       0.00000000 </v>
   <v>       0.00000000       0.00000000       0.00000000 </v>
   <v>       0.00000000       0.00000000       0.00000000 </v>
   <v>       0.00000000       0.00000000       0.00000000 </v>
   <v>       0.00000000       0.00000000       0.00000000 </v>
   <v>       0.00000000       0.00000000       0.00000000 </v>
   <v>       0.00000000       0.00000000       0.00000000 </v>
   <v>       0.00000000       0.00000000       0.00000000 </v>
   <v>       0.00000000       0.00000000       0.00000000 </v>
   <v>       0.00000000       0.00000000       0.00000000 </v>
   <v>       0.00000000       0.00000000       0.00000000 </v>
   <v>       0.00000000       0.00000000       0.00000000 </v>
   <v>       0.00000000       0.00000000       0.00000000 </v>
   <v>       0.00000000       0.00000000       0.00000000 </v>
   <v>       0.00000000       0.00000000       0.00000000 </v>
   <v>       0.00000000       0.00000000       0.00000000 </v>
   <v>       0.00000000       0.00000000       0.00000000 </v>
   <v>       0.00000000       0.00000000       0.00000000 </v>
   <v>       0.00000000       0.00000000       0.00000000 </v>
   <v>       0.00000000       0.00000000       0.00000000 </v>
   <v>       0.00000000       0.00000000       0.00000000 </v>
   <v>       0.00000000       0.00000000       0.00000000 </v>
   <v>       0.00000000       0.00000000       0.00000000 </v>
   <v>       0.00000000       0.00000000       0.00000000 </v>
   <v>       0.00000000       0.00000000       0.00000000 </v>
   <v>       0.00000000       0.00000000       0.00000000 </v>
   <v>       0.00000000       0.00000000       0.00000000 </v>
   <v>       0.00000000       0.00000000       0.00000000 </v>
   <v>       0.00000000       0.00000000       0.00000000 </v>
   <v>       0.00000000       0.00000000       0.00000000 </v>
   <v>       0.00000000       0.00000000       0.00000000 </v>
   <v>       0.00000000       0.00000000       0.00000000 </v>
   <v>       0.00000000       0.00000000       0.00000000 </v>
   <v>       0.00000000       0.00000000       0.00000000 </v>
   <v>       0.00000000       0.00000000       0.00000000 </v>
   <v>       0.00000000       0.00000000       0.00000000 </v>
   <v>       0.00000000       0.00000000       0.00000000 </v>
   <v>       0.00000000       0.00000000       0.00000000 </v>
   <v>       0.00000000       0.00000000       0.00000000 </v>
   <v>       0.00000000       0.00000000       0.00000000 </v>
   <v>       0.00000000       0.00000000       0.00000000 </v>
   <v>       0.00000000       0.00000000       0.00000000 </v>
   <v>       0.00000000       0.00000000       0.00000000 </v>
   <v>       0.00000000       0.00000000       0.00000000 </v>
  </varray>
 </structure>
 <calculation>
  <scstep>
   <time name="dav">   50.20   50.21</time>
   <time name="total">   51.03   51.04</time>
   <energy>
    <i name="alphaZ">    784.57699423 </i>
    <i name="ewald"> 251646.27370376 </i>
    <i name="hartreedc">-299306.90338234 </i>
    <i name="XCdc">   2502.49775174 </i>
    <i name="pawpsdc">  43679.68029659 </i>
    <i name="pawaedc"> -43417.33247688 </i>
    <i name="eentropy">     -0.06412687 </i>
    <i name="bandstr">     62.69417767 </i>
    <i name="atom">  56210.72393729 </i>
    <i name="e_fr_energy">  12162.14687519 </i>
    <i name="e_wo_entrp">  12162.21100206 </i>
    <i name="e_0_energy">  12162.17893863 </i>
   </energy>
  </scstep>
  <scstep>
   <time name="dav">   56.92   56.95</time>
   <time name="total">   56.92   56.95</time>
   <energy>
    <i name="e_fr_energy">   1716.32983038 </i>
    <i name="e_wo_entrp">   1716.37740115 </i>
    <i name="e_0_energy">   1716.35361577 </i>
   </energy>
  </scstep>
  <scstep>
   <time name="dav">   70.94   70.96</time>
   <time name="total">   70.94   70.96</time>
   <energy>
    <i name="e_fr_energy">   -409.54879527 </i>
    <i name="e_wo_entrp">   -409.54879527 </i>
    <i name="e_0_energy">   -409.54879527 </i>
   </energy>
  </scstep>
  <scstep>
   <time name="dav">   64.63   64.65</time>
   <time name="total">   64.63   64.65</time>
   <energy>
    <i name="e_fr_energy">   -643.22337875 </i>
    <i name="e_wo_entrp">   -643.22337875 </i>
    <i name="e_0_energy">   -643.22337875 </i>
   </energy>
  </scstep>
  <scstep>
   <time name="dav">   64.63   64.65</time>
   <time name="total">   68.53   68.55</time>
   <energy>
    <i name="e_fr_energy">   -653.54829293 </i>
    <i name="e_wo_entrp">   -653.54829293 </i>
    <i name="e_0_energy">   -653.54829293 </i>
   </energy>
  </scstep>
  <scstep>
   <time name="dav">   62.68   62.69</time>
   <time name="total">   67.39   67.41</time>
   <energy>
    <i name="e_fr_energy">   -523.00874399 </i>
    <i name="e_wo_entrp">   -523.00874399 </i>
    <i name="e_0_energy">   -523.00874399 </i>
   </energy>
  </scstep>
  <scstep>
   <time name="dav">   63.71   63.72</time>
   <time name="total">   68.41   68.43</time>
   <energy>
    <i name="e_fr_energy">   -527.68174599 </i>
    <i name="e_wo_entrp">   -527.68174599 </i>
    <i name="e_0_energy">   -527.68174599 </i>
   </energy>
  </scstep>
  <scstep>
   <time name="dav">   63.14   63.16</time>
   <time name="total">   67.85   67.87</time>
   <energy>
    <i name="e_fr_energy">   -525.48752819 </i>
    <i name="e_wo_entrp">   -525.48752819 </i>
    <i name="e_0_energy">   -525.48752819 </i>
   </energy>
  </scstep>
  <scstep>
   <time name="dav">   58.43   58.45</time>
   <time name="total">   63.15   63.17</time>
   <energy>
    <i name="e_fr_energy">   -525.00561810 </i>
    <i name="e_wo_entrp">   -525.00561810 </i>
    <i name="e_0_energy">   -525.00561810 </i>
   </energy>
  </scstep>
  <scstep>
   <time name="dav">   61.05   61.06</time>
   <time name="total">   65.76   65.78</time>
   <energy>
    <i name="e_fr_energy">   -524.86866560 </i>
    <i name="e_wo_entrp">   -524.86866560 </i>
    <i name="e_0_energy">   -524.86866560 </i>
   </energy>
  </scstep>
  <scstep>
   <time name="dav">   61.73   61.75</time>
   <time name="total">   66.44   66.46</time>
   <energy>
    <i name="e_fr_energy">   -524.84832859 </i>
    <i name="e_wo_entrp">   -524.84832859 </i>
    <i name="e_0_energy">   -524.84832859 </i>
   </energy>
  </scstep>
  <scstep>
   <time name="dav">   64.71   64.72</time>
   <time name="total">   69.41   69.43</time>
   <energy>
    <i name="e_fr_energy">   -524.83530297 </i>
    <i name="e_wo_entrp">   -524.83530297 </i>
    <i name="e_0_energy">   -524.83530297 </i>
   </energy>
  </scstep>
  <scstep>
   <time name="dav">   59.26   59.27</time>
   <time name="total">   63.97   63.99</time>
   <energy>
    <i name="e_fr_energy">   -524.83238277 </i>
    <i name="e_wo_entrp">   -524.83238277 </i>
    <i name="e_0_energy">   -524.83238277 </i>
   </energy>
  </scstep>
  <scstep>
   <time name="dav">   59.20   59.21</time>
   <time name="total">   63.90   63.92</time>
   <energy>
    <i name="e_fr_energy">   -524.83086501 </i>
    <i name="e_wo_entrp">   -524.83086501 </i>
    <i name="e_0_energy">   -524.83086501 </i>
   </energy>
  </scstep>
  <scstep>
   <time name="dav">   59.89   59.90</time>
   <time name="total">   64.59   64.61</time>
   <energy>
    <i name="e_fr_energy">   -524.83208582 </i>
    <i name="e_wo_entrp">   -524.83208582 </i>
    <i name="e_0_energy">   -524.83208582 </i>
   </energy>
  </scstep>
  <scstep>
   <time name="dav">   63.01   63.03</time>
   <time name="total">   67.71   67.74</time>
   <energy>
    <i name="e_fr_energy">   -524.83369593 </i>
    <i name="e_wo_entrp">   -524.83369593 </i>
    <i name="e_0_energy">   -524.83369593 </i>
   </energy>
  </scstep>
  <scstep>
   <time name="dav">   59.00   59.01</time>
   <time name="total">   63.71   63.73</time>
   <energy>
    <i name="e_fr_energy">   -524.83670470 </i>
    <i name="e_wo_entrp">   -524.83670470 </i>
    <i name="e_0_energy">   -524.83670470 </i>
   </energy>
  </scstep>
  <scstep>
   <time name="dav">   54.89   54.91</time>
   <time name="total">   59.60   59.62</time>
   <energy>
    <i name="e_fr_energy">   -524.83935363 </i>
    <i name="e_wo_entrp">   -524.83935363 </i>
    <i name="e_0_energy">   -524.83935363 </i>
   </energy>
  </scstep>
  <scstep>
   <time name="dav">   53.61   53.62</time>
   <time name="total">   58.32   58.34</time>
   <energy>
    <i name="e_fr_energy">   -524.84033855 </i>
    <i name="e_wo_entrp">   -524.84033855 </i>
    <i name="e_0_energy">   -524.84033855 </i>
   </energy>
  </scstep>
  <scstep>
   <time name="dav">   49.13   49.14</time>
   <time name="total">   53.84   53.86</time>
   <energy>
    <i name="e_fr_energy">   -524.84169706 </i>
    <i name="e_wo_entrp">   -524.84169706 </i>
    <i name="e_0_energy">   -524.84169706 </i>
   </energy>
  </scstep>
  <scstep>
   <time name="dav">   49.14   49.15</time>
   <time name="total">   53.86   53.87</time>
   <energy>
    <i name="e_fr_energy">   -524.84219581 </i>
    <i name="e_wo_entrp">   -524.84219581 </i>
    <i name="e_0_energy">   -524.84219581 </i>
   </energy>
  </scstep>
  <scstep>
   <time name="dav">   44.69   44.70</time>
   <time name="total">   49.41   49.43</time>
   <energy>
    <i name="e_fr_energy">   -524.84244071 </i>
    <i name="e_wo_entrp">   -524.84244071 </i>
    <i name="e_0_energy">   -524.84244071 </i>
   </energy>
  </scstep>
  <scstep>
   <time name="dav">   44.30   44.31</time>
   <time name="total">   49.01   49.03</time>
   <energy>
    <i name="e_fr_energy">   -524.84299657 </i>
    <i name="e_wo_entrp">   -524.84299657 </i>
    <i name="e_0_energy">   -524.84299657 </i>
   </energy>
  </scstep>
  <scstep>
   <time name="dav">   40.69   40.70</time>
   <time name="total">   45.41   45.42</time>
   <energy>
    <i name="e_fr_energy">   -524.84328616 </i>
    <i name="e_wo_entrp">   -524.84328616 </i>
    <i name="e_0_energy">   -524.84328616 </i>
   </energy>
  </scstep>
  <scstep>
   <time name="dav">   38.42   38.42</time>
   <time name="total">   43.13   43.13</time>
   <energy>
    <i name="e_fr_energy">   -524.84335564 </i>
    <i name="e_wo_entrp">   -524.84335564 </i>
    <i name="e_0_energy">   -524.84335564 </i>
   </energy>
  </scstep>
  <scstep>
   <time name="dav">   41.66   41.66</time>
   <time name="total">   46.37   46.38</time>
   <energy>
    <i name="e_fr_energy">   -524.84346291 </i>
    <i name="e_wo_entrp">   -524.84346291 </i>
    <i name="e_0_energy">   -524.84346291 </i>
   </energy>
  </scstep>
  <scstep>
   <time name="dav">   35.32   35.32</time>
   <time name="total">   40.04   40.04</time>
   <energy>
    <i name="e_fr_energy">   -524.84348073 </i>
    <i name="e_wo_entrp">   -524.84348073 </i>
    <i name="e_0_energy">   -524.84348073 </i>
   </energy>
  </scstep>
  <scstep>
   <time name="dav">   33.40   33.40</time>
   <time name="total">   38.11   38.12</time>
   <energy>
    <i name="e_fr_energy">   -524.84348674 </i>
    <i name="e_wo_entrp">   -524.84348674 </i>
    <i name="e_0_energy">   -524.84348674 </i>
   </energy>
  </scstep>
  <scstep>
   <time name="dav">   34.53   34.53</time>
   <time name="total">   39.24   39.25</time>
   <energy>
    <i name="e_fr_energy">   -524.84349624 </i>
    <i name="e_wo_entrp">   -524.84349624 </i>
    <i name="e_0_energy">   -524.84349624 </i>
   </energy>
  </scstep>
  <scstep>
   <time name="dav">   36.44   36.44</time>
   <time name="total">   41.13   41.14</time>
   <energy>
    <i name="e_fr_energy">   -524.84351164 </i>
    <i name="e_wo_entrp">   -524.84351164 </i>
    <i name="e_0_energy">   -524.84351164 </i>
   </energy>
  </scstep>
  <scstep>
   <time name="dav">   34.49   34.49</time>
   <time name="total">   39.27   39.27</time>
   <energy>
    <i name="e_fr_energy">   -524.84351662 </i>
    <i name="e_wo_entrp">   -524.84351662 </i>
    <i name="e_0_energy">   -524.84351662 </i>
   </energy>
  </scstep>
  <scstep>
   <time name="dav">   32.64   32.64</time>
   <time name="total">   37.40   37.41</time>
   <energy>
    <i name="e_fr_energy">   -524.84351889 </i>
    <i name="e_wo_entrp">   -524.84351889 </i>
    <i name="e_0_energy">   -524.84351889 </i>
   </energy>
  </scstep>
  <scstep>
   <time name="dav">   32.50   32.51</time>
   <time name="total">   33.31   33.32</time>
   <energy>
    <i name="alphaZ">    784.57699423 </i>
    <i name="ewald"> 251646.27370376 </i>
    <i name="hartreedc">-299616.76132927 </i>
    <i name="XCdc">   2489.88131804 </i>
    <i name="pawpsdc">  59577.80042290 </i>
    <i name="pawaedc"> -59409.98852428 </i>
    <i name="eentropy">     -0.00000000 </i>
    <i name="bandstr"> -12207.35004227 </i>
    <i name="atom">  56210.72393729 </i>
    <i name="e_fr_energy">   -524.84351961 </i>
    <i name="e_wo_entrp">   -524.84351961 </i>
    <i name="e_0_energy">   -524.84351961 </i>
   </energy>
  </scstep>
  <structure>
   <crystal>
    <varray name="basis" >
     <v>      13.79398668       0.00000000       0.00000000 </v>
     <v>      -6.89699334      11.94594288       0.00000000 </v>
     <v>       0.00000000       0.00000000      27.81022107 </v>
    </varray>
    <i name="volume">   4582.62876984 </i>
    <varray name="rec_basis" >
     <v>       0.07249536       0.04185521       0.00000000 </v>
     <v>       0.00000000       0.08371043       0.00000000 </v>
     <v>       0.00000000       0.00000000       0.03595800 </v>
    </varray>
   </crystal>
   <varray name="positions" >
    <v>       0.08626593       0.16539724       0.54629811 </v>
    <v>       0.08222316       0.42041629       0.54343208 </v>
    <v>       0.08885397       0.65719511       0.54349358 </v>
    <v>       0.09509707       0.92183618       0.54040614 </v>
    <v>       0.33763156       0.17256263       0.54870311 </v>
    <v>       0.32519767       0.40929199       0.54595181 </v>
    <v>       0.33633241       0.65483013       0.54553149 </v>
    <v>       0.33376634       0.90972032       0.54868606 </v>
    <v>       0.57639186       0.16372812       0.54417240 </v>
    <v>       0.58719282       0.42069736       0.54556927 </v>
    <v>       0.59740640       0.66966804       0.54496058 </v>
    <v>       0.58940842       0.92245101       0.54116603 </v>
    <v>       0.83663346       0.16430025       0.53905111 </v>
    <v>       0.83632899       0.41009619       0.54223854 </v>
    <v>       0.83656382       0.66434757       0.54667304 </v>
    <v>       0.84186083       0.91459777       0.55067142 </v>
    <v>       0.17036263       0.08350459       0.46175764 </v>
    <v>       0.16817148       0.33918409       0.45485244 </v>
    <v>       0.16819712       0.59210147       0.45479972 </v>
    <v>       0.16994426       0.83887367       0.45512172 </v>
    <v>       0.40556602       0.07858574       0.45802540 </v>
    <v>       0.40262152       0.32655769       0.45539702 </v>
    <v>       0.41829840       0.59124366       0.45500276 </v>
    <v>       0.42246133       0.84281341       0.46257383 </v>
    <v>       0.66038395       0.08115247       0.44669133 </v>
    <v>       0.65879990       0.33620529       0.45614052 </v>
    <v>       0.65778006       0.57788882       0.45442609 </v>
    <v>       0.66785800       0.83602283       0.45767100 </v>
    <v>       0.91678480       0.07948477       0.45247528 </v>
    <v>       0.90603048       0.33725319       0.44760384 </v>
    <v>       0.91153784       0.58463075       0.45725945 </v>
    <v>       0.91409650       0.82911350       0.45819356 </v>
    <v>       0.08636093       0.17311208       0.39694121 </v>
    <v>       0.08733108       0.42646555       0.39736498 </v>
    <v>       0.08751327       0.67854610       0.39263495 </v>
    <v>       0.06713684       0.91289484       0.39488962 </v>
    <v>       0.32973245       0.16633009       0.39637948 </v>
    <v>       0.33476951       0.42126035       0.39108822 </v>
    <v>       0.32843009       0.66998286       0.39996752 </v>
    <v>       0.32658704       0.91854058       0.39408564 </v>
    <v>       0.58218895       0.16769750       0.38638577 </v>
    <v>       0.58584988       0.42123626       0.39480891 </v>
    <v>       0.57118370       0.64954594       0.39178726 </v>
    <v>       0.57853303       0.90712695       0.38873511 </v>
    <v>       0.85541653       0.17962255       0.38824323 </v>
    <v>       0.82589451       0.41004694       0.39350490 </v>
    <v>       0.83615739       0.66048560       0.39572739 </v>
    <v>       0.82956905       0.90625070       0.39854852 </v>
    <v>       0.16687414       0.07209001       0.60695724 </v>
    <v>       0.16480941       0.32001391       0.60632780 </v>
    <v>       0.15652330       0.57495474       0.60827975 </v>
    <v>       0.17435724       0.83529722       0.60656882 </v>
    <v>       0.41538050       0.08912048       0.60000873 </v>
    <v>       0.41870525       0.34113754       0.60523249 </v>
    <v>       0.42033225       0.58639186       0.60707166 </v>
    <v>       0.43637472       0.83158504       0.60559377 </v>
    <v>       0.65040584       0.08647486       0.60417184 </v>
    <v>       0.65688892       0.32958106       0.60697941 </v>
    <v>       0.66050637       0.57687454       0.60564123 </v>
    <v>       0.68162875       0.84181625       0.60750399 </v>
    <v>       0.92353428       0.08779152       0.60322926 </v>
    <v>       0.91411822       0.34220858       0.60397855 </v>
    <v>       0.91671942       0.59045134       0.60465654 </v>
    <v>       0.91493451       0.83134497       0.60531444 </v>
    <v>       0.00733300       0.00312411       0.49677888 </v>
    <v>       0.99653887       0.25549703       0.50721518 </v>
    <v>       0.00627776       0.49781536       0.50470609 </v>
    <v>       0.99864707       0.74829252       0.49907815 </v>
    <v>       0.25075856       0.99497880       0.50102981 </v>
    <v>       0.24243851       0.24297474       0.50313567 </v>
    <v>       0.26082806       0.50895794       0.50222197 </v>
    <v>       0.25269943       0.74570673       0.50224719 </v>
    <v>       0.51193493       0.01318012       0.49719686 </v>
    <v>       0.48958725       0.25110337       0.50261548 </v>
    <v>       0.49981536       0.49319501       0.49545868 </v>
    <v>       0.49690970       0.75204950       0.50082906 </v>
    <v>       0.75174628       0.99414576       0.49940263 </v>
    <v>       0.75360877       0.25960847       0.49443090 </v>
    <v>       0.75212627       0.48784767       0.50537080 </v>
    <v>       0.75112611       0.74889049       0.50320414 </v>
   </varray>
  </structure>
  <varray name="forces" >
   <v>      -0.72210430       0.04533528      -0.39671524 </v>
   <v>       0.33793244      -0.90611967       0.66781365 </v>
   <v>      -1.00068521       0.80833752       0.86094412 </v>
   <v>      -0.95040373      -1.15865516       1.66730383 </v>
   <v>      -0.52701542       0.28414042      -0.60764367 </v>
   <v>       0.27654136       0.88130249      -0.24851898 </v>
   <v>      -0.53758947       1.37804709       0.73511096 </v>
   <v>      -0.18659882      -0.30799665      -0.08533345 </v>
   <v>       0.65502624       1.23779118      -0.67693714 </v>
   <v>      -0.22809111      -0.79912045      -0.33448454 </v>
   <v>      -1.24401649      -0.22931548       0.24545749 </v>
   <v>       0.41586653       0.10712171       1.17638912 </v>
   <v>      -0.79888911       0.56413320       0.75663510 </v>
   <v>      -0.68481740       0.13818900       0.61677044 </v>
   <v>       0.05493037      -0.08253896      -0.31744579 </v>
   <v>      -0.76874043       0.33076373      -1.61521310 </v>
   <v>      -0.68076959       0.06863971      -2.02945985 </v>
   <v>      -0.23357903      -0.25530342       0.50495455 </v>
   <v>       0.06702546      -0.34521630       0.43036050 </v>
   <v>      -0.22452440      -0.84569485      -0.17363808 </v>
   <v>       0.90241856       0.83803221      -0.71921951 </v>
   <v>       0.92732501       0.88984711       0.27839081 </v>
   <v>       0.40876154      -0.71765869       0.23062699 </v>
   <v>      -0.18305740      -1.21773834      -1.88232968 </v>
   <v>       0.01208250       0.73118391       0.42846959 </v>
   <v>       0.68166059      -0.56078366      -0.02937663 </v>
   <v>       0.08898281       0.29217716       0.13109822 </v>
   <v>       0.13401108      -0.44756349      -0.37056573 </v>
   <v>       0.19911455       0.11872637       0.79834574 </v>
   <v>       1.13382490      -0.59943401       1.83719665 </v>
   <v>       0.59971943       0.01499665      -0.01657651 </v>
   <v>       0.41689104       0.16972804      -0.26543109 </v>
   <v>       0.25014259      -0.09358282       0.06569031 </v>
   <v>       0.11559270      -0.10094664      -0.31206947 </v>
   <v>       0.01259205      -0.55842745       0.54439478 </v>
   <v>       0.74129277       0.34127025       0.26728271 </v>
   <v>       0.02593474      -0.20262430      -0.02105949 </v>
   <v>      -0.32987162      -0.33275545       0.64748751 </v>
   <v>       0.41770648       0.42797001      -0.58863074 </v>
   <v>       0.35251712       0.12095314       0.42438556 </v>
   <v>      -0.03409293      -0.12129602       0.90443539 </v>
   <v>      -0.08694026      -0.51119053      -0.07657912 </v>
   <v>       0.27002348       0.82872510       0.36707244 </v>
   <v>       0.03246601       0.29568726       0.86565880 </v>
   <v>      -0.49494971      -0.64556648       0.37484285 </v>
   <v>      -0.49482254       0.80821830      -0.47122808 </v>
   <v>      -0.46092078       0.08815933       0.12673904 </v>
   <v>      -0.30171066       0.20914104      -0.41982190 </v>
   <v>      -0.23071399       0.23345345      -0.18133191 </v>
   <v>      -0.10769506       0.66266683       0.17649213 </v>
   <v>       0.51267452       0.32469101      -0.17613172 </v>
   <v>      -0.06385636      -0.16160318      -0.29375703 </v>
   <v>       0.37395151      -0.68869952       1.25208000 </v>
   <v>      -0.02204951      -0.28061202       0.22411325 </v>
   <v>       0.23164898      -0.35196428      -0.23131429 </v>
   <v>      -0.86140443       0.12438264      -0.19088668 </v>
   <v>       0.99218335      -0.17645255      -0.10048579 </v>
   <v>       0.34794056       0.10958406      -0.31538271 </v>
   <v>       0.18619025       0.44013485       0.18833530 </v>
   <v>      -0.49123519      -0.28884353      -0.23768400 </v>
   <v>      -0.49586970      -0.16997813       0.39058001 </v>
   <v>       0.43297618      -0.76038041       0.29212989 </v>
   <v>       0.44777188      -0.29121964       0.17499355 </v>
   <v>       0.73725666      -0.05766338       0.35399627 </v>
   <v>      -0.34996984      -0.48113010       1.16145306 </v>
   <v>       1.28691795      -0.51623599      -2.03270324 </v>
   <v>      -0.84305347       0.74037187      -1.87495819 </v>
   <v>       0.12101190      -0.04753138       0.18168032 </v>
   <v>       0.22146495       0.16896910      -0.06782745 </v>
   <v>       0.33507704       0.99613459      -0.37268835 </v>
   <v>      -0.27555576      -1.51083223      -0.73839223 </v>
   <v>      -0.36306254       0.95429973       0.02420721 </v>
   <v>      -0.38870103      -1.02168320       0.11526911 </v>
   <v>       0.55148325      -0.44899472      -0.58433808 </v>
   <v>      -0.22300151       0.69007495       0.93629953 </v>
   <v>       0.87544177       0.29442040      -0.21009414 </v>
   <v>      -0.16921256       0.51974373      -0.48696522 </v>
   <v>      -0.04773950      -1.16934691      -0.04242652 </v>
   <v>      -1.02190764       1.25176379      -1.33968170 </v>
   <v>      -0.05515461      -0.06660820      -0.29015971 </v>
  </varray>
  <varray name="stress" >
   <v>       3.88454571      -1.15616803      -2.39729445 </v>
   <v>      -1.15616806       2.68289787       0.07677266 </v>
   <v>      -2.39729444       0.07677265      -1.70761396 </v>
  </varray>
  <energy>
   <i name="e_fr_energy">   -524.84351961 </i>
   <i name="e_wo_entrp">   -524.84351961 </i>
   <i name="e_0_energy">     -0.00000000 </i>
  </energy>
  <time name="totalsc"> 1899.32 1899.89</time>
  <eigenvalues>
   <array>
    <dimension dim="1">band</dimension>
    <dimension dim="2">kpoint</dimension>
    <dimension dim="3">spin</dimension>
    <field>eigene</field>
    <field>occ</field>
    <set>
     <set comment="spin 1">
      <set comment="kpoint 1">
       <r>  -51.9813    1.0000 </r>
       <r>  -51.9804    1.0000 </r>
       <r>  -51.9104    1.0000 </r>
       <r>  -51.7527    1.0000 </r>
       <r>  -51.7314    1.0000 </r>
       <r>  -51.6011    1.0000 </r>
       <r>  -51.5682    1.0000 </r>
       <r>  -51.5590    1.0000 </r>
       <r>  -51.5573    1.0000 </r>
       <r>  -51.5504    1.0000 </r>
       <r>  -51.5112    1.0000 </r>
       <r>  -51.5072    1.0000 </r>
       <r>  -51.4806    1.0000 </r>
       <r>  -51.4668    1.0000 </r>
       <r>  -51.4622    1.0000 </r>
       <r>  -51.4275    1.0000 </r>
       <r>  -51.4210    1.0000 </r>
       <r>  -51.4027    1.0000 </r>
       <r>  -51.3767    1.0000 </r>
       <r>  -51.3698    1.0000 </r>
       <r>  -51.3560    1.0000 </r>
       <r>  -51.3281    1.0000 </r>
       <r>  -51.3017    1.0000 </r>
       <r>  -51.2883    1.0000 </r>
       <r>  -51.2759    1.0000 </r>
       <r>  -51.2274    1.0000 </r>
       <r>  -51.2251    1.0000 </r>
       <r>  -51.1156    1.0000 </r>
       <r>  -51.1115    1.0000 </r>
       <r>  -51.1106    1.0000 </r>
       <r>  -50.9299    1.0000 </r>
       <r>  -50.9040    1.0000 </r>
       <r>  -30.6814    1.0000 </r>
       <r>  -30.6298    1.0000 </r>
       <r>  -30.6194    1.0000 </r>
       <r>  -30.6173    1.0000 </r>
       <r>  -30.6109    1.0000 </r>
       <r>  -30.5879    1.0000 </r>
       <r>  -30.5831    1.0000 </r>
       <r>  -30.5582    1.0000 </r>
       <r>  -30.5271    1.0000 </r>
       <r>  -30.4510    1.0000 </r>
       <r>  -30.4352    1.0000 </r>
       <r>  -30.4178    1.0000 </r>
       <r>  -30.3988    1.0000 </r>
       <r>  -30.3755    1.0000 </r>
       <r>  -30.3435    1.0000 </r>
       <r>  -30.3310    1.0000 </r>
       <r>  -30.3229    1.0000 </r>
       <r>  -30.3090    1.0000 </r>
       <r>  -30.3018    1.0000 </r>
       <r>  -30.2932    1.0000 </r>
       <r>  -30.2800    1.0000 </r>
       <r>  -30.2776    1.0000 </r>
       <r>  -30.2640    1.0000 </r>
       <r>  -30.2568    1.0000 </r>
       <r>  -30.2527    1.0000 </r>
       <r>  -30.2490    1.0000 </r>
       <r>  -30.2354    1.0000 </r>
       <r>  -30.2265    1.0000 </r>
       <r>  -30.2224    1.0000 </r>
       <r>  -30.2184    1.0000 </r>
       <r>  -30.2133    1.0000 </r>
       <r>  -30.2056    1.0000 </r>
       <r>  -30.2046    1.0000 </r>
       <r>  -30.1963    1.0000 </r>
       <r>  -30.1868    1.0000 </r>
       <r>  -30.1812    1.0000 </r>
       <r>  -30.1775    1.0000 </r>
       <r>  -30.1699    1.0000 </r>
       <r>  -30.1597    1.0000 </r>
       <r>  -30.1518    1.0000 </r>
       <r>  -30.1471    1.0000 </r>
       <r>  -30.1460    1.0000 </r>
       <r>  -30.1310    1.0000 </r>
       <r>  -30.1228    1.0000 </r>
       <r>  -30.1087    1.0000 </r>
       <r>  -30.1055    1.0000 </r>
       <r>  -30.0999    1.0000 </r>
       <r>  -30.0870    1.0000 </r>
       <r>  -30.0824    1.0000 </r>
       <r>  -30.0735    1.0000 </r>
       <r>  -30.0701    1.0000 </r>
       <r>  -30.0622    1.0000 </r>
       <r>  -30.0543    1.0000 </r>
       <r>  -30.0483    1.0000 </r>
       <r>  -30.0410    1.0000 </r>
       <r>  -30.0266    1.0000 </r>
       <r>  -30.0241    1.0000 </r>
       <r>  -30.0202    1.0000 </r>
       <r>  -30.0197    1.0000 </r>
       <r>  -30.0080    1.0000 </r>
       <r>  -29.9953    1.0000 </r>
       <r>  -29.9942    1.0000 </r>
       <r>  -29.9907    1.0000 </r>
       <r>  -29.9816    1.0000 </r>
       <r>  -29.9754    1.0000 </r>
       <r>  -29.9724    1.0000 </r>
       <r>  -29.9655    1.0000 </r>
       <r>  -29.9594    1.0000 </r>
       <r>  -29.9510    1.0000 </r>
       <r>  -29.9313    1.0000 </r>
       <r>  -29.9237    1.0000 </r>
       <r>  -29.9161    1.0000 </r>
       <r>  -29.9137    1.0000 </r>
       <r>  -29.8975    1.0000 </r>
       <r>  -29.8929    1.0000 </r>
       <r>  -29.8858    1.0000 </r>
       <r>  -29.8788    1.0000 </r>
       <r>  -29.8715    1.0000 </r>
       <r>  -29.8686    1.0000 </r>
       <r>  -29.8614    1.0000 </r>
       <r>  -29.8518    1.0000 </r>
       <r>  -29.8234    1.0000 </r>
       <r>  -29.7887    1.0000 </r>
       <r>  -29.7810    1.0000 </r>
       <r>  -29.7800    1.0000 </r>
       <r>  -29.7612    1.0000 </r>
       <r>  -29.7468    1.0000 </r>
       <r>  -29.7391    1.0000 </r>
       <r>  -29.7252    1.0000 </r>
       <r>  -29.7181    1.0000 </r>
       <r>  -29.6440    1.0000 </r>
       <r>  -29.6326    1.0000 </r>
       <r>  -29.6056    1.0000 </r>
       <r>  -29.5604    1.0000 </r>
       <r>  -29.5572    1.0000 </r>
       <r>  -29.5269    1.0000 </r>
       <r>  -18.7220    1.0000 </r>
       <r>  -18.5197    1.0000 </r>
       <r>  -18.4463    1.0000 </r>
       <r>  -18.3874    1.0000 </r>
       <r>  -18.3237    1.0000 </r>
       <r>  -18.3143    1.0000 </r>
       <r>  -18.2586    1.0000 </r>
       <r>  -18.2336    1.0000 </r>
       <r>  -18.2270    1.0000 </r>
       <r>  -18.1530    1.0000 </r>
       <r>  -18.1103    1.0000 </r>
       <r>  -18.0848    1.0000 </r>
       <r>  -18.0766    1.0000 </r>
       <r>  -18.0564    1.0000 </r>
       <r>  -18.0448    1.0000 </r>
       <r>  -17.9799    1.0000 </r>
       <r>  -17.9562    1.0000 </r>
       <r>  -17.9365    1.0000 </r>
       <r>  -17.9106    1.0000 </r>
       <r>  -17.9001    1.0000 </r>
       <r>  -17.8483    1.0000 </r>
       <r>  -17.8313    1.0000 </r>
       <r>  -17.8258    1.0000 </r>
       <r>  -17.8057    1.0000 </r>
       <r>  -17.7554    1.0000 </r>
       <r>  -17.7208    1.0000 </r>
       <r>  -17.7059    1.0000 </r>
       <r>  -17.6889    1.0000 </r>
       <r>  -17.6382    1.0000 </r>
       <r>  -17.5972    1.0000 </r>
       <r>  -17.5317    1.0000 </r>
       <r>  -17.5087    1.0000 </r>
       <r>  -11.8371    1.0000 </r>
       <r>  -11.5061    1.0000 </r>
       <r>  -11.4775    1.0000 </r>
       <r>  -11.4012    1.0000 </r>
       <r>  -11.3858    1.0000 </r>
       <r>  -11.3460    1.0000 </r>
       <r>  -11.2665    1.0000 </r>
       <r>  -11.0667    1.0000 </r>
       <r>  -10.9795    1.0000 </r>
       <r>  -10.9421    1.0000 </r>
       <r>  -10.9179    1.0000 </r>
       <r>  -10.8743    1.0000 </r>
       <r>  -10.8638    1.0000 </r>
       <r>  -10.8042    1.0000 </r>
       <r>  -10.7597    1.0000 </r>
       <r>  -10.6573    1.0000 </r>
       <r>   -8.0220    1.0000 </r>
       <r>   -7.9880    1.0000 </r>
       <r>   -7.9257    1.0000 </r>
       <r>   -7.8450    1.0000 </r>
       <r>   -7.7782    1.0000 </r>
       <r>   -7.7519    1.0000 </r>
       <r>   -7.5871    1.0000 </r>
       <r>   -7.5567    1.0000 </r>
       <r>   -7.5253    1.0000 </r>
       <r>   -7.5160    1.0000 </r>
       <r>   -7.4817    1.0000 </r>
       <r>   -7.4350    1.0000 </r>
       <r>   -7.4051    1.0000 </r>
       <r>   -7.3926    1.0000 </r>
       <r>   -7.3671    1.0000 </r>
       <r>   -7.3431    1.0000 </r>
       <r>   -7.3159    1.0000 </r>
       <r>   -7.2968    1.0000 </r>
       <r>   -7.2762    1.0000 </r>
       <r>   -7.2383    1.0000 </r>
       <r>   -7.0954    1.0000 </r>
       <r>   -7.0725    1.0000 </r>
       <r>   -7.0268    1.0000 </r>
       <r>   -7.0156    1.0000 </r>
       <r>   -6.9787    1.0000 </r>
       <r>   -6.9370    1.0000 </r>
       <r>   -6.9322    1.0000 </r>
       <r>   -6.9222    1.0000 </r>
       <r>   -6.8928    1.0000 </r>
       <r>   -6.8494    1.0000 </r>
       <r>   -6.8323    1.0000 </r>
       <r>   -6.8057    1.0000 </r>
       <r>   -6.7748    1.0000 </r>
       <r>   -6.7684    1.0000 </r>
       <r>   -6.7551    1.0000 </r>
       <r>   -6.7443    1.0000 </r>
       <r>   -6.7205    1.0000 </r>
       <r>   -6.7103    1.0000 </r>
       <r>   -6.6802    1.0000 </r>
       <r>   -6.6703    1.0000 </r>
       <r>   -6.6576    1.0000 </r>
       <r>   -6.6206    1.0000 </r>
       <r>   -6.6041    1.0000 </r>
       <r>   -6.6037    1.0000 </r>
       <r>   -6.5900    1.0000 </r>
       <r>   -6.5814    1.0000 </r>
       <r>   -6.5729    1.0000 </r>
       <r>   -6.5572    1.0000 </r>
       <r>   -6.5526    1.0000 </r>
       <r>   -6.5375    1.0000 </r>
       <r>   -6.5296    1.0000 </r>
       <r>   -6.5178    1.0000 </r>
       <r>   -6.4932    1.0000 </r>
       <r>   -6.4866    1.0000 </r>
       <r>   -6.4699    1.0000 </r>
       <r>   -6.4639    1.0000 </r>
       <r>   -6.4629    1.0000 </r>
       <r>   -6.4354    1.0000 </r>
       <r>   -6.4210    1.0000 </r>
       <r>   -6.4101    1.0000 </r>
       <r>   -6.3959    1.0000 </r>
       <r>   -6.3861    1.0000 </r>
       <r>   -6.3613    1.0000 </r>
       <r>   -6.3575    1.0000 </r>
       <r>   -6.3456    1.0000 </r>
       <r>   -6.3196    1.0000 </r>
       <r>   -6.2814    1.0000 </r>
       <r>   -6.2707    1.0000 </r>
       <r>   -6.2429    1.0000 </r>
       <r>   -6.2349    1.0000 </r>
       <r>   -6.2158    1.0000 </r>
       <r>   -6.1849    1.0000 </r>
       <r>   -6.1516    1.0000 </r>
       <r>   -6.1100    1.0000 </r>
       <r>   -5.8767    1.0000 </r>
       <r>   -5.8513    1.0000 </r>
       <r>   -5.8200    1.0000 </r>
       <r>   -5.7977    1.0000 </r>
       <r>   -5.7144    1.0000 </r>
       <r>   -5.7002    1.0000 </r>
       <r>   -5.6354    1.0000 </r>
       <r>   -5.6129    1.0000 </r>
       <r>   -5.5547    1.0000 </r>
       <r>   -5.5173    1.0000 </r>
       <r>   -5.4982    1.0000 </r>
       <r>   -5.4902    1.0000 </r>
       <r>   -5.4433    1.0000 </r>
       <r>   -5.4170    1.0000 </r>
       <r>   -5.3988    1.0000 </r>
       <r>   -5.3785    1.0000 </r>
       <r>   -5.3323    1.0000 </r>
       <r>   -5.2710    1.0000 </r>
       <r>   -5.2535    1.0000 </r>
       <r>   -5.1822    1.0000 </r>
       <r>   -5.1548    1.0000 </r>
       <r>   -5.0692    1.0000 </r>
       <r>   -4.9713    1.0000 </r>
       <r>   -4.8406    1.0000 </r>
       <r>   -4.7973    1.0000 </r>
       <r>   -4.6924    1.0000 </r>
       <r>   -4.6591    1.0000 </r>
       <r>   -4.6219    1.0000 </r>
       <r>   -4.5609    1.0000 </r>
       <r>   -4.5520    1.0000 </r>
       <r>   -4.5135    1.0000 </r>
       <r>   -4.2787    1.0000 </r>
       <r>   -4.2586    1.0000 </r>
       <r>   -4.2202    1.0000 </r>
       <r>   -4.1869    1.0000 </r>
       <r>   -4.1728    1.0000 </r>
       <r>   -4.1422    1.0000 </r>
       <r>   -4.1295    1.0000 </r>
       <r>   -4.1064    1.0000 </r>
       <r>   -4.0796    1.0000 </r>
       <r>   -4.0326    1.0000 </r>
       <r>   -3.9921    1.0000 </r>
       <r>   -3.9658    1.0000 </r>
       <r>   -3.9450    1.0000 </r>
       <r>   -3.9215    1.0000 </r>
       <r>   -3.9004    1.0000 </r>
       <r>   -3.8503    1.0000 </r>
       <r>   -3.8309    1.0000 </r>
       <r>   -3.8008    1.0000 </r>
       <r>   -3.7754    1.0000 </r>
       <r>   -3.7568    1.0000 </r>
       <r>   -3.6953    1.0000 </r>
       <r>   -3.6711    1.0000 </r>
       <r>   -3.6441    1.0000 </r>
       <r>   -3.5939    1.0000 </r>
       <r>   -3.5681    1.0000 </r>
       <r>   -3.5512    1.0000 </r>
       <r>   -3.5116    1.0000 </r>
       <r>   -3.4606    1.0000 </r>
       <r>   -3.4182    1.0000 </r>
       <r>   -3.3766    1.0000 </r>
       <r>   -3.3422    1.0000 </r>
       <r>   -3.3200    1.0000 </r>
       <r>   -3.3107    1.0000 </r>
       <r>   -3.2325    1.0000 </r>
       <r>   -3.1801    1.0000 </r>
       <r>   -3.1459    1.0000 </r>
       <r>   -3.0803    1.0000 </r>
       <r>   -3.0511    1.0000 </r>
       <r>   -2.9402    1.0000 </r>
       <r>   -2.1120    0.0000 </r>
       <r>   -2.0816    0.0000 </r>
       <r>   -2.0590    0.0000 </r>
       <r>   -1.5285    0.0000 </r>
       <r>   -1.5106    0.0000 </r>
       <r>   -1.4873    0.0000 </r>
       <r>   -1.4161    0.0000 </r>
       <r>   -1.3903    0.0000 </r>
       <r>   -1.3829    0.0000 </r>
       <r>   -0.7868    0.0000 </r>
       <r>   -0.7441    0.0000 </r>
       <r>   -0.7125    0.0000 </r>
       <r>   -0.6554    0.0000 </r>
       <r>   -0.6429    0.0000 </r>
       <r>   -0.6349    0.0000 </r>
       <r>   -0.5897    0.0000 </r>
       <r>   -0.5431    0.0000 </r>
       <r>   -0.5068    0.0000 </r>
       <r>   -0.4865    0.0000 </r>
       <r>   -0.4188    0.0000 </r>
       <r>   -0.4013    0.0000 </r>
       <r>   -0.3868    0.0000 </r>
       <r>   -0.3194    0.0000 </r>
       <r>   -0.2917    0.0000 </r>
       <r>   -0.0317    0.0000 </r>
       <r>   -0.0281    0.0000 </r>
       <r>    0.0298    0.0000 </r>
       <r>    0.0579    0.0000 </r>
       <r>    0.0893    0.0000 </r>
       <r>    0.1311    0.0000 </r>
       <r>    0.1632    0.0000 </r>
       <r>    0.1787    0.0000 </r>
       <r>    0.2320    0.0000 </r>
       <r>    0.2529    0.0000 </r>
       <r>    0.2662    0.0000 </r>
       <r>    0.3184    0.0000 </r>
       <r>    0.3551    0.0000 </r>
       <r>    0.5305    0.0000 </r>
       <r>    0.5656    0.0000 </r>
       <r>    0.5769    0.0000 </r>
       <r>    0.5901    0.0000 </r>
       <r>    0.6326    0.0000 </r>
       <r>    0.6579    0.0000 </r>
       <r>    0.6835    0.0000 </r>
       <r>    0.6955    0.0000 </r>
       <r>    0.7081    0.0000 </r>
       <r>    0.7164    0.0000 </r>
       <r>    0.7261    0.0000 </r>
       <r>    0.7565    0.0000 </r>
       <r>    0.7779    0.0000 </r>
       <r>    0.7859    0.0000 </r>
       <r>    0.8176    0.0000 </r>
       <r>    0.8256    0.0000 </r>
       <r>    0.8317    0.0000 </r>
       <r>    0.8604    0.0000 </r>
       <r>    0.8652    0.0000 </r>
       <r>    0.8704    0.0000 </r>
       <r>    0.8901    0.0000 </r>
       <r>    0.9057    0.0000 </r>
       <r>    0.9225    0.0000 </r>
       <r>    0.9639    0.0000 </r>
       <r>    0.9817    0.0000 </r>
       <r>    0.9937    0.0000 </r>
       <r>    1.0240    0.0000 </r>
      </set>
      <set comment="kpoint 2">
       <r>  -51.9813    1.0000 </r>
       <r>  -51.9804    1.0000 </r>
       <r>  -51.9104    1.0000 </r>
       <r>  -51.7527    1.0000 </r>
       <r>  -51.7314    1.0000 </r>
       <r>  -51.6011    1.0000 </r>
       <r>  -51.5682    1.0000 </r>
       <r>  -51.5590    1.0000 </r>
       <r>  -51.5573    1.0000 </r>
       <r>  -51.5504    1.0000 </r>
       <r>  -51.5112    1.0000 </r>
       <r>  -51.5072    1.0000 </r>
       <r>  -51.4806    1.0000 </r>
       <r>  -51.4668    1.0000 </r>
       <r>  -51.4622    1.0000 </r>
       <r>  -51.4275    1.0000 </r>
       <r>  -51.4210    1.0000 </r>
       <r>  -51.4027    1.0000 </r>
       <r>  -51.3767    1.0000 </r>
       <r>  -51.3698    1.0000 </r>
       <r>  -51.3560    1.0000 </r>
       <r>  -51.3281    1.0000 </r>
       <r>  -51.3017    1.0000 </r>
       <r>  -51.2883    1.0000 </r>
       <r>  -51.2759    1.0000 </r>
       <r>  -51.2274    1.0000 </r>
       <r>  -51.2251    1.0000 </r>
       <r>  -51.1156    1.0000 </r>
       <r>  -51.1115    1.0000 </r>
       <r>  -51.1106    1.0000 </r>
       <r>  -50.9299    1.0000 </r>
       <r>  -50.9040    1.0000 </r>
       <r>  -30.6813    1.0000 </r>
       <r>  -30.6298    1.0000 </r>
       <r>  -30.6194    1.0000 </r>
       <r>  -30.6172    1.0000 </r>
       <r>  -30.6109    1.0000 </r>
       <r>  -30.5878    1.0000 </r>
       <r>  -30.5831    1.0000 </r>
       <r>  -30.5581    1.0000 </r>
       <r>  -30.5270    1.0000 </r>
       <r>  -30.4511    1.0000 </r>
       <r>  -30.4355    1.0000 </r>
       <r>  -30.4177    1.0000 </r>
       <r>  -30.3987    1.0000 </r>
       <r>  -30.3759    1.0000 </r>
       <r>  -30.3437    1.0000 </r>
       <r>  -30.3300    1.0000 </r>
       <r>  -30.3226    1.0000 </r>
       <r>  -30.3063    1.0000 </r>
       <r>  -30.3011    1.0000 </r>
       <r>  -30.2950    1.0000 </r>
       <r>  -30.2804    1.0000 </r>
       <r>  -30.2784    1.0000 </r>
       <r>  -30.2639    1.0000 </r>
       <r>  -30.2587    1.0000 </r>
       <r>  -30.2542    1.0000 </r>
       <r>  -30.2482    1.0000 </r>
       <r>  -30.2358    1.0000 </r>
       <r>  -30.2270    1.0000 </r>
       <r>  -30.2250    1.0000 </r>
       <r>  -30.2208    1.0000 </r>
       <r>  -30.2127    1.0000 </r>
       <r>  -30.2054    1.0000 </r>
       <r>  -30.2011    1.0000 </r>
       <r>  -30.1981    1.0000 </r>
       <r>  -30.1867    1.0000 </r>
       <r>  -30.1820    1.0000 </r>
       <r>  -30.1769    1.0000 </r>
       <r>  -30.1688    1.0000 </r>
       <r>  -30.1570    1.0000 </r>
       <r>  -30.1529    1.0000 </r>
       <r>  -30.1455    1.0000 </r>
       <r>  -30.1431    1.0000 </r>
       <r>  -30.1340    1.0000 </r>
       <r>  -30.1213    1.0000 </r>
       <r>  -30.1094    1.0000 </r>
       <r>  -30.1067    1.0000 </r>
       <r>  -30.1007    1.0000 </r>
       <r>  -30.0857    1.0000 </r>
       <r>  -30.0823    1.0000 </r>
       <r>  -30.0737    1.0000 </r>
       <r>  -30.0707    1.0000 </r>
       <r>  -30.0618    1.0000 </r>
       <r>  -30.0545    1.0000 </r>
       <r>  -30.0483    1.0000 </r>
       <r>  -30.0406    1.0000 </r>
       <r>  -30.0276    1.0000 </r>
       <r>  -30.0239    1.0000 </r>
       <r>  -30.0198    1.0000 </r>
       <r>  -30.0172    1.0000 </r>
       <r>  -30.0064    1.0000 </r>
       <r>  -29.9998    1.0000 </r>
       <r>  -29.9944    1.0000 </r>
       <r>  -29.9903    1.0000 </r>
       <r>  -29.9815    1.0000 </r>
       <r>  -29.9746    1.0000 </r>
       <r>  -29.9716    1.0000 </r>
       <r>  -29.9661    1.0000 </r>
       <r>  -29.9592    1.0000 </r>
       <r>  -29.9502    1.0000 </r>
       <r>  -29.9318    1.0000 </r>
       <r>  -29.9247    1.0000 </r>
       <r>  -29.9161    1.0000 </r>
       <r>  -29.9135    1.0000 </r>
       <r>  -29.8973    1.0000 </r>
       <r>  -29.8923    1.0000 </r>
       <r>  -29.8868    1.0000 </r>
       <r>  -29.8791    1.0000 </r>
       <r>  -29.8709    1.0000 </r>
       <r>  -29.8679    1.0000 </r>
       <r>  -29.8611    1.0000 </r>
       <r>  -29.8520    1.0000 </r>
       <r>  -29.8234    1.0000 </r>
       <r>  -29.7896    1.0000 </r>
       <r>  -29.7812    1.0000 </r>
       <r>  -29.7800    1.0000 </r>
       <r>  -29.7622    1.0000 </r>
       <r>  -29.7470    1.0000 </r>
       <r>  -29.7379    1.0000 </r>
       <r>  -29.7244    1.0000 </r>
       <r>  -29.7180    1.0000 </r>
       <r>  -29.6440    1.0000 </r>
       <r>  -29.6326    1.0000 </r>
       <r>  -29.6056    1.0000 </r>
       <r>  -29.5606    1.0000 </r>
       <r>  -29.5573    1.0000 </r>
       <r>  -29.5271    1.0000 </r>
       <r>  -18.7201    1.0000 </r>
       <r>  -18.5048    1.0000 </r>
       <r>  -18.4389    1.0000 </r>
       <r>  -18.4023    1.0000 </r>
       <r>  -18.3600    1.0000 </r>
       <r>  -18.3417    1.0000 </r>
       <r>  -18.2421    1.0000 </r>
       <r>  -18.2226    1.0000 </r>
       <r>  -18.1974    1.0000 </r>
       <r>  -18.1487    1.0000 </r>
       <r>  -18.1144    1.0000 </r>
       <r>  -18.1077    1.0000 </r>
       <r>  -18.0713    1.0000 </r>
       <r>  -18.0404    1.0000 </r>
       <r>  -18.0190    1.0000 </r>
       <r>  -17.9886    1.0000 </r>
       <r>  -17.9617    1.0000 </r>
       <r>  -17.9340    1.0000 </r>
       <r>  -17.9199    1.0000 </r>
       <r>  -17.8905    1.0000 </r>
       <r>  -17.8487    1.0000 </r>
       <r>  -17.8388    1.0000 </r>
       <r>  -17.8224    1.0000 </r>
       <r>  -17.8111    1.0000 </r>
       <r>  -17.7600    1.0000 </r>
       <r>  -17.7254    1.0000 </r>
       <r>  -17.7111    1.0000 </r>
       <r>  -17.6856    1.0000 </r>
       <r>  -17.6357    1.0000 </r>
[...]
       <r>   -32.4729     0.0000    64.0000 </r>
       <r>   -32.2785     0.0000    64.0000 </r>
       <r>   -32.0842     0.0000    64.0000 </r>
       <r>   -31.8898     0.0000    64.0000 </r>
       <r>   -31.6954     0.0000    64.0000 </r>
       <r>   -31.5010     0.0000    64.0000 </r>
       <r>   -31.3067     0.0000    64.0000 </r>
       <r>   -31.1123     0.0000    64.0000 </r>
       <r>   -30.9179     0.0000    64.0000 </r>
       <r>   -30.7235     1.2783    64.2485 </r>
       <r>   -30.5292    82.6074    80.3054 </r>
       <r>   -30.3348    80.2728    95.9086 </r>
       <r>   -30.1404   258.4512   146.1456 </r>
       <r>   -29.9460   279.1156   200.3992 </r>
       <r>   -29.7516   185.4892   236.4540 </r>
       <r>   -29.5573    81.2574   252.2486 </r>
       <r>   -29.3629    19.2996   256.0000 </r>
       <r>   -29.1685     0.0000   256.0000 </r>
       <r>   -28.9741     0.0000   256.0000 </r>
       <r>   -28.7798     0.0000   256.0000 </r>
       <r>   -28.5854     0.0000   256.0000 </r>
       <r>   -28.3910     0.0000   256.0000 </r>
       <r>   -28.1966     0.0000   256.0000 </r>
       <r>   -28.0023     0.0000   256.0000 </r>
       <r>   -27.8079     0.0000   256.0000 </r>
       <r>   -27.6135     0.0000   256.0000 </r>
       <r>   -27.4191     0.0000   256.0000 </r>
       <r>   -27.2247     0.0000   256.0000 </r>
       <r>   -27.0304     0.0000   256.0000 </r>
       <r>   -26.8360     0.0000   256.0000 </r>
       <r>   -26.6416     0.0000   256.0000 </r>
       <r>   -26.4472     0.0000   256.0000 </r>
       <r>   -26.2529     0.0000   256.0000 </r>
       <r>   -26.0585     0.0000   256.0000 </r>
       <r>   -25.8641     0.0000   256.0000 </r>
       <r>   -25.6697     0.0000   256.0000 </r>
       <r>   -25.4754     0.0000   256.0000 </r>
       <r>   -25.2810     0.0000   256.0000 </r>
       <r>   -25.0866     0.0000   256.0000 </r>
       <r>   -24.8922     0.0000   256.0000 </r>
       <r>   -24.6978     0.0000   256.0000 </r>
       <r>   -24.5035     0.0000   256.0000 </r>
       <r>   -24.3091     0.0000   256.0000 </r>
       <r>   -24.1147     0.0000   256.0000 </r>
       <r>   -23.9203     0.0000   256.0000 </r>
       <r>   -23.7260     0.0000   256.0000 </r>
       <r>   -23.5316     0.0000   256.0000 </r>
       <r>   -23.3372     0.0000   256.0000 </r>
       <r>   -23.1428     0.0000   256.0000 </r>
       <r>   -22.9485     0.0000   256.0000 </r>
       <r>   -22.7541     0.0000   256.0000 </r>
       <r>   -22.5597     0.0000   256.0000 </r>
       <r>   -22.3653     0.0000   256.0000 </r>
       <r>   -22.1709     0.0000   256.0000 </r>
       <r>   -21.9766     0.0000   256.0000 </r>
       <r>   -21.7822     0.0000   256.0000 </r>
       <r>   -21.5878     0.0000   256.0000 </r>
       <r>   -21.3934     0.0000   256.0000 </r>
       <r>   -21.1991     0.0000   256.0000 </r>
       <r>   -21.0047     0.0000   256.0000 </r>
       <r>   -20.8103     0.0000   256.0000 </r>
       <r>   -20.6159     0.0000   256.0000 </r>
       <r>   -20.4216     0.0000   256.0000 </r>
       <r>   -20.2272     0.0000   256.0000 </r>
       <r>   -20.0328     0.0000   256.0000 </r>
       <r>   -19.8384     0.0000   256.0000 </r>
       <r>   -19.6440     0.0000   256.0000 </r>
       <r>   -19.4497     0.0000   256.0000 </r>
       <r>   -19.2553     0.0000   256.0000 </r>
       <r>   -19.0609     0.0000   256.0000 </r>
       <r>   -18.8665     0.0002   256.0000 </r>
       <r>   -18.6722     9.3911   257.8254 </r>
       <r>   -18.4778    10.5866   259.8832 </r>
       <r>   -18.2834    43.2518   268.2904 </r>
       <r>   -18.0890    57.4052   279.4486 </r>
       <r>   -17.8947    76.9194   294.4000 </r>
       <r>   -17.7003    76.9088   309.3493 </r>
       <r>   -17.5059    47.2718   318.5378 </r>
       <r>   -17.3115     7.5223   320.0000 </r>
       <r>   -17.1171     0.0000   320.0000 </r>
       <r>   -16.9228     0.0000   320.0000 </r>
       <r>   -16.7284     0.0000   320.0000 </r>
       <r>   -16.5340     0.0000   320.0000 </r>
       <r>   -16.3396     0.0000   320.0000 </r>
       <r>   -16.1453     0.0000   320.0000 </r>
       <r>   -15.9509     0.0000   320.0000 </r>
       <r>   -15.7565     0.0000   320.0000 </r>
       <r>   -15.5621     0.0000   320.0000 </r>
       <r>   -15.3678     0.0000   320.0000 </r>
       <r>   -15.1734     0.0000   320.0000 </r>
       <r>   -14.9790     0.0000   320.0000 </r>
       <r>   -14.7846     0.0000   320.0000 </r>
       <r>   -14.5902     0.0000   320.0000 </r>
       <r>   -14.3959     0.0000   320.0000 </r>
       <r>   -14.2015     0.0000   320.0000 </r>
       <r>   -14.0071     0.0000   320.0000 </r>
       <r>   -13.8127     0.0000   320.0000 </r>
       <r>   -13.6184     0.0000   320.0000 </r>
       <r>   -13.4240     0.0000   320.0000 </r>
       <r>   -13.2296     0.0000   320.0000 </r>
       <r>   -13.0352     0.0000   320.0000 </r>
       <r>   -12.8409     0.0000   320.0000 </r>
       <r>   -12.6465     0.0000   320.0000 </r>
       <r>   -12.4521     0.0000   320.0000 </r>
       <r>   -12.2577     0.0000   320.0000 </r>
       <r>   -12.0633     0.0000   320.0000 </r>
       <r>   -11.8690     0.3527   320.0686 </r>
       <r>   -11.6746    10.9985   322.2064 </r>
       <r>   -11.4802    18.2428   325.7524 </r>
       <r>   -11.2858    22.5468   330.1350 </r>
       <r>   -11.0915    25.5115   335.0938 </r>
       <r>   -10.8971    39.2498   342.7231 </r>
       <r>   -10.7027    36.2429   349.7679 </r>
       <r>   -10.5083    11.4827   351.9998 </r>
       <r>   -10.3140     0.0008   352.0000 </r>
       <r>   -10.1196     0.0000   352.0000 </r>
       <r>    -9.9252     0.0000   352.0000 </r>
       <r>    -9.7308     0.0000   352.0000 </r>
       <r>    -9.5364     0.0000   352.0000 </r>
       <r>    -9.3421     0.0000   352.0000 </r>
       <r>    -9.1477     0.0000   352.0000 </r>
       <r>    -8.9533     0.0000   352.0000 </r>
       <r>    -8.7589     0.0000   352.0000 </r>
       <r>    -8.5646     0.0000   352.0000 </r>
       <r>    -8.3702     0.0000   352.0000 </r>
       <r>    -8.1758     0.0000   352.0000 </r>
       <r>    -7.9814     3.0619   352.5952 </r>
       <r>    -7.7870    31.3721   358.6932 </r>
       <r>    -7.5927    41.9696   366.8511 </r>
       <r>    -7.3983    71.2079   380.6923 </r>
       <r>    -7.2039    61.5075   392.6479 </r>
       <r>    -7.0095    56.1513   403.5624 </r>
       <r>    -6.8152    79.0998   418.9376 </r>
       <r>    -6.6208   116.4692   441.5765 </r>
       <r>    -6.4264   108.9537   462.7546 </r>
       <r>    -6.2320    99.4183   482.0792 </r>
       <r>    -6.0377    55.0017   492.7703 </r>
       <r>    -5.8433    55.1876   503.4975 </r>
       <r>    -5.6489    62.5923   515.6640 </r>
       <r>    -5.4545    64.8593   528.2711 </r>
       <r>    -5.2601    48.3324   537.6658 </r>
       <r>    -5.0658    31.5072   543.7901 </r>
       <r>    -4.8714    11.0400   545.9360 </r>
       <r>    -4.6770    34.4203   552.6266 </r>
       <r>    -4.4826    43.5670   561.0950 </r>
       <r>    -4.2883    30.6599   567.0545 </r>
       <r>    -4.0939    39.1868   574.6716 </r>
       <r>    -3.8995    59.7740   586.2902 </r>
       <r>    -3.7051    76.5937   601.1783 </r>
       <r>    -3.5108    79.0144   616.5369 </r>
       <r>    -3.3164    62.5942   628.7037 </r>
       <r>    -3.1220    39.1432   636.3123 </r>
       <r>    -2.9276    18.2475   639.8592 </r>
       <r>    -2.7332     0.7244   640.0000 </r>
       <r>    -2.5389     0.0000   640.0000 </r>
       <r>    -2.3445     0.0000   640.0000 </r>
       <r>    -2.1501     0.1979   640.0385 </r>
       <r>    -1.9557     9.9145   641.9656 </r>
       <r>    -1.7614    19.2972   645.7165 </r>
       <r>    -1.5670    14.7823   648.5899 </r>
       <r>    -1.3726    19.7146   652.4219 </r>
       <r>    -1.1782    24.1427   657.1147 </r>
       <r>    -0.9839    30.4492   663.0334 </r>
       <r>    -0.7895    14.6449   665.8800 </r>
       <r>    -0.5951    30.5883   671.8257 </r>
       <r>    -0.4007    33.9204   678.4190 </r>
       <r>    -0.2063    34.2579   685.0779 </r>
       <r>    -0.0120    32.7762   691.4489 </r>
       <r>     0.1824    35.5757   698.3640 </r>
       <r>     0.3768    44.5285   707.0193 </r>
       <r>     0.5712    56.6067   718.0223 </r>
       <r>     0.7655   105.2971   738.4896 </r>
       <r>     0.9599   117.8697   761.4008 </r>
       <r>     1.1543    33.9495   767.9998 </r>
       <r>     1.3487     0.0010   768.0000 </r>
       <r>     1.5430     0.0000   768.0000 </r>
       <r>     1.7374     0.0000   768.0000 </r>
       <r>     1.9318     0.0000   768.0000 </r>
       <r>     2.1262     0.0000   768.0000 </r>
       <r>     2.3206     0.0000   768.0000 </r>
       <r>     2.5149     0.0000   768.0000 </r>
       <r>     2.7093     0.0000   768.0000 </r>
       <r>     2.9037     0.0000   768.0000 </r>
       <r>     3.0981     0.0000   768.0000 </r>
       <r>     3.2924     0.0000   768.0000 </r>
       <r>     3.4868     0.0000   768.0000 </r>
       <r>     3.6812     0.0000   768.0000 </r>
      </set>
     </set>
    </array>
   </total>
  </dos>
 </calculation>
 <structure name="finalpos" >
  <crystal>
   <varray name="basis" >
    <v>      13.79398668       0.00000000       0.00000000 </v>
    <v>      -6.89699334      11.94594288       0.00000000 </v>
    <v>       0.00000000       0.00000000      27.81022107 </v>
   </varray>
   <i name="volume">   4582.62876984 </i>
   <varray name="rec_basis" >
    <v>       0.07249536       0.04185521       0.00000000 </v>
    <v>       0.00000000       0.08371043       0.00000000 </v>
    <v>       0.00000000       0.00000000       0.03595800 </v>
   </varray>
  </crystal>
  <varray name="positions" >
   <v>       0.08626593       0.16539724       0.54629811 </v>
   <v>       0.08222316       0.42041629       0.54343208 </v>
   <v>       0.08885397       0.65719511       0.54349358 </v>
   <v>       0.09509707       0.92183618       0.54040614 </v>
   <v>       0.33763156       0.17256263       0.54870311 </v>
   <v>       0.32519767       0.40929199       0.54595181 </v>
   <v>       0.33633241       0.65483013       0.54553149 </v>
   <v>       0.33376634       0.90972032       0.54868606 </v>
   <v>       0.57639186       0.16372812       0.54417240 </v>
   <v>       0.58719282       0.42069736       0.54556927 </v>
   <v>       0.59740640       0.66966804       0.54496058 </v>
   <v>       0.58940842       0.92245101       0.54116603 </v>
   <v>       0.83663346       0.16430025       0.53905111 </v>
   <v>       0.83632899       0.41009619       0.54223854 </v>
   <v>       0.83656382       0.66434757       0.54667304 </v>
   <v>       0.84186083       0.91459777       0.55067142 </v>
   <v>       0.17036263       0.08350459       0.46175764 </v>
   <v>       0.16817148       0.33918409       0.45485244 </v>
   <v>       0.16819712       0.59210147       0.45479972 </v>
   <v>       0.16994426       0.83887367       0.45512172 </v>
   <v>       0.40556602       0.07858574       0.45802540 </v>
   <v>       0.40262152       0.32655769       0.45539702 </v>
   <v>       0.41829840       0.59124366       0.45500276 </v>
   <v>       0.42246133       0.84281341       0.46257383 </v>
   <v>       0.66038395       0.08115247       0.44669133 </v>
   <v>       0.65879990       0.33620529       0.45614052 </v>
   <v>       0.65778006       0.57788882       0.45442609 </v>
   <v>       0.66785800       0.83602283       0.45767100 </v>
   <v>       0.91678480       0.07948477       0.45247528 </v>
   <v>       0.90603048       0.33725319       0.44760384 </v>
   <v>       0.91153784       0.58463075       0.45725945 </v>
   <v>       0.91409650       0.82911350       0.45819356 </v>
   <v>       0.08636093       0.17311208       0.39694121 </v>
   <v>       0.08733108       0.42646555       0.39736498 </v>
   <v>       0.08751327       0.67854610       0.39263495 </v>
   <v>       0.06713684       0.91289484       0.39488962 </v>
   <v>       0.32973245       0.16633009       0.39637948 </v>
   <v>       0.33476951       0.42126035       0.39108822 </v>
   <v>       0.32843009       0.66998286       0.39996752 </v>
   <v>       0.32658704       0.91854058       0.39408564 </v>
   <v>       0.58218895       0.16769750       0.38638577 </v>
   <v>       0.58584988       0.42123626       0.39480891 </v>
   <v>       0.57118370       0.64954594       0.39178726 </v>
   <v>       0.57853303       0.90712695       0.38873511 </v>
   <v>       0.85541653       0.17962255       0.38824323 </v>
   <v>       0.82589451       0.41004694       0.39350490 </v>
   <v>       0.83615739       0.66048560       0.39572739 </v>
   <v>       0.82956905       0.90625070       0.39854852 </v>
   <v>       0.16687414       0.07209001       0.60695724 </v>
   <v>       0.16480941       0.32001391       0.60632780 </v>
   <v>       0.15652330       0.57495474       0.60827975 </v>
   <v>       0.17435724       0.83529722       0.60656882 </v>
   <v>       0.41538050       0.08912048       0.60000873 </v>
   <v>       0.41870525       0.34113754       0.60523249 </v>
   <v>       0.42033225       0.58639186       0.60707166 </v>
   <v>       0.43637472       0.83158504       0.60559377 </v>
   <v>       0.65040584       0.08647486       0.60417184 </v>
   <v>       0.65688892       0.32958106       0.60697941 </v>
   <v>       0.66050637       0.57687454       0.60564123 </v>
   <v>       0.68162875       0.84181625       0.60750399 </v>
   <v>       0.92353428       0.08779152       0.60322926 </v>
   <v>       0.91411822       0.34220858       0.60397855 </v>
   <v>       0.91671942       0.59045134       0.60465654 </v>
   <v>       0.91493451       0.83134497       0.60531444 </v>
   <v>       0.00733300       0.00312411       0.49677888 </v>
   <v>       0.99653887       0.25549703       0.50721518 </v>
   <v>       0.00627776       0.49781536       0.50470609 </v>
   <v>       0.99864707       0.74829252       0.49907815 </v>
   <v>       0.25075856       0.99497880       0.50102981 </v>
   <v>       0.24243851       0.24297474       0.50313567 </v>
   <v>       0.26082806       0.50895794       0.50222197 </v>
   <v>       0.25269943       0.74570673       0.50224719 </v>
   <v>       0.51193493       0.01318012       0.49719686 </v>
   <v>       0.48958725       0.25110337       0.50261548 </v>
   <v>       0.49981536       0.49319501       0.49545868 </v>
   <v>       0.49690970       0.75204950       0.50082906 </v>
   <v>       0.75174628       0.99414576       0.49940263 </v>
   <v>       0.75360877       0.25960847       0.49443090 </v>
   <v>       0.75212627       0.48784767       0.50537080 </v>
   <v>       0.75112611       0.74889049       0.50320414 </v>
  </varray>
  <varray name="velocities" >
   <v>       0.00000000       0.00000000       0.00000000 </v>
   <v>       0.00000000       0.00000000       0.00000000 </v>
   <v>       0.00000000       0.00000000       0.00000000 </v>
   <v>       0.00000000       0.00000000       0.00000000 </v>
   <v>       0.00000000       0.00000000       0.00000000 </v>
   <v>       0.00000000       0.00000000       0.00000000 </v>
   <v>       0.00000000       0.00000000       0.00000000 </v>
   <v>       0.00000000       0.00000000       0.00000000 </v>
   <v>       0.00000000       0.00000000       0.00000000 </v>
   <v>       0.00000000       0.00000000       0.00000000 </v>
   <v>       0.00000000       0.00000000       0.00000000 </v>
   <v>       0.00000000       0.00000000       0.00000000 </v>
   <v>       0.00000000       0.00000000       0.00000000 </v>
   <v>       0.00000000       0.00000000       0.00000000 </v>
   <v>       0.00000000       0.00000000       0.00000000 </v>
   <v>       0.00000000       0.00000000       0.00000000 </v>
   <v>       0.00000000       0.00000000       0.00000000 </v>
   <v>       0.00000000       0.00000000       0.00000000 </v>
   <v>       0.00000000       0.00000000       0.00000000 </v>
   <v>       0.00000000       0.00000000       0.00000000 </v>
   <v>       0.00000000       0.00000000       0.00000000 </v>
   <v>       0.00000000       0.00000000       0.00000000 </v>
   <v>       0.00000000       0.00000000       0.00000000 </v>
   <v>       0.00000000       0.00000000       0.00000000 </v>
   <v>       0.00000000       0.00000000       0.00000000 </v>
   <v>       0.00000000       0.00000000       0.00000000 </v>
   <v>       0.00000000       0.00000000       0.00000000 </v>
   <v>       0.00000000       0.00000000       0.00000000 </v>
   <v>       0.00000000       0.00000000       0.00000000 </v>
   <v>       0.00000000       0.00000000       0.00000000 </v>
   <v>       0.00000000       0.00000000       0.00000000 </v>
   <v>       0.00000000       0.00000000       0.00000000 </v>
   <v>       0.00000000       0.00000000       0.00000000 </v>
   <v>       0.00000000       0.00000000       0.00000000 </v>
   <v>       0.00000000       0.00000000       0.00000000 </v>
   <v>       0.00000000       0.00000000       0.00000000 </v>
   <v>       0.00000000       0.00000000       0.00000000 </v>
   <v>       0.00000000       0.00000000       0.00000000 </v>
   <v>       0.00000000       0.00000000       0.00000000 </v>
   <v>       0.00000000       0.00000000       0.00000000 </v>
   <v>       0.00000000       0.00000000       0.00000000 </v>
   <v>       0.00000000       0.00000000       0.00000000 </v>
   <v>       0.00000000       0.00000000       0.00000000 </v>
   <v>       0.00000000       0.00000000       0.00000000 </v>
   <v>       0.00000000       0.00000000       0.00000000 </v>
   <v>       0.00000000       0.00000000       0.00000000 </v>
   <v>       0.00000000       0.00000000       0.00000000 </v>
   <v>       0.00000000       0.00000000       0.00000000 </v>
   <v>       0.00000000       0.00000000       0.00000000 </v>
   <v>       0.00000000       0.00000000       0.00000000 </v>
   <v>       0.00000000       0.00000000       0.00000000 </v>
   <v>       0.00000000       0.00000000       0.00000000 </v>
   <v>       0.00000000       0.00000000       0.00000000 </v>
   <v>       0.00000000       0.00000000       0.00000000 </v>
   <v>       0.00000000       0.00000000       0.00000000 </v>
   <v>       0.00000000       0.00000000       0.00000000 </v>
   <v>       0.00000000       0.00000000       0.00000000 </v>
   <v>       0.00000000       0.00000000       0.00000000 </v>
   <v>       0.00000000       0.00000000       0.00000000 </v>
   <v>       0.00000000       0.00000000       0.00000000 </v>
   <v>       0.00000000       0.00000000       0.00000000 </v>
   <v>       0.00000000       0.00000000       0.00000000 </v>
   <v>       0.00000000       0.00000000       0.00000000 </v>
   <v>       0.00000000       0.00000000       0.00000000 </v>
   <v>       0.00000000       0.00000000       0.00000000 </v>
   <v>       0.00000000       0.00000000       0.00000000 </v>
   <v>       0.00000000       0.00000000       0.00000000 </v>
   <v>       0.00000000       0.00000000       0.00000000 </v>
   <v>       0.00000000       0.00000000       0.00000000 </v>
   <v>       0.00000000       0.00000000       0.00000000 </v>
   <v>       0.00000000       0.00000000       0.00000000 </v>
   <v>       0.00000000       0.00000000       0.00000000 </v>
   <v>       0.00000000       0.00000000       0.00000000 </v>
   <v>       0.00000000       0.00000000       0.00000000 </v>
   <v>       0.00000000       0.00000000       0.00000000 </v>
   <v>       0.00000000       0.00000000       0.00000000 </v>
   <v>       0.00000000       0.00000000       0.00000000 </v>
   <v>       0.00000000       0.00000000       0.00000000 </v>
   <v>       0.00000000       0.00000000       0.00000000 </v>
   <v>       0.00000000       0.00000000       0.00000000 </v>
  </varray>
 </structure>
</modeling>
