 vasp.5.4.4.18Apr17-6-g9f103f2a35 (build Mar 16 2023 09:39:13) complex          
  
 executed on             LinuxIFC date 2024.04.29  21:10:28
 running on   48 total cores
 distrk:  each k-point on   48 cores,    1 groups
 distr:  one band on NCORES_PER_BAND=  12 cores,    4 groups


--------------------------------------------------------------------------------------------------------


 INCAR:
 POTCAR:    PAW_PBE Ca_sv 06Sep2000               
 POTCAR:    PAW_PBE Si 05Jan2001                  
 POTCAR:    PAW_PBE O 08Apr2002                   
 POTCAR:    PAW_PBE Ca_sv 06Sep2000               
   SHA256 =  a47365830e737f14e0e6c5cf1ed81b94e081eecf0a33df105380881bc9da05d5 Ca
   COPYR  = (c) Copyright 06Sep2000 Georg Kresse                                
   COPYR  = This file is part of the software VASP. Any use, copying, and all ot
   COPYR  = If you do not have a valid VASP license, you may not use, copy or di
   VRHFIN =Ca: 3s3p4s                                                           
   LEXCH  = PE                                                                  
   EATOM  =  1006.0909 eV,   73.9456 Ry                                         
                                                                                
   TITEL  = PAW_PBE Ca_sv 06Sep2000                                             
   LULTRA =        F    use ultrasoft PP ?                                      
   IUNSCR =        1    unscreen: 0-lin 1-nonlin 2-no                           
   RPACOR =    2.000    partial core radius                                     
   POMASS =   40.078; ZVAL   =   10.000    mass and valenz                      
   RCORE  =    2.300    outmost cutoff radius                                   
   RWIGS  =    2.500; RWIGS  =    1.323    wigner-seitz radius (au A)           
   ENMAX  =  266.622; ENMIN  =  199.967 eV                                      
   RCLOC  =    1.808    cutoff for local pot                                    
   LCOR   =        T    correct aug charges                                     
   LPAW   =        T    paw PP                                                  
   EAUG   =  420.852                                                            
   RMAX   =    2.359    core radius for proj-oper                               
   RAUG   =    1.300    factor for augmentation sphere                          
   RDEP   =    2.392    radius for radial grids                                 
   RDEPT  =    1.987    core radius for aug-charge                              
                                                                                
   Atomic configuration                                                         
    7 entries                                                                   
     n  l   j            E        occ.                                          
     1  0  0.50     -3949.1705   2.0000                                         
     2  0  0.50      -414.3434   2.0000                                         
     2  1  1.50      -334.7047   6.0000                                         
     3  0  0.50       -47.0896   2.0000                                         
     4  0  0.50        -3.7663   2.0000                                         
     3  1  1.50       -28.0061   6.0000                                         
     3  2  1.50        -4.0817   0.0000                                         
   Description                                                                  
     l       E           TYP  RCUT    TYP  RCUT                                 
     0    -47.0896403     23  2.300                                             
     0     -3.7663320     23  2.300                                             
     1    -28.0060855     23  2.300                                             
     1      6.8029130     23  2.300                                             
     2     -4.0817478     23  2.300                                             
     2      0.4464412     23  2.300                                             
  local pseudopotential read in
  partial core-charges read in
  partial kinetic energy density read in
  atomic valenz-charges read in
  non local Contribution for L=           0  read in
    real space projection operators read in
  non local Contribution for L=           0  read in
    real space projection operators read in
  non local Contribution for L=           1  read in
    real space projection operators read in
  non local Contribution for L=           1  read in
    real space projection operators read in
  non local Contribution for L=           2  read in
    real space projection operators read in
  non local Contribution for L=           2  read in
    real space projection operators read in
    PAW grid and wavefunctions read in
 
   number of l-projection  operators is LMAX  =           6
   number of lm-projection operators is LMMAX =          18
 
 POTCAR:    PAW_PBE Si 05Jan2001                  
   SHA256 =  79d9987ad8750f624c4d6acb2a16d13abf6a777132adc04dc6c8399be72b42bb Si
   COPYR  = (c) Copyright 05Jan2001 Georg Kresse                                
   COPYR  = This file is part of the software VASP. Any use, copying, and all ot
   COPYR  = If you do not have a valid VASP license, you may not use, copy or di
   VRHFIN =Si: s2p2                                                             
   LEXCH  = PE                                                                  
   EATOM  =   103.0669 eV,    7.5752 Ry                                         
                                                                                
   TITEL  = PAW_PBE Si 05Jan2001                                                
   LULTRA =        F    use ultrasoft PP ?                                      
   IUNSCR =        1    unscreen: 0-lin 1-nonlin 2-no                           
   RPACOR =    1.500    partial core radius                                     
   POMASS =   28.085; ZVAL   =    4.000    mass and valenz                      
   RCORE  =    1.900    outmost cutoff radius                                   
   RWIGS  =    2.480; RWIGS  =    1.312    wigner-seitz radius (au A)           
   ENMAX  =  245.345; ENMIN  =  184.009 eV                                      
   ICORE  =        2    local potential                                         
   LCOR   =        T    correct aug charges                                     
   LPAW   =        T    paw PP                                                  
   EAUG   =  322.069                                                            
   DEXC   =    0.000                                                            
   RMAX   =    1.950    core radius for proj-oper                               
   RAUG   =    1.300    factor for augmentation sphere                          
   RDEP   =    1.993    radius for radial grids                                 
   RDEPT  =    1.837    core radius for aug-charge                              
                                                                                
   Atomic configuration                                                         
    6 entries                                                                   
     n  l   j            E        occ.                                          
     1  0  0.50     -1785.8828   2.0000                                         
     2  0  0.50      -139.4969   2.0000                                         
     2  1  1.50       -95.5546   6.0000                                         
     3  0  0.50       -10.8127   2.0000                                         
     3  1  0.50        -4.0811   2.0000                                         
     3  2  1.50        -4.0817   0.0000                                         
   Description                                                                  
     l       E           TYP  RCUT    TYP  RCUT                                 
     0    -10.8127223     23  1.900                                             
     0     -7.6451159     23  1.900                                             
     1     -4.0811372     23  1.900                                             
     1      2.4879257     23  1.900                                             
     2     -4.0817478      7  1.900                                             
  local pseudopotential read in
  partial core-charges read in
  partial kinetic energy density read in
  atomic valenz-charges read in
  non local Contribution for L=           0  read in
    real space projection operators read in
  non local Contribution for L=           0  read in
    real space projection operators read in
  non local Contribution for L=           1  read in
    real space projection operators read in
  non local Contribution for L=           1  read in
    real space projection operators read in
    PAW grid and wavefunctions read in
 
   number of l-projection  operators is LMAX  =           4
   number of lm-projection operators is LMMAX =           8
 
 POTCAR:    PAW_PBE O 08Apr2002                   
   SHA256 =  818f92134a0a090dccd8ba1447fa70422a3b330e708bb4f08108d8ae51209ddf O/
   COPYR  = (c) Copyright 08Apr2002 Georg Kresse                                
   COPYR  = This file is part of the software VASP. Any use, copying, and all ot
   COPYR  = If you do not have a valid VASP license, you may not use, copy or di
   VRHFIN =O: s2p4                                                              
   LEXCH  = PE                                                                  
   EATOM  =   432.3788 eV,   31.7789 Ry                                         
                                                                                
   TITEL  = PAW_PBE O 08Apr2002                                                 
   LULTRA =        F    use ultrasoft PP ?                                      
   IUNSCR =        1    unscreen: 0-lin 1-nonlin 2-no                           
   RPACOR =    1.200    partial core radius                                     
   POMASS =   16.000; ZVAL   =    6.000    mass and valenz                      
   RCORE  =    1.520    outmost cutoff radius                                   
   RWIGS  =    1.550; RWIGS  =    0.820    wigner-seitz radius (au A)           
   ENMAX  =  400.000; ENMIN  =  300.000 eV                                      
   ICORE  =        2    local potential                                         
   LCOR   =        T    correct aug charges                                     
   LPAW   =        T    paw PP                                                  
   EAUG   =  605.392                                                            
   DEXC   =    0.000                                                            
   RMAX   =    1.553    core radius for proj-oper                               
   RAUG   =    1.300    factor for augmentation sphere                          
   RDEP   =    1.550    radius for radial grids                                 
   RDEPT  =    1.329    core radius for aug-charge                              
                                                                                
   Atomic configuration                                                         
    4 entries                                                                   
     n  l   j            E        occ.                                          
     1  0  0.50      -514.6923   2.0000                                         
     2  0  0.50       -23.9615   2.0000                                         
     2  1  0.50        -9.0305   4.0000                                         
     3  2  1.50        -9.5241   0.0000                                         
   Description                                                                  
     l       E           TYP  RCUT    TYP  RCUT                                 
     0    -23.9615318     23  1.200                                             
     0     -9.5240782     23  1.200                                             
     1     -9.0304911     23  1.520                                             
     1      8.1634956     23  1.520                                             
     2     -9.5240782      7  1.500                                             
  local pseudopotential read in
  partial core-charges read in
  partial kinetic energy density read in
  kinetic energy density of atom read in
  atomic valenz-charges read in
  non local Contribution for L=           0  read in
    real space projection operators read in
  non local Contribution for L=           0  read in
    real space projection operators read in
  non local Contribution for L=           1  read in
    real space projection operators read in
  non local Contribution for L=           1  read in
    real space projection operators read in
    PAW grid and wavefunctions read in
 
   number of l-projection  operators is LMAX  =           4
   number of lm-projection operators is LMMAX =           8
 
 Optimization of the real space projectors (new method)

 maximal supplied QI-value         = 16.25
 optimisation between [QCUT,QGAM] = [ 12.51, 25.03] = [ 43.85,175.40] Ry 
 Optimized for a Real-space Cutoff    1.47 Angstroem

   l    n(q)    QCUT    max X(q) W(low)/X(q) W(high)/X(q)  e(spline) 
   0     11    12.514    11.817    0.25E-04    0.32E-05    0.87E-07
   0     11    12.514     8.461    0.39E-04    0.59E-05    0.18E-06
   1     11    12.514     3.957    0.97E-05    0.57E-05    0.28E-07
   1     11    12.514     4.314    0.42E-04    0.14E-04    0.23E-06
   2     10    12.514    14.565    0.79E-04    0.50E-03    0.16E-05
   2     10    12.514    14.552    0.75E-04    0.48E-03    0.15E-05
 Optimization of the real space projectors (new method)

 maximal supplied QI-value         = 19.84
 optimisation between [QCUT,QGAM] = [ 12.50, 25.00] = [ 43.76,175.03] Ry 
 Optimized for a Real-space Cutoff    1.16 Angstroem

   l    n(q)    QCUT    max X(q) W(low)/X(q) W(high)/X(q)  e(spline) 
   0      9    12.501   159.560    0.10E-03    0.83E-04    0.71E-07
   0      9    12.501   115.863    0.99E-04    0.81E-04    0.70E-07
   1      8    12.501    88.339    0.20E-03    0.25E-03    0.76E-07
   1      8    12.501    48.592    0.20E-03    0.24E-03    0.75E-07
 Optimization of the real space projectors (new method)

 maximal supplied QI-value         = 24.76
 optimisation between [QCUT,QGAM] = [ 12.38, 25.00] = [ 42.90,175.06] Ry 
 Optimized for a Real-space Cutoff    1.16 Angstroem

   l    n(q)    QCUT    max X(q) W(low)/X(q) W(high)/X(q)  e(spline) 
   0      9    12.378    20.381    0.16E-03    0.67E-05    0.31E-06
   0      9    12.378    15.268    0.17E-03    0.81E-05    0.33E-06
   1      8    12.378     5.964    0.20E-03    0.16E-03    0.30E-06
   1      8    12.378     5.382    0.18E-03    0.14E-03    0.26E-06
  PAW_PBE Ca_sv 06Sep2000               :
 energy of atom  1       EATOM=-1006.0909
 kinetic energy error for atom=    0.0012 (will be added to EATOM!!)
  PAW_PBE Si 05Jan2001                  :
 energy of atom  2       EATOM= -103.0669
 kinetic energy error for atom=    0.0003 (will be added to EATOM!!)
  PAW_PBE O 08Apr2002                   :
 energy of atom  3       EATOM= -432.3788
 kinetic energy error for atom=    0.0168 (will be added to EATOM!!)
 
 
 POSCAR: Ca Si  O                                
  positions in direct lattice
  No initial velocities read in
 exchange correlation table for  LEXCH =        8
   RHO(1)=    0.500       N(1)  =     2000
   RHO(2)=  100.500       N(2)  =     4000
 


--------------------------------------------------------------------------------------------------------


 ion  position               nearest neighbor table
   1  0.088  0.598  0.831-  78 2.05  66 2.12 112 2.20  95 2.31  58 2.43  18 2.92  25 2.93  21 3.07
                            35 3.09  13 3.14
   2  0.074  0.588  0.527- 108 2.34  62 2.35  78 2.39 102 2.40  89 2.42 123 2.45  57 2.46  39 2.91
                            38 3.10  35 3.13
   3  0.812  0.288  0.180- 107 2.11  84 2.19  74 2.26  93 2.28  98 2.38  75 2.41 132 2.54  22 2.97
                            21 2.98   9 3.11
   4  0.402  0.211  0.580-  87 2.10 133 2.17 103 2.32 126 2.36 110 2.41 117 2.41 122 2.47  71 2.49
                            81 2.55  47 2.87  34 2.92  49 2.94  51 3.02   8 3.15
   5  0.627  0.819  0.986-  76 2.20  69 2.32 124 2.38 125 2.45  29 2.96  45 3.03  36 3.11
   6  0.008  0.930  0.872-  86 2.13  88 2.32  69 2.37  66 2.41  53 2.89  30 3.00  43 3.03  46 3.06

   7  0.737  0.306  0.880-  98 2.03  61 2.31  79 2.33 114 2.43  84 2.46  67 2.54  28 2.63  34 3.03

   8  0.494  0.031  0.778-  82 2.12  71 2.20 113 2.40 117 2.45 124 2.48 103 2.53  43 3.02  19 3.02
                            47 3.13   4 3.15
   9  0.832  0.385  0.441-  99 2.24 135 2.28  89 2.45 107 2.45 120 2.45  74 2.50  42 2.93  33 2.97
                            35 3.03   3 3.11
  10  0.298  0.460  0.316- 106 2.24 102 2.26 104 2.28  91 2.35  97 2.48 128 2.53  41 2.86  31 3.04
                            50 3.16
  11  0.177  0.000  0.475- 121 2.19 129 2.30 103 2.38 108 2.44 127 2.47 122 2.51  81 2.51  49 2.83
                            44 2.98  39 3.12  30 3.14
  12  0.593  0.109  0.338- 133 2.23  70 2.29 130 2.30  77 2.37 120 2.40  40 2.79  49 2.93  32 3.07
                            47 3.10  33 3.10  36 3.11
  13  0.817  0.677  0.806-  79 2.04  73 2.26  85 2.35  86 2.40  66 2.52  28 2.86   1 3.14
  14  0.493  0.696  0.405- 111 2.20 116 2.32  65 2.43  97 2.44 105 2.46  77 2.49 128 2.50 118 2.55
                            50 2.98  48 3.01  39 3.04  45 3.05
  15  0.708  0.881  0.539-  59 2.27  65 2.28 130 2.36  73 2.36  68 2.46 116 2.48  60 2.54  42 2.87
                            43 2.88  48 2.96  40 3.04
  16  0.969  0.803  0.338-  57 2.26 108 2.34  59 2.46  80 2.50  72 2.52  96 2.52  39 2.95  38 2.98
                            52 3.03  46 3.11  30 3.15
  17  0.392  0.874  0.158-  55 2.39 105 2.39 113 2.40  70 2.40 115 2.49 128 2.50  77 2.54  50 2.95
                            53 3.03  36 3.10  52 3.15
  18  0.139  0.682  0.075- 115 2.03  66 2.25  64 2.31 104 2.40  46 2.79   1 2.92  38 2.99
  19  0.310  0.129  0.953- 117 2.07  56 2.34  88 2.35 113 2.41  82 2.41 109 2.41  53 2.73   8 3.02
                            36 3.05
  20  0.984  0.160  0.640-  94 2.09  81 2.19  83 2.20 121 2.32  99 2.46  51 2.89  35 3.03
  21  0.951  0.458  0.026-  84 2.07  95 2.14  64 2.45 107 2.47  85 2.53  38 2.86  41 2.94   3 2.98
                            54 3.02   1 3.07
  22  0.800  0.051  0.059-  67 1.97  76 2.31  69 2.32 119 2.42  93 2.44  75 2.47  36 2.73   3 2.97

  23  0.697  0.575  0.201- 101 1.94  97 2.31 105 2.44  96 2.50  85 2.50  50 2.68  45 2.97  28 3.00
                            24 3.13
  24  0.520  0.365  0.142-  97 2.28  74 2.33  91 2.35  90 2.35 101 2.36  75 2.36  98 2.51  50 2.89
                            33 2.98  23 3.13
  25  0.208  0.374  0.763- 123 2.14 112 2.42  83 2.45 110 2.53 117 2.55  51 2.84  37 2.85   1 2.93
                            31 3.00  34 3.06
  26  0.606  0.457  0.646- 126 2.16 110 2.22 118 2.34 135 2.47  61 2.52  34 2.84  33 2.85  31 2.94
                            48 3.09
  27  0.258  0.784  0.650- 108 2.39  78 2.44 100 2.47  58 2.50 134 2.53  30 3.08  39 3.09
  28  0.662  0.522  0.939-  79 1.67  98 1.74 101 1.79  61 1.94 125 1.99  85 2.15   7 2.63  13 2.86
                            23 3.00
  29  0.430  0.675  0.880- 131 1.52  55 1.68 134 1.69 125 1.72  58 2.21  48 2.68  37 2.77   5 2.96
                            50 3.08  53 3.09
  30  0.990  0.844  0.617- 121 1.60  86 1.70  78 1.80  59 1.85 108 2.01  60 2.29   6 3.00  27 3.08
                            11 3.14  16 3.15
  31  0.355  0.506  0.579- 123 1.57 100 1.73  87 1.81 118 1.87 102 1.98 110 2.00  26 2.94  25 3.00
                            10 3.04  51 3.15
  32  0.329  0.171  0.284- 122 1.63 127 1.68 106 1.68  63 1.83  91 1.92  70 2.15  44 2.98  12 3.07
                            41 3.11
  33  0.567  0.379  0.405- 126 1.59  74 1.62 118 1.64  91 1.92 135 2.35  97 2.36  26 2.85   9 2.97
                            24 2.98  12 3.10
  34  0.473  0.314  0.811-  61 1.50 110 1.61 117 1.72 109 1.82  71 1.97  82 2.42  26 2.84   4 2.92
                             7 3.03  25 3.06  37 3.11
  35  0.924  0.420  0.695-  95 1.64  83 1.65  62 1.79 114 1.81  79 2.55   9 3.03  20 3.03   1 3.09
                             2 3.13
  36  0.556  0.078  0.063-  75 1.58  82 1.66  70 1.68  76 1.85  22 2.73  19 3.05  17 3.10  12 3.11
                             5 3.11
  37  0.313  0.476  0.974- 112 1.55 131 1.61  90 1.65 109 1.77  29 2.77  25 2.85  41 2.95  50 3.04
                            34 3.11
  38  1.000  0.548  0.261- 107 1.64  64 1.73  89 1.82  57 1.86 104 2.12  21 2.86  16 2.98  18 2.99
                             2 3.10
  39  0.224  0.741  0.378- 111 1.58  72 1.66  57 1.69 102 1.82 108 1.89 128 2.19   2 2.91  16 2.95
                            14 3.04  27 3.09  11 3.12
  40  0.834  0.076  0.396-  93 1.67  60 1.68 120 1.77 130 1.85  99 2.10  12 2.79  44 2.96  15 3.04

  41  0.158  0.338  0.139-  56 1.59 132 1.67 104 1.73 106 1.74 112 2.53  44 2.81  10 2.86  54 2.89
                            21 2.94  37 2.95  32 3.11
  42  0.785  0.641  0.484- 135 1.55 116 1.70  59 1.74  89 1.81  62 2.07  73 2.07  15 2.87   9 2.93

  43  0.762  0.985  0.769- 124 1.59  68 1.64  67 1.69  86 2.01  15 2.88   8 3.02   6 3.03  47 3.07

  44  0.064  0.186  0.318- 132 1.61 129 1.64 127 1.67  99 1.83  93 2.34  92 2.36  41 2.81  51 2.85
                            40 2.96  11 2.98  32 2.98  52 3.06
  45  0.674  0.836  0.254-  96 1.60 105 1.71 130 1.79  76 1.88 116 1.98  77 2.11  23 2.97   5 3.03
                            14 3.05
  46  0.903  0.767  0.068-  80 1.67  64 1.74  69 1.74  66 1.82  96 1.89  85 1.98  18 2.79   6 3.06
                            16 3.11
  47  0.657  0.178  0.601-  71 1.63  68 1.64 120 1.75 133 1.80 126 1.83 114 2.36   4 2.87  43 3.07
                            12 3.10   8 3.13
  48  0.537  0.725  0.670-  65 1.62 100 1.71 134 1.80  73 1.88 125 2.20  29 2.68  15 2.96  14 3.01
                            26 3.09
  49  0.429  0.966  0.486- 103 1.77 122 1.80 133 1.91  77 2.00  65 2.02 111 2.08  11 2.83  12 2.93
                             4 2.94
  50  0.465  0.619  0.149-  90 1.58 101 1.67  97 1.71 128 1.77  55 1.85 105 1.87  23 2.68  24 2.89
                            17 2.95  14 2.98  37 3.04  29 3.08  10 3.16
  51  0.157  0.312  0.521-  92 1.43  87 1.64  81 1.69  83 1.85 127 2.23  25 2.84  44 2.85  20 2.89
                             4 3.02  31 3.15
  52  0.122  0.959  0.175- 129 1.79  63 1.84  80 1.84  72 1.85 115 1.90 119 2.23  16 3.03  44 3.06
                            17 3.15
  53  0.261  0.892  0.920-  88 1.50  58 1.73 113 1.76 115 1.76  19 2.73   6 2.89  17 3.03  29 3.09

  54  0.023  0.204  0.962-  84 1.57  94 1.57 119 1.73  56 1.82  41 2.89  21 3.02
  55  0.396  0.705  0.025-  29 1.68  50 1.85  17 2.39
  56  0.164  0.268  0.015-  41 1.59  54 1.82  19 2.34
  57  0.111  0.658  0.320-  39 1.69  38 1.86  16 2.26   2 2.46
  58  0.244  0.745  0.871-  53 1.73  29 2.21   1 2.43  27 2.50
  59  0.873  0.761  0.533-  42 1.74  30 1.85  15 2.27  16 2.46
  60  0.907  0.977  0.483-  40 1.68  30 2.29  15 2.54
  61  0.557  0.407  0.862-  34 1.50  28 1.94   7 2.31  26 2.52
  62  0.885  0.553  0.615-  35 1.79  42 2.07   2 2.35
  63  0.245  0.069  0.186-  32 1.83  52 1.84
  64  0.949  0.641  0.147-  38 1.73  46 1.74  18 2.31  21 2.45
  65  0.513  0.832  0.575-  48 1.62  49 2.02  15 2.28  14 2.43
  66  0.994  0.724  0.940-  46 1.82   1 2.12  18 2.25   6 2.41  13 2.52
  67  0.773  0.081  0.887-  43 1.69  22 1.97   7 2.54
  68  0.743  0.069  0.650-  43 1.64  47 1.64  15 2.46
  69  0.830  0.865  0.970-  46 1.74  22 2.32   5 2.32   6 2.37
  70  0.463  0.076  0.182-  36 1.68  32 2.15  12 2.29  17 2.40
  71  0.576  0.202  0.721-  47 1.63  34 1.97   8 2.20   4 2.49
  72  0.184  0.848  0.281-  39 1.66  52 1.85  16 2.52
  73  0.700  0.694  0.641-  48 1.88  42 2.07  13 2.26  15 2.36
  74  0.662  0.362  0.296-  33 1.62   3 2.26  24 2.33   9 2.50
  75  0.633  0.188  0.110-  36 1.58  24 2.36   3 2.41  22 2.47
  76  0.634  0.950  0.134-  36 1.85  45 1.88   5 2.20  22 2.31
  77  0.522  0.909  0.342-  49 2.00  45 2.11  12 2.37  14 2.49  17 2.54
  78  0.053  0.719  0.696-  30 1.80   1 2.05   2 2.39  27 2.44
  79  0.753  0.506  0.820-  28 1.67  13 2.04   7 2.33  35 2.55
  80  0.985  0.879  0.127-  46 1.67  52 1.84  16 2.50
  81  0.176  0.186  0.604-  51 1.69  20 2.19  11 2.51   4 2.55
  82  0.525  0.140  0.931-  36 1.66   8 2.12  19 2.41  34 2.42
  83  0.036  0.350  0.628-  35 1.65  51 1.85  20 2.20  25 2.45
  84  0.913  0.276  0.011-  54 1.57  21 2.07   3 2.19   7 2.46
  85  0.804  0.631  0.012-  46 1.98  28 2.15  13 2.35  23 2.50  21 2.53
  86  0.892  0.866  0.733-  30 1.70  43 2.01   6 2.13  13 2.40
  87  0.295  0.361  0.535-  51 1.64  31 1.81   4 2.10
  88  0.206  0.985  0.838-  53 1.50   6 2.32  19 2.35
  89  0.905  0.586  0.389-  42 1.81  38 1.82   2 2.42   9 2.45
  90  0.379  0.516  0.100-  50 1.58  37 1.65  24 2.35
  91  0.436  0.300  0.324-  32 1.92  33 1.92  10 2.35  24 2.35
  92  0.095  0.368  0.423-  51 1.43  44 2.36
  93  0.878  0.109  0.256-  40 1.67   3 2.28  44 2.34  22 2.44
  94  0.992  0.190  0.825-  54 1.57  20 2.09
  95  0.967  0.429  0.836-  35 1.64  21 2.14   1 2.31
  96  0.793  0.778  0.198-  45 1.60  46 1.89  23 2.50  16 2.52
  97  0.505  0.527  0.266-  50 1.71  24 2.28  23 2.31  33 2.36  14 2.44  10 2.48
  98  0.712  0.406  0.031-  28 1.74   7 2.03   3 2.38  24 2.51
  99  0.949  0.222  0.431-  44 1.83  40 2.10   9 2.24  20 2.46
 100  0.418  0.629  0.650-  48 1.71  31 1.73  27 2.47
 101  0.579  0.557  0.073-  50 1.67  28 1.79  23 1.94  24 2.36
 102  0.276  0.606  0.454-  39 1.82  31 1.98  10 2.26   2 2.40
 103  0.342  0.013  0.610-  49 1.77   4 2.32  11 2.38   8 2.53
 104  0.157  0.490  0.171-  41 1.73  38 2.12  10 2.28  18 2.40
 105  0.561  0.747  0.200-  45 1.71  50 1.87  17 2.39  23 2.44  14 2.46
 106  0.293  0.293  0.202-  32 1.68  41 1.74  10 2.24
 107  0.892  0.449  0.240-  38 1.64   3 2.11   9 2.45  21 2.47
 108  0.111  0.793  0.493-  39 1.89  30 2.01  16 2.34   2 2.34  27 2.39  11 2.44
 109  0.380  0.334  0.944-  37 1.77  34 1.82  19 2.41
 110  0.425  0.391  0.699-  34 1.61  31 2.00  26 2.22   4 2.41  25 2.53
 111  0.337  0.817  0.418-  39 1.58  49 2.08  14 2.20
 112  0.174  0.471  0.955-  37 1.55   1 2.20  25 2.42  41 2.53
 113  0.409  0.937  0.952-  53 1.76   8 2.40  17 2.40  19 2.41
 114  0.796  0.322  0.670-  35 1.81  47 2.36   7 2.43
 115  0.192  0.856  0.058-  53 1.76  52 1.90  18 2.03  17 2.49
 116  0.699  0.719  0.385-  42 1.70  45 1.98  14 2.32  15 2.48
 117  0.363  0.207  0.793-  34 1.72  19 2.07   4 2.41   8 2.45  25 2.55
 118  0.484  0.478  0.476-  33 1.64  31 1.87  26 2.34  14 2.55
 119  0.015  0.078  0.053-  54 1.73  52 2.23  22 2.42
 120  0.746  0.184  0.471-  47 1.75  40 1.77  12 2.40   9 2.45
 121  0.063  0.967  0.632-  30 1.60  11 2.19  20 2.32
 122  0.370  0.088  0.398-  32 1.63  49 1.80   4 2.47  11 2.51
 123  0.241  0.531  0.658-  31 1.57  25 2.14   2 2.45
 124  0.661  0.884  0.785-  43 1.59   5 2.38   8 2.48
 125  0.579  0.653  0.849-  29 1.72  28 1.99  48 2.20   5 2.45
 126  0.585  0.305  0.526-  33 1.59  47 1.83  26 2.16   4 2.36
 127  0.205  0.192  0.367-  44 1.67  32 1.68  51 2.23  11 2.47
 128  0.344  0.669  0.239-  50 1.77  39 2.19  14 2.50  17 2.50  10 2.53
 129  0.069  0.040  0.303-  44 1.64  52 1.79  11 2.30
 130  0.732  0.957  0.342-  45 1.79  40 1.85  12 2.30  15 2.36
 131  0.385  0.546  0.870-  29 1.52  37 1.61
 132  0.039  0.277  0.208-  44 1.61  41 1.67   3 2.54
 133  0.543  0.086  0.531-  47 1.80  49 1.91   4 2.17  12 2.23
 134  0.442  0.792  0.784-  29 1.69  48 1.80  27 2.53
 135  0.695  0.537  0.460-  42 1.55   9 2.28  33 2.35  26 2.47
 

IMPORTANT INFORMATION: All symmetrisations will be switched off!
NOSYMM: (Re-)initialisation of all symmetry stuff for point group C_1.

 
 

Automatic generation of k-mesh.
 generate k-points for:    2    2    2
Space group operators:
 irot       det(A)        alpha          n_x          n_y          n_z        tau_x        tau_y        tau_z
    1     1.000000     0.000000     1.000000     0.000000     0.000000     0.000000     0.000000     0.000000
 
 Subroutine IBZKPT returns following result:
 ===========================================
 
 Found      8 irreducible k-points:
 
 Following reciprocal coordinates:
            Coordinates               Weight
  0.000000  0.000000  0.000000      1.000000
  0.500000  0.000000  0.000000      1.000000
  0.000000  0.500000  0.000000      1.000000
  0.500000  0.500000  0.000000      1.000000
  0.000000  0.000000  0.500000      1.000000
  0.500000  0.000000  0.500000      1.000000
  0.000000  0.500000  0.500000      1.000000
  0.500000  0.500000  0.500000      1.000000
 
 Following cartesian coordinates:
            Coordinates               Weight
  0.000000  0.000000  0.000000      1.000000
  0.044956  0.000000  0.000000      1.000000
  0.000000  0.044956  0.000000      1.000000
  0.044956  0.044956  0.000000      1.000000
  0.000000  0.000000  0.044956      1.000000
  0.044956  0.000000  0.044956      1.000000
  0.000000  0.044956  0.044956      1.000000
  0.044956  0.044956  0.044956      1.000000
 


--------------------------------------------------------------------------------------------------------




 Dimension of arrays:
   k-points           NKPTS =      8   k-points in BZ     NKDIM =      8   number of bands    NBANDS=    520
   number of dos      NEDOS =    301   number of ions     NIONS =    135
   non local maximal  LDIM  =      6   non local SUM 2l+1 LMDIM =     18
   total plane-waves  NPLWV = 729000
   max r-space proj   IRMAX =   7111   max aug-charges    IRDMAX= 202431
   dimension x,y,z NGX =    90 NGY =   90 NGZ =   90
   dimension x,y,z NGXF=   180 NGYF=  180 NGZF=  180
   support grid    NGXF=   360 NGYF=  360 NGZF=  360
   ions per type =              27  27  81
   NGX,Y,Z   is equivalent  to a cutoff of  13.45, 13.45, 13.45 a.u.
   NGXF,Y,Z  is equivalent  to a cutoff of  26.91, 26.91, 26.91 a.u.

 SYSTEM =  unknown system                          
 POSCAR =  Ca Si  O                                

 Startparameter for this run:
   NWRITE =      2    write-flag & timer
   PREC   = a         normal or accurate (medium, high low for compatibility)
   ISTART =      0    job   : 0-new  1-cont  2-samecut
   ICHARG =      2    charge: 1-file 2-atom 10-const
   ISPIN  =      1    spin polarized calculation?
   LNONCOLLINEAR =      F non collinear calculations
   LSORBIT =      F    spin-orbit coupling
   INIWAV =      1    electr: 0-lowe 1-rand  2-diag
   LASPH  =      F    aspherical Exc in radial PAW
   METAGGA=      F    non-selfconsistent MetaGGA calc.

 Electronic Relaxation 1
   ENCUT  =  600.0 eV  44.10 Ry    6.64 a.u.  22.21 22.21 22.21*2*pi/ulx,y,z
   ENINI  =  600.0     initial cutoff
   ENAUG  =  605.4 eV  augmentation charge cutoff
   NELM   =     60;   NELMIN=  2; NELMDL= -5     # of ELM steps 
   EDIFF  = 0.1E-05   stopping-criterion for ELM
   LREAL  =      T    real-space projection
   NLSPLINE    = F    spline interpolate recip. space projectors
   LCOMPAT=      F    compatible to vasp.4.4
   GGA_COMPAT  = T    GGA compatible to vasp.4.4-vasp.4.6
   LMAXPAW     = -100 max onsite density
   LMAXMIX     =    2 max onsite mixed and CHGCAR
   VOSKOWN=      0    Vosko Wilk Nusair interpolation
   ROPT   =   -0.00025  -0.00025  -0.00025
 Ionic relaxation
   EDIFFG = -.1E-01   stopping-criterion for IOM
   NSW    =      1    number of steps for IOM
   NBLOCK =      1;   KBLOCK =      1    inner block; outer block 
   IBRION =     -1    ionic relax: 0-MD 1-quasi-New 2-CG
   NFREE  =      0    steps in history (QN), initial steepest desc. (CG)
   ISIF   =      2    stress and relaxation
   IWAVPR =     10    prediction:  0-non 1-charg 2-wave 3-comb
   ISYM   =      0    0-nonsym 1-usesym 2-fastsym
   LCORR  =      T    Harris-Foulkes like correction to forces

   POTIM  = 1.0000    time-step for ionic-motion
   TEIN   =    0.0    initial temperature
   TEBEG  =    0.0;   TEEND  =   0.0 temperature during run
   SMASS  =  -3.00    Nose mass-parameter (am)
   estimated Nose-frequenzy (Omega)   =  0.10E-29 period in steps =****** mass=  -0.283E-26a.u.
   SCALEE = 1.0000    scale energy and forces
   NPACO  =    256;   APACO  = 16.0  distance and # of slots for P.C.
   PSTRESS=    0.0 pullay stress

  Mass of Ions in am
   POMASS =  40.08 28.09 16.00
  Ionic Valenz
   ZVAL   =  10.00  4.00  6.00
  Atomic Wigner-Seitz radii
   RWIGS  =  -1.00 -1.00 -1.00
  virtual crystal weights 
   VCA    =   1.00  1.00  1.00
   NELECT =     864.0000    total number of electrons
   NUPDOWN=      -1.0000    fix difference up-down

 DOS related values:
   EMIN   =  10.00;   EMAX   =-10.00  energy-range for DOS
   EFERMI =   0.00
   ISMEAR =     0;   SIGMA  =   0.05  broadening in eV -4-tet -1-fermi 0-gaus

 Electronic relaxation 2 (details)
   IALGO  =     38    algorithm
   LDIAG  =      T    sub-space diagonalisation (order eigenvalues)
   LSUBROT=      F    optimize rotation matrix (better conditioning)
   TURBO    =      0    0=normal 1=particle mesh
   IRESTART =      0    0=no restart 2=restart with 2 vectors
   NREBOOT  =      0    no. of reboots
   NMIN     =      0    reboot dimension
   EREF     =   0.00    reference energy to select bands
   IMIX   =      4    mixing-type and parameters
     AMIX     =   0.40;   BMIX     =  1.00
     AMIX_MAG =   1.60;   BMIX_MAG =  1.00
     AMIN     =   0.10
     WC   =   100.;   INIMIX=   1;  MIXPRE=   1;  MAXMIX= -45

 Intra band minimization:
   WEIMIN = 0.0000     energy-eigenvalue tresh-hold
   EBREAK =  0.48E-09  absolut break condition
   DEPER  =   0.30     relativ break condition  

   TIME   =   0.40     timestep for ELM

  volume/ion in A,a.u.               =      10.19        68.77
  Fermi-wavevector in a.u.,A,eV,Ry     =   1.401948  2.649298 26.741681  1.965458
  Thomas-Fermi vector in A             =   2.524759
 
 Write flags
   LWAVE        =      F    write WAVECAR
   LDOWNSAMPLE  =      F    k-point downsampling of WAVECAR
   LCHARG       =      F    write CHGCAR
   LVTOT        =      F    write LOCPOT, total local potential
   LVHAR        =      F    write LOCPOT, Hartree potential only
   LELF         =      F    write electronic localiz. function (ELF)
   LORBIT       =      0    0 simple, 1 ext, 2 COOP (PROOUT), +10 PAW based schemes


 Dipole corrections
   LMONO  =      F    monopole corrections only (constant potential shift)
   LDIPOL =      F    correct potential (dipole corrections)
   IDIPOL =      0    1-x, 2-y, 3-z, 4-all directions 
   EPSILON=  1.0000000 bulk dielectric constant

 Exchange correlation treatment:
   GGA     =    --    GGA type
   LEXCH   =     8    internal setting for exchange type
   VOSKOWN=      0    Vosko Wilk Nusair interpolation
   LHFCALC =     F    Hartree Fock is set to
   LHFONE  =     F    Hartree Fock one center treatment
   AEXX    =    0.0000 exact exchange contribution

 Linear response parameters
   LEPSILON=     F    determine dielectric tensor
   LRPA    =     F    only Hartree local field effects (RPA)
   LNABLA  =     F    use nabla operator in PAW spheres
   LVEL    =     F    velocity operator in full k-point grid
   LINTERFAST=   F  fast interpolation
   KINTER  =     0    interpolate to denser k-point grid
   CSHIFT  =0.1000    complex shift for real part using Kramers Kronig
   OMEGAMAX=  -1.0    maximum frequency
   DEG_THRESHOLD= 0.2000000E-02 threshold for treating states as degnerate
   RTIME   =   -0.100 relaxation time in fs
  (WPLASMAI=    0.000 imaginary part of plasma frequency in eV, 0.658/RTIME)
   DFIELD  = 0.0000000 0.0000000 0.0000000 field for delta impulse in time
 
 Orbital magnetization related:
   ORBITALMAG=     F  switch on orbital magnetization
   LCHIMAG   =     F  perturbation theory with respect to B field
   DQ        =  0.001000  dq finite difference perturbation B field
   LLRAUG    =     F  two centre corrections for induced B field



--------------------------------------------------------------------------------------------------------


 Static calculation
 charge density and potential will be updated during run
 non-spin polarized calculation
 Variant of blocked Davidson
 Davidson routine will perform the subspace rotation
 perform sub-space diagonalisation
    after iterative eigenvector-optimisation
 modified Broyden-mixing scheme, WC =      100.0
 initial mixing is a Kerker type mixing with AMIX =  0.4000 and BMIX =      1.0000
 Hartree-type preconditioning will be used
 using additional bands           88
 real space projection scheme for non local part
 use partial core corrections
 calculate Harris-corrections to forces 
   (improved forces if not selfconsistent)
 use gradient corrections 
 use of overlap-Matrix (Vanderbilt PP)
 Gauss-broadening in eV      SIGMA  =   0.05


--------------------------------------------------------------------------------------------------------


  energy-cutoff  :      600.00
  volume of cell :     1375.76
      direct lattice vectors                 reciprocal lattice vectors
    11.121947680  0.000000000  0.000000000     0.089912309  0.000000000  0.000000000
     0.000000000 11.121947680  0.000000000     0.000000000  0.089912309  0.000000000
     0.000000000  0.000000000 11.121947680     0.000000000  0.000000000  0.089912309

  length of vectors
    11.121947680 11.121947680 11.121947680     0.089912309  0.089912309  0.089912309


 
 k-points in units of 2pi/SCALE and weight: read from INCAR                         
   0.00000000  0.00000000  0.00000000       0.125
   0.04495615  0.00000000  0.00000000       0.125
   0.00000000  0.04495615  0.00000000       0.125
   0.04495615  0.04495615  0.00000000       0.125
   0.00000000  0.00000000  0.04495615       0.125
   0.04495615  0.00000000  0.04495615       0.125
   0.00000000  0.04495615  0.04495615       0.125
   0.04495615  0.04495615  0.04495615       0.125
 
 k-points in reciprocal lattice and weights: read from INCAR                         
   0.00000000  0.00000000  0.00000000       0.125
   0.50000000  0.00000000  0.00000000       0.125
   0.00000000  0.50000000  0.00000000       0.125
   0.50000000  0.50000000  0.00000000       0.125
   0.00000000  0.00000000  0.50000000       0.125
   0.50000000  0.00000000  0.50000000       0.125
   0.00000000  0.50000000  0.50000000       0.125
   0.50000000  0.50000000  0.50000000       0.125
 
 position of ions in fractional coordinates (direct lattice) 
   0.08756585  0.59808009  0.83118781
   0.07366282  0.58790768  0.52656968
   0.81248712  0.28824895  0.17970743
   0.40210959  0.21138884  0.57989438
   0.62703406  0.81901496  0.98560450
   0.00772235  0.92984667  0.87201495
   0.73660650  0.30604042  0.87998816
   0.49385359  0.03144194  0.77822998
   0.83194198  0.38527317  0.44117247
   0.29832235  0.45982162  0.31562819
   0.17667346  0.00041247  0.47465371
   0.59288833  0.10949382  0.33811051
   0.81740952  0.67728814  0.80564407
   0.49275460  0.69609274  0.40473027
   0.70800699  0.88068111  0.53885027
   0.96939233  0.80310548  0.33802403
   0.39152765  0.87352515  0.15767069
   0.13932066  0.68240507  0.07475782
   0.31015316  0.12940231  0.95316299
   0.98401196  0.15953507  0.64007094
   0.95097258  0.45778731  0.02566015
   0.80003515  0.05064523  0.05922411
   0.69669442  0.57533191  0.20127242
   0.52017125  0.36471033  0.14186042
   0.20808505  0.37363795  0.76318698
   0.60611546  0.45715231  0.64627816
   0.25772783  0.78359050  0.65014577
   0.66236651  0.52247850  0.93941555
   0.42967545  0.67476159  0.88040007
   0.98972141  0.84426938  0.61710999
   0.35491166  0.50595613  0.57928208
   0.32935101  0.17101575  0.28412259
   0.56724240  0.37917087  0.40500889
   0.47275710  0.31438226  0.81110346
   0.92377186  0.41986106  0.69535854
   0.55632701  0.07791949  0.06308276
   0.31280644  0.47568082  0.97356218
   0.99952830  0.54836980  0.26122607
   0.22407351  0.74121138  0.37779508
   0.83447168  0.07622283  0.39556549
   0.15753832  0.33778864  0.13901303
   0.78535458  0.64104119  0.48413367
   0.76154836  0.98518283  0.76929565
   0.06368521  0.18647488  0.31820729
   0.67355197  0.83626328  0.25353259
   0.90312223  0.76748609  0.06832956
   0.65671254  0.17762859  0.60079041
   0.53653959  0.72499298  0.67027573
   0.42892253  0.96586455  0.48554515
   0.46515012  0.61866463  0.14930508
   0.15742621  0.31216207  0.52053882
   0.12199611  0.95888106  0.17457014
   0.26065431  0.89161043  0.91962465
   0.02330924  0.20358872  0.96208808
   0.39627263  0.70498684  0.02485224
   0.16439481  0.26790264  0.01475021
   0.11099972  0.65802320  0.31980683
   0.24416060  0.74509463  0.87126895
   0.87328060  0.76099739  0.53321983
   0.90727220  0.97686132  0.48277045
   0.55655376  0.40719845  0.86200107
   0.88450389  0.55349428  0.61454634
   0.24478534  0.06908248  0.18614968
   0.94889672  0.64087299  0.14735018
   0.51252463  0.83185599  0.57460500
   0.99417328  0.72444670  0.93974185
   0.77349204  0.08095956  0.88665980
   0.74329052  0.06890773  0.64951866
   0.82993523  0.86477100  0.96975996
   0.46328078  0.07580115  0.18196927
   0.57611377  0.20205070  0.72105779
   0.18419583  0.84750235  0.28137768
   0.69977953  0.69443865  0.64056821
   0.66243626  0.36196255  0.29564949
   0.63323219  0.18755403  0.10996510
   0.63439057  0.94973379  0.13388753
   0.52188517  0.90870057  0.34232143
   0.05343169  0.71870878  0.69630314
   0.75262868  0.50604635  0.82049782
   0.98458210  0.87926169  0.12711539
   0.17576325  0.18614414  0.60353662
   0.52508035  0.14049224  0.93103591
   0.03619214  0.35029536  0.62803985
   0.91307660  0.27645461  0.01064817
   0.80446144  0.63107221  0.01173881
   0.89196601  0.86597876  0.73287170
   0.29538235  0.36087269  0.53529989
   0.20610660  0.98501036  0.83848066
   0.90514668  0.58600599  0.38932980
   0.37903334  0.51635304  0.10008641
   0.43608791  0.30034530  0.32443139
   0.09478611  0.36843750  0.42347896
   0.87784685  0.10935354  0.25568190
   0.99208394  0.18954814  0.82527839
   0.96719191  0.42932708  0.83578042
   0.79317116  0.77800762  0.19765403
   0.50508606  0.52669036  0.26626782
   0.71216948  0.40564523  0.03137257
   0.94945990  0.22156781  0.43068113
   0.41772408  0.62918800  0.64994307
   0.57933113  0.55699172  0.07332282
   0.27619343  0.60598390  0.45445850
   0.34230701  0.01345032  0.60979510
   0.15714627  0.48986206  0.17066694
   0.56051053  0.74728519  0.20021412
   0.29334106  0.29307497  0.20240709
   0.89238220  0.44947991  0.23954523
   0.11051818  0.79253192  0.49325457
   0.38032885  0.33438320  0.94439392
   0.42509100  0.39115947  0.69858037
   0.33715915  0.81720424  0.41792835
   0.17442356  0.47077353  0.95527034
   0.40880087  0.93697785  0.95209236
   0.79647226  0.32210984  0.67013182
   0.19176961  0.85612580  0.05786722
   0.69891493  0.71933746  0.38507308
   0.36270437  0.20737208  0.79290610
   0.48426323  0.47807077  0.47626459
   0.01539372  0.07770566  0.05291702
   0.74600965  0.18432667  0.47092036
   0.06328127  0.96679829  0.63215786
   0.36982482  0.08833537  0.39765948
   0.24092853  0.53112529  0.65841953
   0.66126633  0.88403789  0.78496033
   0.57906892  0.65275023  0.84909070
   0.58481072  0.30533132  0.52637604
   0.20500450  0.19240886  0.36740981
   0.34367938  0.66910885  0.23892164
   0.06880085  0.03969728  0.30318376
   0.73220246  0.95673406  0.34228538
   0.38533037  0.54629327  0.87012566
   0.03870934  0.27716302  0.20843082
   0.54318717  0.08571187  0.53126112
   0.44168740  0.79183117  0.78367605
   0.69537761  0.53735552  0.45992056
 
 position of ions in cartesian coordinates  (Angst):
   0.97390283  6.65181543  9.24442730
   0.81927408  6.53867845  5.85648040
   9.03643919  3.20588978  1.99869664
   4.47224177  2.35105559  6.44955497
   6.97383996  9.10904149 10.96184165
   0.08588760 10.34170603  9.69850467
   8.19249895  3.40376549  9.78718224
   5.49261383  0.34969559  8.65543310
   9.25281520  4.28498802  4.90669711
   3.31792556  5.11411195  3.51040023
   1.96495293  0.00458744  5.27907373
   6.59407301  1.21778456  3.76044745
   9.09118594  7.53276328  8.96033114
   5.48039091  7.74190701  4.50138894
   7.87441675  9.79488927  5.99306448
  10.78153074  8.93209710  3.75948558
   4.35455000  9.71530105  1.75360516
   1.54951710  7.58967349  0.83145260
   3.44950717  1.43920571 10.60102885
  10.94412955  1.77434069  7.11883556
  10.57666727  5.09148646  0.28539081
   8.89794910  0.56327356  0.65868742
   7.74859890  6.39881140  2.23854131
   5.78531745  4.05628922  1.57776414
   2.31431100  4.15558178  8.48812562
   6.74118440  5.08442406  7.18787188
   2.86643546  8.71505251  7.23088725
   7.36680564  5.81097852 10.44813059
   4.77882785  7.50466308  9.79176352
  11.00762974  9.38991983  6.86346500
   3.94730887  5.62721757  6.44274494
   3.66302472  1.90202823  3.15999657
   6.30884033  4.21711861  4.50448767
   5.25797976  3.49654307  9.02105019
  10.27414229  4.66967277  7.73374126
   6.18743989  0.86661646  0.70160320
   3.47901683  5.29049718 10.82790762
  11.11670145  6.09894025  2.90534271
   2.49213384  8.24371415  4.20181707
   9.28095037  0.84774637  4.39945863
   1.75213299  3.75686762  1.54609560
   8.73467256  7.12962659  5.38450937
   8.46990098 10.95715191  8.55606599
   0.70830361  2.07396388  3.53908485
   7.49120972  9.30087643  2.81977623
  10.04447817  8.53594013  0.75995780
   7.30392255  1.97557594  6.68195954
   5.96736526  8.06333400  7.45477165
   4.77045396 10.74229501  5.40020780
   5.17337528  6.88075570  1.66056332
   1.75088602  3.47185023  5.78940554
   1.35683439 10.66462496  1.94155992
   2.89898356  9.91644453 10.22801728
   0.25924416  2.26430304 10.70029332
   4.40732341  7.84082678  0.27640526
   1.82839050  2.97959913  0.16405104
   1.23453303  7.31849957  3.55687481
   2.71554145  8.28690344  9.69020764
   9.71258109  8.46377311  5.93044310
  10.09063399 10.86460049  5.36934768
   6.18996175  4.52883989  9.58713081
   9.83740601  6.15593437  6.83495229
   2.72248975  0.76833177  2.07034698
  10.55357966  7.12775591  1.63882100
   5.70027207  9.25185885  6.39072679
  11.05714317  8.05725830 10.45175965
   8.60273802  0.90042804  9.86138387
   8.26683831  0.76638820  7.22391257
   9.23049625  9.61793786 10.78561957
   5.15258458  0.84305642  2.02385266
   6.40750716  2.24719727  8.01956704
   2.04861642  9.42587682  3.12946780
   7.78291129  7.72351035  7.12436615
   7.36758140  4.02572857  3.28819812
   7.04277526  2.08596609  1.22302609
   7.05565872 10.56288953  1.48909014
   5.80437955 10.10652023  3.80728101
   0.59426451  7.99344150  7.74424712
   8.37069682  5.62822100  9.12553386
  10.95047059  9.77910253  1.41377071
   1.95482965  2.07028535  6.71250272
   5.83991620  1.56254739 10.35493272
   0.40252710  3.89596671  6.98502639
  10.15519019  3.07471376  0.11842838
   8.94717804  7.01875209  0.13055843
   9.92039935  9.63137051  8.15096065
   3.28522701  4.01360718  5.95357732
   2.29230679 10.95523365  9.32553801
  10.06699399  6.51752794  4.33010566
   4.21558895  5.74285150  1.11315582
   4.85014687  3.34042473  3.60830893
   1.05420620  4.09774260  4.70991089
   9.76336679  1.21622435  2.84368070
  11.03390567  2.10814454  9.17870309
  10.75705783  4.77495332  9.29550615
   8.82160816  8.65295999  2.19829783
   5.61754073  5.85782264  2.96141673
   7.92071165  4.51156497  0.34892411
  10.55984337  2.46426555  4.79001297
   4.64590540  6.99779603  7.22863281
   6.44329049  6.19483272  0.81549262
   3.07180886  6.73972126  5.05446366
   3.80712061  0.14959376  6.78210916
   1.74777254  5.44822020  1.89814883
   6.23396879  8.31126682  2.22677097
   3.26252393  3.25956452  2.25116103
   9.92502809  4.99909201  2.66420946
   1.22917743  8.81449858  5.48595152
   4.22999755  3.71899242 10.50349977
   4.72783986  4.35045512  7.76957430
   3.74986642  9.08890279  4.64817720
   1.93992970  5.23591853 10.62446677
   4.54666186 10.42101867 10.58912141
   8.85832280  3.58248882  7.45317099
   2.13285160  9.52178633  0.64359618
   7.77329526  8.00043358  4.28276262
   4.03397907  2.30638143  8.81866014
   5.38595032  5.31707809  5.29698984
   0.17120813  0.86423833  0.58854033
   8.29708026  2.05007163  5.23755166
   0.70381094 10.75268002  7.03082666
   4.11317235  0.98246140  4.42274789
   2.67959445  5.90714770  7.32290752
   7.35456956  9.83222312  8.73028769
   6.44037421  7.25985388  9.44354234
   6.50423424  3.39587898  5.85432679
   2.28004936  2.13996123  4.08631270
   3.82238403  7.44179361  2.65727401
   0.76519946  0.44151109  3.37199390
   8.14351746 10.64074617  3.80688006
   4.28562419  6.07584522  9.67749206
   0.43052325  3.08259261  2.31815670
   6.04129933  0.95328292  5.90865833
   4.91242418  8.80670484  8.71600399
   7.73395337  5.97644001  5.11521244
 


--------------------------------------------------------------------------------------------------------


 k-point  1 :   0.0000 0.0000 0.0000  plane waves:   45961
 k-point  2 :   0.5000 0.0000 0.0000  plane waves:   45932
 k-point  3 :   0.0000 0.5000 0.0000  plane waves:   45932
 k-point  4 :   0.5000 0.5000 0.0000  plane waves:   45920
 k-point  5 :   0.0000 0.0000 0.5000  plane waves:   45932
 k-point  6 :   0.5000 0.0000 0.5000  plane waves:   45920
 k-point  7 :   0.0000 0.5000 0.5000  plane waves:   45920
 k-point  8 :   0.5000 0.5000 0.5000  plane waves:   45920

 maximum and minimum number of plane-waves per node :      3885     3771

 maximum number of plane-waves:     45961
 maximum index in each direction: 
   IXMAX=   22   IYMAX=   22   IZMAX=   22
   IXMIN=  -22   IYMIN=  -22   IZMIN=  -22


 real space projection operators:
  total allocation   :      48773.53 KBytes
  max/ min on nodes  :       4385.50       3761.78


 parallel 3D FFT for wavefunctions:
    minimum data exchange during FFTs selected (reduces bandwidth)
 parallel 3D FFT for charge:
    minimum data exchange during FFTs selected (reduces bandwidth)


 total amount of memory used by VASP MPI-rank0   149109. kBytes
=======================================================================

   base      :      30000. kBytes
   nonlr-proj:      21569. kBytes
   fftplans  :      20560. kBytes
   grid      :      10967. kBytes
   one-center:        186. kBytes
   wavefun   :      65827. kBytes
 
     INWAV:  cpu time    0.0001: real time    0.0001
 Broyden mixing: mesh for mixing (old mesh)
   NGX = 45   NGY = 45   NGZ = 45
  (NGX  =180   NGY  =180   NGZ  =180)
  gives a total of  91125 points

 initial charge density was supplied:
 charge density of overlapping atoms calculated
 number of electron     864.0000000 magnetization 
 keeping initial charge density in first step


--------------------------------------------------------------------------------------------------------


 Maximum index for non-local projection operator          816
 Maximum index for augmentation-charges         7256 (set IRDMAX)


--------------------------------------------------------------------------------------------------------


 First call to EWALD:  gamma=   0.159
 Maximum number of real-space cells 3x 3x 3
 Maximum number of reciprocal cells 3x 3x 3

    FEWALD:  cpu time    0.0055: real time    0.0055


--------------------------------------- Iteration      1(   1)  ---------------------------------------


    POTLOK:  cpu time    0.0883: real time    0.0955
    SETDIJ:  cpu time    0.2829: real time    0.2876
     EDDAV:  cpu time   29.9647: real time   30.0665
       DOS:  cpu time    0.0038: real time    0.0038
    --------------------------------------------
      LOOP:  cpu time   30.3396: real time   30.4534

 eigenvalue-minimisations  :  8320
 total energy-change (2. order) : 0.9869707E+04  (-0.4885080E+05)
 number of electron     864.0000000 magnetization 
 augmentation part      864.0000000 magnetization 

 Free energy of the ion-electron system (eV)
  ---------------------------------------------------
  alpha Z        PSCENC =      3473.39795963
  Ewald energy   TEWEN  =    -53037.12536844
  -Hartree energ DENC   =    -13498.93543800
  -exchange      EXHF   =         0.00000000
  -V(xc)+E(xc)   XCENC  =      3218.65354035
  PAW double counting   =     50594.51003143   -49994.65612350
  entropy T*S    EENTRO =        -0.04030402
  eigenvalues    EBANDS =      4145.36203229
  atomic energy  EATOM  =     64968.54023382
  Solvation  Ediel_sol  =         0.00000000
  ---------------------------------------------------
  free energy    TOTEN  =      9869.70656357 eV

  energy without entropy =     9869.74686759  energy(sigma->0) =     9869.72671558


--------------------------------------------------------------------------------------------------------




--------------------------------------- Iteration      1(   2)  ---------------------------------------


     EDDAV:  cpu time   33.0713: real time   33.3240
       DOS:  cpu time    0.0011: real time    0.0011
    --------------------------------------------
      LOOP:  cpu time   33.0724: real time   33.3251

 eigenvalue-minimisations  :  9600
 total energy-change (2. order) :-0.9800856E+04  (-0.9463954E+04)
 number of electron     864.0000000 magnetization 
 augmentation part      864.0000000 magnetization 

 Free energy of the ion-electron system (eV)
  ---------------------------------------------------
  alpha Z        PSCENC =      3473.39795963
  Ewald energy   TEWEN  =    -53037.12536844
  -Hartree energ DENC   =    -13498.93543800
  -exchange      EXHF   =         0.00000000
  -V(xc)+E(xc)   XCENC  =      3218.65354035
  PAW double counting   =     50594.51003143   -49994.65612350
  entropy T*S    EENTRO =        -0.00000000
  eigenvalues    EBANDS =     -5655.53439297
  atomic energy  EATOM  =     64968.54023382
  Solvation  Ediel_sol  =         0.00000000
  ---------------------------------------------------
  free energy    TOTEN  =        68.85044232 eV

  energy without entropy =       68.85044232  energy(sigma->0) =       68.85044232


--------------------------------------------------------------------------------------------------------




--------------------------------------- Iteration      1(   3)  ---------------------------------------


     EDDAV:  cpu time   34.9776: real time   35.1145
       DOS:  cpu time    0.0013: real time    0.0012
    --------------------------------------------
      LOOP:  cpu time   34.9789: real time   35.1157

 eigenvalue-minimisations  : 10080
 total energy-change (2. order) :-0.1068571E+04  (-0.1061031E+04)
 number of electron     864.0000000 magnetization 
 augmentation part      864.0000000 magnetization 

 Free energy of the ion-electron system (eV)
  ---------------------------------------------------
  alpha Z        PSCENC =      3473.39795963
  Ewald energy   TEWEN  =    -53037.12536844
  -Hartree energ DENC   =    -13498.93543800
  -exchange      EXHF   =         0.00000000
  -V(xc)+E(xc)   XCENC  =      3218.65354035
  PAW double counting   =     50594.51003143   -49994.65612350
  entropy T*S    EENTRO =        -0.00000000
  eigenvalues    EBANDS =     -6724.10517945
  atomic energy  EATOM  =     64968.54023382
  Solvation  Ediel_sol  =         0.00000000
  ---------------------------------------------------
  free energy    TOTEN  =      -999.72034415 eV

  energy without entropy =     -999.72034415  energy(sigma->0) =     -999.72034415


--------------------------------------------------------------------------------------------------------




--------------------------------------- Iteration      1(   4)  ---------------------------------------


     EDDAV:  cpu time   38.1572: real time   38.2769
       DOS:  cpu time    0.0011: real time    0.0011
    --------------------------------------------
      LOOP:  cpu time   38.1583: real time   38.2780

 eigenvalue-minimisations  : 11456
 total energy-change (2. order) :-0.5027799E+02  (-0.5008235E+02)
 number of electron     864.0000000 magnetization 
 augmentation part      864.0000000 magnetization 

 Free energy of the ion-electron system (eV)
  ---------------------------------------------------
  alpha Z        PSCENC =      3473.39795963
  Ewald energy   TEWEN  =    -53037.12536844
  -Hartree energ DENC   =    -13498.93543800
  -exchange      EXHF   =         0.00000000
  -V(xc)+E(xc)   XCENC  =      3218.65354035
  PAW double counting   =     50594.51003143   -49994.65612350
  entropy T*S    EENTRO =        -0.00000000
  eigenvalues    EBANDS =     -6774.38317217
  atomic energy  EATOM  =     64968.54023382
  Solvation  Ediel_sol  =         0.00000000
  ---------------------------------------------------
  free energy    TOTEN  =     -1049.99833687 eV

  energy without entropy =    -1049.99833687  energy(sigma->0) =    -1049.99833687


--------------------------------------------------------------------------------------------------------




--------------------------------------- Iteration      1(   5)  ---------------------------------------


     EDDAV:  cpu time   45.9288: real time   46.9681
       DOS:  cpu time    0.0009: real time    0.0009
    CHARGE:  cpu time    1.0635: real time    1.0845
    MIXING:  cpu time    0.0037: real time    0.0039
    --------------------------------------------
      LOOP:  cpu time   46.9969: real time   48.0574

 eigenvalue-minimisations  : 14672
 total energy-change (2. order) :-0.4338432E+01  (-0.4335956E+01)
 number of electron     864.0000007 magnetization 
 augmentation part      133.1829067 magnetization 

 Broyden mixing:
  rms(total) = 0.81280E+01    rms(broyden)= 0.81274E+01
  rms(prec ) = 0.97104E+01
  weight for this iteration     100.00

 Free energy of the ion-electron system (eV)
  ---------------------------------------------------
  alpha Z        PSCENC =      3473.39795963
  Ewald energy   TEWEN  =    -53037.12536844
  -Hartree energ DENC   =    -13498.93543800
  -exchange      EXHF   =         0.00000000
  -V(xc)+E(xc)   XCENC  =      3218.65354035
  PAW double counting   =     50594.51003143   -49994.65612350
  entropy T*S    EENTRO =        -0.00000000
  eigenvalues    EBANDS =     -6778.72160430
  atomic energy  EATOM  =     64968.54023382
  Solvation  Ediel_sol  =         0.00000000
  ---------------------------------------------------
  free energy    TOTEN  =     -1054.33676901 eV

  energy without entropy =    -1054.33676901  energy(sigma->0) =    -1054.33676901


--------------------------------------------------------------------------------------------------------




--------------------------------------- Iteration      1(   6)  ---------------------------------------


    POTLOK:  cpu time    0.0857: real time    0.0919
    SETDIJ:  cpu time    0.2827: real time    0.2833
     EDDAV:  cpu time   34.2997: real time   34.4509
       DOS:  cpu time    0.0010: real time    0.0010
    CHARGE:  cpu time    1.0735: real time    1.0760
    MIXING:  cpu time    0.0034: real time    0.0035
    --------------------------------------------
      LOOP:  cpu time   35.7460: real time   35.9067

 eigenvalue-minimisations  :  9928
 total energy-change (2. order) : 0.1251199E+03  (-0.5574652E+02)
 number of electron     864.0000007 magnetization 
 augmentation part      121.5153181 magnetization 

 Broyden mixing:
  rms(total) = 0.33726E+01    rms(broyden)= 0.33718E+01
  rms(prec ) = 0.35608E+01
  weight for this iteration     100.00

 eigenvalues of (default mixing * dielectric matrix)
  average eigenvalue GAMMA=   1.0747
  1.0747

 Free energy of the ion-electron system (eV)
  ---------------------------------------------------
  alpha Z        PSCENC =      3473.39795963
  Ewald energy   TEWEN  =    -53037.12536844
  -Hartree energ DENC   =    -14627.03428856
  -exchange      EXHF   =         0.00000000
  -V(xc)+E(xc)   XCENC  =      3298.74904516
  PAW double counting   =     65009.99425167   -64549.13912864
  entropy T*S    EENTRO =        -0.00000000
  eigenvalues    EBANDS =     -5466.59957102
  atomic energy  EATOM  =     64968.54023382
  Solvation  Ediel_sol  =         0.00000000
  ---------------------------------------------------
  free energy    TOTEN  =      -929.21686638 eV

  energy without entropy =     -929.21686638  energy(sigma->0) =     -929.21686638


--------------------------------------------------------------------------------------------------------




--------------------------------------- Iteration      1(   7)  ---------------------------------------


    POTLOK:  cpu time    0.0838: real time    0.0913
    SETDIJ:  cpu time    0.2786: real time    0.2833
     EDDAV:  cpu time   37.5824: real time   38.4316
       DOS:  cpu time    0.0010: real time    0.0010
    CHARGE:  cpu time    1.0607: real time    1.0817
    MIXING:  cpu time    0.0032: real time    0.0033
    --------------------------------------------
      LOOP:  cpu time   39.0097: real time   39.8922

 eigenvalue-minimisations  : 11440
 total energy-change (2. order) :-0.2591628E+01  (-0.6069156E+01)
 number of electron     864.0000007 magnetization 
 augmentation part      119.9790139 magnetization 

 Broyden mixing:
  rms(total) = 0.16294E+01    rms(broyden)= 0.16294E+01
  rms(prec ) = 0.17697E+01
  weight for this iteration     100.00

 eigenvalues of (default mixing * dielectric matrix)
  average eigenvalue GAMMA=   1.2480
  1.2480  1.2480

 Free energy of the ion-electron system (eV)
  ---------------------------------------------------
  alpha Z        PSCENC =      3473.39795963
  Ewald energy   TEWEN  =    -53037.12536844
  -Hartree energ DENC   =    -14678.43047666
  -exchange      EXHF   =         0.00000000
  -V(xc)+E(xc)   XCENC  =      3302.94946068
  PAW double counting   =     77843.01799942   -77443.34133240
  entropy T*S    EENTRO =        -0.00000000
  eigenvalues    EBANDS =     -5360.81697075
  atomic energy  EATOM  =     64968.54023382
  Solvation  Ediel_sol  =         0.00000000
  ---------------------------------------------------
  free energy    TOTEN  =      -931.80849471 eV

  energy without entropy =     -931.80849471  energy(sigma->0) =     -931.80849471


--------------------------------------------------------------------------------------------------------




--------------------------------------- Iteration      1(   8)  ---------------------------------------


    POTLOK:  cpu time    0.0866: real time    0.0922
    SETDIJ:  cpu time    0.2828: real time    0.2836
     EDDAV:  cpu time   35.8911: real time   35.9818
       DOS:  cpu time    0.0012: real time    0.0012
    CHARGE:  cpu time    1.0637: real time    1.0664
    MIXING:  cpu time    0.0036: real time    0.0036
    --------------------------------------------
      LOOP:  cpu time   37.3290: real time   37.4288

 eigenvalue-minimisations  : 10648
 total energy-change (2. order) : 0.6652398E+00  (-0.8971221E+00)
 number of electron     864.0000007 magnetization 
 augmentation part      120.3833459 magnetization 

 Broyden mixing:
  rms(total) = 0.66586E+00    rms(broyden)= 0.66578E+00
  rms(prec ) = 0.76697E+00
  weight for this iteration     100.00

 eigenvalues of (default mixing * dielectric matrix)
  average eigenvalue GAMMA=   1.3654
  2.1151  0.9906  0.9906

 Free energy of the ion-electron system (eV)
  ---------------------------------------------------
  alpha Z        PSCENC =      3473.39795963
  Ewald energy   TEWEN  =    -53037.12536844
  -Hartree energ DENC   =    -14631.19414586
  -exchange      EXHF   =         0.00000000
  -V(xc)+E(xc)   XCENC  =      3300.18069186
  PAW double counting   =     84786.33395523   -84422.82169950
  entropy T*S    EENTRO =        -0.00000000
  eigenvalues    EBANDS =     -5368.45488166
  atomic energy  EATOM  =     64968.54023382
  Solvation  Ediel_sol  =         0.00000000
  ---------------------------------------------------
  free energy    TOTEN  =      -931.14325493 eV

  energy without entropy =     -931.14325493  energy(sigma->0) =     -931.14325493


--------------------------------------------------------------------------------------------------------




--------------------------------------- Iteration      1(   9)  ---------------------------------------


    POTLOK:  cpu time    0.0847: real time    0.0901
    SETDIJ:  cpu time    0.2824: real time    0.2834
     EDDAV:  cpu time   34.1816: real time   34.2991
       DOS:  cpu time    0.0010: real time    0.0010
    CHARGE:  cpu time    1.0487: real time    1.0697
    MIXING:  cpu time    0.0031: real time    0.0031
    --------------------------------------------
      LOOP:  cpu time   35.6015: real time   35.7464

 eigenvalue-minimisations  :  9880
 total energy-change (2. order) : 0.2074559E+00  (-0.1750504E+00)
 number of electron     864.0000007 magnetization 
 augmentation part      119.8585666 magnetization 

 Broyden mixing:
  rms(total) = 0.19322E+00    rms(broyden)= 0.19320E+00
  rms(prec ) = 0.22350E+00
  weight for this iteration     100.00

 eigenvalues of (default mixing * dielectric matrix)
  average eigenvalue GAMMA=   1.3820
  2.3116  1.2921  0.9622  0.9622

 Free energy of the ion-electron system (eV)
  ---------------------------------------------------
  alpha Z        PSCENC =      3473.39795963
  Ewald energy   TEWEN  =    -53037.12536844
  -Hartree energ DENC   =    -14684.03694167
  -exchange      EXHF   =         0.00000000
  -V(xc)+E(xc)   XCENC  =      3304.47610547
  PAW double counting   =     89945.63379096   -89606.28829972
  entropy T*S    EENTRO =        -0.00000000
  eigenvalues    EBANDS =     -5295.53327910
  atomic energy  EATOM  =     64968.54023382
  Solvation  Ediel_sol  =         0.00000000
  ---------------------------------------------------
  free energy    TOTEN  =      -930.93579905 eV

  energy without entropy =     -930.93579905  energy(sigma->0) =     -930.93579905


--------------------------------------------------------------------------------------------------------




--------------------------------------- Iteration      1(  10)  ---------------------------------------


    POTLOK:  cpu time    0.0826: real time    0.0928
    SETDIJ:  cpu time    0.2788: real time    0.2838
     EDDAV:  cpu time   37.3791: real time   37.9757
       DOS:  cpu time    0.0011: real time    0.0011
    CHARGE:  cpu time    1.0663: real time    1.0689
    MIXING:  cpu time    0.0047: real time    0.0047
    --------------------------------------------
      LOOP:  cpu time   38.8126: real time   39.4269

 eigenvalue-minimisations  : 11376
 total energy-change (2. order) :-0.6864438E-01  (-0.8339597E-01)
 number of electron     864.0000007 magnetization 
 augmentation part      119.6810299 magnetization 

 Broyden mixing:
  rms(total) = 0.13935E+00    rms(broyden)= 0.13933E+00
  rms(prec ) = 0.15853E+00
  weight for this iteration     100.00

 eigenvalues of (default mixing * dielectric matrix)
  average eigenvalue GAMMA=   1.3281
  2.4029  1.2974  1.1975  0.8713  0.8713

 Free energy of the ion-electron system (eV)
  ---------------------------------------------------
  alpha Z        PSCENC =      3473.39795963
  Ewald energy   TEWEN  =    -53037.12536844
  -Hartree energ DENC   =    -14691.65278217
  -exchange      EXHF   =         0.00000000
  -V(xc)+E(xc)   XCENC  =      3305.16442730
  PAW double counting   =     90701.68833438   -90365.91587800
  entropy T*S    EENTRO =        -0.00000000
  eigenvalues    EBANDS =     -5285.10136996
  atomic energy  EATOM  =     64968.54023382
  Solvation  Ediel_sol  =         0.00000000
  ---------------------------------------------------
  free energy    TOTEN  =      -931.00444343 eV

  energy without entropy =     -931.00444343  energy(sigma->0) =     -931.00444343


--------------------------------------------------------------------------------------------------------




--------------------------------------- Iteration      1(  11)  ---------------------------------------


    POTLOK:  cpu time    0.0863: real time    0.0936
    SETDIJ:  cpu time    0.2824: real time    0.2832
     EDDAV:  cpu time   37.2022: real time   37.3079
       DOS:  cpu time    0.0012: real time    0.0012
    CHARGE:  cpu time    1.0745: real time    1.0771
    MIXING:  cpu time    0.0038: real time    0.0038
    --------------------------------------------
      LOOP:  cpu time   38.6504: real time   38.7668

 eigenvalue-minimisations  : 11000
 total energy-change (2. order) : 0.4002233E-02  (-0.1356757E-01)
 number of electron     864.0000007 magnetization 
 augmentation part      119.6535310 magnetization 

 Broyden mixing:
  rms(total) = 0.66405E-01    rms(broyden)= 0.66397E-01
  rms(prec ) = 0.72720E-01
  weight for this iteration     100.00

 eigenvalues of (default mixing * dielectric matrix)
  average eigenvalue GAMMA=   1.3905
  2.3801  2.1035  1.0066  1.0066  0.9231  0.9231

 Free energy of the ion-electron system (eV)
  ---------------------------------------------------
  alpha Z        PSCENC =      3473.39795963
  Ewald energy   TEWEN  =    -53037.12536844
  -Hartree energ DENC   =    -14696.43353765
  -exchange      EXHF   =         0.00000000
  -V(xc)+E(xc)   XCENC  =      3305.49902505
  PAW double counting   =     90555.41844331   -90219.21253044
  entropy T*S    EENTRO =        -0.00000000
  eigenvalues    EBANDS =     -5281.08466648
  atomic energy  EATOM  =     64968.54023382
  Solvation  Ediel_sol  =         0.00000000
  ---------------------------------------------------
  free energy    TOTEN  =      -931.00044120 eV

  energy without entropy =     -931.00044120  energy(sigma->0) =     -931.00044120


--------------------------------------------------------------------------------------------------------




--------------------------------------- Iteration      1(  12)  ---------------------------------------


    POTLOK:  cpu time    0.0850: real time    0.0930
    SETDIJ:  cpu time    0.2817: real time    0.2832
     EDDAV:  cpu time   36.2489: real time   36.4155
       DOS:  cpu time    0.0012: real time    0.0011
    CHARGE:  cpu time    1.0691: real time    1.0718
    MIXING:  cpu time    0.0044: real time    0.0044
    --------------------------------------------
      LOOP:  cpu time   37.6901: real time   37.8690

 eigenvalue-minimisations  : 10640
 total energy-change (2. order) :-0.2658340E-02  (-0.2852131E-02)
 number of electron     864.0000007 magnetization 
 augmentation part      119.6664524 magnetization 

 Broyden mixing:
  rms(total) = 0.18723E-01    rms(broyden)= 0.18717E-01
  rms(prec ) = 0.21581E-01
  weight for this iteration     100.00

 eigenvalues of (default mixing * dielectric matrix)
  average eigenvalue GAMMA=   1.3970
  2.4921  2.4921  0.9624  1.0201  1.0201  0.8962  0.8962

 Free energy of the ion-electron system (eV)
  ---------------------------------------------------
  alpha Z        PSCENC =      3473.39795963
  Ewald energy   TEWEN  =    -53037.12536844
  -Hartree energ DENC   =    -14696.12328231
  -exchange      EXHF   =         0.00000000
  -V(xc)+E(xc)   XCENC  =      3305.45332135
  PAW double counting   =     90285.47464125   -89947.73975903
  entropy T*S    EENTRO =        -0.00000000
  eigenvalues    EBANDS =     -5282.88084581
  atomic energy  EATOM  =     64968.54023382
  Solvation  Ediel_sol  =         0.00000000
  ---------------------------------------------------
  free energy    TOTEN  =      -931.00309954 eV

  energy without entropy =     -931.00309954  energy(sigma->0) =     -931.00309954


--------------------------------------------------------------------------------------------------------




--------------------------------------- Iteration      1(  13)  ---------------------------------------


    POTLOK:  cpu time    0.0850: real time    0.0925
    SETDIJ:  cpu time    0.2825: real time    0.2832
     EDDAV:  cpu time   39.4031: real time   39.5096
       DOS:  cpu time    0.0011: real time    0.0011
    CHARGE:  cpu time    1.0690: real time    1.0715
    MIXING:  cpu time    0.0048: real time    0.0048
    --------------------------------------------
      LOOP:  cpu time   40.8455: real time   40.9627

 eigenvalue-minimisations  : 12000
 total energy-change (2. order) :-0.8007905E-03  (-0.3486914E-03)
 number of electron     864.0000007 magnetization 
 augmentation part      119.6711506 magnetization 

 Broyden mixing:
  rms(total) = 0.89983E-02    rms(broyden)= 0.89968E-02
  rms(prec ) = 0.10818E-01
  weight for this iteration     100.00

 eigenvalues of (default mixing * dielectric matrix)
  average eigenvalue GAMMA=   1.3707
  2.5222  2.5222  1.1366  1.1366  0.9106  0.9106  0.9135  0.9135

 Free energy of the ion-electron system (eV)
  ---------------------------------------------------
  alpha Z        PSCENC =      3473.39795963
  Ewald energy   TEWEN  =    -53037.12536844
  -Hartree energ DENC   =    -14697.14450519
  -exchange      EXHF   =         0.00000000
  -V(xc)+E(xc)   XCENC  =      3305.50169334
  PAW double counting   =     90173.42727826   -89834.91072951
  entropy T*S    EENTRO =        -0.00000000
  eigenvalues    EBANDS =     -5282.69046224
  atomic energy  EATOM  =     64968.54023382
  Solvation  Ediel_sol  =         0.00000000
  ---------------------------------------------------
  free energy    TOTEN  =      -931.00390033 eV

  energy without entropy =     -931.00390033  energy(sigma->0) =     -931.00390033


--------------------------------------------------------------------------------------------------------




--------------------------------------- Iteration      1(  14)  ---------------------------------------


    POTLOK:  cpu time    0.0866: real time    0.0944
    SETDIJ:  cpu time    0.2823: real time    0.2830
     EDDAV:  cpu time   38.6441: real time   38.7594
       DOS:  cpu time    0.0011: real time    0.0011
    CHARGE:  cpu time    1.0766: real time    1.0797
    MIXING:  cpu time    0.0044: real time    0.0045
    --------------------------------------------
      LOOP:  cpu time   40.0951: real time   40.2220

 eigenvalue-minimisations  : 11624
 total energy-change (2. order) :-0.4691690E-04  (-0.1096178E-03)
 number of electron     864.0000007 magnetization 
 augmentation part      119.6671363 magnetization 

 Broyden mixing:
  rms(total) = 0.59173E-02    rms(broyden)= 0.59166E-02
  rms(prec ) = 0.66961E-02
  weight for this iteration     100.00

 eigenvalues of (default mixing * dielectric matrix)
  average eigenvalue GAMMA=   1.3439
  2.6218  2.4799  1.4861  0.9877  0.9877  0.9238  0.9238  0.8420  0.8420

 Free energy of the ion-electron system (eV)
  ---------------------------------------------------
  alpha Z        PSCENC =      3473.39795963
  Ewald energy   TEWEN  =    -53037.12536844
  -Hartree energ DENC   =    -14697.89439784
  -exchange      EXHF   =         0.00000000
  -V(xc)+E(xc)   XCENC  =      3305.54430048
  PAW double counting   =     90179.76426791   -89841.08975390
  entropy T*S    EENTRO =        -0.00000000
  eigenvalues    EBANDS =     -5282.14118892
  atomic energy  EATOM  =     64968.54023382
  Solvation  Ediel_sol  =         0.00000000
  ---------------------------------------------------
  free energy    TOTEN  =      -931.00394725 eV

  energy without entropy =     -931.00394725  energy(sigma->0) =     -931.00394725


--------------------------------------------------------------------------------------------------------




--------------------------------------- Iteration      1(  15)  ---------------------------------------


    POTLOK:  cpu time    0.0847: real time    0.0917
    SETDIJ:  cpu time    0.2825: real time    0.2833
     EDDAV:  cpu time   36.8205: real time   36.9481
       DOS:  cpu time    0.0011: real time    0.0011
    CHARGE:  cpu time    1.0724: real time    1.0751
    MIXING:  cpu time    0.0040: real time    0.0040
    --------------------------------------------
      LOOP:  cpu time   38.2651: real time   38.4034

 eigenvalue-minimisations  : 10880
 total energy-change (2. order) :-0.1054142E-04  (-0.2047535E-04)
 number of electron     864.0000007 magnetization 
 augmentation part      119.6674647 magnetization 

 Broyden mixing:
  rms(total) = 0.30237E-02    rms(broyden)= 0.30231E-02
  rms(prec ) = 0.35034E-02
  weight for this iteration     100.00

 eigenvalues of (default mixing * dielectric matrix)
  average eigenvalue GAMMA=   1.3862
  2.7617  2.2818  2.2818  0.9866  0.9888  0.9888  0.8909  0.8909  0.8954  0.8954

 Free energy of the ion-electron system (eV)
  ---------------------------------------------------
  alpha Z        PSCENC =      3473.39795963
  Ewald energy   TEWEN  =    -53037.12536844
  -Hartree energ DENC   =    -14698.21891466
  -exchange      EXHF   =         0.00000000
  -V(xc)+E(xc)   XCENC  =      3305.56201236
  PAW double counting   =     90188.56960606   -89849.82714162
  entropy T*S    EENTRO =        -0.00000000
  eigenvalues    EBANDS =     -5281.90234494
  atomic energy  EATOM  =     64968.54023382
  Solvation  Ediel_sol  =         0.00000000
  ---------------------------------------------------
  free energy    TOTEN  =      -931.00395779 eV

  energy without entropy =     -931.00395779  energy(sigma->0) =     -931.00395779


--------------------------------------------------------------------------------------------------------




--------------------------------------- Iteration      1(  16)  ---------------------------------------


    POTLOK:  cpu time    0.0846: real time    0.0907
    SETDIJ:  cpu time    0.2831: real time    0.2838
     EDDAV:  cpu time   33.9025: real time   34.0041
       DOS:  cpu time    0.0011: real time    0.0011
    CHARGE:  cpu time    1.0777: real time    1.0803
    MIXING:  cpu time    0.0068: real time    0.0068
    --------------------------------------------
      LOOP:  cpu time   35.3558: real time   35.4669

 eigenvalue-minimisations  :  9904
 total energy-change (2. order) :-0.1968656E-05  (-0.5190465E-05)
 number of electron     864.0000007 magnetization 
 augmentation part      119.6657877 magnetization 

 Broyden mixing:
  rms(total) = 0.97884E-03    rms(broyden)= 0.97713E-03
  rms(prec ) = 0.13008E-02
  weight for this iteration     100.00

 eigenvalues of (default mixing * dielectric matrix)
  average eigenvalue GAMMA=   1.3880
  2.8734  2.3332  2.3332  1.1613  0.9445  1.0184  1.0184  0.9220  0.9220  0.8707
  0.8707

 Free energy of the ion-electron system (eV)
  ---------------------------------------------------
  alpha Z        PSCENC =      3473.39795963
  Ewald energy   TEWEN  =    -53037.12536844
  -Hartree energ DENC   =    -14698.59283949
  -exchange      EXHF   =         0.00000000
  -V(xc)+E(xc)   XCENC  =      3305.58366602
  PAW double counting   =     90201.20966094   -89862.43634489
  entropy T*S    EENTRO =        -0.00000000
  eigenvalues    EBANDS =     -5281.58092734
  atomic energy  EATOM  =     64968.54023382
  Solvation  Ediel_sol  =         0.00000000
  ---------------------------------------------------
  free energy    TOTEN  =      -931.00395976 eV

  energy without entropy =     -931.00395976  energy(sigma->0) =     -931.00395976


--------------------------------------------------------------------------------------------------------




--------------------------------------- Iteration      1(  17)  ---------------------------------------


    POTLOK:  cpu time    0.0857: real time    0.0930
    SETDIJ:  cpu time    0.2824: real time    0.2832
     EDDAV:  cpu time   39.1866: real time   39.3288
       DOS:  cpu time    0.0012: real time    0.0012
    CHARGE:  cpu time    1.0761: real time    1.0791
    MIXING:  cpu time    0.0042: real time    0.0042
    --------------------------------------------
      LOOP:  cpu time   40.6361: real time   40.7894

 eigenvalue-minimisations  : 11808
 total energy-change (2. order) : 0.1139706E-06  (-0.2272224E-05)
[...]
   0.539E+02 -.958E+02 0.963E+02   -.673E+02 0.122E+03 -.125E+03   0.118E+02 -.233E+02 0.276E+02   -.178E-03 0.207E-02 0.652E-03
   -.179E+02 0.142E+02 -.171E+01   0.170E+02 -.167E+02 0.279E+01   0.242E+01 0.360E+01 -.103E+01   0.124E-02 -.110E-02 0.348E-03
   0.116E+03 0.645E+02 0.552E+02   -.121E+03 -.735E+02 -.425E+02   0.428E+00 0.331E+01 -.154E+02   -.706E-03 -.162E-02 -.119E-02
   -.166E+02 0.788E+02 -.177E+02   0.117E+02 -.742E+02 0.145E+02   0.791E+01 -.576E+01 0.580E+01   -.124E-02 -.536E-03 -.900E-03
   0.664E+02 -.702E+02 0.708E+02   -.893E+02 0.863E+02 -.102E+03   0.192E+02 -.865E+01 0.229E+02   0.103E-02 -.193E-02 0.134E-02
   -.123E+02 0.562E+02 0.407E+02   0.228E+02 -.576E+02 -.611E+02   -.130E+02 0.212E+01 0.210E+02   0.614E-03 0.873E-03 -.116E-02
   -.364E+02 0.648E+02 0.129E+02   0.266E+02 -.653E+02 -.374E+02   0.116E+02 -.420E+00 0.245E+02   0.158E-02 -.650E-03 -.288E-03
   -.182E+02 0.750E+02 0.397E+02   0.222E+02 -.794E+02 -.181E+02   -.320E+01 0.543E+01 -.239E+02   0.139E-02 -.166E-02 0.414E-03
   -.470E+02 -.686E+02 0.563E+01   0.621E+02 0.574E+02 -.506E+01   -.140E+02 0.113E+02 -.227E+01   0.145E-03 0.109E-02 -.997E-03
   -.730E+01 0.251E+02 -.950E+02   0.858E+01 -.338E+02 0.111E+03   -.309E+00 0.906E+01 -.154E+02   -.104E-02 -.112E-02 -.151E-02
   -.266E+02 0.505E+02 -.231E+02   0.304E+02 -.615E+02 0.366E+02   -.323E+01 0.126E+02 -.125E+02   0.119E-03 -.197E-02 -.173E-02
   -.520E+01 0.344E+02 -.336E+02   -.290E+01 -.265E+02 0.442E+02   0.104E+02 -.110E+02 -.122E+02   0.743E-03 -.151E-03 0.841E-03
   -.183E+02 -.403E+02 -.226E+02   0.475E+01 0.428E+02 0.329E+02   0.169E+02 -.258E+01 -.120E+02   -.149E-02 -.356E-03 0.162E-02
   0.598E-01 -.313E+02 0.151E+03   0.393E+01 0.236E+02 -.152E+03   -.475E+01 0.858E+01 -.453E+01   -.432E-03 -.152E-02 -.309E-03
   0.778E+01 -.140E+01 -.456E+02   -.723E+01 -.353E+01 0.454E+02   -.908E-01 0.469E+01 0.140E+01   -.775E-03 -.111E-02 0.577E-03
   0.811E+02 0.717E+02 -.139E+03   -.945E+02 -.642E+02 0.157E+03   0.147E+02 -.107E+02 -.206E+02   -.131E-02 0.192E-02 0.164E-02
   0.406E+02 0.150E+02 0.663E+00   -.314E+02 0.619E+01 -.656E+00   -.127E+02 -.237E+02 0.619E+00   0.814E-03 -.767E-03 -.142E-02
   -.775E+01 -.677E+02 0.441E+02   -.105E+01 0.675E+02 -.456E+02   0.903E+01 -.555E+00 0.574E-01   -.807E-03 0.709E-03 -.116E-02
   0.233E+02 0.648E+02 0.126E+03   -.814E+01 -.550E+02 -.130E+03   -.185E+02 -.818E+01 -.101E+00   -.303E-03 -.585E-03 -.141E-02
   -.354E+02 0.274E+02 -.274E+02   0.180E+02 -.384E+02 0.272E+02   0.188E+02 0.104E+02 -.937E+00   0.748E-03 -.191E-02 -.131E-02
   0.488E+01 -.661E+02 -.543E+02   -.794E+01 0.685E+02 0.575E+02   0.391E+01 -.228E+01 -.346E+01   0.498E-03 0.103E-02 0.119E-02
   0.381E+02 0.642E+02 -.847E+02   -.369E+02 -.802E+02 0.925E+02   -.324E+01 0.189E+02 -.580E+01   -.145E-02 -.206E-02 -.438E-03
   0.391E+02 -.432E+02 -.233E+02   -.474E+02 0.507E+02 0.125E+02   0.739E+01 -.563E+01 0.818E+01   -.993E-03 -.225E-02 0.128E-02
   -.391E+01 -.107E+03 -.562E+02   0.227E+02 0.116E+03 0.559E+02   -.169E+02 -.497E+01 0.427E+01   -.719E-03 0.670E-03 0.199E-03
   0.402E+02 0.485E+02 0.253E+01   -.693E+02 -.541E+02 -.306E+01   0.278E+02 0.695E+01 0.124E-01   0.294E-03 -.130E-02 -.125E-02
   -.166E+02 -.166E+02 0.156E+02   0.341E+02 0.184E+02 -.154E+02   -.194E+02 -.174E+01 0.559E+00   -.131E-02 0.222E-02 -.876E-03
   -.429E+02 0.699E+02 -.125E+02   0.316E+02 -.786E+02 0.113E+02   0.131E+02 0.967E+01 0.865E+00   0.925E-03 -.125E-02 0.170E-02
   -.235E+00 -.131E+03 0.417E+02   -.345E+01 0.121E+03 -.349E+02   0.525E+01 0.151E+02 -.763E+01   0.311E-04 0.870E-03 -.159E-02
   -.298E+02 -.484E+02 -.847E+01   0.211E+02 0.478E+02 0.874E+00   0.824E+01 0.379E+01 0.686E+01   -.364E-03 0.234E-03 0.805E-04
   0.151E+03 0.984E+02 0.174E+02   -.166E+03 -.110E+03 -.221E+02   0.154E+02 0.104E+02 0.189E+01   -.173E-02 -.768E-03 0.106E-02
   0.200E+02 -.543E+02 -.140E+02   -.222E+02 0.700E+02 0.130E+02   -.722E+00 -.136E+02 0.296E+01   -.793E-03 -.168E-02 0.972E-03
   -.746E+02 0.161E+02 0.303E+02   0.689E+02 -.288E+02 -.165E+02   0.750E+01 0.132E+02 -.160E+02   0.445E-03 0.827E-03 -.182E-02
   -.726E+02 0.114E+02 -.455E+01   0.758E+02 0.504E+01 -.207E+00   -.339E+01 -.183E+02 0.368E+01   0.564E-03 0.107E-03 0.374E-03
   -.425E+02 -.736E+02 -.122E+03   0.559E+02 0.962E+02 0.128E+03   -.123E+02 -.227E+02 -.413E+01   0.105E-02 0.195E-02 0.168E-02
   0.174E+02 0.611E+02 0.237E+02   -.187E+02 -.612E+02 -.128E+02   0.330E+01 -.277E+01 -.957E+01   -.128E-02 0.985E-03 0.768E-03
   0.846E+02 -.626E+02 -.620E+02   -.103E+03 0.724E+02 0.757E+02   0.135E+02 -.897E+01 -.112E+02   -.431E-03 -.172E-02 0.142E-02
   0.266E+02 -.136E+02 -.126E+01   -.445E+02 -.895E+01 0.372E+01   0.171E+02 0.234E+02 -.273E+01   -.108E-03 0.188E-02 0.122E-02
   -.411E+02 -.255E+02 0.389E+02   0.565E+02 0.271E+02 -.464E+02   -.147E+02 -.272E+01 0.891E+01   -.676E-03 -.856E-05 0.417E-03
   -.665E+02 0.396E+02 0.844E+01   0.616E+02 -.438E+02 0.634E+01   0.649E+01 0.217E+01 -.135E+02   -.114E-02 -.644E-03 0.141E-02
   0.348E+02 -.758E+01 -.212E+02   -.281E+02 0.888E+01 0.378E+02   -.876E+01 0.148E+00 -.152E+02   -.193E-03 -.454E-03 0.275E-03
   0.101E+03 -.563E+02 0.862E+01   -.113E+03 0.568E+02 -.424E+01   0.115E+02 0.110E+01 -.404E+01   -.403E-03 -.428E-03 -.123E-02
   0.638E+02 0.332E+02 0.283E+02   -.706E+02 -.492E+02 -.187E+02   0.646E+01 0.140E+02 -.106E+02   0.105E-02 0.127E-02 -.229E-03
   -.786E+02 -.222E+02 0.267E+02   0.791E+02 0.217E+02 -.248E+02   0.179E+00 0.129E+01 -.137E+01   0.189E-03 0.192E-02 -.173E-03
   0.380E+02 0.161E+01 0.690E+02   -.319E+02 -.228E+02 -.930E+02   -.883E+01 0.181E+02 0.228E+02   -.118E-02 -.102E-02 0.409E-03
   0.582E+01 0.244E+02 0.264E+02   -.323E+02 -.178E+02 -.353E+02   0.283E+02 -.553E+01 0.763E+01   0.349E-03 -.133E-02 -.129E-02
   -.442E+02 0.113E+03 -.379E+02   0.407E+02 -.114E+03 0.354E+02   0.526E+01 -.605E+00 0.294E+01   -.141E-02 0.152E-02 0.106E-02
   0.279E+02 -.128E+03 0.617E+01   -.351E+02 0.153E+03 -.749E+01   0.801E+01 -.260E+02 0.339E+00   -.137E-02 0.125E-02 0.975E-03
   0.189E+02 0.292E+02 -.331E+02   -.402E+02 -.423E+02 0.248E+02   0.194E+02 0.770E+01 0.934E+01   0.440E-03 -.119E-02 0.823E-03
 -----------------------------------------------------------------------------------------------
   -.161E+03 0.563E+02 -.141E+02   -.142E-13 -.242E-12 -.497E-13   0.161E+03 -.563E+02 0.141E+02   -.283E-02 -.839E-02 0.895E-03
 
 
 POSITION                                       TOTAL-FORCE (eV/Angst)
 -----------------------------------------------------------------------------------
      0.97390      6.65182      9.24443         0.962030      1.437937     -1.233538
      0.81927      6.53868      5.85648        -0.218277     -0.087518      0.287354
      9.03644      3.20589      1.99870        -0.901106     -1.230469      0.090999
      4.47224      2.35106      6.44955        -1.723078     -0.785597      0.814246
      6.97384      9.10904     10.96184         0.848910     -1.103294     -0.933169
      0.08589     10.34171      9.69850         0.604526      0.338152      1.244397
      8.19250      3.40377      9.78718         1.404753     -3.337629     -1.769495
      5.49261      0.34970      8.65543        -1.435954     -2.216317     -1.182952
      9.25282      4.28499      4.90670         0.831615     -0.147307      0.123664
      3.31793      5.11411      3.51040         1.385703      1.390293      0.597130
      1.96495      0.00459      5.27907        -0.009549      0.487885      0.204929
      6.59407      1.21778      3.76045        -0.860463     -0.140979     -1.789649
      9.09119      7.53276      8.96033         1.229450      2.301634     -0.158354
      5.48039      7.74191      4.50139        -0.116724     -1.041127     -0.936815
      7.87442      9.79489      5.99306         0.570476      0.390124     -0.889265
     10.78153      8.93210      3.75949        -1.534425      1.382702      0.063316
      4.35455      9.71530      1.75361        -0.677226      0.413000      1.934896
      1.54952      7.58967      0.83145         1.845240     -1.022503      1.126662
      3.44951      1.43921     10.60103        -0.259842      0.938724      1.770504
     10.94413      1.77434      7.11884        -1.216521     -2.022449     -1.057475
     10.57667      5.09149      0.28539        -1.720553      2.682261     -0.137601
      8.89795      0.56327      0.65869         2.932698     -1.209332      3.545392
      7.74860      6.39881      2.23854         4.856008      0.008830      3.479701
      5.78532      4.05629      1.57776        -0.196059     -1.211348     -1.266919
      2.31431      4.15558      8.48813         0.432271     -2.799608      0.370040
      6.74118      5.08442      7.18787         2.326933      1.896029      1.515051
      2.86644      8.71505      7.23089         0.102993      0.217698      0.845652
      7.36681      5.81098     10.44813         0.380976      0.298758      1.117855
      4.77883      7.50466      9.79176        -0.388464      5.255847      0.755130
     11.00763      9.38992      6.86346        -0.588214     -3.072517     -0.827595
      3.94731      5.62722      6.44274         1.653691     -1.054062     -1.917128
      3.66302      1.90203      3.16000         0.067860     -1.317356     -2.284237
      6.30884      4.21712      4.50449        -3.305781      1.405768     -3.632273
      5.25798      3.49654      9.02105        -5.531261     -5.094523      0.520019
     10.27414      4.66967      7.73374        -4.199846      0.176319     -0.573288
      6.18744      0.86662      0.70160        -1.936976      1.013875      2.535495
      3.47902      5.29050     10.82791         5.825238     -2.574762      1.284580
     11.11670      6.09894      2.90534        -1.203968      2.946480      1.609701
      2.49213      8.24371      4.20182        -0.296580     -2.061387     -1.219985
      9.28095      0.84775      4.39946         2.982951     -0.646060     -0.554992
      1.75213      3.75687      1.54610         1.892863     -0.727293      3.082081
      8.73467      7.12963      5.38451         2.893438      2.412314      1.261984
      8.46990     10.95715      8.55607         2.074557     -0.184539      2.984441
      0.70830      2.07396      3.53908        -3.419057     -0.545616      2.460016
      7.49121      9.30088      2.81978        -1.373280      2.472050      3.439909
     10.04448      8.53594      0.75996        -3.541692     -0.760642     -2.686907
      7.30392      1.97558      6.68196        -0.136346      0.757098     -3.417709
      5.96737      8.06333      7.45477         1.011218      0.823908      2.631493
      4.77045     10.74230      5.40021         1.343178     -0.515776     -0.914868
      5.17338      6.88076      1.66056        -2.177411      3.134704      2.619866
      1.75089      3.47185      5.78941         3.598792     -6.165102      7.011689
      1.35683     10.66462      1.94156         0.314292      0.789909      0.741364
      2.89898      9.91644     10.22802         3.372929     -6.300609      3.124961
      0.25924      2.26430     10.70029         0.853979     -3.195180      2.259487
      4.40732      7.84083      0.27641         2.984356      1.447697     -0.254505
      1.82839      2.97960      0.16405        -2.791286     -1.686338     -2.690012
      1.23453      7.31850      3.55687        -2.476896     -3.849387     -1.508697
      2.71554      8.28690      9.69021         0.328289      1.095134     -0.342477
      9.71258      8.46377      5.93044         1.378281      0.464469     -0.606547
     10.09063     10.86460      5.36935        -1.071740      1.405370     -0.832129
      6.18996      4.52884      9.58713         6.207706      3.355633      2.189915
      9.83741      6.15593      6.83495         1.152163     -3.502484      1.648685
      2.72249      0.76833      2.07035        -0.363045     -1.568613     -1.891251
     10.55358      7.12776      1.63882         3.562787     -1.168836      2.411913
      5.70027      9.25186      6.39073        -0.146814      1.219796     -1.273981
     11.05714      8.05726     10.45176         0.487228     -0.064413      1.493611
      8.60274      0.90043      9.86138        -0.440584     -0.974741     -5.043348
      8.26684      0.76639      7.22391         1.315946     -1.859119      1.283760
      9.23050      9.61794     10.78562        -0.980757     -0.253067      0.813187
      5.15258      0.84306      2.02385        -1.782147      1.184127     -1.117515
      6.40751      2.24720      8.01957         0.440637      2.393205      1.204525
      2.04862      9.42588      3.12947        -1.804932      2.964996     -2.651160
      7.78291      7.72351      7.12437        -4.746490     -0.374602     -0.763677
      7.36758      4.02573      3.28820         0.652261     -0.523471      1.406971
      7.04278      2.08597      1.22303         3.570666      1.137872      1.161538
      7.05566     10.56289      1.48909        -0.526770      0.975978     -2.300766
      5.80438     10.10652      3.80728        -0.702264      0.396628      2.340100
      0.59426      7.99344      7.74425        -0.462379      2.292636     -1.919303
      8.37070      5.62822      9.12553        -1.533744     -1.556972      0.306266
     10.95047      9.77910      1.41377         2.098934      0.065734      2.478092
      1.95483      2.07029      6.71250        -0.073366      1.602035     -1.568025
      5.83992      1.56255     10.35493         0.151701     -1.483070      1.914739
      0.40253      3.89597      6.98503         0.586938      2.292119      0.651127
     10.15519      3.07471      0.11843        -1.833183      0.432345      0.803680
      8.94718      7.01875      0.13056        -2.986890     -0.252630     -1.178339
      9.92040      9.63137      8.15096        -3.527171      2.887762     -0.076711
      3.28523      4.01361      5.95358        -0.714824      2.762739     -1.412849
      2.29231     10.95523      9.32554        -1.649893      2.650390     -1.308989
     10.06699      6.51753      4.33011         1.503885      1.135402      0.054733
      4.21559      5.74285      1.11316        -5.000909     -5.649424     -2.704957
      4.85015      3.34042      3.60831         3.066263     -1.089791      2.525648
      1.05421      4.09774      4.70991        -3.715533      7.360317     -8.144388
      9.76337      1.21622      2.84368        -2.530403      0.703793      0.510253
     11.03391      2.10814      9.17870         1.797718     -0.929214      0.003161
     10.75706      4.77495      9.29551         0.770397      0.996771     -2.285012
      8.82161      8.65296      2.19830         1.157336      0.155684     -1.707631
      5.61754      5.85782      2.96142         0.973688      0.327805      0.786410
      7.92071      4.51156      0.34892         0.549563      1.552410      0.986980
     10.55984      2.46427      4.79001         2.266982     -3.092006     -1.620841
      4.64591      6.99780      7.22863         3.384660     -0.100192     -1.621645
      6.44329      6.19483      0.81549        -0.759832      0.817714     -5.739344
      3.07181      6.73972      5.05446         0.456399     -0.237067      1.157096
      3.80712      0.14959      6.78211         1.316456     -3.184445     -2.004953
      1.74777      5.44822      1.89815        -3.502015     -2.486907      0.625152
      6.23397      8.31127      2.22677         0.238680     -0.789142     -1.391725
      3.26252      3.25956      2.25116        -3.408804      1.617731     -4.077004
      9.92503      4.99909      2.66421         1.474994     -0.607212     -1.169973
      1.22918      8.81450      5.48595         0.845897      0.135143     -0.282076
      4.23000      3.71899     10.50350        -2.030064      2.808201      2.010439
      4.72784      4.35046      7.76957        -0.917556      1.876425     -2.643472
      3.74987      9.08890      4.64818         1.911627      3.747295      3.937576
      1.93993      5.23592     10.62447        -1.249847      1.406943     -0.520824
      4.54666     10.42102     10.58912        -1.882821      0.063097      0.726469
      8.85832      3.58249      7.45317         1.753491      0.963513     -0.285547
      2.13285      9.52179      0.64360         1.563543      5.184292     -0.901611
      7.77330      8.00043      4.28276        -0.432005      3.152184     -0.732418
      4.03398      2.30638      8.81866         0.469786     -0.723040     -2.789961
      5.38595      5.31708      5.29699        -2.960093      2.144745      2.058644
      0.17121      0.86424      0.58854         1.862023      0.553816     -2.210274
      8.29708      2.05007      5.23755        -0.186635     -1.914149     -1.071337
      0.70381     10.75268      7.03083         1.090974     -0.076922      1.524640
      4.11317      0.98246      4.42275         1.971838     -2.884303      1.353112
      2.67959      5.90715      7.32291        -4.683504      0.808289      2.535862
      7.35457      9.83222      8.73029        -0.846197      0.837281     -0.268959
      6.44037      7.25985      9.44354         0.730008     -1.085369      1.410471
      6.50423      3.39588      5.85433         1.626596     -2.047556      1.266676
      2.28005      2.13996      4.08631        -2.091383      1.454150      1.385421
      3.82238      7.44179      2.65727        -0.479867      1.662253      0.348688
      0.76520      0.44151      3.37199        -0.338006     -1.904800     -1.038400
      8.14352     10.64075      3.80688         0.697091      0.765985      0.555853
      4.28562      6.07585      9.67749        -2.748470     -3.130631     -1.218416
      0.43052      3.08259      2.31816         1.799581      1.026712     -1.322055
      6.04130      0.95328      5.90866         1.737002     -2.158966      0.445330
      4.91242      8.80670      8.71600         0.786489     -0.464597     -0.980922
      7.73395      5.97644      5.11521        -1.972661     -5.412541      1.087517
 -----------------------------------------------------------------------------------
    total drift:                                0.012598      0.004330     -0.018351


--------------------------------------------------------------------------------------------------------



  FREE ENERGIE OF THE ION-ELECTRON SYSTEM (eV)
  ---------------------------------------------------
  free  energy   TOTEN  =      -931.00395929 eV

  energy  without entropy=     -931.00395929  energy(sigma->0) =     -931.00395929
 


--------------------------------------------------------------------------------------------------------


    POTLOK:  cpu time    0.3682: real time    0.3690


--------------------------------------------------------------------------------------------------------


     LOOP+:  cpu time  709.4122: real time  714.1900
    4ORBIT:  cpu time    0.0000: real time    0.0000

 total amount of memory used by VASP MPI-rank0   149109. kBytes
=======================================================================

   base      :      30000. kBytes
   nonlr-proj:      21569. kBytes
   fftplans  :      20560. kBytes
   grid      :      10967. kBytes
   one-center:        186. kBytes
   wavefun   :      65827. kBytes
 
  
  
 General timing and accounting informations for this job:
 ========================================================
  
                  Total CPU time used (sec):      725.832
                            User time (sec):      722.658
                          System time (sec):        3.175
                         Elapsed time (sec):      730.754
  
                   Maximum memory used (kb):      278320.
                   Average memory used (kb):           0.
  
                          Minor page faults:        66869
                          Major page faults:            0
                 Voluntary context switches:          422
