  2.7703503e-01   1.0612303e-02
  4.5580089e-02   1.2521332e-02
 -8.9059407e-01   1.1369237e-03
 -3.6009666e-02   1.3281853e-02
 -1.1702895e-01   7.2989655e-03
 -1.0106568e-02   8.9427410e-03
  2.9623446e-01   7.6026209e-03
 -2.5580436e-01   1.3471945e-03
 -1.5073523e-01   3.6591028e-03
  3.0713495e-02   1.8160759e-02
  1.2721111e-01   1.2221680e-02
  3.7780825e-02   2.1613163e-03
  2.2470509e-01   3.4586273e-03
 -6.2801503e-02   4.0456671e-03
  1.5630287e-01   2.4561713e-02
 -6.1843291e-02   1.8530700e-02
 -1.0431875e-01   3.3834044e-02
 -2.4606994e-01   9.8045208e-03
  5.6568839e-02   2.2433251e-02
 -1.6730863e-01   2.5150112e-03
  2.0016057e-02   2.4375489e-02
 -1.3309982e-01   2.2449430e-02
 -1.4132105e-01   1.0974553e-02
  1.0034075e-01   1.1740861e-02
 -2.4458703e-01   2.5408985e-02
 -1.4810739e-01   2.0222470e-02
  1.0818037e-01   5.8451230e-03
  1.4322457e-01   1.7336974e-02
  1.2563701e-01   1.9262050e-03
  2.2966333e-01   6.4525357e-03
 -1.7626239e-01   1.0355342e-02
  1.5430042e-01   1.7137524e-02
  1.6366214e-01   9.4899833e-03
 -1.7092315e-02   4.2921468e-03
  1.5774977e+00   4.1794810e-03
  9.9351197e-02   4.4897245e-03
 -1.1197908e-02   3.7061855e-02
  8.0340266e-02   1.5122890e-02
 -1.6355197e-01   6.0118526e-02
 -2.6875509e-02   1.9075191e-02
 -2.8225915e-03   8.7211896e-03
 -2.0671313e-01   2.1380153e-02
  8.5862511e-01   3.2563936e-03
  1.6920133e-04   3.5161797e-03
 -1.2443333e+00   1.2790002e-03
 -4.0851766e-01   4.7991485e-03
  4.1255739e-01   1.4242940e-03
 -7.7421224e-01   2.5016197e-03
 -7.2789766e-02   1.1321130e-03
  2.6151733e-02   4.2961715e-03
  1.4559679e-01   9.1514522e-03
 -1.8405929e-01   1.3855500e-02
  2.0004521e-01   1.2736576e-02
  7.8484185e-02   5.4711639e-03
 -2.3673540e-01   2.1842301e-03
  6.2666011e-01   5.6829921e-04
  5.5284720e-02   6.0886666e-03
  3.4813151e-01   1.7962616e-02
 -4.3107811e-02   8.1651341e-03
  2.1196654e-01   5.5560493e-03
 -6.9148093e-02   5.1321927e-03
  2.3049193e-02   4.3542734e-03
  3.5842001e-01   4.3102731e-03
 -3.1467836e-02   8.8216439e-03
  4.4337285e-01   1.3537908e-02
 -6.6375404e-05   1.1564057e-03
  2.4629119e-01   1.1470154e-02
 -7.9862133e-02   4.2143003e-03
  1.1668774e-04   1.8732174e-03
  3.4523711e-01   8.0594812e-03
  3.9292949e-01   1.1979374e-04
  2.7002472e-01   8.9886487e-03
  9.4498299e-02   8.4114000e-03
 -3.7710406e-02   1.2366280e-02
 -5.3030241e-02   4.2233020e-03
  1.3896422e-01   1.6147840e-03
  2.8365618e-01   1.0568609e-02
  1.3375758e-02   9.5861889e-03
 -8.4404185e-02   1.2042196e-02
 -1.1994764e-01   1.6844928e-02
  2.9926458e-02   1.5567605e-02
  3.6774199e-02   3.0111469e-02
 -3.0584630e-01   1.9160727e-02
 -1.3771728e-01   1.4422497e-02
 -2.4577628e-01   1.9442283e-02
 -7.6780722e-02   5.0545108e-02
 -3.7760086e-02   1.7228358e-03
 -1.8261689e-01   6.7405053e-03
 -1.3014762e-01   1.7561849e-02
 -1.3160759e-01   1.3793553e-02
  1.1658096e-01   2.1113842e-03
 -4.4761550e-02   3.2154571e-02
  4.8209426e-01   2.1203547e-03
  2.4585800e-02   8.1572831e-03
  1.6954964e-01   2.6875699e-03
  3.8241167e-03   3.1352263e-02
  1.3916430e-01   1.7449385e-02
 -4.2225078e-02   3.0608250e-02
 -1.5113029e-01   2.0432547e-03
  2.0044443e-01   8.2629891e-03
 -1.1066306e-01   8.0506029e-03
 -1.0979091e-01   1.6693339e-02
  1.4975595e-01   6.3255867e-03
 -1.6942019e-02   1.1707291e-02
  2.3453306e-02   4.5735352e-03
 -1.4332506e-01   8.0927899e-03
  1.6374458e-01   1.2507318e-02
 -5.6425974e-02   1.9681932e-02
  1.3452481e-01   7.6956013e-03
  1.2003675e-01   1.2551902e-02
 -1.6216417e-01   1.1248110e-02
 -4.8618838e-02   1.1989553e-02
 -1.8909839e-01   1.8703423e-02
  1.5848731e-01   4.4895937e-03
 -9.9534787e-02   8.5560475e-03
  1.7079949e-01   1.3722842e-02
  1.0562491e-01   5.5041565e-03
 -1.3611582e-01   3.0437019e-03
 -1.4952390e-02   9.6547352e-03
 -5.0897185e-02   1.4554388e-02
  2.4468870e-01   3.7222993e-02
 -5.9980545e-02   1.6747065e-02
 -2.3749885e-01   1.6247293e-02
 -1.0260808e-01   2.7305782e-02
  1.7362890e-01   2.0889657e-02
 -1.7247176e-01   2.8940302e-03
 -1.4482640e-01   1.2506113e-03
  3.1110263e-01   1.7406285e-03
  5.4582512e-01   6.2676345e-04
  1.1271346e-01   1.4638533e-03
 -3.1817368e-01   3.1901750e-04
 -2.6535743e-01   7.8454579e-04
 -4.3613347e-01   8.0907054e-04
  1.1555304e-01   2.6311225e-03
 -1.2074461e-01   1.6033089e-02
 -1.8135205e-01   9.1884825e-03
 -4.8563436e-02   8.6824382e-03
  1.1823474e-02   2.2648228e-03
 -4.7881874e-01   2.2446874e-03
  1.6513893e-01   2.5283038e-03
 -6.8772274e-01   2.2505267e-04
 -3.0909064e-01   1.2202326e-03
 -1.8524949e-01   1.2543824e-02
 -2.2109805e-01   6.3253702e-03
 -1.9612573e-01   3.7019292e-03
 -3.8984644e-01   3.7972874e-03
 -3.5727483e-01   1.3386684e-02
 -6.7448455e-01   1.3977934e-03
 -1.0985628e-01   7.9236142e-03
 -1.1410407e-01   1.6728118e-02
 -1.4701591e-01   2.3181219e-02
 -1.3552898e-03   6.6729328e-03
 -5.5554856e-02   3.0532135e-03
 -3.7537253e-01   1.5211824e-03
 -3.8724151e-03   5.4821756e-04
 -2.0040524e-01   7.4013136e-03
 -1.9711548e-01   7.8145098e-03
 -2.7242621e-02   2.7531404e-03
 -2.8663135e-01   4.9407077e-03
 -3.4024003e-01   1.1828943e-03
 -8.5443482e-02   1.1914248e-02
 -6.1096642e-02   1.1172134e-02
  1.8143842e-01   6.1792023e-03
 -1.3469812e-01   4.7352086e-03
  2.5541542e-02   1.8665442e-02
 -2.7527821e-03   1.9619852e-02
 -7.9135515e-02   8.5993437e-03
 -4.2260591e-02   1.9533504e-02
 -9.4525740e-02   2.4927594e-03
  6.6114515e-02   1.3792112e-02
 -3.6313821e-02   2.9516893e-03
  2.2286279e-01   2.1676103e-02
 -1.4727041e-01   3.2916120e-03
 -1.8910728e-01   2.5909459e-03
  4.0923923e-02   1.4410673e-02
  5.2518144e-02   2.1652099e-02
  1.1000380e-02   7.9923933e-03
  2.2090815e-02   3.0812239e-03
  7.3165833e-03   3.5147481e-02
  1.1433247e-01   7.8467168e-03
  1.2920611e-01   1.8603140e-02
 -6.5681599e-02   1.3368738e-02
  1.6559140e-01   2.1039790e-02
 -1.2014517e+00   1.4684607e-04
 -1.6887879e-01   1.3094240e-02
  1.0811538e-01   5.9259273e-03
  3.8453725e-01   6.3123746e-04
 -4.4441029e-02   2.1612323e-03
 -4.6965806e-03   6.0062120e-03
 -1.0965516e-01   1.0748626e-02
 -9.2696259e-03   3.8515260e-03
 -4.5819622e-03   7.2049256e-03
 -7.4879892e-02   3.5714686e-02
 -1.2390357e-01   2.5200332e-02
 -4.0557239e-02   8.2050683e-03
 -3.7500966e-02   4.4003413e-03
  4.6702704e-01   3.2310251e-03
 -8.9902736e-02   2.1726096e-02
  9.6994869e-02   1.6604258e-02
  1.0572154e-01   1.3437519e-02
  2.6116809e-01   5.9735514e-03
  1.4843416e-01   2.6539739e-03
 -2.3972654e-01   1.0248376e-03
 -1.0463383e-01   1.8321712e-02
 -8.8617988e-02   2.5033383e-02
  5.8059093e-02   3.5153735e-02
  5.0361246e-02   1.9620003e-02
 -2.7533844e-01   6.4126318e-03
 -1.2439143e-01   1.0707297e-02
 -1.5023406e-01   2.4761052e-03
 -2.6348699e-02   6.9641294e-03
  5.1981783e-03   1.5947357e-02
  2.1364489e-01   7.3889955e-03
 -1.8998955e-01   1.9312941e-02
 -1.1718741e-01   1.3561598e-02
  1.3731448e-01   1.4566500e-02
 -3.2296766e-02   4.0730853e-02
 -2.9632434e-01   2.6854992e-02
  2.2393791e-01   7.4340808e-03
  3.7437715e-02   8.5960934e-03
  2.5304813e-02   2.5058091e-03
  2.2592625e-01   3.0317288e-03
  6.3715167e-02   1.1634706e-02
 -2.8662506e-01   2.1496076e-02
 -2.8315553e-01   3.4841206e-03
 -3.1644423e-02   1.2111750e-02
  1.1013679e-01   5.1252637e-03
  7.2732098e-02   1.9676009e-02
 -1.3763376e-01   6.5780799e-03
 -1.9788791e-01   2.0965233e-02
  2.1157621e-01   4.9109776e-02
 -1.5029581e-01   1.5141019e-02
 -5.7653520e-02   2.7624596e-02
  1.7991692e-01   4.6208337e-02
  7.0547543e-02   1.0574649e-02
 -1.9532262e-01   5.3392858e-03
  1.1685517e-01   8.9289304e-03
 -1.4586300e-01   1.9439359e-03
  1.0204493e-01   3.8631600e-03
 -1.0172195e-02   7.2794398e-03
 -9.6795368e-01   9.6843229e-04
  8.9047022e-02   1.3437900e-02
 -2.6512569e-01   3.6098904e-03
 -1.6881199e-01   4.1197953e-03
 -1.2932113e-02   1.1765360e-02
 -2.4453949e-02   2.8158600e-02
  1.5631862e-01   6.2286062e-03
  1.0351983e-01   2.5204286e-02
  1.4554049e-01   4.2929597e-02
  1.5785542e-01   1.5555189e-02
 -1.0239459e-01   1.1065274e-02
  8.0724530e-02   5.0487865e-02
 -1.7280568e-01   3.3140001e-03
 -2.2322772e-01   6.0717971e-04
 -7.4261010e-02   1.3704989e-02
  1.2969061e-02   6.9675827e-03
 -4.2899871e-01   3.3800232e-03
 -1.8990704e-01   5.5104317e-03
 -8.0637589e-02   1.3426159e-02
 -1.8001756e-01   7.9630595e-03
  9.1451660e-02   3.1094048e-02
  3.0760989e-01   2.8245199e-02
 -1.9786278e-02   1.7826163e-03
 -5.5600321e-03   6.7292862e-03
 -4.6626855e-02   3.7981258e-03
 -2.3793226e-01   2.4710741e-02
  1.1355970e-02   2.4925417e-03
  8.7541491e-02   2.2107681e-02
  1.1262507e-01   1.2690743e-02
  7.0398189e-02   1.3331071e-02
 -1.5290833e-01   3.3815812e-02
  6.6643238e-02   3.5836392e-03
  3.7650773e-01   1.5933327e-02
  8.5810214e-02   1.6570676e-02
  8.6062923e-02   1.9940964e-03
 -1.2726623e-01   3.0305202e-03
 -4.2710747e-03   2.4451898e-02
  1.4829192e-01   3.0786155e-02
  1.5865622e-01   6.4474042e-03
  1.4615485e-01   5.9398157e-03
 -2.6786752e-02   3.4976951e-04
  3.6594912e-02   3.6626276e-02
  2.0858453e-01   3.6928817e-03
  1.4509670e-01   2.3586235e-03
 -4.4568948e-02   2.2914032e-03
  4.4353905e-01   4.5889146e-03
 -2.5999886e-01   1.3921392e-03
  2.3820211e-01   9.5334724e-03
 -1.4377448e-01   2.9741826e-02
 -1.0748226e-01   2.2139458e-02
  1.2624790e-01   1.6125761e-02
  1.2093710e-01   2.4615169e-02
 -2.1348121e-02   3.0178558e-03
  6.0986120e-02   1.6421389e-02
  1.5079843e+00   5.9152592e-04
 -2.7588847e-01   1.6748067e-03
  7.9416774e-02   2.1949161e-03
  8.1514037e-01   2.0003491e-03
 -4.6516898e-01   6.6617120e-04
 -3.9918250e-01   6.3996442e-04
  1.4820613e-03   4.1254639e-04
  7.7544600e-02   3.3488518e-03
 -5.9356618e-01   7.6916916e-03
  9.9155150e-02   6.3194195e-03
 -4.8946124e-01   8.3898967e-03
 -2.8561100e-01   1.8818283e-03
 -9.3550462e-01   1.4038531e-03
 -2.7626207e-01   3.1928124e-03
  2.8544837e-01   7.0337364e-03
 -6.2282771e-01   1.4883358e-02
  1.9599084e-02   2.5677143e-03
 -3.5818127e-01   9.2907464e-03
  1.4471342e-01   7.6826912e-04
 -2.8134704e-01   3.0060846e-03
 -1.2747350e-01   1.1476691e-02
  1.1974955e-01   1.5493690e-03
 -2.2388778e+00   4.1473043e-04
 -1.6349657e-01   1.7778820e-03
 -5.2766776e-01   5.1685143e-03
 -3.1132758e-01   1.3298652e-03
 -1.1175015e-02   1.2709752e-03
 -1.0267923e+00   1.1986077e-05
 -4.7119802e-01   6.2746223e-04
 -6.0068613e-01   9.6824793e-03
 -2.0573330e-01   5.7983841e-03
 -9.8438360e-02   6.6666673e-03
 -4.1447142e-01   8.9632049e-03
  9.5635727e-02   5.2813848e-04
  5.2403413e-02   6.3475296e-03
 -4.2410120e-01   3.9599356e-03
  8.1496269e-02   1.2484936e-02
 -6.6285945e-02   4.3798957e-02
 -1.2819590e-02   3.0966289e-02
 -3.2911107e-02   1.3834933e-02
  2.8719476e-01   3.2970766e-03
  1.6971080e-01   8.6956173e-03
 -8.6897814e-01   1.5276984e-03
  4.2033777e-01   1.4145551e-03
  1.2047690e+00   5.9222447e-04
 -6.9373435e-01   1.3909496e-03
  2.3126470e-01   7.6414912e-04
  9.4371921e-01   6.4823934e-04
  2.9795447e-01   9.8320330e-04
 -2.1120623e-02   1.4273982e-03
  2.9913124e-01   9.3218489e-03
  2.6082061e-02   9.8291121e-04
  5.0835806e-01   1.0831788e-02
 -9.3696320e-01   1.6373809e-03
  4.8958096e-01   5.9106003e-04
  4.5932685e-03   3.5109445e-03
 -2.3845261e-01   5.3051108e-04
  4.6858868e-01   5.2755834e-03
 -4.1958645e-02   1.3698792e-03
  5.5544889e-01   9.7016105e-03
  1.0623569e-02   4.2421189e-03
  8.0673742e-01   1.3898669e-03
  3.8976192e-01   4.1472921e-03
 -6.2417698e-01   1.6964305e-03
  1.4596415e-01   2.8979750e-03
  4.1306543e-01   1.6242795e-02
  2.5688574e-01   1.3498874e-02
  3.1311825e-02   1.7476528e-03
  1.1549240e+00   1.1583341e-03
  4.9836126e-01   3.5435918e-03
 -3.2972121e-01   4.0894499e-04
  1.1337753e-01   1.6747693e-02
 -3.0336345e-02   1.3478356e-02
  7.4194022e-02   5.7695471e-03
 -5.1949617e-02   8.4832124e-04
 -2.9669246e-01   4.2420806e-04
 -3.3475388e-02   2.4927210e-03
  1.0996958e-01   9.5199989e-03
  1.1927997e-01   9.0930527e-03
  1.1908202e-01   4.0264830e-02
 -3.0297613e-01   7.5126300e-04
  3.3057252e-01   5.9075863e-04
 -1.0237739e-01   9.7855534e-03
 -2.4025385e-01   3.4565743e-02
  5.4611129e-01   5.2163177e-03
  1.5231942e-01   1.6513383e-03
 -4.3825157e-02   1.3603715e-02
  3.9869419e-01   1.5002305e-03
 -3.8994286e-02   4.8586107e-03
  8.0532759e-01   3.2566474e-03
  1.4553824e-01   9.4412937e-04
  8.5798860e-02   5.9544714e-03
 -1.3288826e-01   1.6696790e-02
  9.2621900e-02   3.7300216e-03
 -4.5702480e-02   1.2564580e-02
  1.4935127e-01   1.3593288e-02
 -2.3879907e-01   3.5066293e-03
  2.4941395e-01   7.1956650e-03
 -3.9485551e-02   3.6173598e-03
 -1.7418291e-01   2.3202626e-03
  1.6500786e-01   4.6100139e-04
 -1.7841986e-01   1.6159499e-02
  1.7495403e-01   1.5624275e-02
 -8.7741902e-03   1.1519173e-02
 -3.6106187e-01   2.7453071e-02
 -2.8999248e-03   1.3189059e-02
  2.1457082e-01   1.0388448e-03
  7.2980948e-02   1.3726823e-03
 -2.8566515e-01   1.5149571e-02
 -1.0506678e-01   9.2576733e-03
 -3.0970737e-01   2.8942011e-03
 -6.9054782e-02   3.8720094e-02
  1.3320629e-01   4.2051380e-03
  8.1612326e-02   6.0578580e-03
 -1.9112881e-01   6.7840162e-04
 -4.2105727e-03   1.1896947e-02
 -1.4844593e-01   6.1223516e-03
 -2.2350995e-01   5.8870767e-03
 -2.9891945e-02   4.4630109e-03
 -1.8130234e-01   2.7122675e-02
  8.5995369e-02   8.6244894e-03
 -1.4912440e-01   8.1418296e-03
 -4.0602032e-02   2.3903323e-02
 -4.9348098e-01   6.4937379e-03
  1.5839888e-01   1.1611198e-02
 -1.9816522e-02   1.0975054e-02
  3.9505476e-01   3.3229881e-04
 -2.7256188e-01   4.1099737e-04
  7.7829747e-03   2.5981735e-03
  5.3441316e-01   8.5393218e-03
 -1.3871574e+00   1.7938501e-04
  4.8829278e-01   2.7662797e-03
  4.0096775e-02   4.6023852e-03
 -1.7776640e-01   5.2437992e-03
 -5.4806483e-01   6.2487402e-04
 -6.3932009e-02   7.1697081e-03
 -5.5443060e-01   7.4468990e-04
 -1.5824340e-01   2.9771447e-03
  2.6740015e-01   2.0827088e-04
 -1.1852814e-01   2.8044805e-03
  4.8989105e-01   1.6577808e-03
 -6.0967016e-01   1.3861569e-03
 -1.2560318e-01   4.3674763e-03
 -2.9788542e-01   1.0451807e-02
 -5.1665988e-02   2.6572559e-03
  2.1368575e-01   1.5796683e-03
 -1.5621236e-01   8.0557391e-03
 -3.8073766e-01   9.4748335e-04
 -3.7509626e-01   8.1573492e-03
 -6.3050443e-01   1.1219099e-03
 -2.3019187e-01   1.7942045e-02
  1.2224929e-01   7.1273432e-03
 -2.5563926e-01   2.1817994e-03
 -6.5767401e-01   3.6119353e-03
  3.7121060e-01   1.9770265e-03
 -1.5592478e-01   1.3516763e-02
  2.0045459e-01   1.9431490e-02
  1.8046366e-01   7.7370140e-03
  6.2988037e-03   4.2016450e-03
  4.9051535e-01   1.0809815e-03
 -4.3838877e-02   2.7996602e-03
  1.5850422e-01   1.2605734e-02
  1.6999222e-01   6.4572781e-02
  1.6615574e-01   5.4090992e-03
  5.8008432e-02   3.7779883e-02
  5.1582631e-02   7.6152333e-03
 -4.2042930e-02   9.0077026e-03
  1.1016905e-01   3.2371778e-02
 -1.9360104e-01   7.3555293e-03
 -3.4710862e-02   1.0642505e-02
  4.1066954e-01   4.8063474e-04
  2.3966184e-02   9.7733960e-03
 -5.3375904e-02   1.5605190e-02
  1.6782758e-01   8.1804991e-03
 -1.6112578e-01   2.2539970e-02
 -4.0189862e-01   1.1270424e-02
 -6.0236089e-02   2.3758750e-02
 -2.7174240e-01   3.3846181e-03
 -2.2128837e-01   1.2010379e-03
  1.9624971e-02   2.0887188e-03
 -3.5296810e-01   2.8262123e-02
 -3.3105421e-01   4.6437010e-02
  1.5129248e-03   9.2658717e-03
 -1.4790159e-01   2.8631441e-02
 -6.7056037e-02   1.2490351e-02
 -2.3306005e-01   5.2193783e-02
  8.4811766e-03   1.8987071e-02
 -4.1204885e-02   1.3979399e-02
 -1.1520163e-01   1.8963638e-03
  2.7277946e-01   1.9600688e-02
 -1.5446672e-02   1.9775368e-03
  7.1611613e-02   2.8265269e-02
 -1.7404175e-01   2.4997296e-02
 -1.5747750e-01   7.3049064e-03
 -2.5282627e-01   4.1102185e-03
 -8.5138448e-02   2.1855695e-02
  5.7902556e-02   5.0430517e-03
  9.5435366e-02   2.2102149e-02
 -1.2476141e-01   8.1017287e-03
  3.6468692e-02   5.4086451e-03
  3.8654830e-02   9.1953520e-03
  7.0736028e-02   1.4720421e-02
  1.1218771e-02   8.0012325e-03
  7.0585407e-02   2.4464186e-02
 -7.8246027e-02   2.0053551e-02
 -7.5615808e-02   1.3326065e-02
  2.3422693e-01   2.0986373e-02
 -1.4721324e-01   1.7532844e-02
  1.0619055e-01   4.8896979e-04
 -1.9884247e-01   3.7900347e-02
  2.1978222e-01   8.0339174e-04
 -9.1868155e-02   1.7251087e-03
  6.7534345e-01   3.1350616e-03
 -5.0551987e-01   4.3656961e-03
 -6.7557496e-01   2.5961082e-04
 -2.7784029e-01   1.1246604e-03
 -7.0079881e-01   5.6028552e-04
 -1.5211095e-01   2.6690371e-03
 -4.7709860e-02   5.5072214e-03
  6.5728623e-01   3.4045831e-03
 -4.9406171e-01   1.2858177e-03
 -6.3910830e-01   2.5358801e-03
  1.4581085e-02   3.1277948e-05
  7.2733551e-02   2.4024893e-03
  2.6002085e-02   2.7338120e-03
  2.8292742e-01   1.5718421e-03
  5.4427665e-02   5.7468885e-03
  5.7510477e-01   1.4301106e-02
  9.5680960e-02   2.1513097e-03
  8.1030041e-01   7.4824196e-04
  2.9700878e-01   2.6625004e-02
 -1.8885900e-01   1.7859027e-03
 -3.7054676e-03   1.2104336e-02
  1.0534561e-01   1.9091564e-03
  1.1630466e+00   2.0190372e-04
  1.6543421e-01   2.1681443e-03
  2.7201310e-02   1.4820325e-03
  4.9848768e-01   1.3771386e-02
 -4.2098466e-01   8.4364915e-04
 -4.5850849e-01   1.0067191e-04
 -1.1950707e-01   7.0832865e-03
  7.7274367e-02   8.5662154e-04
 -1.8545541e-01   2.9436706e-03
 -2.1121031e-01   9.5603935e-04
  4.0105304e-01   4.1012797e-03
  3.3889225e-01   9.5468797e-03
  1.1885193e-01   1.0810968e-02
 -2.6323551e-01   2.7450295e-02
 -5.2487481e-02   3.0588672e-02
  4.2409036e-01   9.1324048e-03
  1.4156991e-01   7.6485425e-03
 -6.0632963e-02   2.1004304e-02
 -5.6411106e-02   5.5352254e-03
  3.3645910e-01   4.5884368e-03
  4.3574128e-02   2.9655868e-02
 -2.4286950e-01   6.8957433e-03
  2.6919985e-01   1.2415107e-02
 -5.5879784e-01   5.5677496e-04
 -1.8399639e-01   6.3594175e-03
  1.5275535e-01   1.1309924e-02
  2.2795872e-01   1.7047435e-02
  3.0255380e-01   5.0167564e-02
  5.2230006e-01   1.1894989e-04
 -1.5221114e-01   1.4777783e-02
  2.2704694e-02   8.9962751e-04
 -1.7378670e-01   3.1211965e-02
  8.7615140e-03   8.3794771e-03
  2.8286872e-02   7.6989401e-03
 -9.7824365e-01   1.1782607e-03
 -6.3124061e-02   8.8379821e-03
 -6.4622819e-02   3.6796737e-03
  2.0628463e-02   3.8655002e-03
  5.0664425e-02   2.6325466e-02
 -2.0196553e-01   4.9011246e-03
  5.0141603e-02   1.9183103e-02
 -1.2169535e-01   1.7082751e-02
  2.6488036e-01   2.5903171e-02
 -2.8791076e-02   1.1964107e-02
 -3.8867325e-03   1.0344153e-02
  1.7771055e-01   1.0877541e-02
  7.1509271e-03   1.4966026e-02
  1.0079248e-01   1.8389439e-02
  1.1084440e-01   4.4580661e-02
  3.2749541e-02   2.7562180e-03
  4.9542904e-02   6.5807104e-03
 -8.2244515e-02   6.0316273e-03
 -1.1979306e-01   7.6585361e-03
  2.5671700e-01   1.7916767e-02
 -2.3338452e-02   3.1050448e-03
 -2.5791699e-01   4.0438753e-03
 -1.1440608e-02   6.0333475e-03
  1.2281910e-01   1.5791563e-02
  2.4443792e-01   1.5805108e-03
  9.6094482e-02   2.3409219e-02
  4.1123357e-02   4.5000445e-03
  1.3544883e-01   1.6875258e-03
  3.0142716e-01   4.5826654e-03
  2.5853527e-01   9.1105606e-03
 -2.6073584e-01   1.5563342e-03
 -3.2329613e-01   6.9667271e-04
 -1.5884610e-01   5.1681716e-03
 -1.2566325e-01   1.5351409e-02
  8.7071151e-02   9.0815937e-03
  5.7477526e-02   5.8776815e-03
  1.2224654e-01   6.2849037e-03
 -1.3961074e-01   1.0934996e-02
 -8.0002323e-02   1.1066976e-02
 -2.2794779e-01   1.5576134e-02
  1.1945259e-01   1.9331756e-03
  1.8194857e-01   1.9228082e-02
  4.8546053e-02   1.8403843e-02
  1.6037491e-03   3.7707005e-02
  1.7170328e-01   2.3685118e-02
  8.4987832e-03   1.0353011e-02
  1.3195948e-01   3.9357543e-03
 -5.8014952e-02   2.1386078e-02
  1.2126073e-02   1.1329567e-02
  5.4976750e-02   6.6616372e-03
  3.0299623e-02   1.8021354e-02
  3.4601294e-02   1.7570907e-02
  2.4796937e-01   1.1840715e-02
  1.5812141e-01   1.0077010e-02
 -5.7698056e-02   4.0234905e-03
 -4.7806747e-02   2.2387244e-02
 -1.9975270e-01   2.2184094e-03
  1.3588949e-01   7.1757110e-03
 -1.1279441e-01   4.3106233e-03
 -1.3709490e-01   3.2754899e-03
  2.9364014e-01   3.9591298e-02
  3.2276800e-01   4.7879824e-03
 -2.7054882e-01   1.3280391e-02
  4.5975085e-02   2.5222402e-02
  7.7043489e-02   2.5313806e-02
  9.8077744e-02   1.4145305e-02
 -5.0321424e-01   7.9855870e-04
 -2.0678602e-01   2.0965241e-02
  3.5528153e-01   1.8242864e-02
 -2.9445000e-02   2.7429463e-02
 -5.6667890e-02   1.5741270e-02
  1.2166020e-01   9.4069447e-03
 -8.3171844e-02   1.4202111e-02
  5.0253782e-02   2.9307066e-03
 -5.7723131e-03   2.8910892e-02
  9.9154361e-02   1.3876788e-02
  1.2766938e-01   1.8303432e-02
 -2.5733683e-01   7.8187074e-04
  1.0105602e-01   2.0522535e-02
 -9.6096478e-02   3.0366190e-02
 -7.0441186e-02   5.7462342e-03
 -1.0239904e-01   8.0791106e-03
  1.1843009e-01   4.0866728e-03
 -3.4338644e-01   8.2092332e-03
 -1.8599591e-01   1.5850643e-02
  3.2679386e-02   1.3771149e-02
 -1.4919181e-01   2.5382387e-03
  2.9427083e-02   1.2862926e-02
  1.0069617e-01   2.2571389e-02
 -3.1867298e-01   3.4832053e-03
  1.0299923e-01   1.7283544e-03
  1.1918778e-01   5.3191986e-02
 -1.3692150e-01   1.6791550e-02
  2.5201002e-01   7.4822996e-03
  6.8962187e-02   7.2694053e-03
 -2.8174577e-02   6.0529532e-03
  9.1631919e-02   4.6057813e-03
 -1.2935214e-01   2.3436667e-02
  1.1761490e-01   1.4191401e-02
  1.1484358e-01   9.3874447e-03
 -1.3229116e+00   3.1449778e-03
 -1.5234764e-01   2.2124922e-02
  1.8608448e-01   2.8749231e-02
 -4.4858474e-02   8.2084502e-04
  1.6874637e-04   4.8751116e-04
 -5.1231044e-03   6.2654675e-03
 -3.0718284e-02   2.0860903e-02
  2.8917402e-01   1.4053896e-02
 -2.8929338e-01   8.0679689e-04
 -6.7993946e-02   1.2561580e-02
 -1.3405576e-01   3.7237604e-03
  1.3050607e-01   3.6007664e-03
  2.2792375e-01   2.2695600e-03
  3.9531878e-01   2.6821853e-03
 -3.8738906e-01   1.9202062e-03
  4.2072308e-01   1.5357959e-03
  1.6967650e-01   2.3128348e-03
 -2.2507711e-01   5.7182256e-03
 -1.4382045e-01   4.5680427e-03
  6.8297513e-02   1.2580125e-02
  1.4643186e+00   6.8198476e-04
 -1.0199323e-01   1.9989714e-03
  6.0781367e-02   4.1476344e-03
 -2.0624724e-01   7.4438686e-03
  4.2449477e-01   9.8844515e-03
 -2.0427893e-01   1.7529292e-02
 -2.1500048e-01   7.1596601e-03
 -2.3943737e-01   3.2622507e-03
 -1.4986710e-01   1.1984114e-02
  1.0922601e-02   7.0416196e-03
  6.1783593e-02   1.3020099e-02
 -6.1339397e-02   3.2968200e-03
 -2.1541028e-01   1.8591916e-02
 -1.9390797e-02   1.5198861e-02
 -7.7528924e-02   1.8973315e-02
 -3.0887815e-01   3.7009460e-03
 -2.0214599e-01   1.5240744e-03
 -2.1495171e-01   7.3796795e-03
 -3.6522623e-02   2.7226710e-03
 -1.4554767e-01   2.4913659e-02
 -1.8577567e-01   1.5505475e-02
 -9.5890105e-02   1.7147227e-04
 -2.0398811e-01   8.2845157e-03
  2.6001036e-01   2.3490912e-03
 -2.8698218e-01   5.1805313e-04
  1.4137872e-01   1.1832519e-02
 -4.9152888e-02   3.2972299e-02
  9.5532566e-02   2.5061688e-03
 -8.3033502e-02   8.6862743e-03
  3.9079372e-02   3.7983370e-03
 -7.7343053e-01   2.1613883e-03
  7.4386522e-02   3.1695906e-03
  5.0250348e-02   1.1161674e-02
  1.7770411e-01   9.6259890e-03
 -9.3493007e-02   6.8593561e-03
  6.8284608e-02   3.0481946e-02
  6.4027369e-02   4.5822570e-03
  1.0930973e-01   7.0226602e-03
 -1.4883365e-02   3.9127581e-02
 -1.4824122e-01   2.8100058e-02
  1.4733884e-01   5.7800960e-02
 -1.0494457e-01   2.1422694e-04
  2.4460486e-01   2.7335847e-02
  7.1950756e-02   1.3721040e-02
 -1.0957704e-01   2.0803083e-02
  6.6603348e-02   1.3151271e-02
  1.0181201e-02   9.9375462e-03
 -4.9828470e-02   1.1672546e-02
 -6.6082858e-02   1.0658375e-02
 -3.4987345e-02   1.2700576e-02
  8.0717579e-02   2.6989132e-02
  2.1975459e-01   1.4501891e-02
 -1.0335378e-01   2.2060822e-03
  2.3303290e-01   8.9615211e-03
  6.4895608e-02   2.9334424e-03
 -1.2924349e-01   8.7051624e-03
  4.1791916e-01   1.9582107e-03
  1.7463239e-02   1.5481206e-03
 -1.3323475e-01   1.0684634e-02
  1.5007161e-01   4.9600722e-03
 -7.0884831e-02   1.2848794e-02
  7.2025932e-02   1.0320750e-02
  1.2209630e-01   5.1530502e-03
  3.1789929e-02   1.8864846e-02
  2.2268903e-02   3.5126388e-02
 -1.1462321e-01   1.4712211e-02
  1.3949876e-01   2.2596609e-02
  2.4301617e-01   7.6916181e-02
  9.7889446e-02   2.9162120e-02
 -1.2747517e-01   1.7165538e-03
 -1.5700909e-01   9.8544052e-03
 -7.2944887e-02   1.9473387e-02
 -7.4561030e-02   1.5083579e-02
 -7.9678796e-02   1.3385157e-02
 -2.6189479e-01   7.2423607e-04
 -6.7503646e-02   2.3201678e-03
  2.6126349e-01   4.1065169e-03
 -1.2059707e-01   9.3662450e-03
  3.6417207e-01   8.9592853e-04
 -3.5532740e-01   2.0078795e-03
 -4.6958688e-01   3.0865632e-03
  2.4348268e-01   3.2519463e-03
  2.4024627e-01   1.1549068e-02
 -8.2378708e-02   1.3634888e-02
  5.4090077e-01   1.2474122e-03
 -1.6068187e-01   6.4013205e-03
  1.3020561e-02   6.0910978e-03
  2.7453588e-02   2.7430456e-03
 -4.2993359e-02   3.0056739e-03
  3.0213133e-01   1.0426715e-02
 -1.0541602e-01   6.3010836e-03
  3.7291612e-02   2.1339761e-02
  1.0092051e-01   1.7170439e-03
  3.6089052e-02   6.6395588e-03
 -5.3895518e-02   3.0432621e-03
  1.7190295e-01   2.2480334e-03
  4.0249199e-02   1.0081119e-02
 -4.8883129e-02   1.3346612e-02
  8.5143127e-02   1.5657447e-02
 -3.6386940e-01   1.0627369e-02
 -5.0586003e-01   4.2399485e-03
  5.3709723e-02   1.4501710e-03
 -2.8342161e-01   2.3108697e-03
  1.0346281e-01   2.3895239e-02
  1.4377217e-01   1.2387916e-02
  1.0943257e-02   2.6127754e-02
  1.8877964e-01   9.8084356e-04
  3.8934466e-01   3.0958769e-03
  1.5663658e-01   2.0001702e-02
  1.8056527e-01   1.3140970e-02
  1.0502657e-01   3.0255821e-02
 -5.1967241e-02   1.3650605e-02
 -5.5038836e-02   2.3914402e-02
  2.7321500e-01   2.4038246e-03
  5.5088067e-01   1.8356637e-03
 -6.0195636e-02   6.9934847e-03
  5.3140330e-01   5.9213192e-04
  4.6752077e-01   2.3671996e-03
 -1.4619997e-03   8.1071007e-04
  7.9268253e-01   1.1731684e-03
 -9.9233902e-01   4.8691253e-04
 -1.7842530e-01   1.9295764e-04
  6.7081803e-01   2.0173383e-03
 -5.3191345e-02   2.7143423e-04
 -2.7699182e-02   4.2440412e-03
 -1.9922385e-02   3.5097252e-03
 -8.4978258e-03   1.5158525e-03
  2.7678236e-02   2.5848211e-03
  4.2499393e-01   5.1678560e-04
 -3.1758040e-01   3.0589490e-03
 -3.2775733e-01   1.3055329e-03
 -7.7709341e-01   9.1880222e-04
 -3.0625600e-01   1.7415417e-03
 -7.3987567e-01   3.6188245e-03
 -5.6636032e-02   1.8580208e-03
 -7.3135994e-02   1.2280825e-03
 -4.9101982e-01   4.3813712e-03
 -2.5590414e-01   1.1370661e-03
 -3.8278899e-01   7.4700192e-03
 -1.0884469e-01   3.4645870e-03
 -6.2398911e-01   8.7210694e-03
 -2.2668265e-01   3.1703112e-03
 -1.7636504e-02   5.8521703e-04
 -5.9154904e-01   2.7786670e-03
 -8.1435186e-01   1.1873415e-03
 -5.9948526e-02   1.0755431e-02
 -1.1318451e-02   4.8089190e-03
 -8.0830850e-02   6.6768453e-03
 -4.8634067e-02   1.8889107e-03
 -7.4811526e-02   1.3090646e-03
 -5.1825178e-01   5.1192972e-03
 -3.2853939e-02   1.0798698e-02
 -5.6734491e-02   2.7205970e-03
 -1.5605217e-01   3.6401667e-02
 -6.1875906e-02   2.8558674e-03
 -2.5536820e-01   8.3508734e-03
  4.6825558e-02   5.4234178e-03
 -5.8360424e-02   1.1741940e-02
 -2.2081594e-01   4.6666092e-04
 -1.8283339e-01   2.0602334e-03
  1.0431292e+00   3.5427706e-04
 -5.1491773e-01   2.9868535e-03
  1.4585799e-01   2.5439853e-04
 -1.3419364e-01   7.7490765e-04
 -2.1128325e-01   2.3547995e-03
 -2.5397205e-01   1.6158140e-03
  2.7043762e-02   4.6750377e-03
  2.1974470e-01   1.9238024e-03
  2.0780258e-01   5.9630759e-03
 -8.7850289e-03   2.4890895e-03
  1.9113141e-01   8.0239057e-04
 -1.3896612e+00   3.6496916e-04
  1.3075097e-01   2.1725800e-03
  4.8020932e-01   5.8046435e-03
 -2.1160230e-02   1.0439664e-03
  5.5281222e-01   7.5352858e-03
  1.8291028e-02   2.0391247e-03
 -2.3147479e-02   1.5726138e-03
  4.8125225e-01   7.4897702e-03
  3.2783186e-01   6.5819133e-04
  5.6475180e-01   4.8233983e-03
  2.6373032e-01   1.2397563e-02
  2.2576042e-01   2.2536406e-02
  2.0887659e-01   3.3290151e-03
 -2.5576150e-01   2.7758724e-04
  2.7568850e-01   1.5713375e-02
  5.8857942e-01   1.6188971e-03
  1.7435749e-01   5.3309430e-03
  4.9182397e-01   2.2914594e-03
  8.6093068e-02   9.9141775e-03
  4.5776721e-02   2.3136807e-03
  1.6426869e-01   5.1095587e-04
  9.2513941e-02   6.7158449e-03
 -2.0261443e-01   1.0632192e-02
 -3.4331185e-01   9.9034957e-04
  1.1549252e-01   2.9755656e-03
 -1.6879231e-02   1.9939955e-02
 -9.2478041e-03   6.6283047e-03
 -2.9756713e-01   4.2457609e-03
 -4.0561146e-01   1.4745999e-02
  8.1156306e-02   1.4023336e-03
 -6.8212199e-01   5.0493809e-03
  5.8523405e-01   7.2291424e-04
 -4.1100807e-02   1.3318842e-03
 -1.5910189e+00   1.3653748e-03
 -1.5622494e+00   2.4279458e-03
 -7.9475540e-01   5.3200950e-03
 -2.7832802e-02   1.0328356e-02
 -4.1651025e-01   8.8833127e-04
  3.7203681e-01   1.0072707e-02
 -3.6764126e-02   8.6963102e-03
 -1.4261702e-01   3.6570537e-03
  8.9075023e-01   4.5923642e-03
  1.6474798e-02   1.1267579e-02
  2.6841632e-01   1.3499620e-03
 -2.2841236e-01   4.7543636e-03
  2.4844077e-01   4.9836808e-03
  2.6877739e-02   3.5181638e-02
 -7.1588092e-02   5.1366226e-03
  7.2208452e-01   1.1522955e-03
 -3.2085550e-01   5.2855187e-03
  3.1167999e-01   7.0107998e-03
 -2.9791293e-01   2.3182636e-02
 -1.8241948e-03   7.2936257e-03
  2.9478343e-02   1.5066398e-02
  2.6072097e-01   5.9046741e-03
  1.0081498e-01   1.5128795e-03
 -5.9703283e-02   3.9656558e-03
  2.9350999e-01   1.8611201e-03
 -2.5206709e-01   2.0867797e-02
  2.8860707e-02   4.7571631e-03
  1.4176551e-01   1.3572226e-02
 -5.1693171e-02   1.8746415e-03
 -2.6925156e-01   4.0495154e-04
  2.7503991e-01   1.2696458e-03
  9.6155614e-02   1.1752913e-02
 -1.0411899e-01   7.1203229e-03
  1.4937338e-01   1.5321202e-03
 -6.4078122e-02   1.8638715e-03
 -6.6348412e-03   1.4143688e-02
  1.4613912e-01   5.4991203e-03
 -4.8768118e-01   5.3204033e-03
 -8.9234136e-02   9.8307831e-03
 -2.2214077e-01   1.0069280e-02
 -9.6867375e-02   3.4225523e-03
 -1.9229509e-01   4.5057107e-03
  3.6597022e-01   9.2970943e-03
 -7.7859893e-02   9.8125078e-03
 -2.4914785e-01   4.9238130e-03
  1.3182507e-01   8.2317581e-03
  5.1058639e-02   6.0517311e-02
 -4.2639902e-01   3.2356597e-02
  1.3198100e-01   6.8691201e-03
 -2.4576922e-01   2.0537606e-02
  3.9171923e-02   1.2741273e-03