135
Config_type=9 Weight=1.0 Lattice="14.012776000 0.000000000 0.000000000 0.000000000 14.012776000 0.000000000 0.000000000 0.000000000 14.012776000" Energy=-878.887676 Virial="-18.02087 20.53852 -20.49567 20.53852 -36.12635 -8.82288 -20.49567 -8.82288 -67.99896" Properties=species:S:1:pos:R:3:forces:R:3
Ca	      2.99414      2.70052     12.32416         0.012784      2.312662     -1.120604
Ca	      1.47489      9.39392      9.61287         0.929208     -3.594010     -1.489577
Ca	      3.37625     11.43958      1.44164         1.486153     -1.550319      1.353617
Ca	     11.67977      9.59983      6.18283        -0.076268     -0.241420     -1.216607
Ca	      6.53478      0.53376     13.77392         0.106580      0.078811     -1.594591
Ca	      3.77411     12.76366      9.62667         0.351004     -0.679246     -0.808752
Ca	      7.70868     13.46800      2.20062         0.763314      0.155828      1.682549
Ca	     11.31756      6.99218     10.03747         2.190788      1.046873     -0.220263
Ca	      5.53126      6.30793      6.59274        -0.481125      2.445865     -0.839129
Ca	      0.96930      5.53095      6.78645        -1.177650      2.236064      0.158866
Ca	     12.29240     14.00493      1.97234         1.568781     -0.008376     -2.617374
Ca	     12.90167      2.75354      8.67331         0.146239      1.121627     -0.520894
Ca	      7.31267     10.42830      2.02514        -1.706889     -2.490240     -1.044129
Ca	     12.00002     11.03747     11.98376        -0.118861     -0.769805      3.102260
Ca	      7.83639      6.88409      9.77723        -0.329292      1.782380      0.852382
Ca	      4.51102     11.58825      6.32195         3.613511      0.872176      2.363568
Ca	      1.69480      5.72431      1.52458        -1.212099     -0.708847     -1.221249
Ca	      0.29546      2.26457      4.72668        -0.121977     -1.456975      0.143453
Ca	     11.14718      0.73501     11.17582         0.225322     -0.459656      1.307463
Ca	      8.07449      2.33528      7.38321         1.258533     -0.357042     -0.387802
Ca	      5.17139      5.20534      0.72378         0.009729      1.329312      0.476239
Ca	     10.75777      7.66206      3.14471        -0.217570      0.151406      0.323765
Ca	     10.35456     12.36251      9.03869         0.827604     -0.835939     -0.401593
Ca	      5.81074     11.59264     12.25486         1.066899     -1.252048      1.056072
Ca	     10.84796      5.95672     12.92534        -0.287171     -1.363405      1.612299
Ca	      2.17810     12.55396      4.81134        -1.593418      0.429197     -2.012917
Ca	      8.25981      3.78971     11.30528         0.628402     -0.628611     -0.494882
Si	      9.81147     11.10240      4.09985         1.420000     -4.436157     -2.164802
Si	     12.22622      0.34499      7.05008         2.811715     -0.190087      0.777090
Si	      0.71235      1.51585     13.47315        -1.883738      1.418238     -0.023985
Si	     10.05900      4.68905      9.00601        -2.105558     -2.380919      4.551020
Si	      7.96891      7.07353      1.95823        -0.039862     -7.002221    -10.845973
Si	      2.24636     11.34183     12.37867         6.363770     -4.640574     -2.651855
Si	     11.52727      6.56965      7.00135         3.578231      0.328756     -3.341114
Si	      9.08269      8.93470     12.71503         1.921180      1.078441     -4.729413
Si	     12.73281      3.73741      0.82279        -3.315049      7.707674      1.335379
Si	      3.86024      2.54958      1.26471        -0.987873      2.382053     -4.242633
Si	      4.63277      8.05379      8.72646        -6.478335     10.100656     -0.556690
Si	      0.49037     12.19396      0.26875         3.451530     -4.845277      1.954176
Si	      2.42953      0.22527      2.40995         3.576648     -0.556459      0.582229
Si	      0.99342      9.73286      2.56464         4.350390      3.079838     -1.442909
Si	      0.28259      4.52034     12.31617        -1.512702      2.039617     -1.224545
Si	     10.15917      0.13630      4.57162         3.212810     -8.220747      5.322606
Si	      8.55423      2.51965      3.47057         1.309863     -4.387493      0.971538
Si	      8.80075     11.44261     13.20882         3.075420      3.862380     -0.725749
Si	      6.49680     10.77261      8.30732        -7.432013      1.541798     -1.943523
Si	      3.51260      7.94916      2.73976         1.076376      3.544533     -0.910211
Si	      2.87197      8.96838      5.66599         7.319653      0.989028     -4.664099
Si	      0.96634      5.34433      9.80024         0.045914     -4.153518      2.392537
Si	      7.66745      0.46884     10.14601         2.183587     -0.691085     -4.155614
Si	      3.46842      2.20608      9.33014         1.853507      3.415465      5.314631
Si	      9.60815      3.03901      0.28544        -2.566036     -2.114296     -1.184433
Si	      8.33338     11.25550      6.16882         6.447295      1.156118      0.053558
Si	      2.65507      1.05652      7.50174        -1.680821      0.374875     -4.374052
O	      3.58124      1.68218      2.43827        -1.014609     -3.547669      4.640326
O	      7.69250      7.69604      3.18998        -1.821291      5.010633      9.289299
O	     10.28729      5.71862      7.87438         0.878520      3.278885     -2.331030
O	      1.94837     11.09337      3.12006        -0.963570     -1.007882      0.192634
O	      6.57411      0.08463     11.21179        -0.234871     -0.342176      0.757961
O	      1.05394      6.76600      9.19517        -0.869715      1.082907     -1.104208
O	      0.74163     11.27084     12.89948        -1.085961      2.601008     -1.800882
O	      5.08802      9.97787      8.85590        -0.392928     -2.385777      0.003880
O	      2.11636      4.68290     11.09584        -3.675317      0.370389     -3.037675
O	      9.43457      6.40463      1.64487        -0.234929      1.429624      0.055301
O	     10.72398      8.09644     13.15149        -3.546413      1.340304     -1.058621
O	     10.92644      3.84414      0.43642         4.359644      2.323890      1.804289
O	      2.19510     10.78203     10.74391        -2.039843      1.763989      2.141203
O	      9.79788     10.36309     11.83328        -1.962149     -0.685970      1.027156
O	      8.14115     13.20481     13.30716        -0.038450     -3.120617     -0.391765
O	      9.05070     12.52415      4.08188        -0.872006      1.372264     -2.397479
O	     12.86029      4.76587     13.43290         0.733544     -2.055780      0.428084
O	      6.65529      6.80397      0.88218         2.702287      0.010978      1.373518
O	      4.09373      3.20898     10.31580         1.061656     -0.377975      1.476284
O	      5.16963      2.84920      0.37129         1.727301     -2.845560     -0.919448
O	      9.06137      9.95190      2.99562         2.705994      2.567440      2.477647
O	      7.60399     10.23144      9.03896         8.123016     -2.658266      4.411551
O	      1.92640      8.29915      3.27339        -0.832807      0.136297     -1.908011
O	     11.15882      4.00588      9.96712        -0.753968     -1.145845     -2.260141
O	     13.26240      5.07557     10.78528         4.232772      0.208993      0.549198
O	      7.05899     10.61920      6.61473        -6.322080     -1.111229      0.966711
O	      9.35225      9.90038      5.85689        -0.904169      3.291035     -0.616938
O	      8.37096      3.75563     13.35232         0.447176      0.203266      1.964326
O	     13.32794      4.57634      2.47876        -0.658076     -0.538715     -3.276078
O	      3.37820     13.69288      7.56519         0.662840     -2.021567     -1.045506
O	     11.37839     12.56597     10.98590        -0.980893      2.658337     -1.880710
O	      0.74278     10.30626      0.91269         0.363778      0.659138      2.322353
O	     13.71049      9.56460      3.27529        -5.048566     -1.278163      2.393828
O	     13.15532     13.26233      8.05067        -3.079592      0.837855     -0.812019
O	      1.13172      5.54347     13.16217         1.271300      0.406958      2.091704
O	      6.27315     12.00617      1.06857         0.100845      2.314439      0.296013
O	      5.75423     12.20457      8.35208        -0.190452      1.693079     -0.798439
O	      4.05826     11.80142     11.40642        -0.656070      2.439397      1.846303
O	     11.25011      1.46273      7.90082         1.283087      0.075364      0.929525
O	     12.60106      5.21080      6.75963        -0.934889      2.629336      1.356365
O	      2.17230      7.96123      6.49068        -3.944829     -3.358632      2.290520
O	      3.95225      9.06483      1.56989        -0.029224     -0.533615      2.110564
O	     11.64814      8.15901      8.12595        -0.235052     -3.014169     -1.594890
O	      3.33108      7.85595      9.70894         1.841505      1.033408     -1.812848
O	      7.86737     10.15075     13.45766        -0.757612     -2.074251      0.805845
O	     11.35666     10.97495      4.40409        -0.281180     -0.379597      0.320273
O	      9.86795      1.46437      4.08588        -1.590951      9.595624     -0.802471
O	      2.96519     10.60754      5.60166        -2.099262     -1.929357      0.491469
O	      3.72620     13.33578      3.05828        -2.190036     -0.279122     -0.877530
O	      0.76890      4.10147      8.21363         0.602836      0.450965      3.429593
O	      8.30403      3.85508      4.14826        -0.919599      2.397948      1.698984
O	      2.71486      0.92992      9.75057        -1.499207     -1.459695     -0.248514
O	     13.93360      0.75005     12.33102         0.361242     -3.311453      1.619857
O	     11.14148     13.84317      5.98345        -2.334255     -0.399350     -1.799745
O	     13.40630      2.45811      1.28779         2.450596     -5.877000     -1.300914
O	      3.21586      3.93947      1.03517        -2.000556      3.094927      0.346153
O	      0.35219      2.84475     12.12752         2.207978      1.766609      2.384439
O	      9.29481      2.63275      1.97561        -1.102226     -0.497260     -3.088295
O	      8.45113      4.24849      8.86597         1.184237      0.302101     -0.141415
O	      1.33188      0.39391      3.57637        -0.959066      0.588957     -1.455161
O	      5.66191      6.99600      8.64187         6.283909     -6.041890      0.085510
O	      2.32990      1.55912      0.50658        -2.023083     -0.163029     -2.977140
O	      9.71054      5.90307     10.74834        -1.600718     -0.846656     -1.085115
O	      4.15798      8.35154      4.31303        -1.566592     -0.472232      1.048667
O	     10.15146     11.49562     13.96260         1.074855      0.668329      2.030023
O	      3.55925      2.48666      7.84213         0.063906     -0.409672     -4.024698
O	      3.66424      6.47753      2.00473         0.075987     -0.138384      1.306203
O	      8.09067      8.38370     11.46143         1.201446     -1.374926      1.748075
O	      1.78840      1.38828      6.19457         2.310506      0.317082      1.487676
O	      1.91757     13.05941      0.77879        -2.168159      0.636023      0.523591
O	     11.23891     13.79002      3.52995         1.386433     -2.388511     -1.550809
O	     11.69396      7.30749      5.33112        -1.821740     -0.056812      3.155658
O	      8.94050     12.73620      6.30086        -1.521598     -1.744206      2.364297
O	     13.55090      1.00080      6.22809        -3.086396      1.087666      0.301791
O	      7.69604      1.15325      4.01938        -2.510914      0.280320     -2.642878
O	     10.11656      1.98033     13.09510        -0.454289     -1.324049     -0.175605
O	      3.21858     10.57064     13.52913        -1.422902      2.000262     -2.761144
O	      8.99994     13.91674      9.05194        -3.076848      1.061652      3.978388
O	      4.72267      8.60837      6.90504        -1.350822     -2.512337      0.549204
O	     13.01703     12.47385      0.29756        -2.650709      2.072753      1.012089
O	      7.44735      1.81287      9.28750        -1.246187      0.682062      1.578459
135
Config_type=19 Weight=1.0 Lattice="14.012776000 0.000000000 0.000000000 0.000000000 14.012776000 0.000000000 0.000000000 0.000000000 14.012776000" Energy=-877.669514 Virial="-26.49555 12.49231 -12.84573 12.49231 -59.12556 0.55919 -12.84573 0.55919 -55.13991" Properties=species:S:1:pos:R:3:forces:R:3
Ca	      8.17191      8.03783     12.15431        -1.405426      0.171442      1.379912
Ca	      9.49979      7.87542      4.48340        -1.192319     -0.750817      1.351837
Ca	      9.93675      7.09856      9.02689         0.592222      0.456382     -0.867502
Ca	      4.43646      0.57529      5.79184        -0.634494      1.086843      0.737713
Ca	      3.20412     10.15606      1.57442         0.133660     -0.040925     -0.457638
Ca	      2.90163      4.18817      5.02106         1.867766     -0.384728     -0.025886
Ca	      6.01667      6.35445      9.22386        -0.462811     -0.936859      1.532459
Ca	      8.98496     10.83045      6.43342        -0.129324     -0.878842     -0.784154
Ca	      1.10498     13.97627     11.27262         0.586073     -0.779182      0.832759
Ca	      6.23069      4.02399     13.37318        -0.617044     -0.992595     -0.683809
Ca	     10.39766      0.51604      7.07326        -5.731956      1.307526     -2.797795
Ca	      4.13243      8.86688      7.16915        -0.688628     -0.332145      0.273264
Ca	     11.51915      5.60647      1.40066         0.361235     -0.752690     -0.007391
Ca	     12.20402      4.13614      7.54807         1.659225     -2.329849      0.575595
Ca	     12.06935      1.92686      0.35129        -0.290626      1.200313      0.386132
Ca	     10.50769     12.41591     13.17222         1.163337     -0.522477      2.140726
Ca	      6.59943     11.60654      3.81181        -0.603203      0.574574     -0.531196
Ca	     10.28297      2.45713     10.46031        -1.289094      0.600521     -0.269224
Ca	      6.94178     10.67230     14.01017        -0.203184     -0.139739     -0.010542
Ca	     13.03231     10.02024      2.26242        -0.080374     -0.495186     -0.943186
Ca	     12.89493      8.51499     11.66337        -0.418714      0.000195     -0.560308
Ca	      4.45491     12.80600      9.92823         0.769531      0.397311      0.002211
Ca	      0.89105      2.06128      2.86145         1.846659     -0.829122     -1.829430
Ca	      1.07756      5.78951     12.07200        -2.171709      0.671991      0.834709
Ca	      1.76346      6.72277      1.70345        -0.263570      1.033601      2.988456
Ca	      3.74184      0.19080      0.81790         0.069093      1.375276     -0.300754
Ca	      7.50022      3.47138      7.81654         0.136805     -2.026710     -0.210370
Si	      8.57481      0.59653     12.49187        -2.779211      3.671844      0.827500
Si	      4.62685      1.38604      3.06928        -3.091923     -3.167245      2.686329
Si	      1.10263      7.20666      5.34537        -1.474773      2.902816     -3.076436
Si	     10.99424     11.16417      9.81764         4.530844     -0.694710     -4.086762
Si	      0.70172     12.74132      0.59601        -0.771064      9.614312     -3.648695
Si	      8.83524     11.92076      9.59918        -1.118348     -8.227738     -1.711402
Si	      2.83550      4.34614      0.50731         1.354471     -6.709154      2.131454
Si	      7.39398      0.22823      9.97218        -9.490058     -1.414690     -5.732599
Si	      7.64400      8.09548      7.24076         3.089718     -0.354284      1.553600
Si	      3.03765      9.00542      4.45278        -1.457592     -3.434173     -3.586797
Si	      9.81668      4.55867      6.06858         0.587910     -4.391550     -3.159541
Si	      6.08401      8.28217      3.43096         0.711988     -3.677684      3.254055
Si	      6.61718     11.10510      8.38851        -2.927420     -7.176619      4.788459
Si	     12.50799     13.23523      2.89336        -1.584325     -1.148942     -3.696193
Si	      0.27342     11.62666     12.61417        -3.807664     -1.932261     -3.767865
Si	      9.13439     11.96941      2.72377         0.670884     -0.357102     -2.593082
Si	     12.70208      2.90227      4.12090        -2.424599      4.913989      0.514082
Si	     11.95373      4.72069     12.02471         3.581108     -3.446845      0.805880
Si	      1.18200      9.19125     13.29921         5.140140     -2.637879      3.528240
Si	     13.03776     13.95638      8.75389         2.718632     -6.218479      2.417953
Si	      6.97636      5.65829      5.24540        -2.268970      0.661751     -1.679288
Si	      1.72769      0.59961      8.52478        -0.436176     -1.476784     -3.773476
Si	      7.74425      1.26880      1.28498        -1.385935     -1.385587     -0.369650
Si	      3.98233      9.65761     11.84974         2.522191     -1.550486      1.665571
Si	     10.00547      8.75669      1.24506         4.399063      2.013987      3.590964
Si	      8.73434      5.11982     11.93804         4.375427      5.403016      6.570133
Si	      3.83459      5.95913     10.77350         6.964357      3.211478     -4.501064
O	     12.70255      3.82694      2.68542         1.066146     -2.410064     -0.444517
O	      8.47829     13.09851     13.13249         0.657263      1.666111     -1.462604
O	      2.83797      1.11138      2.63523         2.970151     -0.839872      0.912049
O	      2.80201      9.83171     13.49530         0.591391     -0.697784     -3.429102
O	     10.32218      7.91573      2.70990         0.486929     -0.487223     -4.503546
O	      9.49161      2.84239      5.34453        -0.526917      3.290953      2.934030
O	      6.40005     13.46427     10.93500        -1.623701     -1.119217      0.164670
O	      4.98968      2.67648      2.40979         2.490017      2.510009     -1.993817
O	      1.16215      0.54733      0.49390        -1.001030     -3.592991      0.498168
O	      5.14017      5.04713     11.16409        -0.696330      0.500037      0.873381
O	     10.01212     11.79298     10.87145        -1.588509      0.417228      1.851667
O	     13.80326      0.82429      9.82165        -0.039089      1.312561      0.033075
O	      0.84034      7.41396      6.86885        -0.218077     -1.400320      0.157613
O	      3.85949      2.91651      0.08538        -2.474325      4.766334     -0.438683
O	      7.55087     11.01750      9.85753        -2.752448     -2.329651      1.398937
O	      4.66252      9.26613      4.27288         1.183575     -0.000457      1.590570
O	      6.95320      9.61500      7.19238        -0.818298     -0.855909      1.411740
O	      7.45984     11.68437      1.76867         1.780521     -0.751312      3.208315
O	      9.63074      3.16855      8.02311         0.499771      0.328902      0.785541
O	      2.14422      9.50212      5.63903         1.351018      1.178404      1.400816
O	      0.14215     10.32435     13.62055        -3.057491     -1.752361     -3.643481
O	     12.57892      4.11681     13.56751         1.142737     -0.444370     -0.060752
O	     13.29131     12.49111     13.62563        -0.623149      3.421565     -2.297183
O	     12.07178     12.58190      9.47402        -0.618267     -0.170119     -0.924089
O	      9.01114      1.84832      2.16421        -2.899005     -0.421717     -2.005074
O	      1.08244     13.11850      8.21132        -3.288958      1.469271      0.600972
O	      8.64912     13.35685      9.65293         3.007427      5.829053     -2.232590
O	      7.46041      1.84027     13.66945         1.681639     -1.752470      0.082051
O	      1.54276     12.31511     13.15662         5.190752      3.067131     -0.596108
O	      2.70410      0.48407      9.70897         1.475480     -0.400409      3.724580
O	      6.48884      0.58952      8.46455         2.273250      0.908610      2.209757
O	      4.41676      7.67121     10.69763        -1.466624      0.154987      1.860615
O	      2.17775      1.40978      7.25670         0.048569      0.633823     -0.232564
O	      9.69456     10.90794      8.50069         3.284340      2.792681      2.936236
O	      8.00952      4.13911     11.10826        -1.845982     -3.538866     -3.567827
O	      2.36799      8.91022      2.91974         0.781136      0.391733      2.342663
O	      7.52426      8.64649      4.00641         0.074529      2.997555      0.174011
O	      6.61391      7.06703      6.51768         0.577675     -1.619113      0.300500
O	      4.17117      2.55695      4.98597        -0.541193     -2.737474     -0.484604
O	     12.16259     11.64522      1.14788        -0.851739      1.895309      3.122113
O	     12.12228      0.55577      7.70538         2.530233      1.828863     -0.635711
O	     10.58596      4.68434     12.66981        -9.551767      1.513629      0.858659
O	      5.91816      4.45206      5.00480         2.108823     -0.303621      3.309159
O	     10.19444     10.65655      2.13153        -2.441896     -0.970678      0.347401
O	      7.81601      7.40299      8.96588         0.957060      2.492472     -3.571548
O	     11.27131      9.62624     10.02675         1.793559     -1.329169      1.368195
O	     11.62423      8.81279      0.66923        -1.927259     -0.745334     -0.852917
O	      1.08061      8.48122      0.90613        -0.914546      0.316579     -4.058623
O	      8.73347      5.57924      5.06538        -0.004968     -0.401061      2.003500
O	      2.40175      5.58089     10.65271        -4.041898     -1.748996     -0.021423
O	      8.08030      1.19307     10.88105         3.550531      4.942477      5.114480
O	      5.48997      8.39771      2.03157        -0.899666      0.972569     -2.752465
O	     10.99634      5.50200      6.93689        -3.897734      0.985682     -1.234196
O	      6.15841      0.04356      1.22422         2.237653      2.833004     -0.368389
O	      9.85939      1.62567     12.44049         1.856738     -2.361119      1.478983
O	      1.34806      8.53814     11.81431        -2.436178     -1.048294      0.849425
O	      4.25226     10.79414     10.80030        -2.370660      0.701598     -1.017753
O	      7.77518      5.47374     13.65228         2.526542      0.344172     -4.429831
O	      5.19214     11.51119      8.13366        -4.655507     -0.222477      0.000259
O	      6.31083      6.55640      4.09908        -1.071802      3.495227     -2.878246
O	     14.00732      7.44193      4.01543         2.455158     -1.340822      2.292298
O	     12.72627      6.01395     11.68290         2.177672      4.583818     -0.744070
O	      0.89521     11.43331      1.22389         2.776596     -4.114599      7.721115
O	      9.35317      8.19806      6.64401        -3.388903      0.702251      2.411905
O	      2.41435      5.75762     13.85691         0.846334     -1.201589      0.024155
O	      5.45203      9.66416     12.57431         0.679981     -0.578833      1.802029
O	      4.11696      6.05992      8.74388        -0.810358      0.130820      0.354540
O	     11.98161      3.70611     10.76265         0.464158     -0.349779     -1.113208
O	      0.09937     11.57128     10.99866         0.098298      0.293707      2.302868
O	     11.91300     12.40300      4.03207         0.346153     -0.234923      1.540118
O	     13.95722      2.31938      4.98981        -0.935024      0.511864     -1.774295
O	      5.19674     13.71738      3.41156        -1.557265      2.423035      2.272124
O	      8.69778      8.53602      0.38528        -0.524083      0.885262     -1.675397
O	     12.86848      0.72111      2.41835        -0.234649      0.076699      0.438791
O	      8.75867     11.93778      4.55546        -0.163436     -0.126665     -3.418458
O	      2.05322      4.00035      1.99243         0.806525      2.063858     -2.055692
O	     11.60910      3.91063      4.82763         1.025903     -0.559158      1.982257
O	      9.60442     13.34130      1.92054         0.241769     -1.639400      1.071353
O	      7.60320     11.85141      7.72949         9.082630      8.430982     -7.150528
O	      9.30931      6.68374     11.07317        -0.485706     -2.619182      1.649759
O	      2.74109      7.17421      4.77509        -0.563999     -0.518516      0.593891
135
Config_type=29 Weight=1.0 Lattice="14.012776000 0.000000000 0.000000000 0.000000000 14.012776000 0.000000000 0.000000000 0.000000000 14.012776000" Energy=-878.871845 Virial="-116.20560 -20.34844 4.42913 -20.34844 -70.82987 20.42941 4.42913 20.42941 -93.92321" Properties=species:S:1:pos:R:3:forces:R:3
Ca	      4.73404      8.27562     12.17759         0.104842     -2.203230     -2.478539
Ca	      1.78356      4.33224      4.77291        -1.939583     -0.814654      0.508287
Ca	     12.90735      9.71964     12.01065         3.998429     -1.893417      0.308685
Ca	      0.81441      6.55937      2.29381        -1.229225      1.162545     -1.297419
Ca	      3.55521      5.71316      8.53531        -0.086972      0.405260      1.095345
Ca	      9.40565      2.46198      7.52992        -2.144905     -0.311986      0.512396
Ca	     11.25966     13.14843      6.67139         0.096289     -0.850376     -0.519280
Ca	     13.96475      5.27241     11.23312         1.047992      0.829253     -0.876299
Ca	      7.86077      9.31794      4.56142        -0.513400     -0.614620     -0.321316
Ca	      2.76525     10.80725     12.33854        -0.153162      2.826739      0.885436
Ca	      2.10853     13.25509      4.04450         0.115724     -1.817422      0.085252
Ca	      8.97089      7.93140      1.45345        -1.216535      0.811389      1.763823
Ca	      1.32422      0.63384      1.12969        -0.711559      0.605751     -0.857617
Ca	      3.54260      2.19207     11.55928         3.594685     -0.633670      1.144310
Ca	      4.78819      2.03722      7.74812        -1.012058     -2.032325      0.237488
Ca	      9.15860     10.14689      9.27895        -0.245718     -1.263848      0.275864
Ca	      4.30714      5.39673      4.68824         2.652467      2.666603     -0.195140
Ca	     10.85548      2.97659     11.85767         0.865231     -0.118496      1.878493
Ca	      4.65708     11.67335      7.18956         0.569179      0.894474     -1.953428
Ca	      0.17659     10.32225      8.08108         1.966380      1.145733      1.696854
Ca	      1.94075      8.91553      4.89847        -0.750767     -0.275231     -2.621285
Ca	      9.13669      5.95553     10.87057         3.687442      2.381159      2.629529
Ca	     12.67643     13.08173     13.74498        -1.659092     -0.810891      0.697928
Ca	      9.88221     11.48205      1.58762        -0.584459     -0.854205      1.046721
Ca	      5.68919     12.68189      3.40587        -0.512293      0.184239     -1.512172
Ca	     11.16619      6.09671      6.55331        -1.247182      1.897797     -0.685536
Ca	      9.13809      0.99573      4.25120        -1.056058      0.380275      0.969794
Si	      7.60530     12.68507      5.80713         3.908310     -0.043361      1.504010
Si	      5.36641      9.53575      0.85602         2.755750      2.160660      4.185416
Si	      7.83418      5.53302      4.59207         1.582549      3.389112      0.022786
Si	      3.75260      9.03567      8.00646        -1.198083     -3.328895     -2.361321
Si	      0.46271      1.73644     12.31256         1.298320     -2.219551      2.488113
Si	      7.64241      5.38035      8.90229         1.566376     -1.142713     -3.359279
Si	      0.10509      3.73313      0.38674         2.002724     -6.022095      4.126695
Si	     11.90414      9.69671      5.73824         3.330062     -4.699463     -1.946421
Si	      7.56563     10.26310     12.35101         4.542485      1.766226      2.506362
Si	      6.52822      7.67465      8.32719        -5.725494      2.803531      3.397329
Si	      6.31443      2.27115      2.22488        -0.942809     -1.765095     -3.611858
Si	     10.66240      4.03057      1.85240         0.043857     -7.471019     -3.964336
Si	      7.50317      3.65223     11.38821        -3.060238     -6.793345      2.955547
Si	     12.25621      7.00956     12.67328         0.636038     -2.978850      1.534622
Si	      2.01041      0.23915      7.44129        -6.084624     -0.723498     -0.382489
Si	     11.54756      6.07207      1.99565         0.197121      3.073864     -3.703772
Si	      1.06606     10.23463      1.20764        -1.350579     -3.631046     -0.446062
Si	      4.33568     13.42478      0.42673         0.266892     -0.587737     -0.493083
Si	      1.36201      3.10671      9.33522         6.087187     -3.677432      2.014519
Si	      7.18604      0.90837      9.37314        -5.359048      0.269256      1.938454
Si	     10.72013     10.96198     11.40739        -2.811184      0.503877      2.373013
Si	      8.97834     13.30741     11.34389         5.752905     -6.746911      5.957544
Si	      2.05303      8.50118     10.38673        -4.916081      1.506146     -1.627249
Si	     12.15010      2.22097      6.64691         2.680207     -3.613152      3.837733
Si	     12.85366     10.89621      3.26686         2.636254      1.778784     -4.584319
Si	     11.40772      0.84003      2.50706         9.851389      4.678714     -4.488434
Si	     12.50125      3.94214      8.38624         1.476508     -1.959300      2.838153
O	      6.00449      2.84810     11.95230         3.910383      2.612778     -1.105288
O	     13.76975      7.73015     13.10331        -3.208081     -0.784107     -2.559631
O	      7.25840      6.37025      7.63226        -1.732652     -0.006140     -0.025437
O	     13.76386      2.94886      9.48958        -0.444984      1.763818     -1.907282
O	      6.05460      9.44439      2.63215        -2.413072      0.121850     -5.060466
O	      3.47248      4.10762      5.92418        -0.608364     -1.074817      1.109108
O	      3.44735      0.05964      7.13513         8.714182     -0.817025     -0.142714
O	      9.02328      9.66241      2.98452         0.973379      0.548733     -2.251185