<?xml version="1.0" encoding="ISO-8859-1"?>
<modeling>
 <generator>
  <i name="program" type="string">vasp </i>
  <i name="version" type="string">5.4.4.18Apr17-6-g9f103f2a35  </i>
  <i name="subversion" type="string">(build Oct 31 2019 15:01:46) complex            parallel </i>
  <i name="platform" type="string">LinuxIFC </i>
  <i name="date" type="string">2024 04 29 </i>
  <i name="time" type="string">21:39:48 </i>
 </generator>
 <incar>
  <i type="int" name="ISTART">     0</i>
  <i type="string" name="PREC">a</i>
  <i type="logical" name="ADDGRID"> T  </i>
  <i type="int" name="IBRION">    -1</i>
  <i name="EDIFF">      0.00000100</i>
  <i name="EDIFFG">     -0.01000000</i>
  <i type="int" name="NSW">     1</i>
  <i type="int" name="ISIF">     2</i>
  <i type="int" name="ISYM">     0</i>
  <i name="ENCUT">    600.00000000</i>
  <i name="POTIM">      1.00000000</i>
  <i type="string" name="LREAL">  Auto</i>
  <i type="int" name="ISMEAR">     0</i>
  <i name="SIGMA">      0.05000000</i>
  <i name="KSPACING">      0.30000000</i>
  <i type="logical" name="KGAMMA"> T  </i>
  <i type="logical" name="LWAVE"> F  </i>
  <i type="logical" name="LCHARG"> F  </i>
  <i type="logical" name="LSCALAPACK"> F  </i>
  <v type="int" name="KPOINT_BSE">    -1     0     0     0</v>
 </incar>
 <structure name="primitive_cell" >
  <crystal>
   <varray name="basis" >
    <v>      10.56489661       0.00000000       0.00000000 </v>
    <v>       0.00000000      10.56489661       0.00000000 </v>
    <v>       0.00000000       0.00000000      10.56489661 </v>
   </varray>
   <i name="volume">   1179.22249153 </i>
   <varray name="rec_basis" >
    <v>       0.09465308       0.00000000       0.00000000 </v>
    <v>       0.00000000       0.09465308       0.00000000 </v>
    <v>       0.00000000       0.00000000       0.09465308 </v>
   </varray>
  </crystal>
  <varray name="positions" >
   <v>       0.15629740      -0.02496266       0.11988932 </v>
   <v>       0.02719494      -0.00120714      -0.03241563 </v>
   <v>       0.30355741       0.00469736       0.27044292 </v>
   <v>      -0.00183035      -0.16781940       0.13230174 </v>
   <v>       0.21741143      -0.07181886      -0.09812553 </v>
   <v>      -0.06428263       0.03395788       0.17888437 </v>
   <v>       0.38286504      -0.07093132       0.06817761 </v>
   <v>       0.13554084      -0.20313636       0.28208451 </v>
   <v>       0.09509516       0.04006384       0.35363674 </v>
   <v>       0.06879727       0.21941591       0.14259881 </v>
   <v>       0.34538892       0.15447981       0.10698094 </v>
   <v>       0.12154899       0.06349313      -0.12894107 </v>
   <v>       0.23692148      -0.25573652       0.01376746 </v>
   <v>       0.20281017      -0.07279747       0.38868645 </v>
   <v>       0.19403937       0.18663991      -0.05820106 </v>
   <v>       0.33284058      -0.16846192      -0.05066338 </v>
   <v>       0.00008110       0.15185508       0.27883478 </v>
   <v>       0.20556313       0.25737474       0.08644896 </v>
   <v>      -0.12516980      -0.08393266       0.07573759 </v>
   <v>       0.44626946       0.03750460       0.18918819 </v>
   <v>       0.36683811      -0.23259800       0.19332200 </v>
   <v>       0.06529076      -0.30305878       0.21604623 </v>
   <v>       0.04259536      -0.22547425      -0.08862087 </v>
   <v>      -0.04866895      -0.11114326       0.34037893 </v>
   <v>       0.25562980       0.19649116       0.32303381 </v>
   <v>       0.40616420       0.06931784      -0.08144130 </v>
   <v>      -0.09021229       0.20309854       0.02557867 </v>
   <v>       0.01185483      -0.37282591       0.09875022 </v>
   <v>      -0.00400557       0.12887221      -0.19379614 </v>
   <v>       0.09278141      -0.16076489       0.47428026 </v>
   <v>       0.33390442      -0.18581550       0.42231415 </v>
   <v>       0.44786747       0.15665880       0.30027699 </v>
   <v>       0.27290907       0.02515195       0.49105504 </v>
   <v>      -0.12793137       0.08199734       0.37740043 </v>
   <v>       0.06929293       0.25449151       0.39008521 </v>
   <v>       0.23916424       0.36031056       0.17868949 </v>
   <v>       0.19323841      -0.40964018       0.22485093 </v>
   <v>       0.20377069       0.10460746      -0.25973421 </v>
   <v>      -0.21549186       0.02509402      -0.02989067 </v>
   <v>       0.05026419      -0.10026784      -0.26878020 </v>
   <v>       0.45323242      -0.17095903      -0.13540500 </v>
   <v>      -0.20373272      -0.21278544       0.01948550 </v>
   <v>      -0.25300940      -0.08435180       0.18306961 </v>
   <v>      -0.44492033      -0.06584954       0.25996418 </v>
   <v>      -0.09958915       0.28800754       0.25852191 </v>
   <v>      -0.42290788       0.03619965       0.05866558 </v>
   <v>       0.32463330       0.33942020      -0.04575170 </v>
   <v>      -0.03275922      -0.37828199       0.30043297 </v>
   <v>       0.13361995      -0.35126128       0.41903677 </v>
   <v>      -0.26268689       0.10112620       0.22170248 </v>
   <v>       0.47957291      -0.31391077      -0.00286943 </v>
   <v>       0.27850644      -0.42853362      -0.04068408 </v>
   <v>       0.40246293       0.01979507      -0.26677892 </v>
   <v>      -0.14481704      -0.02912276      -0.23446420 </v>
   <v>      -0.09157784      -0.37735229      -0.07454077 </v>
   <v>       0.05544218       0.41551122       0.26120666 </v>
   <v>       0.48828323       0.31389797       0.09407987 </v>
   <v>      -0.48959807      -0.04733719       0.44411389 </v>
   <v>       0.15809034       0.34310163      -0.19029718 </v>
   <v>       0.09325069      -0.41129360      -0.16436113 </v>
   <v>      -0.38827982      -0.13936366       0.00237235 </v>
   <v>       0.29164669      -0.30913347      -0.25204988 </v>
   <v>       0.15827938       0.45259091       0.02273832 </v>
   <v>      -0.00689586       0.37957543      -0.11536195 </v>
   <v>       0.05781056       0.05917734      -0.39822151 </v>
   <v>       0.23386246       0.36843219       0.42244308 </v>
   <v>       0.30075983      -0.12170925      -0.35389374 </v>
   <v>      -0.27303988      -0.08311917       0.38131124 </v>
   <v>      -0.19724301      -0.38771061       0.11391459 </v>
   <v>       0.25131958       0.22089023      -0.44398257 </v>
   <v>       0.41124828      -0.46493306       0.15329659 </v>
   <v>      -0.21621768      -0.27860706      -0.13307325 </v>
   <v>      -0.45954352       0.24136667      -0.10206201 </v>
   <v>       0.44467575       0.36509287       0.30556481 </v>
   <v>      -0.28869390       0.23769275       0.06517954 </v>
   <v>       0.13163082       0.32675406      -0.49449239 </v>
   <v>      -0.47025156      -0.22860422       0.42523198 </v>
   <v>       0.34245300       0.27580781      -0.26809658 </v>
   <v>      -0.39460205      -0.29274791       0.17641221 </v>
   <v>       0.00692305       0.48646760      -0.01384970 </v>
   <v>       0.00222578      -0.18963985      -0.40014290 </v>
   <v>      -0.11948033      -0.10457530      -0.42905765 </v>
   <v>      -0.22103748       0.01115279       0.49714979 </v>
   <v>       0.33357202       0.14909403      -0.35479560 </v>
   <v>      -0.23205026       0.20637437      -0.17224255 </v>
   <v>      -0.10990823       0.44166749       0.07080571 </v>
   <v>      -0.12681935      -0.26960508      -0.27052852 </v>
   <v>      -0.07365563      -0.31335380      -0.48438885 </v>
   <v>      -0.11955692       0.21466497      -0.28096141 </v>
   <v>      -0.46576164       0.25665034       0.38950859 </v>
   <v>      -0.22554506       0.35770329       0.18915884 </v>
   <v>      -0.33894059       0.13274185      -0.04664069 </v>
   <v>      -0.23509821      -0.33225355       0.34556715 </v>
   <v>      -0.15073308       0.27494578       0.45840340 </v>
   <v>      -0.39698995       0.02382010      -0.20164172 </v>
   <v>       0.33792366       0.47101559       0.28626422 </v>
   <v>       0.45874963       0.35926599      -0.14117455 </v>
   <v>      -0.33151318      -0.21408961       0.31018954 </v>
   <v>       0.40112071      -0.43510447       0.40635644 </v>
   <v>       0.12082555      -0.30188345      -0.38899718 </v>
   <v>       0.16552758      -0.41251893      -0.29104765 </v>
   <v>      -0.43814522      -0.10815765      -0.26725981 </v>
   <v>       0.46483171       0.17430427      -0.44039601 </v>
   <v>      -0.44284336      -0.43156904       0.05597037 </v>
   <v>      -0.31890621      -0.16962842      -0.17982996 </v>
   <v>      -0.13247211      -0.44907906       0.40159879 </v>
   <v>      -0.00656626       0.25843177      -0.39127666 </v>
   <v>      -0.46908343      -0.36418436      -0.18226907 </v>
   <v>       0.04852841       0.46048231       0.43764662 </v>
   <v>       0.39826705      -0.33591035      -0.42879311 </v>
   <v>      -0.35446107       0.12417971       0.43247483 </v>
   <v>      -0.32037793       0.30077741       0.30036881 </v>
   <v>      -0.31855158      -0.36754499      -0.05514886 </v>
   <v>       0.37073177      -0.49991110      -0.19988695 </v>
   <v>       0.49478394      -0.20531979      -0.35855311 </v>
   <v>      -0.19940453       0.16056659      -0.40276557 </v>
   <v>      -0.22079484       0.48501009       0.26376804 </v>
   <v>      -0.09333048      -0.42511704      -0.30530789 </v>
   <v>      -0.24778811       0.42970365      -0.09740071 </v>
   <v>      -0.40551354      -0.45219005       0.34062941 </v>
   <v>      -0.37259621       0.18917362      -0.27802582 </v>
   <v>      -0.44097920       0.46540768      -0.05809423 </v>
   <v>       0.42777546       0.40107375      -0.43433576 </v>
   <v>       0.01821645       0.48678581      -0.32372399 </v>
   <v>      -0.41143938       0.34204146       0.49694999 </v>
   <v>      -0.22161496       0.36795253      -0.29441066 </v>
   <v>      -0.31100099      -0.25397606      -0.43451701 </v>
   <v>      -0.32650713      -0.02081222      -0.38954800 </v>
   <v>      -0.25545485      -0.41935090      -0.27284846 </v>
   <v>      -0.34484073       0.45738308       0.12751479 </v>
   <v>      -0.43382705       0.39844095      -0.26320769 </v>
   <v>       0.21412732       0.47821309      -0.37921948 </v>
   <v>      -0.41731001      -0.42249701      -0.44702876 </v>
   <v>      -0.19784511       0.47149696      -0.48457186 </v>
   <v>      -0.35581096       0.44290023      -0.38251447 </v>
  </varray>
 </structure>
 <varray name="primitive_index" >
  <v type="int" >        1 </v>
  <v type="int" >      134 </v>
  <v type="int" >       70 </v>
  <v type="int" >      112 </v>
  <v type="int" >      128 </v>
  <v type="int" >       94 </v>
  <v type="int" >      129 </v>
  <v type="int" >       64 </v>
  <v type="int" >      104 </v>
  <v type="int" >       86 </v>
  <v type="int" >      124 </v>
  <v type="int" >       38 </v>
  <v type="int" >       66 </v>
  <v type="int" >       33 </v>
  <v type="int" >      133 </v>
  <v type="int" >       44 </v>
  <v type="int" >       43 </v>
  <v type="int" >       39 </v>
  <v type="int" >       34 </v>
  <v type="int" >       45 </v>
  <v type="int" >       26 </v>
  <v type="int" >       47 </v>
  <v type="int" >       12 </v>
  <v type="int" >        9 </v>
  <v type="int" >       27 </v>
  <v type="int" >        6 </v>
  <v type="int" >       17 </v>
  <v type="int" >       99 </v>
  <v type="int" >      114 </v>
  <v type="int" >       87 </v>
  <v type="int" >       68 </v>
  <v type="int" >       80 </v>
  <v type="int" >       88 </v>
  <v type="int" >       77 </v>
  <v type="int" >      125 </v>
  <v type="int" >      113 </v>
  <v type="int" >      126 </v>
  <v type="int" >      106 </v>
  <v type="int" >       98 </v>
  <v type="int" >      122 </v>
  <v type="int" >       92 </v>
  <v type="int" >       93 </v>
  <v type="int" >      111 </v>
  <v type="int" >       59 </v>
  <v type="int" >       96 </v>
  <v type="int" >       69 </v>
  <v type="int" >      119 </v>
  <v type="int" >       95 </v>
  <v type="int" >        8 </v>
  <v type="int" >        7 </v>
  <v type="int" >       62 </v>
  <v type="int" >       20 </v>
  <v type="int" >      107 </v>
  <v type="int" >       13 </v>
  <v type="int" >      121 </v>
  <v type="int" >       16 </v>
  <v type="int" >        4 </v>
  <v type="int" >       23 </v>
  <v type="int" >        3 </v>
  <v type="int" >      100 </v>
  <v type="int" >       14 </v>
  <v type="int" >       71 </v>
  <v type="int" >      123 </v>
  <v type="int" >       84 </v>
  <v type="int" >        2 </v>
  <v type="int" >       72 </v>
  <v type="int" >        5 </v>
  <v type="int" >       60 </v>
  <v type="int" >       10 </v>
  <v type="int" >      103 </v>
  <v type="int" >      127 </v>
  <v type="int" >       36 </v>
  <v type="int" >       73 </v>
  <v type="int" >      130 </v>
  <v type="int" >       58 </v>
  <v type="int" >       50 </v>
  <v type="int" >      117 </v>
  <v type="int" >       78 </v>
  <v type="int" >       83 </v>
  <v type="int" >       46 </v>
  <v type="int" >       32 </v>
  <v type="int" >       67 </v>
  <v type="int" >       40 </v>
  <v type="int" >       52 </v>
  <v type="int" >       61 </v>
  <v type="int" >       56 </v>
  <v type="int" >      132 </v>
  <v type="int" >       75 </v>
  <v type="int" >       37 </v>
  <v type="int" >       31 </v>
  <v type="int" >       49 </v>
  <v type="int" >       42 </v>
  <v type="int" >      105 </v>
  <v type="int" >       25 </v>
  <v type="int" >      131 </v>
  <v type="int" >       29 </v>
  <v type="int" >       54 </v>
  <v type="int" >       35 </v>
  <v type="int" >       65 </v>
  <v type="int" >       81 </v>
  <v type="int" >       48 </v>
  <v type="int" >       30 </v>
  <v type="int" >      102 </v>
  <v type="int" >       51 </v>
  <v type="int" >      101 </v>
  <v type="int" >       28 </v>
  <v type="int" >      115 </v>
  <v type="int" >       19 </v>
  <v type="int" >       90 </v>
  <v type="int" >       21 </v>
  <v type="int" >      116 </v>
  <v type="int" >       63 </v>
  <v type="int" >       97 </v>
  <v type="int" >      110 </v>
  <v type="int" >      135 </v>
  <v type="int" >      108 </v>
  <v type="int" >       74 </v>
  <v type="int" >       53 </v>
  <v type="int" >       22 </v>
  <v type="int" >       24 </v>
  <v type="int" >       18 </v>
  <v type="int" >       55 </v>
  <v type="int" >       11 </v>
  <v type="int" >       91 </v>
  <v type="int" >       89 </v>
  <v type="int" >       76 </v>
  <v type="int" >       15 </v>
  <v type="int" >      118 </v>
  <v type="int" >       85 </v>
  <v type="int" >      120 </v>
  <v type="int" >      109 </v>
  <v type="int" >       79 </v>
  <v type="int" >       82 </v>
  <v type="int" >       57 </v>
  <v type="int" >       41 </v>
 </varray>
 <kpoints>
  <generation param="Gamma">
   <v type="int" name="divisions">       2        2        2 </v>
   <v name="usershift">      0.00000000       0.00000000       0.00000000 </v>
   <v name="genvec1">      0.50000000       0.00000000       0.00000000 </v>
   <v name="genvec2">      0.00000000       0.50000000       0.00000000 </v>
   <v name="genvec3">      0.00000000       0.00000000       0.50000000 </v>
   <v name="shift">      0.00000000       0.00000000       0.00000000 </v>
  </generation>
  <varray name="kpointlist" >
   <v>       0.00000000       0.00000000       0.00000000 </v>
   <v>       0.50000000       0.00000000       0.00000000 </v>
   <v>       0.00000000       0.50000000       0.00000000 </v>
   <v>       0.50000000       0.50000000       0.00000000 </v>
   <v>       0.00000000       0.00000000       0.50000000 </v>
   <v>       0.50000000       0.00000000       0.50000000 </v>
   <v>       0.00000000       0.50000000       0.50000000 </v>
   <v>       0.50000000       0.50000000       0.50000000 </v>
  </varray>
  <varray name="weights" >
   <v>       0.12500000 </v>
   <v>       0.12500000 </v>
   <v>       0.12500000 </v>
   <v>       0.12500000 </v>
   <v>       0.12500000 </v>
   <v>       0.12500000 </v>
   <v>       0.12500000 </v>
   <v>       0.12500000 </v>
  </varray>
 </kpoints>
 <parameters>
  <separator name="general" >
   <i type="string" name="SYSTEM">unknown system</i>
   <i type="logical" name="LCOMPAT"> F  </i>
  </separator>
  <separator name="electronic" >
   <i type="string" name="PREC">a</i>
   <i name="ENMAX">    600.00000000</i>
   <i name="ENAUG">    605.39200000</i>
   <i name="EDIFF">      0.00000100</i>
   <i type="int" name="IALGO">    38</i>
   <i type="int" name="IWAVPR">    10</i>
   <i type="int" name="NBANDS">   520</i>
   <i name="NELECT">    864.00000000</i>
   <i type="int" name="TURBO">     0</i>
   <i type="int" name="IRESTART">     0</i>
   <i type="int" name="NREBOOT">     0</i>
   <i type="int" name="NMIN">     0</i>
   <i name="EREF">      0.00000000</i>
   <separator name="electronic smearing" >
    <i type="int" name="ISMEAR">     0</i>
    <i name="SIGMA">      0.05000000</i>
    <i name="KSPACING">      0.30000000</i>
    <i type="logical" name="KGAMMA"> T  </i>
   </separator>
   <separator name="electronic projectors" >
    <i type="logical" name="LREAL"> T  </i>
    <v name="ROPT">     -0.00025000     -0.00025000     -0.00025000</v>
    <i type="int" name="LMAXPAW">  -100</i>
    <i type="int" name="LMAXMIX">     2</i>
    <i type="logical" name="NLSPLINE"> F  </i>
   </separator>
   <separator name="electronic startup" >
    <i type="int" name="ISTART">     0</i>
    <i type="int" name="ICHARG">     2</i>
    <i type="int" name="INIWAV">     1</i>
   </separator>
   <separator name="electronic spin" >
    <i type="int" name="ISPIN">     1</i>
    <i type="logical" name="LNONCOLLINEAR"> F  </i>
    <v name="MAGMOM">      1.00000000      1.00000000      1.00000000      1.00000000      1.00000000      1.00000000      1.00000000      1.00000000      1.00000000      1.00000000      1.00000000      1.00000000      1.00000000      1.00000000      1.00000000      1.00000000      1.00000000      1.00000000      1.00000000      1.00000000
      1.00000000      1.00000000      1.00000000      1.00000000      1.00000000      1.00000000      1.00000000      1.00000000      1.00000000      1.00000000      1.00000000      1.00000000      1.00000000      1.00000000      1.00000000      1.00000000      1.00000000      1.00000000      1.00000000      1.00000000
      1.00000000      1.00000000      1.00000000      1.00000000      1.00000000      1.00000000      1.00000000      1.00000000      1.00000000      1.00000000      1.00000000      1.00000000      1.00000000      1.00000000      1.00000000      1.00000000      1.00000000      1.00000000      1.00000000      1.00000000
      1.00000000      1.00000000      1.00000000      1.00000000      1.00000000      1.00000000      1.00000000      1.00000000      1.00000000      1.00000000      1.00000000      1.00000000      1.00000000      1.00000000      1.00000000      1.00000000      1.00000000      1.00000000      1.00000000      1.00000000
      1.00000000      1.00000000      1.00000000      1.00000000      1.00000000      1.00000000      1.00000000      1.00000000      1.00000000      1.00000000      1.00000000      1.00000000      1.00000000      1.00000000      1.00000000      1.00000000      1.00000000      1.00000000      1.00000000      1.00000000
      1.00000000      1.00000000      1.00000000      1.00000000      1.00000000      1.00000000      1.00000000      1.00000000      1.00000000      1.00000000      1.00000000      1.00000000      1.00000000      1.00000000      1.00000000      1.00000000      1.00000000      1.00000000      1.00000000      1.00000000
      1.00000000      1.00000000      1.00000000      1.00000000      1.00000000      1.00000000      1.00000000      1.00000000      1.00000000      1.00000000      1.00000000      1.00000000      1.00000000      1.00000000      1.00000000</v>
    <i name="NUPDOWN">     -1.00000000</i>
    <i type="logical" name="LSORBIT"> F  </i>
    <v name="SAXIS">      0.00000000      0.00000000      1.00000000</v>
    <i type="logical" name="LSPIRAL"> F  </i>
    <v name="QSPIRAL">      0.00000000      0.00000000      0.00000000</v>
    <i type="logical" name="LZEROZ"> F  </i>
   </separator>
   <separator name="electronic exchange-correlation" >
    <i type="logical" name="LASPH"> F  </i>
    <i type="logical" name="LMETAGGA"> F  </i>
   </separator>
   <separator name="electronic convergence" >
    <i type="int" name="NELM">    60</i>
    <i type="int" name="NELMDL">    -5</i>
    <i type="int" name="NELMIN">     2</i>
    <i name="ENINI">    600.00000000</i>
    <separator name="electronic convergence detail" >
     <i type="logical" name="LDIAG"> T  </i>
     <i type="logical" name="LSUBROT"> F  </i>
     <i name="WEIMIN">      0.00000000</i>
     <i name="EBREAK">      0.00000000</i>
     <i name="DEPER">      0.30000000</i>
     <i type="int" name="NRMM">     4</i>
     <i name="TIME">      0.40000000</i>
    </separator>
   </separator>
   <separator name="electronic mixer" >
    <i name="AMIX">      0.40000000</i>
    <i name="BMIX">      1.00000000</i>
    <i name="AMIN">      0.10000000</i>
    <i name="AMIX_MAG">      1.60000000</i>
    <i name="BMIX_MAG">      1.00000000</i>
    <separator name="electronic mixer details" >
     <i type="int" name="IMIX">     4</i>
     <i type="logical" name="MIXFIRST"> F  </i>
     <i type="int" name="MAXMIX">   -45</i>
     <i name="WC">    100.00000000</i>
     <i type="int" name="INIMIX">     1</i>
     <i type="int" name="MIXPRE">     1</i>
     <i type="int" name="MREMOVE">     5</i>
    </separator>
   </separator>
   <separator name="electronic dipolcorrection" >
    <i type="logical" name="LDIPOL"> F  </i>
    <i type="logical" name="LMONO"> F  </i>
    <i type="int" name="IDIPOL">     0</i>
    <i name="EPSILON">      1.00000000</i>
    <v name="DIPOL">   -100.00000000   -100.00000000   -100.00000000</v>
    <i name="EFIELD">      0.00000000</i>
   </separator>
  </separator>
  <separator name="grids" >
   <i type="int" name="NGX">    84</i>
   <i type="int" name="NGY">    84</i>
   <i type="int" name="NGZ">    84</i>
   <i type="int" name="NGXF">   168</i>
   <i type="int" name="NGYF">   168</i>
   <i type="int" name="NGZF">   168</i>
   <i type="logical" name="ADDGRID"> T  </i>
  </separator>
  <separator name="ionic" >
   <i type="int" name="NSW">     1</i>
   <i type="int" name="IBRION">    -1</i>
   <i type="int" name="MDALGO">     0</i>
   <i type="int" name="ISIF">     2</i>
   <i name="PSTRESS">      0.00000000</i>
   <i name="EDIFFG">     -0.01000000</i>
   <i type="int" name="NFREE">     0</i>
   <i name="POTIM">      1.00000000</i>
   <i name="SMASS">     -3.00000000</i>
   <i name="SCALEE">      1.00000000</i>
  </separator>
  <separator name="ionic md" >
   <i name="TEBEG">      0.00010000</i>
   <i name="TEEND">      0.00010000</i>
   <i type="int" name="NBLOCK">     1</i>
   <i type="int" name="KBLOCK">     1</i>
   <i type="int" name="NPACO">   256</i>
   <i name="APACO">     16.00000000</i>
  </separator>
  <separator name="symmetry" >
   <i type="int" name="ISYM">     0</i>
   <i name="SYMPREC">      0.00001000</i>
  </separator>
  <separator name="dos" >
   <i type="int" name="LORBIT">     0</i>
   <v name="RWIGS">     -1.00000000     -1.00000000     -1.00000000</v>
   <i type="int" name="NEDOS">   301</i>
   <i name="EMIN">     10.00000000</i>
   <i name="EMAX">    -10.00000000</i>
   <i name="EFERMI">      0.00000000</i>
  </separator>
  <separator name="writing" >
   <i type="int" name="NWRITE">     2</i>
   <i type="logical" name="LWAVE"> F  </i>
   <i type="logical" name="LDOWNSAMPLE"> F  </i>
   <i type="logical" name="LCHARG"> F  </i>
   <i type="logical" name="LPARD"> F  </i>
   <i type="logical" name="LVTOT"> F  </i>
   <i type="logical" name="LVHAR"> F  </i>
   <i type="logical" name="LELF"> F  </i>
   <i type="logical" name="LOPTICS"> F  </i>
   <v name="STM">      0.00000000      0.00000000      0.00000000      0.00000000      0.00000000      0.00000000      0.00000000</v>
  </separator>
  <separator name="performance" >
   <i type="int" name="NPAR">     4</i>
   <i type="int" name="NSIM">     4</i>
   <i type="int" name="NBLK">    -1</i>
   <i type="logical" name="LPLANE"> T  </i>
   <i type="logical" name="LSCALAPACK"> F  </i>
   <i type="logical" name="LSCAAWARE"> F  </i>
   <i type="logical" name="LSCALU"> F  </i>
   <i type="logical" name="LASYNC"> F  </i>
   <i type="logical" name="LORBITALREAL"> F  </i>
  </separator>
  <separator name="miscellaneous" >
   <i type="int" name="IDIOT">     3</i>
   <i type="int" name="ISPECIAL">     0</i>
   <i type="logical" name="LMUSIC"> F  </i>
   <v name="POMASS">     40.07800000     28.08500000     16.00000000</v>
   <v name="DARWINR">      0.00000000      0.00000000      0.00000000</v>
   <v name="DARWINV">      1.00000000      1.00000000      1.00000000</v>
   <i type="logical" name="LCORR"> T  </i>
  </separator>
  <i type="logical" name="GGA_COMPAT"> T  </i>
  <i type="logical" name="LBERRY"> F  </i>
  <i type="int" name="ICORELEVEL">     0</i>
  <i type="logical" name="LDAU"> F  </i>
  <i type="int" name="I_CONSTRAINED_M">     0</i>
  <separator name="electronic exchange-correlation" >
   <i type="string" name="GGA">--</i>
   <i type="int" name="VOSKOWN">     0</i>
   <i type="logical" name="LHFCALC"> F  </i>
   <i type="string" name="PRECFOCK"></i>
   <i type="logical" name="LSYMGRAD"> F  </i>
   <i type="logical" name="LHFONE"> F  </i>
   <i type="logical" name="LRHFCALC"> F  </i>
   <i type="logical" name="LTHOMAS"> F  </i>
   <i type="logical" name="LMODELHF"> F  </i>
   <i name="ENCUT4O">     -1.00000000</i>
   <i type="int" name="EXXOEP">     0</i>
   <i type="int" name="FOURORBIT">     0</i>
   <i name="AEXX">      0.00000000</i>
   <i name="HFALPHA">      0.00000000</i>
   <i name="MCALPHA">      0.00000000</i>
   <i name="ALDAX">      1.00000000</i>
   <i name="AGGAX">      1.00000000</i>
   <i name="ALDAC">      1.00000000</i>
   <i name="AGGAC">      1.00000000</i>
   <i type="int" name="NKREDX">     1</i>
   <i type="int" name="NKREDY">     1</i>
   <i type="int" name="NKREDZ">     1</i>
   <i type="logical" name="SHIFTRED"> F  </i>
   <i type="logical" name="ODDONLY"> F  </i>
   <i type="logical" name="EVENONLY"> F  </i>
   <i type="int" name="LMAXFOCK">     0</i>
   <i type="int" name="NMAXFOCKAE">     0</i>
   <i type="logical" name="LFOCKAEDFT"> F  </i>
   <i name="HFSCREEN">      0.00000000</i>
   <i name="HFSCREENC">      0.00000000</i>
   <i type="int" name="NBANDSGWLOW">     0</i>
  </separator>
  <separator name="vdW DFT" >
   <i type="logical" name="LUSE_VDW"> F  </i>
   <i name="Zab_VDW">     -0.84910000</i>
   <i name="PARAM1">      0.12340000</i>
   <i name="PARAM2">      1.00000000</i>
   <i name="PARAM3">      0.00000000</i>
  </separator>
  <separator name="model GW" >
   <i type="int" name="MODEL_GW">     0</i>
   <i name="MODEL_EPS0">      5.24098885</i>
   <i name="MODEL_ALPHA">      1.00000000</i>
  </separator>
  <separator name="linear response parameters" >
   <i type="logical" name="LEPSILON"> F  </i>
   <i type="logical" name="LRPA"> F  </i>
   <i type="logical" name="LNABLA"> F  </i>
   <i type="logical" name="LVEL"> F  </i>
   <i type="int" name="KINTER">     0</i>
   <i name="CSHIFT">      0.10000000</i>
   <i name="OMEGAMAX">     -1.00000000</i>
   <i name="DEG_THRESHOLD">      0.00200000</i>
   <i name="RTIME">     -0.10000000</i>
   <i name="WPLASMAI">      0.00000000</i>
   <v name="DFIELD">      0.00000000      0.00000000      0.00000000</v>
   <v name="WPLASMA">      0.00000000      0.00000000      0.00000000      0.00000000      0.00000000      0.00000000      0.00000000      0.00000000      0.00000000</v>
  </separator>
  <separator name="orbital magnetization" >
   <i type="logical" name="NUCIND"> F  </i>
   <v name="MAGPOS">      0.00000000      0.00000000      0.00000000</v>
   <i type="logical" name="LNICSALL"> T  </i>
   <i type="logical" name="ORBITALMAG"> F  </i>
   <i type="logical" name="LMAGBLOCH"> F  </i>
   <i type="logical" name="LCHIMAG"> F  </i>
   <i type="logical" name="LGAUGE"> T  </i>
   <i type="int" name="MAGATOM">     0</i>
   <v name="MAGDIPOL">      0.00000000      0.00000000      0.00000000</v>
   <v name="AVECCONST">      0.00000000      0.00000000      0.00000000</v>
  </separator>
  <separator name="response functions" >
   <i type="logical" name="LADDER"> F  </i>
   <i type="logical" name="LRPAFORCE"> F  </i>
   <i type="logical" name="LFXC"> F  </i>
   <i type="logical" name="LHARTREE"> T  </i>
   <i type="int" name="IBSE">     0</i>
   <v type="int" name="KPOINT">    -1     0     0     0</v>
   <i type="logical" name="LTCTE"> F  </i>
   <i type="logical" name="LTETE"> F  </i>
   <i type="logical" name="LTRIPLET"> F  </i>
   <i type="logical" name="LFXCEPS"> F  </i>
   <i type="logical" name="LFXHEG"> F  </i>
   <i type="int" name="NATURALO">     2</i>
   <i type="logical" name="L2ORDER"> F  </i>
   <i type="logical" name="LMP2LT"> F  </i>
   <i type="logical" name="LUSEW"> F  </i>
   <i name="ENCUTGW">     -2.00000000</i>
   <i name="ENCUTGWSOFT">     -2.00000000</i>
   <i name="ENCUTLF">     -1.00000000</i>
   <i type="int" name="LMAXMP2">    -1</i>
   <i name="SCISSOR">      0.00000000</i>
   <i type="int" name="NOMEGA">     0</i>
   <i type="int" name="NOMEGAR">     0</i>
   <i type="int" name="NBANDSGW">    -1</i>
   <i type="int" name="NBANDSO">    -1</i>
   <i type="int" name="NBANDSV">    -1</i>
   <i type="int" name="NELM">     1</i>
   <i type="int" name="NELMHF">     1</i>
   <i type="int" name="DIM">     3</i>
   <i type="int" name="ANTIRES">     0</i>
   <i name="OMEGAMAX">    -30.00000000</i>
   <i name="OMEGAMIN">    -30.00000000</i>
   <i name="OMEGATL">   -200.00000000</i>
   <i type="int" name="OMEGAGRID">   140</i>
   <i name="CSHIFT">     -0.10000000</i>
   <i type="logical" name="SELFENERGY"> F  </i>
   <i type="logical" name="LSPECTRAL"> F  </i>
   <i type="logical" name="LSPECTRALGW"> F  </i>
   <i type="logical" name="LSINGLES"> F  </i>
   <i type="logical" name="LFERMIGW"> F  </i>
   <i type="logical" name="ODDONLYGW"> F  </i>
   <i type="logical" name="EVENONLYGW"> F  </i>
   <i type="int" name="NKREDLFX">     1</i>
   <i type="int" name="NKREDLFY">     1</i>
   <i type="int" name="NKREDLFZ">     1</i>
   <i type="int" name="MAXMEM">  2800</i>
   <i type="int" name="TELESCOPE">     0</i>
   <i type="int" name="TAUPAR">     1</i>
   <i type="int" name="OMEGAPAR">    -1</i>
   <i name="LAMBDA">      1.00000000</i>
  </separator>
  <separator name="External order field" >
   <i name="OFIELD_KAPPA">      0.00000000</i>
   <v name="OFIELD_K">      0.00000000      0.00000000      0.00000000</v>
   <i name="OFIELD_Q6_NEAR">      0.00000000</i>
   <i name="OFIELD_Q6_FAR">      0.00000000</i>
   <i name="OFIELD_A">      0.00000000</i>
  </separator>
 </parameters>
 <atominfo>
  <atoms>     135 </atoms>
  <types>       3 </types>
  <array name="atoms" >
   <dimension dim="1">ion</dimension>
   <field type="string">element</field>
   <field type="int">atomtype</field>
   <set>
    <rc><c>Ca</c><c>   1</c></rc>
    <rc><c>Ca</c><c>   1</c></rc>
    <rc><c>Ca</c><c>   1</c></rc>
    <rc><c>Ca</c><c>   1</c></rc>
    <rc><c>Ca</c><c>   1</c></rc>
    <rc><c>Ca</c><c>   1</c></rc>
    <rc><c>Ca</c><c>   1</c></rc>
    <rc><c>Ca</c><c>   1</c></rc>
    <rc><c>Ca</c><c>   1</c></rc>
    <rc><c>Ca</c><c>   1</c></rc>
    <rc><c>Ca</c><c>   1</c></rc>
    <rc><c>Ca</c><c>   1</c></rc>
    <rc><c>Ca</c><c>   1</c></rc>
    <rc><c>Ca</c><c>   1</c></rc>
    <rc><c>Ca</c><c>   1</c></rc>
    <rc><c>Ca</c><c>   1</c></rc>
    <rc><c>Ca</c><c>   1</c></rc>
    <rc><c>Ca</c><c>   1</c></rc>
    <rc><c>Ca</c><c>   1</c></rc>
    <rc><c>Ca</c><c>   1</c></rc>
    <rc><c>Ca</c><c>   1</c></rc>
    <rc><c>Ca</c><c>   1</c></rc>
    <rc><c>Ca</c><c>   1</c></rc>
    <rc><c>Ca</c><c>   1</c></rc>
    <rc><c>Ca</c><c>   1</c></rc>
    <rc><c>Ca</c><c>   1</c></rc>
    <rc><c>Ca</c><c>   1</c></rc>
    <rc><c>Si</c><c>   2</c></rc>
    <rc><c>Si</c><c>   2</c></rc>
    <rc><c>Si</c><c>   2</c></rc>
    <rc><c>Si</c><c>   2</c></rc>
    <rc><c>Si</c><c>   2</c></rc>
    <rc><c>Si</c><c>   2</c></rc>
    <rc><c>Si</c><c>   2</c></rc>
    <rc><c>Si</c><c>   2</c></rc>
    <rc><c>Si</c><c>   2</c></rc>
    <rc><c>Si</c><c>   2</c></rc>
    <rc><c>Si</c><c>   2</c></rc>
    <rc><c>Si</c><c>   2</c></rc>
    <rc><c>Si</c><c>   2</c></rc>
    <rc><c>Si</c><c>   2</c></rc>
    <rc><c>Si</c><c>   2</c></rc>
    <rc><c>Si</c><c>   2</c></rc>
    <rc><c>Si</c><c>   2</c></rc>
    <rc><c>Si</c><c>   2</c></rc>
    <rc><c>Si</c><c>   2</c></rc>
    <rc><c>Si</c><c>   2</c></rc>
    <rc><c>Si</c><c>   2</c></rc>
    <rc><c>Si</c><c>   2</c></rc>
    <rc><c>Si</c><c>   2</c></rc>
    <rc><c>Si</c><c>   2</c></rc>
    <rc><c>Si</c><c>   2</c></rc>
    <rc><c>Si</c><c>   2</c></rc>
    <rc><c>Si</c><c>   2</c></rc>
    <rc><c>O </c><c>   3</c></rc>
    <rc><c>O </c><c>   3</c></rc>
    <rc><c>O </c><c>   3</c></rc>
    <rc><c>O </c><c>   3</c></rc>
    <rc><c>O </c><c>   3</c></rc>
    <rc><c>O </c><c>   3</c></rc>
    <rc><c>O </c><c>   3</c></rc>
    <rc><c>O </c><c>   3</c></rc>
    <rc><c>O </c><c>   3</c></rc>
    <rc><c>O </c><c>   3</c></rc>
    <rc><c>O </c><c>   3</c></rc>
    <rc><c>O </c><c>   3</c></rc>
    <rc><c>O </c><c>   3</c></rc>
    <rc><c>O </c><c>   3</c></rc>
    <rc><c>O </c><c>   3</c></rc>
    <rc><c>O </c><c>   3</c></rc>
    <rc><c>O </c><c>   3</c></rc>
    <rc><c>O </c><c>   3</c></rc>
    <rc><c>O </c><c>   3</c></rc>
    <rc><c>O </c><c>   3</c></rc>
    <rc><c>O </c><c>   3</c></rc>
    <rc><c>O </c><c>   3</c></rc>
    <rc><c>O </c><c>   3</c></rc>
    <rc><c>O </c><c>   3</c></rc>
    <rc><c>O </c><c>   3</c></rc>
    <rc><c>O </c><c>   3</c></rc>
    <rc><c>O </c><c>   3</c></rc>
    <rc><c>O </c><c>   3</c></rc>
    <rc><c>O </c><c>   3</c></rc>
    <rc><c>O </c><c>   3</c></rc>
    <rc><c>O </c><c>   3</c></rc>
    <rc><c>O </c><c>   3</c></rc>
    <rc><c>O </c><c>   3</c></rc>
    <rc><c>O </c><c>   3</c></rc>
    <rc><c>O </c><c>   3</c></rc>
    <rc><c>O </c><c>   3</c></rc>
    <rc><c>O </c><c>   3</c></rc>
    <rc><c>O </c><c>   3</c></rc>
    <rc><c>O </c><c>   3</c></rc>
    <rc><c>O </c><c>   3</c></rc>
    <rc><c>O </c><c>   3</c></rc>
    <rc><c>O </c><c>   3</c></rc>
    <rc><c>O </c><c>   3</c></rc>
    <rc><c>O </c><c>   3</c></rc>
    <rc><c>O </c><c>   3</c></rc>
    <rc><c>O </c><c>   3</c></rc>
    <rc><c>O </c><c>   3</c></rc>
    <rc><c>O </c><c>   3</c></rc>
    <rc><c>O </c><c>   3</c></rc>
    <rc><c>O </c><c>   3</c></rc>
    <rc><c>O </c><c>   3</c></rc>
    <rc><c>O </c><c>   3</c></rc>
    <rc><c>O </c><c>   3</c></rc>
    <rc><c>O </c><c>   3</c></rc>
    <rc><c>O </c><c>   3</c></rc>
    <rc><c>O </c><c>   3</c></rc>
    <rc><c>O </c><c>   3</c></rc>
    <rc><c>O </c><c>   3</c></rc>
    <rc><c>O </c><c>   3</c></rc>
    <rc><c>O </c><c>   3</c></rc>
    <rc><c>O </c><c>   3</c></rc>
    <rc><c>O </c><c>   3</c></rc>
    <rc><c>O </c><c>   3</c></rc>
    <rc><c>O </c><c>   3</c></rc>
    <rc><c>O </c><c>   3</c></rc>
    <rc><c>O </c><c>   3</c></rc>
    <rc><c>O </c><c>   3</c></rc>
    <rc><c>O </c><c>   3</c></rc>
    <rc><c>O </c><c>   3</c></rc>
    <rc><c>O </c><c>   3</c></rc>
    <rc><c>O </c><c>   3</c></rc>
    <rc><c>O </c><c>   3</c></rc>
    <rc><c>O </c><c>   3</c></rc>
    <rc><c>O </c><c>   3</c></rc>
    <rc><c>O </c><c>   3</c></rc>
    <rc><c>O </c><c>   3</c></rc>
    <rc><c>O </c><c>   3</c></rc>
    <rc><c>O </c><c>   3</c></rc>
    <rc><c>O </c><c>   3</c></rc>
    <rc><c>O </c><c>   3</c></rc>
    <rc><c>O </c><c>   3</c></rc>
   </set>
  </array>
  <array name="atomtypes" >
   <dimension dim="1">type</dimension>
   <field type="int">atomspertype</field>
   <field type="string">element</field>
   <field>mass</field>
   <field>valence</field>
   <field type="string">pseudopotential</field>
   <set>
    <rc><c>  27</c><c>Ca</c><c>     40.07800000</c><c>     10.00000000</c><c>  PAW_PBE Ca_sv 06Sep2000               </c></rc>
    <rc><c>  27</c><c>Si</c><c>     28.08500000</c><c>      4.00000000</c><c>  PAW_PBE Si 05Jan2001                  </c></rc>
    <rc><c>  81</c><c>O </c><c>     16.00000000</c><c>      6.00000000</c><c>  PAW_PBE O 08Apr2002                   </c></rc>
   </set>
  </array>
 </atominfo>
 <structure name="initialpos" >
  <crystal>
   <varray name="basis" >
    <v>      10.56489661       0.00000000       0.00000000 </v>
    <v>       0.00000000      10.56489661       0.00000000 </v>
    <v>       0.00000000       0.00000000      10.56489661 </v>
   </varray>
   <i name="volume">   1179.22249153 </i>
   <varray name="rec_basis" >
    <v>       0.09465308       0.00000000       0.00000000 </v>
    <v>       0.00000000       0.09465308       0.00000000 </v>
    <v>       0.00000000       0.00000000       0.09465308 </v>
   </varray>
  </crystal>
  <varray name="positions" >
   <v>       0.15629740       0.97503734       0.11988932 </v>
   <v>       0.05781056       0.05917734       0.60177849 </v>
   <v>       0.15809034       0.34310163       0.80970282 </v>
   <v>       0.48828323       0.31389797       0.09407987 </v>
   <v>       0.30075983       0.87829075       0.64610626 </v>
   <v>       0.40616420       0.06931784       0.91855870 </v>
   <v>       0.73731311       0.10112620       0.22170248 </v>
   <v>       0.13361995       0.64873872       0.41903677 </v>
   <v>       0.95133105       0.88885674       0.34037893 </v>
   <v>       0.80275699       0.61228939       0.11391459 </v>
   <v>       0.42777546       0.40107375       0.56566424 </v>
   <v>       0.04259536       0.77452575       0.91137913 </v>
   <v>       0.85518296       0.97087724       0.76553580 </v>
   <v>       0.61172018       0.86063634       0.00237235 </v>
   <v>       0.68899901       0.74602394       0.56548299 </v>
   <v>       0.05544218       0.41551122       0.26120666 </v>
   <v>       0.90978771       0.20309854       0.02557867 </v>
   <v>       0.62740379       0.18917362       0.72197418 </v>
   <v>       0.53091657       0.63581564       0.81773093 </v>
   <v>       0.27850644       0.57146638       0.95931592 </v>
   <v>       0.39826705       0.66408965       0.57120689 </v>
   <v>       0.75221189       0.42970365       0.90259929 </v>
   <v>       0.51040193       0.95266281       0.44411389 </v>
   <v>       0.59448646       0.54780995       0.34062941 </v>
   <v>       0.84926692       0.27494578       0.45840340 </v>
   <v>       0.36683811       0.76740200       0.19332200 </v>
   <v>       0.25562980       0.19649116       0.32303381 </v>
   <v>       0.86752789       0.55092094       0.40159879 </v>
   <v>       0.33792366       0.47101559       0.28626422 </v>
   <v>       0.56185478       0.89184235       0.73274019 </v>
   <v>       0.53423836       0.25665034       0.38950859 </v>
   <v>       0.00222578       0.81036015       0.59985710 </v>
   <v>       0.20281017       0.92720253       0.38868645 </v>
   <v>       0.87483020       0.91606734       0.07573759 </v>
   <v>       0.66848682       0.78591039       0.31018954 </v>
   <v>       0.78378232       0.72139294       0.86692675 </v>
   <v>       0.88044308       0.21466497       0.71903859 </v>
   <v>       0.12154899       0.06349313       0.87105893 </v>
   <v>       0.20556313       0.25737474       0.08644896 </v>
   <v>       0.77896252       0.01115279       0.49714979 </v>
   <v>       0.64418904       0.44290023       0.61748553 </v>
   <v>       0.66105941       0.13274185       0.95335931 </v>
   <v>       0.00008110       0.15185508       0.27883478 </v>
   <v>       0.33284058       0.83153808       0.94933662 </v>
   <v>       0.44626946       0.03750460       0.18918819 </v>
   <v>       0.00692305       0.48646760       0.98615030 </v>
   <v>       0.06529076       0.69694122       0.21604623 </v>
   <v>       0.16552758       0.58748107       0.70895235 </v>
   <v>       0.77445494       0.35770329       0.18915884 </v>
   <v>       0.13163082       0.32675406       0.50550761 </v>
   <v>       0.55715664       0.56843096       0.05597037 </v>
   <v>       0.33357202       0.14909403       0.64520440 </v>
   <v>       0.90666952       0.57488296       0.69469211 </v>
   <v>       0.45874963       0.35926599       0.85882545 </v>
   <v>       0.55902080       0.46540768       0.94190577 </v>
   <v>       0.89009177       0.44166749       0.07080571 </v>
   <v>       0.80215489       0.47149696       0.51542814 </v>
   <v>       0.71130610       0.23769275       0.06517954 </v>
   <v>       0.55507967       0.93415046       0.25996418 </v>
   <v>       0.72696012       0.91688083       0.38131124 </v>
   <v>       0.76794974       0.20637437       0.82775745 </v>
   <v>       0.47957291       0.68608923       0.99713057 </v>
   <v>       0.67962207       0.30077741       0.30036881 </v>
   <v>       0.13554084       0.79686364       0.28208451 </v>
   <v>       0.40112071       0.56489553       0.40635644 </v>
   <v>       0.23692148       0.74426348       0.01376746 </v>
   <v>       0.88051967       0.89542470       0.57094235 </v>
   <v>       0.33390442       0.81418450       0.42231415 </v>
   <v>       0.57709212       0.03619965       0.05866558 </v>
   <v>       0.30355741       0.00469736       0.27044292 </v>
   <v>       0.29164669       0.69086653       0.74795012 </v>
   <v>       0.23386246       0.36843219       0.42244308 </v>
   <v>       0.54045648       0.24136667       0.89793799 </v>
   <v>       0.77920516       0.48501009       0.26376804 </v>
   <v>       0.92634437       0.68664620       0.51561115 </v>
   <v>       0.77838504       0.36795253       0.70558934 </v>
   <v>       0.87206863       0.08199734       0.37740043 </v>
   <v>       0.34245300       0.27580781       0.73190342 </v>
   <v>       0.21412732       0.47821309       0.62078052 </v>
   <v>       0.44786747       0.15665880       0.30027699 </v>
   <v>       0.12082555       0.69811655       0.61100282 </v>
   <v>       0.58268999       0.57750299       0.55297124 </v>
   <v>       0.60539795       0.70725209       0.17641221 </v>
   <v>       0.99310414       0.37957543       0.88463805 </v>
   <v>       0.74454515       0.58064910       0.72715154 </v>
   <v>       0.06879727       0.21941591       0.14259881 </v>
   <v>       0.09278141       0.83923511       0.47428026 </v>
   <v>       0.27290907       0.02515195       0.49105504 </v>
   <v>       0.58856062       0.34204146       0.49694999 </v>
   <v>       0.04852841       0.46048231       0.43764662 </v>
   <v>       0.01821645       0.48678581       0.67627601 </v>
   <v>       0.45323242       0.82904097       0.86459500 </v>
   <v>       0.79626728       0.78721456       0.01948550 </v>
   <v>       0.93571737       0.03395788       0.17888437 </v>
   <v>       0.96724078       0.62171801       0.30043297 </v>
   <v>       0.90041085       0.28800754       0.25852191 </v>
   <v>       0.68144842       0.63245501       0.94485114 </v>
   <v>       0.78450814       0.02509402       0.97010933 </v>
   <v>       0.01185483       0.62717409       0.09875022 </v>
   <v>       0.09325069       0.58870640       0.83563887 </v>
   <v>       0.68109379       0.83037158       0.82017004 </v>
   <v>       0.46483171       0.17430427       0.55960399 </v>
   <v>       0.25131958       0.22089023       0.55601743 </v>
   <v>       0.09509516       0.04006384       0.35363674 </v>
   <v>       0.76490179       0.66774645       0.34556715 </v>
   <v>       0.20377069       0.10460746       0.74026579 </v>
   <v>       0.40246293       0.01979507       0.73322108 </v>
   <v>       0.80059547       0.16056659       0.59723443 </v>
   <v>       0.56617295       0.39844095       0.73679231 </v>
   <v>       0.37073177       0.50008890       0.80011305 </v>
   <v>       0.74699060       0.91564820       0.18306961 </v>
   <v>       0.99816965       0.83218060       0.13230174 </v>
   <v>       0.23916424       0.36031056       0.17868949 </v>
   <v>       0.99599443       0.12887221       0.80620386 </v>
   <v>       0.99343374       0.25843177       0.60872334 </v>
   <v>       0.64553893       0.12417971       0.43247483 </v>
   <v>       0.52974844       0.77139578       0.42523198 </v>
   <v>       0.67349287       0.97918778       0.61045200 </v>
   <v>       0.32463330       0.33942020       0.95424830 </v>
   <v>       0.65515927       0.45738308       0.12751479 </v>
   <v>       0.90842216       0.62264771       0.92545923 </v>
   <v>       0.05026419       0.89973216       0.73121980 </v>
   <v>       0.15827938       0.45259091       0.02273832 </v>
   <v>       0.34538892       0.15447981       0.10698094 </v>
   <v>       0.06929293       0.25449151       0.39008521 </v>
   <v>       0.19323841       0.59035982       0.22485093 </v>
   <v>       0.41124828       0.53506694       0.15329659 </v>
   <v>       0.21741143       0.92818114       0.90187447 </v>
   <v>       0.38286504       0.92906868       0.06817761 </v>
   <v>       0.44467575       0.36509287       0.30556481 </v>
   <v>       0.60301005       0.02382010       0.79835828 </v>
   <v>       0.87318065       0.73039492       0.72947148 </v>
   <v>       0.19403937       0.18663991       0.94179894 </v>
   <v>       0.02719494       0.99879286       0.96758437 </v>
   <v>       0.49478394       0.79468021       0.64144689 </v>
  </varray>
  <varray name="velocities" >
   <v>       0.00000000       0.00000000       0.00000000 </v>
   <v>       0.00000000       0.00000000       0.00000000 </v>
   <v>       0.00000000       0.00000000       0.00000000 </v>
   <v>       0.00000000       0.00000000       0.00000000 </v>
   <v>       0.00000000       0.00000000       0.00000000 </v>
   <v>       0.00000000       0.00000000       0.00000000 </v>
   <v>       0.00000000       0.00000000       0.00000000 </v>
   <v>       0.00000000       0.00000000       0.00000000 </v>
   <v>       0.00000000       0.00000000       0.00000000 </v>
   <v>       0.00000000       0.00000000       0.00000000 </v>
   <v>       0.00000000       0.00000000       0.00000000 </v>
   <v>       0.00000000       0.00000000       0.00000000 </v>
   <v>       0.00000000       0.00000000       0.00000000 </v>
   <v>       0.00000000       0.00000000       0.00000000 </v>
   <v>       0.00000000       0.00000000       0.00000000 </v>
   <v>       0.00000000       0.00000000       0.00000000 </v>
   <v>       0.00000000       0.00000000       0.00000000 </v>
   <v>       0.00000000       0.00000000       0.00000000 </v>
   <v>       0.00000000       0.00000000       0.00000000 </v>
   <v>       0.00000000       0.00000000       0.00000000 </v>
   <v>       0.00000000       0.00000000       0.00000000 </v>
   <v>       0.00000000       0.00000000       0.00000000 </v>
   <v>       0.00000000       0.00000000       0.00000000 </v>
   <v>       0.00000000       0.00000000       0.00000000 </v>
   <v>       0.00000000       0.00000000       0.00000000 </v>
   <v>       0.00000000       0.00000000       0.00000000 </v>
   <v>       0.00000000       0.00000000       0.00000000 </v>
   <v>       0.00000000       0.00000000       0.00000000 </v>
   <v>       0.00000000       0.00000000       0.00000000 </v>
   <v>       0.00000000       0.00000000       0.00000000 </v>
   <v>       0.00000000       0.00000000       0.00000000 </v>
   <v>       0.00000000       0.00000000       0.00000000 </v>
   <v>       0.00000000       0.00000000       0.00000000 </v>
   <v>       0.00000000       0.00000000       0.00000000 </v>
   <v>       0.00000000       0.00000000       0.00000000 </v>
   <v>       0.00000000       0.00000000       0.00000000 </v>
   <v>       0.00000000       0.00000000       0.00000000 </v>
   <v>       0.00000000       0.00000000       0.00000000 </v>
   <v>       0.00000000       0.00000000       0.00000000 </v>
   <v>       0.00000000       0.00000000       0.00000000 </v>
   <v>       0.00000000       0.00000000       0.00000000 </v>
   <v>       0.00000000       0.00000000       0.00000000 </v>
   <v>       0.00000000       0.00000000       0.00000000 </v>
   <v>       0.00000000       0.00000000       0.00000000 </v>
   <v>       0.00000000       0.00000000       0.00000000 </v>
   <v>       0.00000000       0.00000000       0.00000000 </v>
   <v>       0.00000000       0.00000000       0.00000000 </v>
   <v>       0.00000000       0.00000000       0.00000000 </v>
   <v>       0.00000000       0.00000000       0.00000000 </v>
   <v>       0.00000000       0.00000000       0.00000000 </v>
   <v>       0.00000000       0.00000000       0.00000000 </v>
   <v>       0.00000000       0.00000000       0.00000000 </v>
   <v>       0.00000000       0.00000000       0.00000000 </v>
   <v>       0.00000000       0.00000000       0.00000000 </v>
   <v>       0.00000000       0.00000000       0.00000000 </v>
   <v>       0.00000000       0.00000000       0.00000000 </v>
   <v>       0.00000000       0.00000000       0.00000000 </v>
   <v>       0.00000000       0.00000000       0.00000000 </v>
   <v>       0.00000000       0.00000000       0.00000000 </v>
   <v>       0.00000000       0.00000000       0.00000000 </v>
   <v>       0.00000000       0.00000000       0.00000000 </v>
   <v>       0.00000000       0.00000000       0.00000000 </v>
   <v>       0.00000000       0.00000000       0.00000000 </v>
   <v>       0.00000000       0.00000000       0.00000000 </v>
   <v>       0.00000000       0.00000000       0.00000000 </v>
   <v>       0.00000000       0.00000000       0.00000000 </v>
   <v>       0.00000000       0.00000000       0.00000000 </v>
   <v>       0.00000000       0.00000000       0.00000000 </v>
   <v>       0.00000000       0.00000000       0.00000000 </v>
   <v>       0.00000000       0.00000000       0.00000000 </v>
   <v>       0.00000000       0.00000000       0.00000000 </v>
   <v>       0.00000000       0.00000000       0.00000000 </v>
   <v>       0.00000000       0.00000000       0.00000000 </v>
   <v>       0.00000000       0.00000000       0.00000000 </v>
   <v>       0.00000000       0.00000000       0.00000000 </v>
   <v>       0.00000000       0.00000000       0.00000000 </v>
   <v>       0.00000000       0.00000000       0.00000000 </v>
   <v>       0.00000000       0.00000000       0.00000000 </v>
   <v>       0.00000000       0.00000000       0.00000000 </v>
   <v>       0.00000000       0.00000000       0.00000000 </v>
   <v>       0.00000000       0.00000000       0.00000000 </v>
   <v>       0.00000000       0.00000000       0.00000000 </v>
   <v>       0.00000000       0.00000000       0.00000000 </v>
   <v>       0.00000000       0.00000000       0.00000000 </v>
   <v>       0.00000000       0.00000000       0.00000000 </v>
   <v>       0.00000000       0.00000000       0.00000000 </v>
   <v>       0.00000000       0.00000000       0.00000000 </v>
   <v>       0.00000000       0.00000000       0.00000000 </v>
   <v>       0.00000000       0.00000000       0.00000000 </v>
   <v>       0.00000000       0.00000000       0.00000000 </v>
   <v>       0.00000000       0.00000000       0.00000000 </v>
   <v>       0.00000000       0.00000000       0.00000000 </v>
   <v>       0.00000000       0.00000000       0.00000000 </v>
   <v>       0.00000000       0.00000000       0.00000000 </v>
   <v>       0.00000000       0.00000000       0.00000000 </v>
   <v>       0.00000000       0.00000000       0.00000000 </v>
   <v>       0.00000000       0.00000000       0.00000000 </v>
   <v>       0.00000000       0.00000000       0.00000000 </v>
   <v>       0.00000000       0.00000000       0.00000000 </v>
   <v>       0.00000000       0.00000000       0.00000000 </v>
   <v>       0.00000000       0.00000000       0.00000000 </v>
   <v>       0.00000000       0.00000000       0.00000000 </v>
   <v>       0.00000000       0.00000000       0.00000000 </v>
   <v>       0.00000000       0.00000000       0.00000000 </v>
   <v>       0.00000000       0.00000000       0.00000000 </v>
   <v>       0.00000000       0.00000000       0.00000000 </v>
   <v>       0.00000000       0.00000000       0.00000000 </v>
   <v>       0.00000000       0.00000000       0.00000000 </v>
   <v>       0.00000000       0.00000000       0.00000000 </v>
   <v>       0.00000000       0.00000000       0.00000000 </v>
   <v>       0.00000000       0.00000000       0.00000000 </v>
   <v>       0.00000000       0.00000000       0.00000000 </v>
   <v>       0.00000000       0.00000000       0.00000000 </v>
   <v>       0.00000000       0.00000000       0.00000000 </v>
   <v>       0.00000000       0.00000000       0.00000000 </v>
   <v>       0.00000000       0.00000000       0.00000000 </v>
   <v>       0.00000000       0.00000000       0.00000000 </v>
   <v>       0.00000000       0.00000000       0.00000000 </v>
   <v>       0.00000000       0.00000000       0.00000000 </v>
   <v>       0.00000000       0.00000000       0.00000000 </v>
   <v>       0.00000000       0.00000000       0.00000000 </v>
   <v>       0.00000000       0.00000000       0.00000000 </v>
   <v>       0.00000000       0.00000000       0.00000000 </v>
   <v>       0.00000000       0.00000000       0.00000000 </v>
   <v>       0.00000000       0.00000000       0.00000000 </v>
   <v>       0.00000000       0.00000000       0.00000000 </v>
   <v>       0.00000000       0.00000000       0.00000000 </v>
   <v>       0.00000000       0.00000000       0.00000000 </v>
   <v>       0.00000000       0.00000000       0.00000000 </v>
   <v>       0.00000000       0.00000000       0.00000000 </v>
   <v>       0.00000000       0.00000000       0.00000000 </v>
   <v>       0.00000000       0.00000000       0.00000000 </v>
   <v>       0.00000000       0.00000000       0.00000000 </v>
   <v>       0.00000000       0.00000000       0.00000000 </v>
   <v>       0.00000000       0.00000000       0.00000000 </v>
  </varray>
 </structure>
 <calculation>
  <scstep>
   <time name="dav">   24.65   24.65</time>
   <time name="total">   25.03   25.04</time>
   <energy>
    <i name="alphaZ">   4052.29761577 </i>
    <i name="ewald"> -56470.52106053 </i>
    <i name="hartreedc"> -11952.41258000 </i>
    <i name="XCdc">   3269.64606695 </i>
    <i name="pawpsdc">  50594.51003143 </i>
    <i name="pawaedc"> -49994.65612350 </i>
    <i name="eentropy">     -0.03121465 </i>
    <i name="bandstr">   5820.82593799 </i>
    <i name="atom">  64968.54023382 </i>
    <i name="e_fr_energy">  10288.19890730 </i>
    <i name="e_wo_entrp">  10288.23012195 </i>
    <i name="e_0_energy">  10288.21451463 </i>
   </energy>
  </scstep>
  <scstep>
   <time name="dav">   27.10   27.12</time>
   <time name="total">   27.10   27.12</time>
   <energy>
    <i name="e_fr_energy">    187.45638617 </i>
    <i name="e_wo_entrp">    187.45638617 </i>
    <i name="e_0_energy">    187.45638617 </i>
   </energy>
  </scstep>
  <scstep>
   <time name="dav">   28.08   28.08</time>
   <time name="total">   28.08   28.09</time>
   <energy>
    <i name="e_fr_energy">   -942.00021334 </i>
    <i name="e_wo_entrp">   -942.00021334 </i>
    <i name="e_0_energy">   -942.00021334 </i>
   </energy>
  </scstep>
  <scstep>
   <time name="dav">   32.79   32.80</time>
   <time name="total">   32.79   32.80</time>
   <energy>
    <i name="e_fr_energy">  -1001.36450616 </i>
    <i name="e_wo_entrp">  -1001.36450616 </i>
    <i name="e_0_energy">  -1001.36450616 </i>
   </energy>
  </scstep>
  <scstep>
   <time name="dav">   44.00   44.02</time>
   <time name="total">   44.82   44.83</time>
   <energy>
    <i name="e_fr_energy">  -1005.51380369 </i>
    <i name="e_wo_entrp">  -1005.51380369 </i>
    <i name="e_0_energy">  -1005.51380369 </i>
   </energy>
  </scstep>
  <scstep>
   <time name="dav">   29.68   29.68</time>
   <time name="total">   30.91   30.93</time>
   <energy>
    <i name="e_fr_energy">   -875.49255165 </i>
    <i name="e_wo_entrp">   -875.49255165 </i>
    <i name="e_0_energy">   -875.49255165 </i>
   </energy>
  </scstep>
  <scstep>
   <time name="dav">   30.32   30.32</time>
   <time name="total">   31.56   31.58</time>
   <energy>
    <i name="e_fr_energy">   -877.35022055 </i>
    <i name="e_wo_entrp">   -877.35022055 </i>
    <i name="e_0_energy">   -877.35022055 </i>
   </energy>
  </scstep>
  <scstep>
   <time name="dav">   36.38   36.38</time>
   <time name="total">   37.56   37.57</time>
   <energy>
    <i name="e_fr_energy">   -876.66210053 </i>
    <i name="e_wo_entrp">   -876.66210053 </i>
    <i name="e_0_energy">   -876.66210053 </i>
   </energy>
  </scstep>
  <scstep>
   <time name="dav">   32.85   32.85</time>
   <time name="total">   34.04   34.06</time>
   <energy>
    <i name="e_fr_energy">   -876.42454743 </i>
    <i name="e_wo_entrp">   -876.42454743 </i>
    <i name="e_0_energy">   -876.42454743 </i>
   </energy>
  </scstep>
  <scstep>
   <time name="dav">   37.07   37.08</time>
   <time name="total">   38.26   38.28</time>
   <energy>
    <i name="e_fr_energy">   -876.47791576 </i>
    <i name="e_wo_entrp">   -876.47791576 </i>
    <i name="e_0_energy">   -876.47791576 </i>
   </energy>
  </scstep>
  <scstep>
   <time name="dav">   34.98   34.98</time>
   <time name="total">   36.17   36.19</time>
   <energy>
    <i name="e_fr_energy">   -876.48043426 </i>
    <i name="e_wo_entrp">   -876.48043426 </i>
    <i name="e_0_energy">   -876.48043426 </i>
   </energy>
  </scstep>
  <scstep>
   <time name="dav">   29.26   29.26</time>
   <time name="total">   30.43   30.45</time>
   <energy>
    <i name="e_fr_energy">   -876.48040819 </i>
    <i name="e_wo_entrp">   -876.48040819 </i>
    <i name="e_0_energy">   -876.48040819 </i>
   </energy>
  </scstep>
  <scstep>
   <time name="dav">   37.98   37.98</time>
   <time name="total">   39.17   39.19</time>
   <energy>
    <i name="e_fr_energy">   -876.48094049 </i>
    <i name="e_wo_entrp">   -876.48094049 </i>
    <i name="e_0_energy">   -876.48094049 </i>
   </energy>
  </scstep>
  <scstep>
   <time name="dav">   32.18   32.18</time>
   <time name="total">   33.38   33.40</time>
   <energy>
    <i name="e_fr_energy">   -876.48101514 </i>
    <i name="e_wo_entrp">   -876.48101514 </i>
    <i name="e_0_energy">   -876.48101514 </i>
   </energy>
  </scstep>
  <scstep>
   <time name="dav">   30.76   30.76</time>
   <time name="total">   31.98   32.00</time>
   <energy>
    <i name="e_fr_energy">   -876.48099870 </i>
    <i name="e_wo_entrp">   -876.48099870 </i>
    <i name="e_0_energy">   -876.48099870 </i>
   </energy>
  </scstep>
  <scstep>
   <time name="dav">   40.37   40.37</time>
   <time name="total">   41.56   41.58</time>
   <energy>
    <i name="e_fr_energy">   -876.48099632 </i>
    <i name="e_wo_entrp">   -876.48099632 </i>
    <i name="e_0_energy">   -876.48099632 </i>
   </energy>
  </scstep>
  <scstep>
   <time name="dav">   35.74   35.74</time>
   <time name="total">   36.95   36.97</time>
   <energy>
    <i name="e_fr_energy">   -876.48099468 </i>
    <i name="e_wo_entrp">   -876.48099468 </i>
    <i name="e_0_energy">   -876.48099468 </i>
   </energy>
  </scstep>
  <scstep>
   <time name="dav">   26.31   26.31</time>
   <time name="total">   26.72   26.73</time>
   <energy>
    <i name="alphaZ">   4052.29761577 </i>
    <i name="ewald"> -56470.52106053 </i>
    <i name="hartreedc"> -13155.07983273 </i>
    <i name="XCdc">   3357.84521279 </i>
    <i name="pawpsdc">  98463.68489073 </i>
    <i name="pawaedc"> -98112.97125434 </i>
    <i name="eentropy">     -0.00000000 </i>
    <i name="bandstr">  -3980.27679941 </i>
    <i name="atom">  64968.54023382 </i>
    <i name="e_fr_energy">   -876.48099390 </i>
    <i name="e_wo_entrp">   -876.48099390 </i>
    <i name="e_0_energy">   -876.48099390 </i>
   </energy>
  </scstep>
  <structure>
   <crystal>
    <varray name="basis" >
     <v>      10.56489661       0.00000000       0.00000000 </v>
     <v>       0.00000000      10.56489661       0.00000000 </v>
     <v>       0.00000000       0.00000000      10.56489661 </v>
    </varray>
    <i name="volume">   1179.22249153 </i>
    <varray name="rec_basis" >
     <v>       0.09465308       0.00000000       0.00000000 </v>
     <v>       0.00000000       0.09465308       0.00000000 </v>
     <v>       0.00000000       0.00000000       0.09465308 </v>
    </varray>
   </crystal>
   <varray name="positions" >
    <v>       0.15629740       0.97503734       0.11988932 </v>
    <v>       0.05781056       0.05917734       0.60177849 </v>
    <v>       0.15809034       0.34310163       0.80970282 </v>
    <v>       0.48828323       0.31389797       0.09407987 </v>
    <v>       0.30075983       0.87829075       0.64610626 </v>
    <v>       0.40616420       0.06931784       0.91855870 </v>
    <v>       0.73731311       0.10112620       0.22170248 </v>
    <v>       0.13361995       0.64873872       0.41903677 </v>
    <v>       0.95133105       0.88885674       0.34037893 </v>
    <v>       0.80275699       0.61228939       0.11391459 </v>
    <v>       0.42777546       0.40107375       0.56566424 </v>
    <v>       0.04259536       0.77452575       0.91137913 </v>
    <v>       0.85518296       0.97087724       0.76553580 </v>
    <v>       0.61172018       0.86063634       0.00237235 </v>
    <v>       0.68899901       0.74602394       0.56548299 </v>
    <v>       0.05544218       0.41551122       0.26120666 </v>
    <v>       0.90978771       0.20309854       0.02557867 </v>
    <v>       0.62740379       0.18917362       0.72197418 </v>
    <v>       0.53091657       0.63581564       0.81773093 </v>
    <v>       0.27850644       0.57146638       0.95931592 </v>
    <v>       0.39826705       0.66408965       0.57120689 </v>
    <v>       0.75221189       0.42970365       0.90259929 </v>
    <v>       0.51040193       0.95266281       0.44411389 </v>
    <v>       0.59448646       0.54780995       0.34062941 </v>
    <v>       0.84926692       0.27494578       0.45840340 </v>
    <v>       0.36683811       0.76740200       0.19332200 </v>
    <v>       0.25562980       0.19649116       0.32303381 </v>
    <v>       0.86752789       0.55092094       0.40159879 </v>
    <v>       0.33792366       0.47101559       0.28626422 </v>
    <v>       0.56185478       0.89184235       0.73274019 </v>
    <v>       0.53423836       0.25665034       0.38950859 </v>
    <v>       0.00222578       0.81036015       0.59985710 </v>
    <v>       0.20281017       0.92720253       0.38868645 </v>
    <v>       0.87483020       0.91606734       0.07573759 </v>
    <v>       0.66848682       0.78591039       0.31018954 </v>
    <v>       0.78378232       0.72139294       0.86692675 </v>
    <v>       0.88044308       0.21466497       0.71903859 </v>
    <v>       0.12154899       0.06349313       0.87105893 </v>
    <v>       0.20556313       0.25737474       0.08644896 </v>
    <v>       0.77896252       0.01115279       0.49714979 </v>
    <v>       0.64418904       0.44290023       0.61748553 </v>
    <v>       0.66105941       0.13274185       0.95335931 </v>
    <v>       0.00008110       0.15185508       0.27883478 </v>
    <v>       0.33284058       0.83153808       0.94933662 </v>
    <v>       0.44626946       0.03750460       0.18918819 </v>
    <v>       0.00692305       0.48646760       0.98615030 </v>
    <v>       0.06529076       0.69694122       0.21604623 </v>
    <v>       0.16552758       0.58748107       0.70895235 </v>
    <v>       0.77445494       0.35770329       0.18915884 </v>
    <v>       0.13163082       0.32675406       0.50550761 </v>
    <v>       0.55715664       0.56843096       0.05597037 </v>
    <v>       0.33357202       0.14909403       0.64520440 </v>
    <v>       0.90666952       0.57488296       0.69469211 </v>
    <v>       0.45874963       0.35926599       0.85882545 </v>
    <v>       0.55902080       0.46540768       0.94190577 </v>
    <v>       0.89009177       0.44166749       0.07080571 </v>
    <v>       0.80215489       0.47149696       0.51542814 </v>
    <v>       0.71130610       0.23769275       0.06517954 </v>
    <v>       0.55507967       0.93415046       0.25996418 </v>
    <v>       0.72696012       0.91688083       0.38131124 </v>
    <v>       0.76794974       0.20637437       0.82775745 </v>
    <v>       0.47957291       0.68608923       0.99713057 </v>
    <v>       0.67962207       0.30077741       0.30036881 </v>
    <v>       0.13554084       0.79686364       0.28208451 </v>
    <v>       0.40112071       0.56489553       0.40635644 </v>
    <v>       0.23692148       0.74426348       0.01376746 </v>
    <v>       0.88051967       0.89542470       0.57094235 </v>
    <v>       0.33390442       0.81418450       0.42231415 </v>
    <v>       0.57709212       0.03619965       0.05866558 </v>
    <v>       0.30355741       0.00469736       0.27044292 </v>
    <v>       0.29164669       0.69086653       0.74795012 </v>
    <v>       0.23386246       0.36843219       0.42244308 </v>
    <v>       0.54045648       0.24136667       0.89793799 </v>
    <v>       0.77920516       0.48501009       0.26376804 </v>
    <v>       0.92634437       0.68664620       0.51561115 </v>
    <v>       0.77838504       0.36795253       0.70558934 </v>
    <v>       0.87206863       0.08199734       0.37740043 </v>
    <v>       0.34245300       0.27580781       0.73190342 </v>
    <v>       0.21412732       0.47821309       0.62078052 </v>
    <v>       0.44786747       0.15665880       0.30027699 </v>
    <v>       0.12082555       0.69811655       0.61100282 </v>
    <v>       0.58268999       0.57750299       0.55297124 </v>
    <v>       0.60539795       0.70725209       0.17641221 </v>
    <v>       0.99310414       0.37957543       0.88463805 </v>
    <v>       0.74454515       0.58064910       0.72715154 </v>
    <v>       0.06879727       0.21941591       0.14259881 </v>
    <v>       0.09278141       0.83923511       0.47428026 </v>
    <v>       0.27290907       0.02515195       0.49105504 </v>
    <v>       0.58856062       0.34204146       0.49694999 </v>
    <v>       0.04852841       0.46048231       0.43764662 </v>
    <v>       0.01821645       0.48678581       0.67627601 </v>
    <v>       0.45323242       0.82904097       0.86459500 </v>
    <v>       0.79626728       0.78721456       0.01948550 </v>
    <v>       0.93571737       0.03395788       0.17888437 </v>
    <v>       0.96724078       0.62171801       0.30043297 </v>
    <v>       0.90041085       0.28800754       0.25852191 </v>
    <v>       0.68144842       0.63245501       0.94485114 </v>
    <v>       0.78450814       0.02509402       0.97010933 </v>
    <v>       0.01185483       0.62717409       0.09875022 </v>
    <v>       0.09325069       0.58870640       0.83563887 </v>
    <v>       0.68109379       0.83037158       0.82017004 </v>
    <v>       0.46483171       0.17430427       0.55960399 </v>
    <v>       0.25131958       0.22089023       0.55601743 </v>
    <v>       0.09509516       0.04006384       0.35363674 </v>
    <v>       0.76490179       0.66774645       0.34556715 </v>
    <v>       0.20377069       0.10460746       0.74026579 </v>
    <v>       0.40246293       0.01979507       0.73322108 </v>
    <v>       0.80059547       0.16056659       0.59723443 </v>
    <v>       0.56617295       0.39844095       0.73679231 </v>
    <v>       0.37073177       0.50008890       0.80011305 </v>
    <v>       0.74699060       0.91564820       0.18306961 </v>
    <v>       0.99816965       0.83218060       0.13230174 </v>
    <v>       0.23916424       0.36031056       0.17868949 </v>
    <v>       0.99599443       0.12887221       0.80620386 </v>
    <v>       0.99343374       0.25843177       0.60872334 </v>
    <v>       0.64553893       0.12417971       0.43247483 </v>
    <v>       0.52974844       0.77139578       0.42523198 </v>
    <v>       0.67349287       0.97918778       0.61045200 </v>
    <v>       0.32463330       0.33942020       0.95424830 </v>
    <v>       0.65515927       0.45738308       0.12751479 </v>
    <v>       0.90842216       0.62264771       0.92545923 </v>
    <v>       0.05026419       0.89973216       0.73121980 </v>
    <v>       0.15827938       0.45259091       0.02273832 </v>
    <v>       0.34538892       0.15447981       0.10698094 </v>
    <v>       0.06929293       0.25449151       0.39008521 </v>
    <v>       0.19323841       0.59035982       0.22485093 </v>
    <v>       0.41124828       0.53506694       0.15329659 </v>
    <v>       0.21741143       0.92818114       0.90187447 </v>
    <v>       0.38286504       0.92906868       0.06817761 </v>
    <v>       0.44467575       0.36509287       0.30556481 </v>
    <v>       0.60301005       0.02382010       0.79835828 </v>
    <v>       0.87318065       0.73039492       0.72947148 </v>
    <v>       0.19403937       0.18663991       0.94179894 </v>
    <v>       0.02719494       0.99879286       0.96758437 </v>
    <v>       0.49478394       0.79468021       0.64144689 </v>
   </varray>
  </structure>
  <varray name="forces" >
   <v>       1.00849929      -0.71009321       0.35565087 </v>
   <v>       2.66932191       1.48149088      -2.58098435 </v>
   <v>       3.35974174       0.18510004      -2.58106118 </v>
   <v>      -0.59810779       0.43367010       2.76627766 </v>
   <v>      -3.00944155      -0.51171328       0.35688139 </v>
   <v>      -1.40636213       2.07328294      -0.74307142 </v>
   <v>      -3.40157936      -0.53870863       2.94367852 </v>
   <v>       3.85574409      -3.01128486       4.54751542 </v>
   <v>      -3.63215796      -0.99144960      -0.84470688 </v>
   <v>       0.97338095       2.64187830       2.06498679 </v>
   <v>      -9.15850049       0.33798068       2.14097340 </v>
   <v>       2.34078565      -0.19873456       0.48588179 </v>
   <v>      -2.26685512      -0.72870324       1.58039347 </v>
   <v>      -1.34619278      -2.04580120       3.51931255 </v>
   <v>       2.21560615      -0.24384805      -0.48657297 </v>
   <v>       1.50113259       2.32736585      -4.66500574 </v>
   <v>       1.64580675      -0.28513734      -3.62380082 </v>
   <v>      -5.89182003       1.70352616     -10.19061850 </v>
   <v>      -2.29471601      -1.07439601      -4.44425585 </v>
   <v>       2.92617713      -1.45104096      -0.58020100 </v>
   <v>      -3.63150158      -3.37932917      -2.74876684 </v>
   <v>       1.02259340      -0.28864690      -1.49421892 </v>
   <v>      -2.66216367       4.90299268       2.88370914 </v>
   <v>      -1.52447278      -1.34640636      -0.02427306 </v>
   <v>      -1.27460373       3.19494070      -1.26290787 </v>
   <v>       0.90148937      -2.49541728       3.64314023 </v>
   <v>       1.57255749      -0.94303131       2.21503378 </v>
   <v>       1.03837744       2.09745032       0.02759030 </v>
   <v>      -2.91574193       2.76874450       0.27072873 </v>
   <v>      -1.69093475       4.69093862       1.36172601 </v>
   <v>       3.29702161      -6.31736339      -1.76153198 </v>
   <v>       2.66395688      -5.07929442       1.51783934 </v>
   <v>       6.62105883      -1.81254554       1.45914781 </v>
   <v>      -2.36537034       1.20032957       2.37926345 </v>
   <v>      -3.73914464       3.42422535      -2.19049432 </v>
   <v>       1.03333177      -4.89978985       1.27916031 </v>
   <v>       2.24233661       6.92434381      -0.47805974 </v>
   <v>       4.13349670      -0.32143386      -3.09391813 </v>
   <v>       4.69771648       0.47828857      -8.62892812 </v>
   <v>      -4.40867780       2.93936932      -1.35612136 </v>
   <v>       7.94148654       2.11341267      -1.44462293 </v>
   <v>       0.99566432      -2.01291966       0.02877207 </v>
   <v>      -1.63618713      -1.03614817       2.46558123 </v>
   <v>      -0.48331384       1.49113004      -1.21972446 </v>
   <v>      -0.82458895      -1.64236882       1.36476647 </v>
   <v>       4.12065376       5.44937026      -0.23796851 </v>
   <v>      -0.64857016      -5.64812815      -8.85481877 </v>
   <v>       2.65377697       2.09671261      -1.67676456 </v>
   <v>      -2.80261918       0.63043828      -0.63475991 </v>
   <v>      -3.77621304       1.77893324       8.59943751 </v>
   <v>      -0.42252312       1.34601811       3.72907421 </v>
   <v>       4.11941204      -3.79580607       3.46214403 </v>
   <v>      -4.46683672       0.76317744      -1.18977230 </v>
   <v>      -8.43191130       6.36862371      -5.09409094 </v>
   <v>      -3.90296187      -2.84556913      -0.64773443 </v>
   <v>      -2.58604629      -5.19882066       2.65446791 </v>
   <v>      -0.97908869       1.19955578      -0.41798728 </v>
   <v>       0.52553080       1.48020303      -0.02347400 </v>
   <v>      -4.06007242       1.22641055      -3.76772639 </v>
   <v>       1.80638304      -2.48999671       3.95982433 </v>
   <v>       3.60739337      -2.07269473       7.06916574 </v>
   <v>      -2.88395890      -0.28169285       2.25076784 </v>
   <v>      -2.14354453      -1.61669922      -1.06054219 </v>
   <v>       5.50308419       7.68129683       1.79492486 </v>
   <v>      -3.23302555      -2.43578179      -3.48607912 </v>
   <v>      -2.42502010       0.88441184       3.56549493 </v>
   <v>      -1.70449076       4.75891924      -2.14156485 </v>
   <v>      -4.73011203       0.83503895      -0.46630291 </v>
   <v>      -1.62913847       6.84770862       0.18291959 </v>
   <v>      -1.08385630      -3.62342441      -1.09663802 </v>
   <v>      -0.91764003       0.77834979       1.08647218 </v>
   <v>      10.33408397       6.82233660      -8.21868604 </v>
   <v>       3.01292291      -5.11138129       2.83236153 </v>
   <v>       6.18669707       2.00380143       7.16333960 </v>
   <v>      -2.08441296      -2.15327854       0.98361398 </v>
   <v>       1.45812463      -1.39016065      -2.08551127 </v>
   <v>       2.01522839       0.49529850       2.61758200 </v>
   <v>       4.59842409       1.36914141       3.52817851 </v>
   <v>       2.45014800      -2.24334731      -1.80095883 </v>
   <v>       4.15736367      -1.21505108      -0.49840791 </v>
   <v>      -0.76081792       0.85702440       2.59466065 </v>
   <v>       0.49315162      -3.66664925       2.28372404 </v>
   <v>       0.33395726      -0.67972658       1.20069910 </v>
   <v>      -5.51405616      -3.41369213      -0.54326023 </v>
   <v>      -0.66310069      -0.87597862      -0.04275024 </v>
   <v>       1.45110362      -2.42903219       2.11231393 </v>
   <v>      -0.27578038       5.26460014       1.22008378 </v>
   <v>      -0.89414510      -1.32819554       2.14882233 </v>
   <v>       5.49343222       3.97247420       3.12819490 </v>
   <v>      -4.35309926       1.41365129       3.65095505 </v>
   <v>      -1.43906373      -1.14587997      -1.18020443 </v>
   <v>       1.77914053       3.77340958      -3.86917203 </v>
   <v>       3.85508903       3.48097479      -4.01673386 </v>
   <v>       1.08202082       3.20092756      -1.09239750 </v>
   <v>      -0.97349514       0.35957760       1.64749373 </v>
   <v>      -1.46945624      -3.01791443      -2.63416067 </v>
   <v>       0.38318894      -1.12646322       1.15905870 </v>
   <v>       1.49105179      -0.48061907       0.49078204 </v>
   <v>       0.88432950      -2.88101960      -4.61144751 </v>
   <v>       1.02530883       0.87505909       4.64974755 </v>
   <v>       1.63661395      -2.05226083      -3.04080003 </v>
   <v>       0.17401733       0.02338239      -1.15751322 </v>
   <v>      -8.91421747       4.67571171      -5.06145624 </v>
   <v>      -0.73603461       0.10559747      -2.24531876 </v>
   <v>      -1.13297120       3.44098344       1.87997149 </v>
   <v>      -1.85922786      -1.68155221      -0.19612170 </v>
   <v>       0.74604591       0.16036831      -3.65385086 </v>
   <v>       0.53896393      -5.61560515       2.74291738 </v>
   <v>      -1.54742230      -0.60650624      -0.17027994 </v>
   <v>       2.69875116      -2.50355001      -0.52663964 </v>
   <v>       3.50097087      -4.14754432      -2.77078198 </v>
   <v>      -1.24334462       0.90155242      -0.52233450 </v>
   <v>       3.94012024       2.01853843       6.89966937 </v>
   <v>      -5.01197419       2.66802159      -2.47241333 </v>
   <v>       2.13297277       0.86679915       0.68576132 </v>
   <v>       1.11449161      -0.03711364      -0.98011260 </v>
   <v>       7.01259191      -4.58985848      -3.85393706 </v>
   <v>      -1.12424088      -3.33530624       0.88381145 </v>
   <v>       4.56062374       0.45497884       1.62103921 </v>
   <v>      -2.81186087       0.28744533      -2.32318814 </v>
   <v>      -3.22654046      -2.06854429      -3.00942485 </v>
   <v>      -0.34267736      -1.03947670      -1.54770446 </v>
   <v>      -6.79386251      -3.08624567       0.15566687 </v>
   <v>      -0.91584969      -0.30727543       0.03424057 </v>
   <v>      -4.36515734      -5.62462985      -3.45232040 </v>
   <v>       1.76558694      -0.62515228       1.72169019 </v>
   <v>       1.73192502      -0.43203170      -0.32656576 </v>
   <v>       1.22264962       1.83102181      -0.84458827 </v>
   <v>      -0.11805402      -1.18571825       0.13333753 </v>
   <v>       2.13768031      -1.29467034       1.11972601 </v>
   <v>       0.92005880       1.15930048       6.96466087 </v>
   <v>       3.08107331       3.69641218       1.06742537 </v>
   <v>      -2.99242779      -2.79257686       2.02828105 </v>
   <v>      -3.97734207      -1.83621109       2.08943695 </v>
   <v>       4.13727457       3.68041884       2.53716196 </v>
  </varray>
  <varray name="stress" >
   <v>     438.13151878      13.59206992       4.92323210 </v>
   <v>      13.59206988     481.56620197      33.83486246 </v>
   <v>       4.92323212      33.83486249     499.48701283 </v>
  </varray>
  <energy>
   <i name="e_fr_energy">   -876.48099390 </i>
   <i name="e_wo_entrp">   -876.48099390 </i>
   <i name="e_0_energy">     -0.00000000 </i>
  </energy>
  <time name="totalsc">  637.56  637.86</time>
  <eigenvalues>
   <array>
    <dimension dim="1">band</dimension>
    <dimension dim="2">kpoint</dimension>
    <dimension dim="3">spin</dimension>
    <field>eigene</field>
    <field>occ</field>
    <set>
     <set comment="spin 1">
      <set comment="kpoint 1">
       <r>  -32.7133    1.0000 </r>
       <r>  -32.5087    1.0000 </r>
       <r>  -32.0971    1.0000 </r>
       <r>  -31.8508    1.0000 </r>
       <r>  -31.7376    1.0000 </r>
       <r>  -31.6261    1.0000 </r>
       <r>  -31.4188    1.0000 </r>
       <r>  -31.3850    1.0000 </r>
       <r>  -31.3620    1.0000 </r>
       <r>  -31.2253    1.0000 </r>
       <r>  -31.1768    1.0000 </r>
       <r>  -30.7588    1.0000 </r>
       <r>  -30.7203    1.0000 </r>
       <r>  -30.7066    1.0000 </r>
       <r>  -30.6456    1.0000 </r>
       <r>  -30.6123    1.0000 </r>
       <r>  -30.5833    1.0000 </r>
       <r>  -30.5464    1.0000 </r>
       <r>  -30.5066    1.0000 </r>
       <r>  -30.4695    1.0000 </r>
       <r>  -30.3464    1.0000 </r>
       <r>  -30.2491    1.0000 </r>
       <r>  -30.2087    1.0000 </r>
       <r>  -29.8445    1.0000 </r>
       <r>  -29.7533    1.0000 </r>
       <r>  -29.1797    1.0000 </r>
       <r>  -28.7658    1.0000 </r>
       <r>  -15.8544    1.0000 </r>
       <r>  -15.5800    1.0000 </r>
       <r>  -15.5056    1.0000 </r>
       <r>  -15.4387    1.0000 </r>
       <r>  -15.3197    1.0000 </r>
       <r>  -15.2694    1.0000 </r>
       <r>  -15.1109    1.0000 </r>
       <r>  -14.9352    1.0000 </r>
       <r>  -14.9067    1.0000 </r>
       <r>  -14.7701    1.0000 </r>
       <r>  -14.7377    1.0000 </r>
       <r>  -14.7088    1.0000 </r>
       <r>  -14.6596    1.0000 </r>
       <r>  -14.5472    1.0000 </r>
       <r>  -14.5295    1.0000 </r>
[...]
       <r>     9.5938     0.0076   864.0013 </r>
       <r>     9.7684    10.7665   865.8807 </r>
       <r>     9.9429     0.6833   866.0000 </r>
       <r>    10.1175     0.0000   866.0000 </r>
       <r>    10.2921     0.0000   866.0000 </r>
       <r>    10.4666     0.0000   866.0000 </r>
       <r>    10.6412     0.0764   866.0133 </r>
       <r>    10.8157    10.4635   867.8398 </r>
       <r>    10.9903    15.3686   870.5226 </r>
       <r>    11.1649     8.4405   871.9960 </r>
       <r>    11.3394     1.8644   872.3214 </r>
       <r>    11.5140    18.5590   875.5611 </r>
       <r>    11.6886    16.5506   878.4502 </r>
       <r>    11.8631    23.5164   882.5552 </r>
       <r>    12.0377    18.9548   885.8640 </r>
       <r>    12.2122    24.4467   890.1314 </r>
       <r>    12.3868    36.7186   896.5410 </r>
       <r>    12.5614    39.1179   903.3695 </r>
       <r>    12.7359    38.2714   910.0501 </r>
       <r>    12.9105    40.2919   917.0835 </r>
       <r>    13.0850    52.5243   926.2522 </r>
       <r>    13.2596    52.5745   935.4296 </r>
       <r>    13.4342    51.6560   944.4468 </r>
       <r>    13.6087    51.7182   953.4747 </r>
       <r>    13.7833    67.3583   965.2328 </r>
       <r>    13.9578    63.6181   976.3380 </r>
       <r>    14.1324    68.0431   988.2157 </r>
       <r>    14.3070    77.3434  1001.7168 </r>
       <r>    14.4815    73.1971  1014.4941 </r>
       <r>    14.6561    72.7524  1027.1939 </r>
       <r>    14.8306    56.3807  1037.0357 </r>
       <r>    15.0052    16.9790  1039.9996 </r>
       <r>    15.1798     0.0024  1040.0000 </r>
       <r>    15.3543     0.0000  1040.0000 </r>
       <r>    15.5289     0.0000  1040.0000 </r>
       <r>    15.7034     0.0000  1040.0000 </r>
       <r>    15.8780     0.0000  1040.0000 </r>
       <r>    16.0526     0.0000  1040.0000 </r>
       <r>    16.2271     0.0000  1040.0000 </r>
       <r>    16.4017     0.0000  1040.0000 </r>
       <r>    16.5763     0.0000  1040.0000 </r>
       <r>    16.7508     0.0000  1040.0000 </r>
       <r>    16.9254     0.0000  1040.0000 </r>
       <r>    17.0999     0.0000  1040.0000 </r>
       <r>    17.2745     0.0000  1040.0000 </r>
      </set>
     </set>
    </array>
   </total>
  </dos>
 </calculation>
 <structure name="finalpos" >
  <crystal>
   <varray name="basis" >
    <v>      10.56489661       0.00000000       0.00000000 </v>
    <v>       0.00000000      10.56489661       0.00000000 </v>
    <v>       0.00000000       0.00000000      10.56489661 </v>
   </varray>
   <i name="volume">   1179.22249153 </i>
   <varray name="rec_basis" >
    <v>       0.09465308       0.00000000       0.00000000 </v>
    <v>       0.00000000       0.09465308       0.00000000 </v>
    <v>       0.00000000       0.00000000       0.09465308 </v>
   </varray>
  </crystal>
  <varray name="positions" >
   <v>       0.15629740       0.97503734       0.11988932 </v>
   <v>       0.05781056       0.05917734       0.60177849 </v>
   <v>       0.15809034       0.34310163       0.80970282 </v>
   <v>       0.48828323       0.31389797       0.09407987 </v>
   <v>       0.30075983       0.87829075       0.64610626 </v>
   <v>       0.40616420       0.06931784       0.91855870 </v>
   <v>       0.73731311       0.10112620       0.22170248 </v>
   <v>       0.13361995       0.64873872       0.41903677 </v>
   <v>       0.95133105       0.88885674       0.34037893 </v>
   <v>       0.80275699       0.61228939       0.11391459 </v>
   <v>       0.42777546       0.40107375       0.56566424 </v>
   <v>       0.04259536       0.77452575       0.91137913 </v>
   <v>       0.85518296       0.97087724       0.76553580 </v>
   <v>       0.61172018       0.86063634       0.00237235 </v>
   <v>       0.68899901       0.74602394       0.56548299 </v>
   <v>       0.05544218       0.41551122       0.26120666 </v>
   <v>       0.90978771       0.20309854       0.02557867 </v>
   <v>       0.62740379       0.18917362       0.72197418 </v>
   <v>       0.53091657       0.63581564       0.81773093 </v>
   <v>       0.27850644       0.57146638       0.95931592 </v>
   <v>       0.39826705       0.66408965       0.57120689 </v>
   <v>       0.75221189       0.42970365       0.90259929 </v>
   <v>       0.51040193       0.95266281       0.44411389 </v>
   <v>       0.59448646       0.54780995       0.34062941 </v>
   <v>       0.84926692       0.27494578       0.45840340 </v>
   <v>       0.36683811       0.76740200       0.19332200 </v>
   <v>       0.25562980       0.19649116       0.32303381 </v>
   <v>       0.86752789       0.55092094       0.40159879 </v>
   <v>       0.33792366       0.47101559       0.28626422 </v>
   <v>       0.56185478       0.89184235       0.73274019 </v>
   <v>       0.53423836       0.25665034       0.38950859 </v>
   <v>       0.00222578       0.81036015       0.59985710 </v>
   <v>       0.20281017       0.92720253       0.38868645 </v>
   <v>       0.87483020       0.91606734       0.07573759 </v>
   <v>       0.66848682       0.78591039       0.31018954 </v>
   <v>       0.78378232       0.72139294       0.86692675 </v>
   <v>       0.88044308       0.21466497       0.71903859 </v>
   <v>       0.12154899       0.06349313       0.87105893 </v>
   <v>       0.20556313       0.25737474       0.08644896 </v>
   <v>       0.77896252       0.01115279       0.49714979 </v>
   <v>       0.64418904       0.44290023       0.61748553 </v>
   <v>       0.66105941       0.13274185       0.95335931 </v>
   <v>       0.00008110       0.15185508       0.27883478 </v>
   <v>       0.33284058       0.83153808       0.94933662 </v>
   <v>       0.44626946       0.03750460       0.18918819 </v>
   <v>       0.00692305       0.48646760       0.98615030 </v>
   <v>       0.06529076       0.69694122       0.21604623 </v>
   <v>       0.16552758       0.58748107       0.70895235 </v>
   <v>       0.77445494       0.35770329       0.18915884 </v>
   <v>       0.13163082       0.32675406       0.50550761 </v>
   <v>       0.55715664       0.56843096       0.05597037 </v>
   <v>       0.33357202       0.14909403       0.64520440 </v>
   <v>       0.90666952       0.57488296       0.69469211 </v>
   <v>       0.45874963       0.35926599       0.85882545 </v>
   <v>       0.55902080       0.46540768       0.94190577 </v>
   <v>       0.89009177       0.44166749       0.07080571 </v>
   <v>       0.80215489       0.47149696       0.51542814 </v>
   <v>       0.71130610       0.23769275       0.06517954 </v>
   <v>       0.55507967       0.93415046       0.25996418 </v>
   <v>       0.72696012       0.91688083       0.38131124 </v>
   <v>       0.76794974       0.20637437       0.82775745 </v>
   <v>       0.47957291       0.68608923       0.99713057 </v>
   <v>       0.67962207       0.30077741       0.30036881 </v>
   <v>       0.13554084       0.79686364       0.28208451 </v>
   <v>       0.40112071       0.56489553       0.40635644 </v>
   <v>       0.23692148       0.74426348       0.01376746 </v>
   <v>       0.88051967       0.89542470       0.57094235 </v>
   <v>       0.33390442       0.81418450       0.42231415 </v>
   <v>       0.57709212       0.03619965       0.05866558 </v>
   <v>       0.30355741       0.00469736       0.27044292 </v>
   <v>       0.29164669       0.69086653       0.74795012 </v>
   <v>       0.23386246       0.36843219       0.42244308 </v>
   <v>       0.54045648       0.24136667       0.89793799 </v>
   <v>       0.77920516       0.48501009       0.26376804 </v>
   <v>       0.92634437       0.68664620       0.51561115 </v>
   <v>       0.77838504       0.36795253       0.70558934 </v>
   <v>       0.87206863       0.08199734       0.37740043 </v>
   <v>       0.34245300       0.27580781       0.73190342 </v>
   <v>       0.21412732       0.47821309       0.62078052 </v>
   <v>       0.44786747       0.15665880       0.30027699 </v>
   <v>       0.12082555       0.69811655       0.61100282 </v>
   <v>       0.58268999       0.57750299       0.55297124 </v>
   <v>       0.60539795       0.70725209       0.17641221 </v>
   <v>       0.99310414       0.37957543       0.88463805 </v>
   <v>       0.74454515       0.58064910       0.72715154 </v>
   <v>       0.06879727       0.21941591       0.14259881 </v>
   <v>       0.09278141       0.83923511       0.47428026 </v>
   <v>       0.27290907       0.02515195       0.49105504 </v>
   <v>       0.58856062       0.34204146       0.49694999 </v>
   <v>       0.04852841       0.46048231       0.43764662 </v>
   <v>       0.01821645       0.48678581       0.67627601 </v>
   <v>       0.45323242       0.82904097       0.86459500 </v>
   <v>       0.79626728       0.78721456       0.01948550 </v>
   <v>       0.93571737       0.03395788       0.17888437 </v>
   <v>       0.96724078       0.62171801       0.30043297 </v>
   <v>       0.90041085       0.28800754       0.25852191 </v>
   <v>       0.68144842       0.63245501       0.94485114 </v>
   <v>       0.78450814       0.02509402       0.97010933 </v>
   <v>       0.01185483       0.62717409       0.09875022 </v>
   <v>       0.09325069       0.58870640       0.83563887 </v>
   <v>       0.68109379       0.83037158       0.82017004 </v>
   <v>       0.46483171       0.17430427       0.55960399 </v>
   <v>       0.25131958       0.22089023       0.55601743 </v>
   <v>       0.09509516       0.04006384       0.35363674 </v>
   <v>       0.76490179       0.66774645       0.34556715 </v>
   <v>       0.20377069       0.10460746       0.74026579 </v>
   <v>       0.40246293       0.01979507       0.73322108 </v>
   <v>       0.80059547       0.16056659       0.59723443 </v>
   <v>       0.56617295       0.39844095       0.73679231 </v>
   <v>       0.37073177       0.50008890       0.80011305 </v>
   <v>       0.74699060       0.91564820       0.18306961 </v>
   <v>       0.99816965       0.83218060       0.13230174 </v>
   <v>       0.23916424       0.36031056       0.17868949 </v>
   <v>       0.99599443       0.12887221       0.80620386 </v>
   <v>       0.99343374       0.25843177       0.60872334 </v>
   <v>       0.64553893       0.12417971       0.43247483 </v>
   <v>       0.52974844       0.77139578       0.42523198 </v>
   <v>       0.67349287       0.97918778       0.61045200 </v>
   <v>       0.32463330       0.33942020       0.95424830 </v>
   <v>       0.65515927       0.45738308       0.12751479 </v>
   <v>       0.90842216       0.62264771       0.92545923 </v>
   <v>       0.05026419       0.89973216       0.73121980 </v>
   <v>       0.15827938       0.45259091       0.02273832 </v>
   <v>       0.34538892       0.15447981       0.10698094 </v>
   <v>       0.06929293       0.25449151       0.39008521 </v>
   <v>       0.19323841       0.59035982       0.22485093 </v>
   <v>       0.41124828       0.53506694       0.15329659 </v>
   <v>       0.21741143       0.92818114       0.90187447 </v>
   <v>       0.38286504       0.92906868       0.06817761 </v>
   <v>       0.44467575       0.36509287       0.30556481 </v>
   <v>       0.60301005       0.02382010       0.79835828 </v>
   <v>       0.87318065       0.73039492       0.72947148 </v>
   <v>       0.19403937       0.18663991       0.94179894 </v>
   <v>       0.02719494       0.99879286       0.96758437 </v>
   <v>       0.49478394       0.79468021       0.64144689 </v>
  </varray>
  <varray name="velocities" >
   <v>       0.00000000       0.00000000       0.00000000 </v>
   <v>       0.00000000       0.00000000       0.00000000 </v>
   <v>       0.00000000       0.00000000       0.00000000 </v>
   <v>       0.00000000       0.00000000       0.00000000 </v>
   <v>       0.00000000       0.00000000       0.00000000 </v>
   <v>       0.00000000       0.00000000       0.00000000 </v>
   <v>       0.00000000       0.00000000       0.00000000 </v>
   <v>       0.00000000       0.00000000       0.00000000 </v>
   <v>       0.00000000       0.00000000       0.00000000 </v>
   <v>       0.00000000       0.00000000       0.00000000 </v>
   <v>       0.00000000       0.00000000       0.00000000 </v>
   <v>       0.00000000       0.00000000       0.00000000 </v>
   <v>       0.00000000       0.00000000       0.00000000 </v>
   <v>       0.00000000       0.00000000       0.00000000 </v>
   <v>       0.00000000       0.00000000       0.00000000 </v>
   <v>       0.00000000       0.00000000       0.00000000 </v>
   <v>       0.00000000       0.00000000       0.00000000 </v>
   <v>       0.00000000       0.00000000       0.00000000 </v>
   <v>       0.00000000       0.00000000       0.00000000 </v>
   <v>       0.00000000       0.00000000       0.00000000 </v>
   <v>       0.00000000       0.00000000       0.00000000 </v>
   <v>       0.00000000       0.00000000       0.00000000 </v>
   <v>       0.00000000       0.00000000       0.00000000 </v>
   <v>       0.00000000       0.00000000       0.00000000 </v>
   <v>       0.00000000       0.00000000       0.00000000 </v>
   <v>       0.00000000       0.00000000       0.00000000 </v>
   <v>       0.00000000       0.00000000       0.00000000 </v>
   <v>       0.00000000       0.00000000       0.00000000 </v>
   <v>       0.00000000       0.00000000       0.00000000 </v>
   <v>       0.00000000       0.00000000       0.00000000 </v>
   <v>       0.00000000       0.00000000       0.00000000 </v>
   <v>       0.00000000       0.00000000       0.00000000 </v>
   <v>       0.00000000       0.00000000       0.00000000 </v>
   <v>       0.00000000       0.00000000       0.00000000 </v>
   <v>       0.00000000       0.00000000       0.00000000 </v>
   <v>       0.00000000       0.00000000       0.00000000 </v>
   <v>       0.00000000       0.00000000       0.00000000 </v>
   <v>       0.00000000       0.00000000       0.00000000 </v>
   <v>       0.00000000       0.00000000       0.00000000 </v>
   <v>       0.00000000       0.00000000       0.00000000 </v>
   <v>       0.00000000       0.00000000       0.00000000 </v>
   <v>       0.00000000       0.00000000       0.00000000 </v>
   <v>       0.00000000       0.00000000       0.00000000 </v>
   <v>       0.00000000       0.00000000       0.00000000 </v>
   <v>       0.00000000       0.00000000       0.00000000 </v>
   <v>       0.00000000       0.00000000       0.00000000 </v>
   <v>       0.00000000       0.00000000       0.00000000 </v>
   <v>       0.00000000       0.00000000       0.00000000 </v>
   <v>       0.00000000       0.00000000       0.00000000 </v>
   <v>       0.00000000       0.00000000       0.00000000 </v>
   <v>       0.00000000       0.00000000       0.00000000 </v>
   <v>       0.00000000       0.00000000       0.00000000 </v>
   <v>       0.00000000       0.00000000       0.00000000 </v>
   <v>       0.00000000       0.00000000       0.00000000 </v>
   <v>       0.00000000       0.00000000       0.00000000 </v>
   <v>       0.00000000       0.00000000       0.00000000 </v>
   <v>       0.00000000       0.00000000       0.00000000 </v>
   <v>       0.00000000       0.00000000       0.00000000 </v>
   <v>       0.00000000       0.00000000       0.00000000 </v>
   <v>       0.00000000       0.00000000       0.00000000 </v>
   <v>       0.00000000       0.00000000       0.00000000 </v>
   <v>       0.00000000       0.00000000       0.00000000 </v>
   <v>       0.00000000       0.00000000       0.00000000 </v>
   <v>       0.00000000       0.00000000       0.00000000 </v>
   <v>       0.00000000       0.00000000       0.00000000 </v>
   <v>       0.00000000       0.00000000       0.00000000 </v>
   <v>       0.00000000       0.00000000       0.00000000 </v>
   <v>       0.00000000       0.00000000       0.00000000 </v>
   <v>       0.00000000       0.00000000       0.00000000 </v>
   <v>       0.00000000       0.00000000       0.00000000 </v>
   <v>       0.00000000       0.00000000       0.00000000 </v>
   <v>       0.00000000       0.00000000       0.00000000 </v>
   <v>       0.00000000       0.00000000       0.00000000 </v>
   <v>       0.00000000       0.00000000       0.00000000 </v>
   <v>       0.00000000       0.00000000       0.00000000 </v>
   <v>       0.00000000       0.00000000       0.00000000 </v>
   <v>       0.00000000       0.00000000       0.00000000 </v>
   <v>       0.00000000       0.00000000       0.00000000 </v>
   <v>       0.00000000       0.00000000       0.00000000 </v>
   <v>       0.00000000       0.00000000       0.00000000 </v>
   <v>       0.00000000       0.00000000       0.00000000 </v>
   <v>       0.00000000       0.00000000       0.00000000 </v>
   <v>       0.00000000       0.00000000       0.00000000 </v>
   <v>       0.00000000       0.00000000       0.00000000 </v>
   <v>       0.00000000       0.00000000       0.00000000 </v>
   <v>       0.00000000       0.00000000       0.00000000 </v>
   <v>       0.00000000       0.00000000       0.00000000 </v>
   <v>       0.00000000       0.00000000       0.00000000 </v>
   <v>       0.00000000       0.00000000       0.00000000 </v>
   <v>       0.00000000       0.00000000       0.00000000 </v>
   <v>       0.00000000       0.00000000       0.00000000 </v>
   <v>       0.00000000       0.00000000       0.00000000 </v>
   <v>       0.00000000       0.00000000       0.00000000 </v>
   <v>       0.00000000       0.00000000       0.00000000 </v>
   <v>       0.00000000       0.00000000       0.00000000 </v>
   <v>       0.00000000       0.00000000       0.00000000 </v>
   <v>       0.00000000       0.00000000       0.00000000 </v>
   <v>       0.00000000       0.00000000       0.00000000 </v>
   <v>       0.00000000       0.00000000       0.00000000 </v>
   <v>       0.00000000       0.00000000       0.00000000 </v>
   <v>       0.00000000       0.00000000       0.00000000 </v>
   <v>       0.00000000       0.00000000       0.00000000 </v>
   <v>       0.00000000       0.00000000       0.00000000 </v>
   <v>       0.00000000       0.00000000       0.00000000 </v>
   <v>       0.00000000       0.00000000       0.00000000 </v>
   <v>       0.00000000       0.00000000       0.00000000 </v>
   <v>       0.00000000       0.00000000       0.00000000 </v>
   <v>       0.00000000       0.00000000       0.00000000 </v>
   <v>       0.00000000       0.00000000       0.00000000 </v>
   <v>       0.00000000       0.00000000       0.00000000 </v>
   <v>       0.00000000       0.00000000       0.00000000 </v>
   <v>       0.00000000       0.00000000       0.00000000 </v>
   <v>       0.00000000       0.00000000       0.00000000 </v>
   <v>       0.00000000       0.00000000       0.00000000 </v>
   <v>       0.00000000       0.00000000       0.00000000 </v>
   <v>       0.00000000       0.00000000       0.00000000 </v>
   <v>       0.00000000       0.00000000       0.00000000 </v>
   <v>       0.00000000       0.00000000       0.00000000 </v>
   <v>       0.00000000       0.00000000       0.00000000 </v>
   <v>       0.00000000       0.00000000       0.00000000 </v>
   <v>       0.00000000       0.00000000       0.00000000 </v>
   <v>       0.00000000       0.00000000       0.00000000 </v>
   <v>       0.00000000       0.00000000       0.00000000 </v>
   <v>       0.00000000       0.00000000       0.00000000 </v>
   <v>       0.00000000       0.00000000       0.00000000 </v>
   <v>       0.00000000       0.00000000       0.00000000 </v>
   <v>       0.00000000       0.00000000       0.00000000 </v>
   <v>       0.00000000       0.00000000       0.00000000 </v>
   <v>       0.00000000       0.00000000       0.00000000 </v>
   <v>       0.00000000       0.00000000       0.00000000 </v>
   <v>       0.00000000       0.00000000       0.00000000 </v>
   <v>       0.00000000       0.00000000       0.00000000 </v>
   <v>       0.00000000       0.00000000       0.00000000 </v>
   <v>       0.00000000       0.00000000       0.00000000 </v>
   <v>       0.00000000       0.00000000       0.00000000 </v>
  </varray>
 </structure>
</modeling>
