 running on   52 total cores
 distrk:  each k-point on   52 cores,    1 groups
 distr:  one band on   13 cores,    4 groups
 using from now: INCAR     
 vasp.5.4.4.18Apr17-6-g9f103f2a35 (build Oct 31 2019 15:01:46) complex          
  
 POSCAR found type information on POSCAR  Ca Si O 
 POSCAR found :  3 types and     135 ions
 scaLAPACK is switched off
 LDA part: xc-table for Pade appr. of Perdew
 generate k-points for:    3    3    3
 POSCAR, INCAR and KPOINTS ok, starting setup
 FFT: planning ...
 WAVECAR not read
 entering main loop
       N       E                     dE             d eps       ncg     rms          rms(c)
DAV:   1     0.106179640178E+05    0.10618E+05   -0.49768E+05 14560   0.194E+03
DAV:   2     0.250022631988E+03   -0.10368E+05   -0.99741E+04 16440   0.548E+02
DAV:   3    -0.913674500675E+03   -0.11637E+04   -0.11542E+04 16752   0.186E+02
DAV:   4    -0.976972698924E+03   -0.63298E+02   -0.63087E+02 21064   0.357E+01
DAV:   5    -0.981289459633E+03   -0.43168E+01   -0.43145E+01 23656   0.819E+00    0.912E+01
DAV:   6    -0.849891532673E+03    0.13140E+03   -0.50439E+02 17520   0.368E+01    0.388E+01
DAV:   7    -0.851048050759E+03   -0.11565E+01   -0.63248E+01 18864   0.125E+01    0.164E+01
DAV:   8    -0.850530845657E+03    0.51721E+00   -0.93889E+00 19328   0.595E+00    0.684E+00
DAV:   9    -0.850397800319E+03    0.13305E+00   -0.21318E+00 17408   0.293E+00    0.187E+00
DAV:  10    -0.850445322868E+03   -0.47523E-01   -0.61180E-01 21568   0.132E+00    0.138E+00
DAV:  11    -0.850446600944E+03   -0.12781E-02   -0.81385E-02 17800   0.539E-01    0.699E-01
DAV:  12    -0.850446881968E+03   -0.28102E-03   -0.25822E-02 18936   0.310E-01    0.131E-01
DAV:  13    -0.850447219278E+03   -0.33731E-03   -0.42968E-03 19904   0.126E-01    0.953E-02
DAV:  14    -0.850447274879E+03   -0.55601E-04   -0.79731E-04 19616   0.458E-02    0.667E-02
DAV:  15    -0.850447264226E+03    0.10653E-04   -0.18736E-04 18968   0.240E-02    0.323E-02
DAV:  16    -0.850447265412E+03   -0.11865E-05   -0.36464E-05 20144   0.126E-02    0.782E-03
DAV:  17    -0.850447265109E+03    0.30262E-06   -0.16874E-05 18208   0.776E-03    0.484E-03
DAV:  18    -0.850447264635E+03    0.47406E-06   -0.18972E-06  9840   0.285E-03
   1 F= -.85044726E+03 E0= -.85044726E+03  d E =-.243129E-12
