 running on   48 total cores
 distrk:  each k-point on   48 cores,    1 groups
 distr:  one band on   12 cores,    4 groups
 using from now: INCAR     
 vasp.5.4.4.18Apr17-6-g9f103f2a35 (build Mar 16 2023 09:39:13) complex          
  
 POSCAR found type information on POSCAR  Ca Si O 
 POSCAR found :  3 types and     135 ions
 scaLAPACK is switched off
 LDA part: xc-table for Pade appr. of Perdew
 generate k-points for:    2    2    2
 POSCAR, INCAR and KPOINTS ok, starting setup
 FFT: planning ...
 WAVECAR not read
 entering main loop
       N       E                     dE             d eps       ncg     rms          rms(c)
DAV:   1     0.931036412616E+04    0.93104E+04   -0.46281E+05  8320   0.174E+03
DAV:   2    -0.172107888894E+02   -0.93276E+04   -0.90508E+04 10232   0.454E+02
DAV:   3    -0.104497085331E+04   -0.10278E+04   -0.10222E+04 10240   0.154E+02
DAV:   4    -0.109244668415E+04   -0.47476E+02   -0.47308E+02 11008   0.319E+01
DAV:   5    -0.109928116574E+04   -0.68345E+01   -0.68314E+01 15416   0.711E+00    0.848E+01
DAV:   6    -0.940778607308E+03    0.15850E+03   -0.77502E+02 10520   0.421E+01    0.355E+01
DAV:   7    -0.942237342302E+03   -0.14587E+01   -0.78845E+01 11328   0.135E+01    0.188E+01
DAV:   8    -0.940133310503E+03    0.21040E+01   -0.15340E+01 10104   0.666E+00    0.750E+00
DAV:   9    -0.939378764286E+03    0.75455E+00   -0.35555E+00 10744   0.366E+00    0.244E+00
DAV:  10    -0.939470381606E+03   -0.91617E-01   -0.16651E+00 11856   0.214E+00    0.156E+00
DAV:  11    -0.939476753251E+03   -0.63716E-02   -0.28920E-01 11600   0.999E-01    0.882E-01
DAV:  12    -0.939499165892E+03   -0.22413E-01   -0.10980E-01  9856   0.692E-01    0.380E-01
DAV:  13    -0.939507241094E+03   -0.80752E-02   -0.38673E-02 11544   0.478E-01    0.291E-01
DAV:  14    -0.939510483799E+03   -0.32427E-02   -0.22918E-02 10632   0.269E-01    0.170E-01
DAV:  15    -0.939511697763E+03   -0.12140E-02   -0.39748E-03 11448   0.112E-01    0.946E-02
DAV:  16    -0.939512356014E+03   -0.65825E-03   -0.15955E-03  9472   0.104E-01    0.468E-02
DAV:  17    -0.939512496947E+03   -0.14093E-03   -0.10611E-03 11352   0.499E-02    0.422E-02
DAV:  18    -0.939512518521E+03   -0.21574E-04   -0.17025E-04 10920   0.190E-02    0.236E-02
DAV:  19    -0.939512543012E+03   -0.24491E-04   -0.53130E-05  9000   0.134E-02    0.101E-02
DAV:  20    -0.939512550468E+03   -0.74559E-05   -0.21278E-05 10976   0.845E-03    0.541E-03
DAV:  21    -0.939512552180E+03   -0.17124E-05   -0.48627E-06  8576   0.407E-03    0.357E-03
DAV:  22    -0.939512552695E+03   -0.51457E-06   -0.13005E-06  5928   0.220E-03
   1 F= -.93951255E+03 E0= -.93951255E+03  d E =-.141597E-11
