<?xml version="1.0" encoding="ISO-8859-1"?>
<modeling>
 <generator>
  <i name="program" type="string">vasp </i>
  <i name="version" type="string">5.4.4.18Apr17-6-g9f103f2a35  </i>
  <i name="subversion" type="string">(build Mar 16 2023 09:39:13) complex            parallel </i>
  <i name="platform" type="string">LinuxIFC </i>
  <i name="date" type="string">2024 04 30 </i>
  <i name="time" type="string">11:06:19 </i>
 </generator>
 <incar>
  <i type="int" name="ISTART">     0</i>
  <i type="string" name="PREC">a</i>
  <i type="logical" name="ADDGRID"> T  </i>
  <i type="int" name="IBRION">    -1</i>
  <i name="EDIFF">      0.00000100</i>
  <i name="EDIFFG">     -0.01000000</i>
  <i type="int" name="NSW">     1</i>
  <i type="int" name="ISIF">     2</i>
  <i type="int" name="ISYM">     0</i>
  <i name="ENCUT">    600.00000000</i>
  <i name="POTIM">      1.00000000</i>
  <i type="string" name="LREAL">  A</i>
  <i type="int" name="ISMEAR">     0</i>
  <i name="SIGMA">      0.05000000</i>
  <i name="KSPACING">      0.30000000</i>
  <i type="logical" name="KGAMMA"> T  </i>
  <i type="logical" name="LWAVE"> F  </i>
  <i type="logical" name="LCHARG"> F  </i>
  <i type="logical" name="LSCALAPACK"> F  </i>
  <v type="int" name="KPOINT_BSE">    -1     0     0     0</v>
 </incar>
 <structure name="primitive_cell" >
  <crystal>
   <varray name="basis" >
    <v>      13.31093562       0.00000000       0.00000000 </v>
    <v>       0.00000000      13.31093562       0.00000000 </v>
    <v>       0.00000000       0.00000000      13.31093562 </v>
   </varray>
   <i name="volume">   2358.44497833 </i>
   <varray name="rec_basis" >
    <v>       0.07512620       0.00000000       0.00000000 </v>
    <v>       0.00000000       0.07512620       0.00000000 </v>
    <v>       0.00000000       0.00000000       0.07512620 </v>
   </varray>
  </crystal>
  <varray name="positions" >
   <v>       0.46407922      -0.41432464       0.04991953 </v>
   <v>       0.43526199      -0.34715940       0.20140321 </v>
   <v>       0.38978531      -0.27140772      -0.03005944 </v>
   <v>       0.28987267      -0.42240013      -0.04828082 </v>
   <v>       0.34771761      -0.33781080      -0.11760839 </v>
   <v>      -0.36148654      -0.36322117      -0.07165422 </v>
   <v>       0.46131902      -0.36617605      -0.16939757 </v>
   <v>      -0.40947684       0.42982877       0.15736380 </v>
   <v>      -0.40746482      -0.22874001      -0.04735277 </v>
   <v>       0.31208136      -0.31557031       0.22777524 </v>
   <v>       0.37210883       0.35292487       0.15001524 </v>
   <v>       0.22471309      -0.34775003       0.15553752 </v>
   <v>      -0.26954302      -0.43062712       0.09414370 </v>
   <v>      -0.26494161      -0.43097707      -0.03011996 </v>
   <v>      -0.30368948       0.49318286       0.18791678 </v>
   <v>      -0.37432367      -0.46587807       0.28404054 </v>
   <v>       0.22136037       0.44959004       0.14641091 </v>
   <v>       0.19808207      -0.26487925       0.00964728 </v>
   <v>       0.24055561       0.48258873      -0.14153710 </v>
   <v>       0.45585625      -0.47511530       0.35722883 </v>
   <v>       0.34950063       0.44275769      -0.20602739 </v>
   <v>      -0.45472131       0.32682938       0.22410304 </v>
   <v>       0.33138117      -0.19780880       0.25000036 </v>
   <v>      -0.26098218       0.44258117      -0.06385914 </v>
   <v>      -0.41062528       0.31371227      -0.09065957 </v>
   <v>       0.20049626       0.40414796      -0.03953763 </v>
   <v>       0.25368039      -0.28587452      -0.17944103 </v>
   <v>       0.28883360      -0.38131441       0.34192683 </v>
   <v>       0.38862973       0.23634518       0.09404996 </v>
   <v>      -0.49513296       0.23444895       0.13996452 </v>
   <v>       0.44259338      -0.38285385      -0.31589996 </v>
   <v>       0.46903896       0.33005173       0.31681871 </v>
   <v>       0.48592750       0.33203701      -0.22153356 </v>
   <v>      -0.43261237      -0.33549133       0.41574173 </v>
   <v>      -0.32120203      -0.40472779       0.37424640 </v>
   <v>       0.31589200      -0.10736367      -0.14296755 </v>
   <v>      -0.15381174      -0.36699384      -0.02188464 </v>
   <v>       0.48802329      -0.07577610      -0.14840910 </v>
   <v>      -0.27243003       0.32887612      -0.09243069 </v>
   <v>      -0.19593376       0.42719693       0.17537300 </v>
   <v>       0.37769183       0.20703548      -0.02544641 </v>
   <v>       0.22605623      -0.09369037       0.00041494 </v>
   <v>       0.14520221      -0.46532442      -0.19256469 </v>
   <v>      -0.31829988      -0.08903992      -0.10037216 </v>
   <v>      -0.34572544       0.27548435       0.25913606 </v>
   <v>       0.35852202      -0.25689907       0.42484658 </v>
   <v>       0.05450228       0.48102042       0.03824362 </v>
   <v>      -0.39376384       0.18771161       0.00100241 </v>
   <v>       0.30911714      -0.02321669       0.12052560 </v>
   <v>       0.12370836      -0.37285624       0.33061575 </v>
   <v>       0.16285268       0.31837660       0.24781797 </v>
   <v>      -0.20862751      -0.36522913       0.35304535 </v>
   <v>       0.07039198       0.39842431      -0.06046324 </v>
   <v>      -0.39548459      -0.40360394      -0.37737745 </v>
   <v>       0.06096681       0.48927294       0.24446786 </v>
   <v>       0.49499995       0.48333258       0.49744000 </v>
   <v>       0.32429107       0.15377500       0.15395781 </v>
   <v>      -0.07208431      -0.44475119       0.11689189 </v>
   <v>       0.20220128      -0.33472625      -0.33198292 </v>
   <v>      -0.21617533       0.24845443      -0.02070252 </v>
   <v>      -0.39754803      -0.02728153      -0.18080129 </v>
   <v>       0.21595285       0.20527406      -0.08443211 </v>
   <v>       0.29984264       0.25407614      -0.25763675 </v>
   <v>      -0.13006847      -0.19207958       0.18824787 </v>
   <v>      -0.31523518      -0.49547215       0.47310896 </v>
   <v>      -0.20954938       0.32299160      -0.19317320 </v>
   <v>      -0.37445310       0.37593688      -0.36300887 </v>
   <v>      -0.19489367       0.28781985       0.25874162 </v>
   <v>       0.04650305      -0.14224005       0.07860354 </v>
   <v>       0.08782449       0.38363430       0.31276538 </v>
   <v>       0.44497507       0.32531563      -0.37875833 </v>
   <v>       0.35676153      -0.22719290      -0.41321939 </v>
   <v>      -0.36699505      -0.27566626      -0.48752790 </v>
   <v>       0.26796003       0.17552786       0.28537649 </v>
   <v>       0.05302807       0.28327657      -0.04081482 </v>
   <v>      -0.39760826       0.47909589      -0.43829849 </v>
   <v>       0.09999262      -0.04150649       0.01714758 </v>
   <v>      -0.15360243      -0.20235989       0.33764711 </v>
   <v>       0.48274524       0.26658420       0.47118359 </v>
   <v>      -0.37410123      -0.05428705      -0.30240713 </v>
   <v>       0.21721762       0.01583471       0.24592015 </v>
   <v>       0.00022211       0.41387393      -0.15885103 </v>
   <v>      -0.29897388       0.06718424       0.10839287 </v>
   <v>      -0.44367653      -0.18878043      -0.46278941 </v>
   <v>      -0.40324371       0.09450352      -0.16576701 </v>
   <v>       0.12881423      -0.12832320       0.39273900 </v>
   <v>      -0.28266308       0.23985554      -0.30799671 </v>
   <v>       0.27674159      -0.03206204      -0.31180127 </v>
   <v>       0.33277424       0.23963568      -0.36860759 </v>
   <v>       0.10256610       0.40146656       0.43596953 </v>
   <v>      -0.22583656       0.04418016      -0.05106190 </v>
   <v>      -0.24000135       0.00399354       0.28644734 </v>
   <v>       0.28524518      -0.12311020      -0.40619470 </v>
   <v>       0.14644627      -0.29939433      -0.49029803 </v>
   <v>      -0.21417391       0.04109872       0.17901653 </v>
   <v>       0.05428563      -0.03558985      -0.09690965 </v>
   <v>      -0.24527249      -0.26987575      -0.47168774 </v>
   <v>      -0.15896916       0.49099161      -0.38121278 </v>
   <v>      -0.05852473      -0.09653242       0.15070987 </v>
   <v>      -0.12151006      -0.00690034       0.10810822 </v>
   <v>       0.11685086      -0.01789763       0.31180002 </v>
   <v>       0.33771858      -0.05067211       0.49730924 </v>
   <v>       0.42292202       0.09225468       0.37906612 </v>
   <v>       0.24553390       0.32662680      -0.44238308 </v>
   <v>       0.10451137       0.06860999       0.05250405 </v>
   <v>      -0.38522212      -0.07258011      -0.42830447 </v>
   <v>       0.01472189      -0.03400991       0.22033847 </v>
   <v>       0.08897286      -0.19001814       0.48269575 </v>
   <v>      -0.12956311       0.14116239       0.20151320 </v>
   <v>      -0.18097032       0.34944696      -0.49033173 </v>
   <v>       0.15993838      -0.14152171      -0.42719491 </v>
   <v>      -0.06011463       0.28307508      -0.22699735 </v>
   <v>      -0.00446518       0.28889143       0.34889450 </v>
   <v>       0.04841698       0.38726595      -0.38219852 </v>
   <v>      -0.06371265       0.16607288       0.02537988 </v>
   <v>      -0.35430610       0.08390654       0.39555238 </v>
   <v>      -0.29020172      -0.03706996      -0.49835710 </v>
   <v>       0.41079705       0.04939681       0.48684334 </v>
   <v>      -0.31860618       0.20581330      -0.48265164 </v>
   <v>       0.11528203       0.11594826      -0.21827570 </v>
   <v>       0.11846768       0.33458465      -0.45455998 </v>
   <v>      -0.47020355       0.02675675      -0.45217781 </v>
   <v>       0.35653591       0.13694434      -0.43981839 </v>
   <v>       0.02002423       0.03348244      -0.19051161 </v>
   <v>      -0.20231443       0.22961531      -0.47530758 </v>
   <v>      -0.08799112       0.10304449      -0.14765733 </v>
   <v>      -0.03561162      -0.19510288       0.47695584 </v>
   <v>      -0.14216633       0.19403257      -0.37478922 </v>
   <v>       0.00407109      -0.01212280      -0.29551868 </v>
   <v>      -0.12699174       0.15624445       0.43408415 </v>
   <v>       0.06043659       0.07067283       0.37233438 </v>
   <v>       0.00153052       0.18163405       0.41482691 </v>
   <v>       0.14536474       0.09051292      -0.37162969 </v>
   <v>       0.05369613       0.19892457      -0.46953775 </v>
   <v>      -0.09535443      -0.05310554      -0.44880256 </v>
  </varray>
 </structure>
 <varray name="primitive_index" >
  <v type="int" >        1 </v>
  <v type="int" >       97 </v>
  <v type="int" >       76 </v>
  <v type="int" >       82 </v>
  <v type="int" >       31 </v>
  <v type="int" >       60 </v>
  <v type="int" >      119 </v>
  <v type="int" >       86 </v>
  <v type="int" >        6 </v>
  <v type="int" >       30 </v>
  <v type="int" >       70 </v>
  <v type="int" >      122 </v>
  <v type="int" >       56 </v>
  <v type="int" >       47 </v>
  <v type="int" >       33 </v>
  <v type="int" >       65 </v>
  <v type="int" >       10 </v>
  <v type="int" >        7 </v>
  <v type="int" >       44 </v>
  <v type="int" >       21 </v>
  <v type="int" >       88 </v>
  <v type="int" >       38 </v>
  <v type="int" >      129 </v>
  <v type="int" >       58 </v>
  <v type="int" >       64 </v>
  <v type="int" >       90 </v>
  <v type="int" >       79 </v>
  <v type="int" >       95 </v>
  <v type="int" >       40 </v>
  <v type="int" >      125 </v>
  <v type="int" >       11 </v>
  <v type="int" >       92 </v>
  <v type="int" >       24 </v>
  <v type="int" >       72 </v>
  <v type="int" >       51 </v>
  <v type="int" >       27 </v>
  <v type="int" >      121 </v>
  <v type="int" >       73 </v>
  <v type="int" >       28 </v>
  <v type="int" >       84 </v>
  <v type="int" >      128 </v>
  <v type="int" >      110 </v>
  <v type="int" >      112 </v>
  <v type="int" >       55 </v>
  <v type="int" >      118 </v>
  <v type="int" >       20 </v>
  <v type="int" >      113 </v>
  <v type="int" >        9 </v>
  <v type="int" >       22 </v>
  <v type="int" >       14 </v>
  <v type="int" >       80 </v>
  <v type="int" >      131 </v>
  <v type="int" >       46 </v>
  <v type="int" >      111 </v>
  <v type="int" >       57 </v>
  <v type="int" >       61 </v>
  <v type="int" >      109 </v>
  <v type="int" >       26 </v>
  <v type="int" >       16 </v>
  <v type="int" >       87 </v>
  <v type="int" >       36 </v>
  <v type="int" >       25 </v>
  <v type="int" >       74 </v>
  <v type="int" >       66 </v>
  <v type="int" >       94 </v>
  <v type="int" >       91 </v>
  <v type="int" >      108 </v>
  <v type="int" >       18 </v>
  <v type="int" >       69 </v>
  <v type="int" >       35 </v>
  <v type="int" >      100 </v>
  <v type="int" >      115 </v>
  <v type="int" >       29 </v>
  <v type="int" >       15 </v>
  <v type="int" >      104 </v>
  <v type="int" >       52 </v>
  <v type="int" >       41 </v>
  <v type="int" >        2 </v>
  <v type="int" >        4 </v>
  <v type="int" >      126 </v>
  <v type="int" >      132 </v>
  <v type="int" >       96 </v>
  <v type="int" >      106 </v>
  <v type="int" >       99 </v>
  <v type="int" >      117 </v>
  <v type="int" >      116 </v>
  <v type="int" >       23 </v>
  <v type="int" >      105 </v>
  <v type="int" >       49 </v>
  <v type="int" >       89 </v>
  <v type="int" >       19 </v>
  <v type="int" >       77 </v>
  <v type="int" >       50 </v>
  <v type="int" >      130 </v>
  <v type="int" >       32 </v>
  <v type="int" >       85 </v>
  <v type="int" >       63 </v>
  <v type="int" >        8 </v>
  <v type="int" >       39 </v>
  <v type="int" >       67 </v>
  <v type="int" >       42 </v>
  <v type="int" >      124 </v>
  <v type="int" >       75 </v>
  <v type="int" >      133 </v>
  <v type="int" >       83 </v>
  <v type="int" >       43 </v>
  <v type="int" >      123 </v>
  <v type="int" >       34 </v>
  <v type="int" >       68 </v>
  <v type="int" >       98 </v>
  <v type="int" >      102 </v>
  <v type="int" >        3 </v>
  <v type="int" >      114 </v>
  <v type="int" >      120 </v>
  <v type="int" >       13 </v>
  <v type="int" >        5 </v>
  <v type="int" >      101 </v>
  <v type="int" >       48 </v>
  <v type="int" >       93 </v>
  <v type="int" >       78 </v>
  <v type="int" >       37 </v>
  <v type="int" >       62 </v>
  <v type="int" >      107 </v>
  <v type="int" >       53 </v>
  <v type="int" >       45 </v>
  <v type="int" >      127 </v>
  <v type="int" >       71 </v>
  <v type="int" >      134 </v>
  <v type="int" >       81 </v>
  <v type="int" >      135 </v>
  <v type="int" >      103 </v>
  <v type="int" >       54 </v>
  <v type="int" >       17 </v>
  <v type="int" >       59 </v>
  <v type="int" >       12 </v>
 </varray>
 <kpoints>
  <generation param="Gamma">
   <v type="int" name="divisions">       2        2        2 </v>
   <v name="usershift">      0.00000000       0.00000000       0.00000000 </v>
   <v name="genvec1">      0.50000000       0.00000000       0.00000000 </v>
   <v name="genvec2">      0.00000000       0.50000000       0.00000000 </v>
   <v name="genvec3">      0.00000000       0.00000000       0.50000000 </v>
   <v name="shift">      0.00000000       0.00000000       0.00000000 </v>
  </generation>
  <varray name="kpointlist" >
   <v>       0.00000000       0.00000000       0.00000000 </v>
   <v>       0.50000000       0.00000000       0.00000000 </v>
   <v>       0.00000000       0.50000000       0.00000000 </v>
   <v>       0.50000000       0.50000000       0.00000000 </v>
   <v>       0.00000000       0.00000000       0.50000000 </v>
   <v>       0.50000000       0.00000000       0.50000000 </v>
   <v>       0.00000000       0.50000000       0.50000000 </v>
   <v>       0.50000000       0.50000000       0.50000000 </v>
  </varray>
  <varray name="weights" >
   <v>       0.12500000 </v>
   <v>       0.12500000 </v>
   <v>       0.12500000 </v>
   <v>       0.12500000 </v>
   <v>       0.12500000 </v>
   <v>       0.12500000 </v>
   <v>       0.12500000 </v>
   <v>       0.12500000 </v>
  </varray>
 </kpoints>
 <parameters>
  <separator name="general" >
   <i type="string" name="SYSTEM">unknown system</i>
   <i type="logical" name="LCOMPAT"> F  </i>
  </separator>
  <separator name="electronic" >
   <i type="string" name="PREC">a</i>
   <i name="ENMAX">    600.00000000</i>
   <i name="ENAUG">    605.39200000</i>
   <i name="EDIFF">      0.00000100</i>
   <i type="int" name="IALGO">    38</i>
   <i type="int" name="IWAVPR">    10</i>
   <i type="int" name="NBANDS">   520</i>
   <i name="NELECT">    864.00000000</i>
   <i type="int" name="TURBO">     0</i>
   <i type="int" name="IRESTART">     0</i>
   <i type="int" name="NREBOOT">     0</i>
   <i type="int" name="NMIN">     0</i>
   <i name="EREF">      0.00000000</i>
   <separator name="electronic smearing" >
    <i type="int" name="ISMEAR">     0</i>
    <i name="SIGMA">      0.05000000</i>
    <i name="KSPACING">      0.30000000</i>
    <i type="logical" name="KGAMMA"> T  </i>
   </separator>
   <separator name="electronic projectors" >
    <i type="logical" name="LREAL"> T  </i>
    <v name="ROPT">     -0.00025000     -0.00025000     -0.00025000</v>
    <i type="int" name="LMAXPAW">  -100</i>
    <i type="int" name="LMAXMIX">     2</i>
    <i type="logical" name="NLSPLINE"> F  </i>
   </separator>
   <separator name="electronic startup" >
    <i type="int" name="ISTART">     0</i>
    <i type="int" name="ICHARG">     2</i>
    <i type="int" name="INIWAV">     1</i>
   </separator>
   <separator name="electronic spin" >
    <i type="int" name="ISPIN">     1</i>
    <i type="logical" name="LNONCOLLINEAR"> F  </i>
    <v name="MAGMOM">      1.00000000      1.00000000      1.00000000      1.00000000      1.00000000      1.00000000      1.00000000      1.00000000      1.00000000      1.00000000      1.00000000      1.00000000      1.00000000      1.00000000      1.00000000      1.00000000      1.00000000      1.00000000      1.00000000      1.00000000
      1.00000000      1.00000000      1.00000000      1.00000000      1.00000000      1.00000000      1.00000000      1.00000000      1.00000000      1.00000000      1.00000000      1.00000000      1.00000000      1.00000000      1.00000000      1.00000000      1.00000000      1.00000000      1.00000000      1.00000000
      1.00000000      1.00000000      1.00000000      1.00000000      1.00000000      1.00000000      1.00000000      1.00000000      1.00000000      1.00000000      1.00000000      1.00000000      1.00000000      1.00000000      1.00000000      1.00000000      1.00000000      1.00000000      1.00000000      1.00000000
      1.00000000      1.00000000      1.00000000      1.00000000      1.00000000      1.00000000      1.00000000      1.00000000      1.00000000      1.00000000      1.00000000      1.00000000      1.00000000      1.00000000      1.00000000      1.00000000      1.00000000      1.00000000      1.00000000      1.00000000
      1.00000000      1.00000000      1.00000000      1.00000000      1.00000000      1.00000000      1.00000000      1.00000000      1.00000000      1.00000000      1.00000000      1.00000000      1.00000000      1.00000000      1.00000000      1.00000000      1.00000000      1.00000000      1.00000000      1.00000000
      1.00000000      1.00000000      1.00000000      1.00000000      1.00000000      1.00000000      1.00000000      1.00000000      1.00000000      1.00000000      1.00000000      1.00000000      1.00000000      1.00000000      1.00000000      1.00000000      1.00000000      1.00000000      1.00000000      1.00000000
      1.00000000      1.00000000      1.00000000      1.00000000      1.00000000      1.00000000      1.00000000      1.00000000      1.00000000      1.00000000      1.00000000      1.00000000      1.00000000      1.00000000      1.00000000</v>
    <i name="NUPDOWN">     -1.00000000</i>
    <i type="logical" name="LSORBIT"> F  </i>
    <v name="SAXIS">      0.00000000      0.00000000      1.00000000</v>
    <i type="logical" name="LSPIRAL"> F  </i>
    <v name="QSPIRAL">      0.00000000      0.00000000      0.00000000</v>
    <i type="logical" name="LZEROZ"> F  </i>
   </separator>
   <separator name="electronic exchange-correlation" >
    <i type="logical" name="LASPH"> F  </i>
    <i type="logical" name="LMETAGGA"> F  </i>
   </separator>
   <separator name="electronic convergence" >
    <i type="int" name="NELM">    60</i>
    <i type="int" name="NELMDL">    -5</i>
    <i type="int" name="NELMIN">     2</i>
    <i name="ENINI">    600.00000000</i>
    <separator name="electronic convergence detail" >
     <i type="logical" name="LDIAG"> T  </i>
     <i type="logical" name="LSUBROT"> F  </i>
     <i name="WEIMIN">      0.00000000</i>
     <i name="EBREAK">      0.00000000</i>
     <i name="DEPER">      0.30000000</i>
     <i type="int" name="NRMM">     4</i>
     <i name="TIME">      0.40000000</i>
    </separator>
   </separator>
   <separator name="electronic mixer" >
    <i name="AMIX">      0.40000000</i>
    <i name="BMIX">      1.00000000</i>
    <i name="AMIN">      0.10000000</i>
    <i name="AMIX_MAG">      1.60000000</i>
    <i name="BMIX_MAG">      1.00000000</i>
    <separator name="electronic mixer details" >
     <i type="int" name="IMIX">     4</i>
     <i type="logical" name="MIXFIRST"> F  </i>
     <i type="int" name="MAXMIX">   -45</i>
     <i name="WC">    100.00000000</i>
     <i type="int" name="INIMIX">     1</i>
     <i type="int" name="MIXPRE">     1</i>
     <i type="int" name="MREMOVE">     5</i>
    </separator>
   </separator>
   <separator name="electronic dipolcorrection" >
    <i type="logical" name="LDIPOL"> F  </i>
    <i type="logical" name="LMONO"> F  </i>
    <i type="int" name="IDIPOL">     0</i>
    <i name="EPSILON">      1.00000000</i>
    <v name="DIPOL">   -100.00000000   -100.00000000   -100.00000000</v>
    <i name="EFIELD">      0.00000000</i>
   </separator>
  </separator>
  <separator name="grids" >
   <i type="int" name="NGX">   108</i>
   <i type="int" name="NGY">   108</i>
   <i type="int" name="NGZ">   108</i>
   <i type="int" name="NGXF">   216</i>
   <i type="int" name="NGYF">   216</i>
   <i type="int" name="NGZF">   216</i>
   <i type="logical" name="ADDGRID"> T  </i>
  </separator>
  <separator name="ionic" >
   <i type="int" name="NSW">     1</i>
   <i type="int" name="IBRION">    -1</i>
   <i type="int" name="MDALGO">     0</i>
   <i type="int" name="ISIF">     2</i>
   <i name="PSTRESS">      0.00000000</i>
   <i name="EDIFFG">     -0.01000000</i>
   <i type="int" name="NFREE">     0</i>
   <i name="POTIM">      1.00000000</i>
   <i name="SMASS">     -3.00000000</i>
   <i name="SCALEE">      1.00000000</i>
  </separator>
  <separator name="ionic md" >
   <i name="TEBEG">      0.00010000</i>
   <i name="TEEND">      0.00010000</i>
   <i type="int" name="NBLOCK">     1</i>
   <i type="int" name="KBLOCK">     1</i>
   <i type="int" name="NPACO">   256</i>
   <i name="APACO">     16.00000000</i>
  </separator>
  <separator name="symmetry" >
   <i type="int" name="ISYM">     0</i>
   <i name="SYMPREC">      0.00001000</i>
  </separator>
  <separator name="dos" >
   <i type="int" name="LORBIT">     0</i>
   <v name="RWIGS">     -1.00000000     -1.00000000     -1.00000000</v>
   <i type="int" name="NEDOS">   301</i>
   <i name="EMIN">     10.00000000</i>
   <i name="EMAX">    -10.00000000</i>
   <i name="EFERMI">      0.00000000</i>
  </separator>
  <separator name="writing" >
   <i type="int" name="NWRITE">     2</i>
   <i type="logical" name="LWAVE"> F  </i>
   <i type="logical" name="LDOWNSAMPLE"> F  </i>
   <i type="logical" name="LCHARG"> F  </i>
   <i type="logical" name="LPARD"> F  </i>
   <i type="logical" name="LVTOT"> F  </i>
   <i type="logical" name="LVHAR"> F  </i>
   <i type="logical" name="LELF"> F  </i>
   <i type="logical" name="LOPTICS"> F  </i>
   <v name="STM">      0.00000000      0.00000000      0.00000000      0.00000000      0.00000000      0.00000000      0.00000000</v>
  </separator>
  <separator name="performance" >
   <i type="int" name="NPAR">     4</i>
   <i type="int" name="NSIM">     4</i>
   <i type="int" name="NBLK">    -1</i>
   <i type="logical" name="LPLANE"> T  </i>
   <i type="logical" name="LSCALAPACK"> F  </i>
   <i type="logical" name="LSCAAWARE"> F  </i>
   <i type="logical" name="LSCALU"> F  </i>
   <i type="logical" name="LASYNC"> F  </i>
   <i type="logical" name="LORBITALREAL"> F  </i>
  </separator>
  <separator name="miscellaneous" >
   <i type="int" name="IDIOT">     3</i>
   <i type="int" name="ISPECIAL">     0</i>
   <i type="logical" name="LMUSIC"> F  </i>
   <v name="POMASS">     40.07800000     28.08500000     16.00000000</v>
   <v name="DARWINR">      0.00000000      0.00000000      0.00000000</v>
   <v name="DARWINV">      1.00000000      1.00000000      1.00000000</v>
   <i type="logical" name="LCORR"> T  </i>
  </separator>
  <i type="logical" name="GGA_COMPAT"> T  </i>
  <i type="logical" name="LBERRY"> F  </i>
  <i type="int" name="ICORELEVEL">     0</i>
  <i type="logical" name="LDAU"> F  </i>
  <i type="int" name="I_CONSTRAINED_M">     0</i>
  <separator name="electronic exchange-correlation" >
   <i type="string" name="GGA">--</i>
   <i type="int" name="VOSKOWN">     0</i>
   <i type="logical" name="LHFCALC"> F  </i>
   <i type="string" name="PRECFOCK"></i>
   <i type="logical" name="LSYMGRAD"> F  </i>
   <i type="logical" name="LHFONE"> F  </i>
   <i type="logical" name="LRHFCALC"> F  </i>
   <i type="logical" name="LTHOMAS"> F  </i>
   <i type="logical" name="LMODELHF"> F  </i>
   <i name="ENCUT4O">     -1.00000000</i>
   <i type="int" name="EXXOEP">     0</i>
   <i type="int" name="FOURORBIT">     0</i>
   <i name="AEXX">      0.00000000</i>
   <i name="HFALPHA">      0.00000000</i>
   <i name="MCALPHA">      0.00000000</i>
   <i name="ALDAX">      1.00000000</i>
   <i name="AGGAX">      1.00000000</i>
   <i name="ALDAC">      1.00000000</i>
   <i name="AGGAC">      1.00000000</i>
   <i type="int" name="NKREDX">     1</i>
   <i type="int" name="NKREDY">     1</i>
   <i type="int" name="NKREDZ">     1</i>
   <i type="logical" name="SHIFTRED"> F  </i>
   <i type="logical" name="ODDONLY"> F  </i>
   <i type="logical" name="EVENONLY"> F  </i>
   <i type="int" name="LMAXFOCK">     0</i>
   <i type="int" name="NMAXFOCKAE">     0</i>
   <i type="logical" name="LFOCKAEDFT"> F  </i>
   <i name="HFSCREEN">      0.00000000</i>
   <i name="HFSCREENC">      0.00000000</i>
   <i type="int" name="NBANDSGWLOW">     0</i>
  </separator>
  <separator name="vdW DFT" >
   <i type="logical" name="LUSE_VDW"> F  </i>
   <i name="Zab_VDW">     -0.84910000</i>
   <i name="PARAM1">      0.12340000</i>
   <i name="PARAM2">      1.00000000</i>
   <i name="PARAM3">      0.00000000</i>
  </separator>
  <separator name="model GW" >
   <i type="int" name="MODEL_GW">     0</i>
   <i name="MODEL_EPS0">     10.48197768</i>
   <i name="MODEL_ALPHA">      1.00000000</i>
  </separator>
  <separator name="linear response parameters" >
   <i type="logical" name="LEPSILON"> F  </i>
   <i type="logical" name="LRPA"> F  </i>
   <i type="logical" name="LNABLA"> F  </i>
   <i type="logical" name="LVEL"> F  </i>
   <i type="int" name="KINTER">     0</i>
   <i name="CSHIFT">      0.10000000</i>
   <i name="OMEGAMAX">     -1.00000000</i>
   <i name="DEG_THRESHOLD">      0.00200000</i>
   <i name="RTIME">     -0.10000000</i>
   <i name="WPLASMAI">      0.00000000</i>
   <v name="DFIELD">      0.00000000      0.00000000      0.00000000</v>
   <v name="WPLASMA">      0.00000000      0.00000000      0.00000000      0.00000000      0.00000000      0.00000000      0.00000000      0.00000000      0.00000000</v>
  </separator>
  <separator name="orbital magnetization" >
   <i type="logical" name="NUCIND"> F  </i>
   <v name="MAGPOS">      0.00000000      0.00000000      0.00000000</v>
   <i type="logical" name="LNICSALL"> T  </i>
   <i type="logical" name="ORBITALMAG"> F  </i>
   <i type="logical" name="LMAGBLOCH"> F  </i>
   <i type="logical" name="LCHIMAG"> F  </i>
   <i type="logical" name="LGAUGE"> T  </i>
   <i type="int" name="MAGATOM">     0</i>
   <v name="MAGDIPOL">      0.00000000      0.00000000      0.00000000</v>
   <v name="AVECCONST">      0.00000000      0.00000000      0.00000000</v>
  </separator>
  <separator name="response functions" >
   <i type="logical" name="LADDER"> F  </i>
   <i type="logical" name="LRPAFORCE"> F  </i>
   <i type="logical" name="LFXC"> F  </i>
   <i type="logical" name="LHARTREE"> T  </i>
   <i type="int" name="IBSE">     0</i>
   <v type="int" name="KPOINT">    -1     0     0     0</v>
   <i type="logical" name="LTCTE"> F  </i>
   <i type="logical" name="LTETE"> F  </i>
   <i type="logical" name="LTRIPLET"> F  </i>
   <i type="logical" name="LFXCEPS"> F  </i>
   <i type="logical" name="LFXHEG"> F  </i>
   <i type="int" name="NATURALO">     2</i>
   <i type="logical" name="L2ORDER"> F  </i>
   <i type="logical" name="LMP2LT"> F  </i>
   <i type="logical" name="LUSEW"> F  </i>
   <i name="ENCUTGW">     -2.00000000</i>
   <i name="ENCUTGWSOFT">     -2.00000000</i>
   <i name="ENCUTLF">     -1.00000000</i>
   <i type="int" name="LMAXMP2">    -1</i>
   <i name="SCISSOR">      0.00000000</i>
   <i type="int" name="NOMEGA">     0</i>
   <i type="int" name="NOMEGAR">     0</i>
   <i type="int" name="NBANDSGW">    -1</i>
   <i type="int" name="NBANDSO">    -1</i>
   <i type="int" name="NBANDSV">    -1</i>
   <i type="int" name="NELM">     1</i>
   <i type="int" name="NELMHF">     1</i>
   <i type="int" name="DIM">     3</i>
   <i type="int" name="ANTIRES">     0</i>
   <i name="OMEGAMAX">    -30.00000000</i>
   <i name="OMEGAMIN">    -30.00000000</i>
   <i name="OMEGATL">   -200.00000000</i>
   <i type="int" name="OMEGAGRID">   140</i>
   <i name="CSHIFT">     -0.10000000</i>
   <i type="logical" name="SELFENERGY"> F  </i>
   <i type="logical" name="LSPECTRAL"> F  </i>
   <i type="logical" name="LSPECTRALGW"> F  </i>
   <i type="logical" name="LSINGLES"> F  </i>
   <i type="logical" name="LFERMIGW"> F  </i>
   <i type="logical" name="ODDONLYGW"> F  </i>
   <i type="logical" name="EVENONLYGW"> F  </i>
   <i type="int" name="NKREDLFX">     1</i>
   <i type="int" name="NKREDLFY">     1</i>
   <i type="int" name="NKREDLFZ">     1</i>
   <i type="int" name="MAXMEM">  2800</i>
   <i type="int" name="TELESCOPE">     0</i>
   <i type="int" name="TAUPAR">     1</i>
   <i type="int" name="OMEGAPAR">    -1</i>
   <i name="LAMBDA">      1.00000000</i>
  </separator>
  <separator name="External order field" >
   <i name="OFIELD_KAPPA">      0.00000000</i>
   <v name="OFIELD_K">      0.00000000      0.00000000      0.00000000</v>
   <i name="OFIELD_Q6_NEAR">      0.00000000</i>
   <i name="OFIELD_Q6_FAR">      0.00000000</i>
   <i name="OFIELD_A">      0.00000000</i>
  </separator>
 </parameters>
 <atominfo>
  <atoms>     135 </atoms>
  <types>       3 </types>
  <array name="atoms" >
   <dimension dim="1">ion</dimension>
   <field type="string">element</field>
   <field type="int">atomtype</field>
   <set>
    <rc><c>Ca</c><c>   1</c></rc>
    <rc><c>Ca</c><c>   1</c></rc>
    <rc><c>Ca</c><c>   1</c></rc>
    <rc><c>Ca</c><c>   1</c></rc>
    <rc><c>Ca</c><c>   1</c></rc>
    <rc><c>Ca</c><c>   1</c></rc>
    <rc><c>Ca</c><c>   1</c></rc>
    <rc><c>Ca</c><c>   1</c></rc>
    <rc><c>Ca</c><c>   1</c></rc>
    <rc><c>Ca</c><c>   1</c></rc>
    <rc><c>Ca</c><c>   1</c></rc>
    <rc><c>Ca</c><c>   1</c></rc>
    <rc><c>Ca</c><c>   1</c></rc>
    <rc><c>Ca</c><c>   1</c></rc>
    <rc><c>Ca</c><c>   1</c></rc>
    <rc><c>Ca</c><c>   1</c></rc>
    <rc><c>Ca</c><c>   1</c></rc>
    <rc><c>Ca</c><c>   1</c></rc>
    <rc><c>Ca</c><c>   1</c></rc>
    <rc><c>Ca</c><c>   1</c></rc>
    <rc><c>Ca</c><c>   1</c></rc>
    <rc><c>Ca</c><c>   1</c></rc>
    <rc><c>Ca</c><c>   1</c></rc>
    <rc><c>Ca</c><c>   1</c></rc>
    <rc><c>Ca</c><c>   1</c></rc>
    <rc><c>Ca</c><c>   1</c></rc>
    <rc><c>Ca</c><c>   1</c></rc>
    <rc><c>Si</c><c>   2</c></rc>
    <rc><c>Si</c><c>   2</c></rc>
    <rc><c>Si</c><c>   2</c></rc>
    <rc><c>Si</c><c>   2</c></rc>
    <rc><c>Si</c><c>   2</c></rc>
    <rc><c>Si</c><c>   2</c></rc>
    <rc><c>Si</c><c>   2</c></rc>
    <rc><c>Si</c><c>   2</c></rc>
    <rc><c>Si</c><c>   2</c></rc>
    <rc><c>Si</c><c>   2</c></rc>
    <rc><c>Si</c><c>   2</c></rc>
    <rc><c>Si</c><c>   2</c></rc>
    <rc><c>Si</c><c>   2</c></rc>
    <rc><c>Si</c><c>   2</c></rc>
    <rc><c>Si</c><c>   2</c></rc>
    <rc><c>Si</c><c>   2</c></rc>
    <rc><c>Si</c><c>   2</c></rc>
    <rc><c>Si</c><c>   2</c></rc>
    <rc><c>Si</c><c>   2</c></rc>
    <rc><c>Si</c><c>   2</c></rc>
    <rc><c>Si</c><c>   2</c></rc>
    <rc><c>Si</c><c>   2</c></rc>
    <rc><c>Si</c><c>   2</c></rc>
    <rc><c>Si</c><c>   2</c></rc>
    <rc><c>Si</c><c>   2</c></rc>
    <rc><c>Si</c><c>   2</c></rc>
    <rc><c>Si</c><c>   2</c></rc>
    <rc><c>O </c><c>   3</c></rc>
    <rc><c>O </c><c>   3</c></rc>
    <rc><c>O </c><c>   3</c></rc>
    <rc><c>O </c><c>   3</c></rc>
    <rc><c>O </c><c>   3</c></rc>
    <rc><c>O </c><c>   3</c></rc>
    <rc><c>O </c><c>   3</c></rc>
    <rc><c>O </c><c>   3</c></rc>
    <rc><c>O </c><c>   3</c></rc>
    <rc><c>O </c><c>   3</c></rc>
    <rc><c>O </c><c>   3</c></rc>
    <rc><c>O </c><c>   3</c></rc>
    <rc><c>O </c><c>   3</c></rc>
    <rc><c>O </c><c>   3</c></rc>
    <rc><c>O </c><c>   3</c></rc>
    <rc><c>O </c><c>   3</c></rc>
    <rc><c>O </c><c>   3</c></rc>
    <rc><c>O </c><c>   3</c></rc>
    <rc><c>O </c><c>   3</c></rc>
    <rc><c>O </c><c>   3</c></rc>
    <rc><c>O </c><c>   3</c></rc>
    <rc><c>O </c><c>   3</c></rc>
    <rc><c>O </c><c>   3</c></rc>
    <rc><c>O </c><c>   3</c></rc>
    <rc><c>O </c><c>   3</c></rc>
    <rc><c>O </c><c>   3</c></rc>
    <rc><c>O </c><c>   3</c></rc>
    <rc><c>O </c><c>   3</c></rc>
    <rc><c>O </c><c>   3</c></rc>
    <rc><c>O </c><c>   3</c></rc>
    <rc><c>O </c><c>   3</c></rc>
    <rc><c>O </c><c>   3</c></rc>
    <rc><c>O </c><c>   3</c></rc>
    <rc><c>O </c><c>   3</c></rc>
    <rc><c>O </c><c>   3</c></rc>
    <rc><c>O </c><c>   3</c></rc>
    <rc><c>O </c><c>   3</c></rc>
    <rc><c>O </c><c>   3</c></rc>
    <rc><c>O </c><c>   3</c></rc>
    <rc><c>O </c><c>   3</c></rc>
    <rc><c>O </c><c>   3</c></rc>
    <rc><c>O </c><c>   3</c></rc>
    <rc><c>O </c><c>   3</c></rc>
    <rc><c>O </c><c>   3</c></rc>
    <rc><c>O </c><c>   3</c></rc>
    <rc><c>O </c><c>   3</c></rc>
    <rc><c>O </c><c>   3</c></rc>
    <rc><c>O </c><c>   3</c></rc>
    <rc><c>O </c><c>   3</c></rc>
    <rc><c>O </c><c>   3</c></rc>
    <rc><c>O </c><c>   3</c></rc>
    <rc><c>O </c><c>   3</c></rc>
    <rc><c>O </c><c>   3</c></rc>
    <rc><c>O </c><c>   3</c></rc>
    <rc><c>O </c><c>   3</c></rc>
    <rc><c>O </c><c>   3</c></rc>
    <rc><c>O </c><c>   3</c></rc>
    <rc><c>O </c><c>   3</c></rc>
    <rc><c>O </c><c>   3</c></rc>
    <rc><c>O </c><c>   3</c></rc>
    <rc><c>O </c><c>   3</c></rc>
    <rc><c>O </c><c>   3</c></rc>
    <rc><c>O </c><c>   3</c></rc>
    <rc><c>O </c><c>   3</c></rc>
    <rc><c>O </c><c>   3</c></rc>
    <rc><c>O </c><c>   3</c></rc>
    <rc><c>O </c><c>   3</c></rc>
    <rc><c>O </c><c>   3</c></rc>
    <rc><c>O </c><c>   3</c></rc>
    <rc><c>O </c><c>   3</c></rc>
    <rc><c>O </c><c>   3</c></rc>
    <rc><c>O </c><c>   3</c></rc>
    <rc><c>O </c><c>   3</c></rc>
    <rc><c>O </c><c>   3</c></rc>
    <rc><c>O </c><c>   3</c></rc>
    <rc><c>O </c><c>   3</c></rc>
    <rc><c>O </c><c>   3</c></rc>
    <rc><c>O </c><c>   3</c></rc>
    <rc><c>O </c><c>   3</c></rc>
    <rc><c>O </c><c>   3</c></rc>
    <rc><c>O </c><c>   3</c></rc>
   </set>
  </array>
  <array name="atomtypes" >
   <dimension dim="1">type</dimension>
   <field type="int">atomspertype</field>
   <field type="string">element</field>
   <field>mass</field>
   <field>valence</field>
   <field type="string">pseudopotential</field>
   <set>
    <rc><c>  27</c><c>Ca</c><c>     40.07800000</c><c>     10.00000000</c><c>  PAW_PBE Ca_sv 06Sep2000               </c></rc>
    <rc><c>  27</c><c>Si</c><c>     28.08500000</c><c>      4.00000000</c><c>  PAW_PBE Si 05Jan2001                  </c></rc>
    <rc><c>  81</c><c>O </c><c>     16.00000000</c><c>      6.00000000</c><c>  PAW_PBE O 08Apr2002                   </c></rc>
   </set>
  </array>
 </atominfo>
 <structure name="initialpos" >
  <crystal>
   <varray name="basis" >
    <v>      13.31093562       0.00000000       0.00000000 </v>
    <v>       0.00000000      13.31093562       0.00000000 </v>
    <v>       0.00000000       0.00000000      13.31093562 </v>
   </varray>
   <i name="volume">   2358.44497833 </i>
   <varray name="rec_basis" >
    <v>       0.07512620       0.00000000       0.00000000 </v>
    <v>       0.00000000       0.07512620       0.00000000 </v>
    <v>       0.00000000       0.00000000       0.07512620 </v>
   </varray>
  </crystal>
  <varray name="positions" >
   <v>       0.46407922       0.58567536       0.04991953 </v>
   <v>       0.84639757       0.79764011       0.33764711 </v>
   <v>       0.93988537       0.28307508       0.77300265 </v>
   <v>       0.48274524       0.26658420       0.47118359 </v>
   <v>       0.64569390       0.08390654       0.39555238 </v>
   <v>       0.59253518       0.77125999       0.95264723 </v>
   <v>       0.19808207       0.73512075       0.00964728 </v>
   <v>       0.84103084       0.49099161       0.61878722 </v>
   <v>       0.60623616       0.18771161       0.00100241 </v>
   <v>       0.22136037       0.44959004       0.14641091 </v>
   <v>       0.44259338       0.61714615       0.68410004 </v>
   <v>       0.90464557       0.94689446       0.55119744 </v>
   <v>       0.93628735       0.16607288       0.02537988 </v>
   <v>       0.12370836       0.62714376       0.33061575 </v>
   <v>       0.26796003       0.17552786       0.28537649 </v>
   <v>       0.20220128       0.66527375       0.66801708 </v>
   <v>       0.14536474       0.09051292       0.62837031 </v>
   <v>       0.80510633       0.28781985       0.25874162 </v>
   <v>       0.77416344       0.04418016       0.94893810 </v>
   <v>       0.35852202       0.74310093       0.42484658 </v>
   <v>       0.45585625       0.52488470       0.35722883 </v>
   <v>       0.30911714       0.97678331       0.12052560 </v>
   <v>       0.71733692       0.23985554       0.69200329 </v>
   <v>       0.48592750       0.33203701       0.77846644 </v>
   <v>       0.21595285       0.20527406       0.91556789 </v>
   <v>       0.92791569       0.55524881       0.11689189 </v>
   <v>       0.31589200       0.89263633       0.85703245 </v>
   <v>       0.72756997       0.32887612       0.90756931 </v>
   <v>       0.63300495       0.72433374       0.51247210 </v>
   <v>       0.31208136       0.68442969       0.22777524 </v>
   <v>       0.34771761       0.66218920       0.88239161 </v>
   <v>       0.78582609       0.04109872       0.17901653 </v>
   <v>       0.69631052       0.49318286       0.18791678 </v>
   <v>       0.08897286       0.80998186       0.48269575 </v>
   <v>       0.08782449       0.38363430       0.31276538 </v>
   <v>       0.60245197       0.97271847       0.81919871 </v>
   <v>       0.11846768       0.33458465       0.54544002 </v>
   <v>       0.54527869       0.32682938       0.22410304 </v>
   <v>       0.94147527       0.90346758       0.15070987 </v>
   <v>       0.38862973       0.23634518       0.09404996 </v>
   <v>       0.09999262       0.95849351       0.01714758 </v>
   <v>       0.11685086       0.98210237       0.31180002 </v>
   <v>       0.61477788       0.92741989       0.57169553 </v>
   <v>       0.24055561       0.48258873       0.85846290 </v>
   <v>       0.79768557       0.22961531       0.52469242 </v>
   <v>       0.07039198       0.39842431       0.93953676 </v>
   <v>       0.73505839       0.56902293       0.96988004 </v>
   <v>       0.41079705       0.04939681       0.48684334 </v>
   <v>       0.33277424       0.23963568       0.63139241 </v>
   <v>       0.28524518       0.87688980       0.59380530 </v>
   <v>       0.67879797       0.59527221       0.37424640 </v>
   <v>       0.60239174       0.47909589       0.56170151 </v>
   <v>       0.02002423       0.03348244       0.80948839 </v>
   <v>       0.00153052       0.18163405       0.41482691 </v>
   <v>       0.68170012       0.91096008       0.89962784 </v>
   <v>       0.73045698       0.56937288       0.09414370 </v>
   <v>       0.06096681       0.48927294       0.24446786 </v>
   <v>       0.73901782       0.44258117       0.93614086 </v>
   <v>       0.05369613       0.19892457       0.53046225 </v>
   <v>       0.63851346       0.63677883       0.92834578 </v>
   <v>       0.49499995       0.48333258       0.49744000 </v>
   <v>       0.52979645       0.02675675       0.54782219 </v>
   <v>       0.75472751       0.73012425       0.52831226 </v>
   <v>       0.58937472       0.31371227       0.90934043 </v>
   <v>       0.62567633       0.53412193       0.28404054 </v>
   <v>       0.86993153       0.80792042       0.18824787 </v>
   <v>       0.87848994       0.99309966       0.10810822 </v>
   <v>       0.87043689       0.14116239       0.20151320 </v>
   <v>       0.04650305       0.85775995       0.07860354 </v>
   <v>       0.37210883       0.35292487       0.15001524 </v>
   <v>       0.96438838       0.80489712       0.47695584 </v>
   <v>       0.56738763       0.66450867       0.41574173 </v>
   <v>       0.48802329       0.92422390       0.85159090 </v>
   <v>       0.29984264       0.25407614       0.74236325 </v>
   <v>       0.42292202       0.09225468       0.37906612 </v>
   <v>       0.38978531       0.72859228       0.96994056 </v>
   <v>       0.75999865       0.00399354       0.28644734 </v>
   <v>       0.11528203       0.11594826       0.78172430 </v>
   <v>       0.25368039       0.71412548       0.82055897 </v>
   <v>       0.16285268       0.31837660       0.24781797 </v>
   <v>       0.00407109       0.98787720       0.70448132 </v>
   <v>       0.28987267       0.57759987       0.95171918 </v>
   <v>       0.10451137       0.06860999       0.05250405 </v>
   <v>       0.80406624       0.42719693       0.17537300 </v>
   <v>       0.05428563       0.96441015       0.90309035 </v>
   <v>       0.59052316       0.42982877       0.15736380 </v>
   <v>       0.78382467       0.24845443       0.97929748 </v>
   <v>       0.34950063       0.44275769       0.79397261 </v>
   <v>       0.10256610       0.40146656       0.43596953 </v>
   <v>       0.20049626       0.40414796       0.96046237 </v>
   <v>       0.79045062       0.32299160       0.80682680 </v>
   <v>       0.46903896       0.33005173       0.31681871 </v>
   <v>       0.68139382       0.20581330       0.51734836 </v>
   <v>       0.68476482       0.50452785       0.47310896 </v>
   <v>       0.28883360       0.61868559       0.34192683 </v>
   <v>       0.00022211       0.41387393       0.84114897 </v>
   <v>       0.43526199       0.65284060       0.20140321 </v>
   <v>       0.81902968       0.34944696       0.50966827 </v>
   <v>       0.55632347       0.81121957       0.53721059 </v>
   <v>       0.44497507       0.32531563       0.62124167 </v>
   <v>       0.70979828       0.96293004       0.50164290 </v>
   <v>       0.15993838       0.85847829       0.57280509 </v>
   <v>       0.06043659       0.07067283       0.37233438 </v>
   <v>       0.05302807       0.28327657       0.95918518 </v>
   <v>       0.27674159       0.96793796       0.68819873 </v>
   <v>       0.70102612       0.06718424       0.10839287 </v>
   <v>       0.35653591       0.13694434       0.56018161 </v>
   <v>       0.62554690       0.37593688       0.63699113 </v>
   <v>       0.32429107       0.15377500       0.15395781 </v>
   <v>       0.22605623       0.90630963       0.00041494 </v>
   <v>       0.60451541       0.59639606       0.62262255 </v>
   <v>       0.14520221       0.53467558       0.80743531 </v>
   <v>       0.05450228       0.48102042       0.03824362 </v>
   <v>       0.99553482       0.28889143       0.34889450 </v>
   <v>       0.35676153       0.77280710       0.58678061 </v>
   <v>       0.12881423       0.87167680       0.39273900 </v>
   <v>       0.59675629       0.09450352       0.83423299 </v>
   <v>       0.65427456       0.27548435       0.25913606 </v>
   <v>       0.46131902       0.63382395       0.83060243 </v>
   <v>       0.04841698       0.38726595       0.61780148 </v>
   <v>       0.84618826       0.63300616       0.97811536 </v>
   <v>       0.22471309       0.65224997       0.15553752 </v>
   <v>       0.01472189       0.96599009       0.22033847 </v>
   <v>       0.33771858       0.94932789       0.49730924 </v>
   <v>       0.50486704       0.23444895       0.13996452 </v>
   <v>       0.62589877       0.94571295       0.69759287 </v>
   <v>       0.91200888       0.10304449       0.85234267 </v>
   <v>       0.37769183       0.20703548       0.97455359 </v>
   <v>       0.33138117       0.80219120       0.25000036 </v>
   <v>       0.14644627       0.70060567       0.50970197 </v>
   <v>       0.79137249       0.63477087       0.35304535 </v>
   <v>       0.21721762       0.01583471       0.24592015 </v>
   <v>       0.24553390       0.32662680       0.55761692 </v>
   <v>       0.85783367       0.19403257       0.62521078 </v>
   <v>       0.87300826       0.15624445       0.43408415 </v>
  </varray>
  <varray name="velocities" >
   <v>       0.00000000       0.00000000       0.00000000 </v>
   <v>       0.00000000       0.00000000       0.00000000 </v>
   <v>       0.00000000       0.00000000       0.00000000 </v>
   <v>       0.00000000       0.00000000       0.00000000 </v>
   <v>       0.00000000       0.00000000       0.00000000 </v>
   <v>       0.00000000       0.00000000       0.00000000 </v>
   <v>       0.00000000       0.00000000       0.00000000 </v>
   <v>       0.00000000       0.00000000       0.00000000 </v>
   <v>       0.00000000       0.00000000       0.00000000 </v>
   <v>       0.00000000       0.00000000       0.00000000 </v>
   <v>       0.00000000       0.00000000       0.00000000 </v>
   <v>       0.00000000       0.00000000       0.00000000 </v>
   <v>       0.00000000       0.00000000       0.00000000 </v>
   <v>       0.00000000       0.00000000       0.00000000 </v>
   <v>       0.00000000       0.00000000       0.00000000 </v>
   <v>       0.00000000       0.00000000       0.00000000 </v>
   <v>       0.00000000       0.00000000       0.00000000 </v>
   <v>       0.00000000       0.00000000       0.00000000 </v>
   <v>       0.00000000       0.00000000       0.00000000 </v>
   <v>       0.00000000       0.00000000       0.00000000 </v>
   <v>       0.00000000       0.00000000       0.00000000 </v>
   <v>       0.00000000       0.00000000       0.00000000 </v>
   <v>       0.00000000       0.00000000       0.00000000 </v>
   <v>       0.00000000       0.00000000       0.00000000 </v>
   <v>       0.00000000       0.00000000       0.00000000 </v>
   <v>       0.00000000       0.00000000       0.00000000 </v>
   <v>       0.00000000       0.00000000       0.00000000 </v>
   <v>       0.00000000       0.00000000       0.00000000 </v>
   <v>       0.00000000       0.00000000       0.00000000 </v>
   <v>       0.00000000       0.00000000       0.00000000 </v>
   <v>       0.00000000       0.00000000       0.00000000 </v>
   <v>       0.00000000       0.00000000       0.00000000 </v>
   <v>       0.00000000       0.00000000       0.00000000 </v>
   <v>       0.00000000       0.00000000       0.00000000 </v>
   <v>       0.00000000       0.00000000       0.00000000 </v>
   <v>       0.00000000       0.00000000       0.00000000 </v>
   <v>       0.00000000       0.00000000       0.00000000 </v>
   <v>       0.00000000       0.00000000       0.00000000 </v>
   <v>       0.00000000       0.00000000       0.00000000 </v>
   <v>       0.00000000       0.00000000       0.00000000 </v>
   <v>       0.00000000       0.00000000       0.00000000 </v>
   <v>       0.00000000       0.00000000       0.00000000 </v>
   <v>       0.00000000       0.00000000       0.00000000 </v>
   <v>       0.00000000       0.00000000       0.00000000 </v>
   <v>       0.00000000       0.00000000       0.00000000 </v>
   <v>       0.00000000       0.00000000       0.00000000 </v>
   <v>       0.00000000       0.00000000       0.00000000 </v>
   <v>       0.00000000       0.00000000       0.00000000 </v>
   <v>       0.00000000       0.00000000       0.00000000 </v>
   <v>       0.00000000       0.00000000       0.00000000 </v>
   <v>       0.00000000       0.00000000       0.00000000 </v>
   <v>       0.00000000       0.00000000       0.00000000 </v>
   <v>       0.00000000       0.00000000       0.00000000 </v>
   <v>       0.00000000       0.00000000       0.00000000 </v>
   <v>       0.00000000       0.00000000       0.00000000 </v>
   <v>       0.00000000       0.00000000       0.00000000 </v>
   <v>       0.00000000       0.00000000       0.00000000 </v>
   <v>       0.00000000       0.00000000       0.00000000 </v>
   <v>       0.00000000       0.00000000       0.00000000 </v>
   <v>       0.00000000       0.00000000       0.00000000 </v>
   <v>       0.00000000       0.00000000       0.00000000 </v>
   <v>       0.00000000       0.00000000       0.00000000 </v>
   <v>       0.00000000       0.00000000       0.00000000 </v>
   <v>       0.00000000       0.00000000       0.00000000 </v>
   <v>       0.00000000       0.00000000       0.00000000 </v>
   <v>       0.00000000       0.00000000       0.00000000 </v>
   <v>       0.00000000       0.00000000       0.00000000 </v>
   <v>       0.00000000       0.00000000       0.00000000 </v>
   <v>       0.00000000       0.00000000       0.00000000 </v>
   <v>       0.00000000       0.00000000       0.00000000 </v>
   <v>       0.00000000       0.00000000       0.00000000 </v>
   <v>       0.00000000       0.00000000       0.00000000 </v>
   <v>       0.00000000       0.00000000       0.00000000 </v>
   <v>       0.00000000       0.00000000       0.00000000 </v>
   <v>       0.00000000       0.00000000       0.00000000 </v>
   <v>       0.00000000       0.00000000       0.00000000 </v>
   <v>       0.00000000       0.00000000       0.00000000 </v>
   <v>       0.00000000       0.00000000       0.00000000 </v>
   <v>       0.00000000       0.00000000       0.00000000 </v>
   <v>       0.00000000       0.00000000       0.00000000 </v>
   <v>       0.00000000       0.00000000       0.00000000 </v>
   <v>       0.00000000       0.00000000       0.00000000 </v>
   <v>       0.00000000       0.00000000       0.00000000 </v>
   <v>       0.00000000       0.00000000       0.00000000 </v>
   <v>       0.00000000       0.00000000       0.00000000 </v>
   <v>       0.00000000       0.00000000       0.00000000 </v>
   <v>       0.00000000       0.00000000       0.00000000 </v>
   <v>       0.00000000       0.00000000       0.00000000 </v>
   <v>       0.00000000       0.00000000       0.00000000 </v>
   <v>       0.00000000       0.00000000       0.00000000 </v>
   <v>       0.00000000       0.00000000       0.00000000 </v>
   <v>       0.00000000       0.00000000       0.00000000 </v>
   <v>       0.00000000       0.00000000       0.00000000 </v>
   <v>       0.00000000       0.00000000       0.00000000 </v>
   <v>       0.00000000       0.00000000       0.00000000 </v>
   <v>       0.00000000       0.00000000       0.00000000 </v>
   <v>       0.00000000       0.00000000       0.00000000 </v>
   <v>       0.00000000       0.00000000       0.00000000 </v>
   <v>       0.00000000       0.00000000       0.00000000 </v>
   <v>       0.00000000       0.00000000       0.00000000 </v>
   <v>       0.00000000       0.00000000       0.00000000 </v>
   <v>       0.00000000       0.00000000       0.00000000 </v>
   <v>       0.00000000       0.00000000       0.00000000 </v>
   <v>       0.00000000       0.00000000       0.00000000 </v>
   <v>       0.00000000       0.00000000       0.00000000 </v>
   <v>       0.00000000       0.00000000       0.00000000 </v>
   <v>       0.00000000       0.00000000       0.00000000 </v>
   <v>       0.00000000       0.00000000       0.00000000 </v>
   <v>       0.00000000       0.00000000       0.00000000 </v>
   <v>       0.00000000       0.00000000       0.00000000 </v>
   <v>       0.00000000       0.00000000       0.00000000 </v>
   <v>       0.00000000       0.00000000       0.00000000 </v>
   <v>       0.00000000       0.00000000       0.00000000 </v>
   <v>       0.00000000       0.00000000       0.00000000 </v>
   <v>       0.00000000       0.00000000       0.00000000 </v>
   <v>       0.00000000       0.00000000       0.00000000 </v>
   <v>       0.00000000       0.00000000       0.00000000 </v>
   <v>       0.00000000       0.00000000       0.00000000 </v>
   <v>       0.00000000       0.00000000       0.00000000 </v>
   <v>       0.00000000       0.00000000       0.00000000 </v>
   <v>       0.00000000       0.00000000       0.00000000 </v>
   <v>       0.00000000       0.00000000       0.00000000 </v>
   <v>       0.00000000       0.00000000       0.00000000 </v>
   <v>       0.00000000       0.00000000       0.00000000 </v>
   <v>       0.00000000       0.00000000       0.00000000 </v>
   <v>       0.00000000       0.00000000       0.00000000 </v>
   <v>       0.00000000       0.00000000       0.00000000 </v>
   <v>       0.00000000       0.00000000       0.00000000 </v>
   <v>       0.00000000       0.00000000       0.00000000 </v>
   <v>       0.00000000       0.00000000       0.00000000 </v>
   <v>       0.00000000       0.00000000       0.00000000 </v>
   <v>       0.00000000       0.00000000       0.00000000 </v>
   <v>       0.00000000       0.00000000       0.00000000 </v>
   <v>       0.00000000       0.00000000       0.00000000 </v>
   <v>       0.00000000       0.00000000       0.00000000 </v>
  </varray>
 </structure>
 <calculation>
  <scstep>
   <time name="dav">   53.61   54.43</time>
   <time name="total">   54.11   54.95</time>
   <energy>
    <i name="alphaZ">   2026.14881195 </i>
    <i name="ewald"> -34281.79647068 </i>
    <i name="hartreedc"> -26359.97448314 </i>
    <i name="XCdc">   3133.92794809 </i>
    <i name="pawpsdc">  50594.51003143 </i>
    <i name="pawaedc"> -49994.65612350 </i>
    <i name="eentropy">     -0.04159177 </i>
    <i name="bandstr">   -776.29423005 </i>
    <i name="atom">  64968.54023382 </i>
    <i name="e_fr_energy">   9310.36412616 </i>
    <i name="e_wo_entrp">   9310.40571793 </i>
    <i name="e_0_energy">   9310.38492204 </i>
   </energy>
  </scstep>
  <scstep>
   <time name="dav">   63.73   64.12</time>
   <time name="total">   63.73   64.12</time>
   <energy>
    <i name="e_fr_energy">    -17.21078889 </i>
    <i name="e_wo_entrp">    -17.21078889 </i>
    <i name="e_0_energy">    -17.21078889 </i>
   </energy>
  </scstep>
  <scstep>
   <time name="dav">   63.57   64.29</time>
   <time name="total">   63.58   64.30</time>
   <energy>
    <i name="e_fr_energy">  -1044.97085331 </i>
    <i name="e_wo_entrp">  -1044.97085331 </i>
    <i name="e_0_energy">  -1044.97085331 </i>
   </energy>
  </scstep>
  <scstep>
   <time name="dav">   67.86   68.19</time>
   <time name="total">   67.86   68.19</time>
   <energy>
    <i name="e_fr_energy">  -1092.44668415 </i>
    <i name="e_wo_entrp">  -1092.44668415 </i>
    <i name="e_0_energy">  -1092.44668415 </i>
   </energy>
  </scstep>
  <scstep>
   <time name="dav">   89.00   89.61</time>
   <time name="total">   91.55   92.18</time>
   <energy>
    <i name="e_fr_energy">  -1099.28116574 </i>
    <i name="e_wo_entrp">  -1099.28116574 </i>
    <i name="e_0_energy">  -1099.28116574 </i>
   </energy>
  </scstep>
  <scstep>
   <time name="dav">   65.09   65.39</time>
   <time name="total">   68.12   68.43</time>
   <energy>
    <i name="e_fr_energy">   -940.77860731 </i>
    <i name="e_wo_entrp">   -940.77860731 </i>
    <i name="e_0_energy">   -940.77860731 </i>
   </energy>
  </scstep>
  <scstep>
   <time name="dav">   69.24   69.39</time>
   <time name="total">   72.35   72.51</time>
   <energy>
    <i name="e_fr_energy">   -942.23734230 </i>
    <i name="e_wo_entrp">   -942.23734230 </i>
    <i name="e_0_energy">   -942.23734230 </i>
   </energy>
  </scstep>
  <scstep>
   <time name="dav">   63.31   63.47</time>
   <time name="total">   66.38   66.57</time>
   <energy>
    <i name="e_fr_energy">   -940.13331050 </i>
    <i name="e_wo_entrp">   -940.13331050 </i>
    <i name="e_0_energy">   -940.13331050 </i>
   </energy>
  </scstep>
  <scstep>
   <time name="dav">   66.39   66.46</time>
   <time name="total">   69.35   69.44</time>
   <energy>
    <i name="e_fr_energy">   -939.37876429 </i>
    <i name="e_wo_entrp">   -939.37876429 </i>
    <i name="e_0_energy">   -939.37876429 </i>
   </energy>
  </scstep>
  <scstep>
   <time name="dav">   71.68   71.80</time>
   <time name="total">   74.74   74.87</time>
   <energy>
    <i name="e_fr_energy">   -939.47038161 </i>
    <i name="e_wo_entrp">   -939.47038161 </i>
    <i name="e_0_energy">   -939.47038161 </i>
   </energy>
  </scstep>
  <scstep>
   <time name="dav">   70.57   70.65</time>
   <time name="total">   73.58   73.67</time>
   <energy>
    <i name="e_fr_energy">   -939.47675325 </i>
    <i name="e_wo_entrp">   -939.47675325 </i>
    <i name="e_0_energy">   -939.47675325 </i>
   </energy>
  </scstep>
  <scstep>
   <time name="dav">   61.97   62.23</time>
   <time name="total">   65.07   65.34</time>
   <energy>
    <i name="e_fr_energy">   -939.49916589 </i>
    <i name="e_wo_entrp">   -939.49916589 </i>
    <i name="e_0_energy">   -939.49916589 </i>
   </energy>
  </scstep>
  <scstep>
   <time name="dav">   70.08   70.24</time>
   <time name="total">   73.14   73.32</time>
   <energy>
    <i name="e_fr_energy">   -939.50724109 </i>
    <i name="e_wo_entrp">   -939.50724109 </i>
    <i name="e_0_energy">   -939.50724109 </i>
   </energy>
  </scstep>
  <scstep>
   <time name="dav">   65.58   65.82</time>
   <time name="total">   68.60   68.90</time>
   <energy>
    <i name="e_fr_energy">   -939.51048380 </i>
    <i name="e_wo_entrp">   -939.51048380 </i>
    <i name="e_0_energy">   -939.51048380 </i>
   </energy>
  </scstep>
  <scstep>
   <time name="dav">   69.70   69.82</time>
   <time name="total">   72.83   72.95</time>
   <energy>
    <i name="e_fr_energy">   -939.51169776 </i>
    <i name="e_wo_entrp">   -939.51169776 </i>
    <i name="e_0_energy">   -939.51169776 </i>
   </energy>
  </scstep>
  <scstep>
   <time name="dav">   59.00   60.61</time>
   <time name="total">   61.98   63.68</time>
   <energy>
    <i name="e_fr_energy">   -939.51235601 </i>
    <i name="e_wo_entrp">   -939.51235601 </i>
    <i name="e_0_energy">   -939.51235601 </i>
   </energy>
  </scstep>
  <scstep>
   <time name="dav">   69.58   69.77</time>
   <time name="total">   72.55   72.75</time>
   <energy>
    <i name="e_fr_energy">   -939.51249695 </i>
    <i name="e_wo_entrp">   -939.51249695 </i>
    <i name="e_0_energy">   -939.51249695 </i>
   </energy>
  </scstep>
  <scstep>
   <time name="dav">   67.21   67.50</time>
   <time name="total">   70.20   70.50</time>
   <energy>
    <i name="e_fr_energy">   -939.51251852 </i>
    <i name="e_wo_entrp">   -939.51251852 </i>
    <i name="e_0_energy">   -939.51251852 </i>
   </energy>
  </scstep>
  <scstep>
   <time name="dav">   57.88   58.11</time>
   <time name="total">   60.91   61.15</time>
   <energy>
    <i name="e_fr_energy">   -939.51254301 </i>
    <i name="e_wo_entrp">   -939.51254301 </i>
    <i name="e_0_energy">   -939.51254301 </i>
   </energy>
  </scstep>
  <scstep>
   <time name="dav">   67.78   67.97</time>
   <time name="total">   70.84   71.04</time>
   <energy>
    <i name="e_fr_energy">   -939.51255047 </i>
    <i name="e_wo_entrp">   -939.51255047 </i>
    <i name="e_0_energy">   -939.51255047 </i>
   </energy>
  </scstep>
  <scstep>
   <time name="dav">   64.54   65.33</time>
   <time name="total">   67.55   68.36</time>
   <energy>
    <i name="e_fr_energy">   -939.51255218 </i>
    <i name="e_wo_entrp">   -939.51255218 </i>
    <i name="e_0_energy">   -939.51255218 </i>
   </energy>
  </scstep>
  <scstep>
   <time name="dav">   42.24   43.24</time>
   <time name="total">   42.72   43.74</time>
   <energy>
    <i name="alphaZ">   2026.14881195 </i>
    <i name="ewald"> -34281.79647068 </i>
    <i name="hartreedc"> -28300.92857904 </i>
    <i name="XCdc">   3244.16982224 </i>
    <i name="pawpsdc">  89688.14788590 </i>
    <i name="pawaedc"> -89356.93995839 </i>
    <i name="eentropy">     -0.00000000 </i>
    <i name="bandstr">  -8926.85429850 </i>
    <i name="atom">  64968.54023382 </i>
    <i name="e_fr_energy">   -939.51255269 </i>
    <i name="e_wo_entrp">   -939.51255269 </i>
    <i name="e_0_energy">   -939.51255269 </i>
   </energy>
  </scstep>
  <structure>
   <crystal>
    <varray name="basis" >
     <v>      13.31093562       0.00000000       0.00000000 </v>
     <v>       0.00000000      13.31093562       0.00000000 </v>
     <v>       0.00000000       0.00000000      13.31093562 </v>
    </varray>
    <i name="volume">   2358.44497833 </i>
    <varray name="rec_basis" >
     <v>       0.07512620       0.00000000       0.00000000 </v>
     <v>       0.00000000       0.07512620       0.00000000 </v>
     <v>       0.00000000       0.00000000       0.07512620 </v>
    </varray>
   </crystal>
   <varray name="positions" >
    <v>       0.46407922       0.58567536       0.04991953 </v>
    <v>       0.84639757       0.79764011       0.33764711 </v>
    <v>       0.93988537       0.28307508       0.77300265 </v>
    <v>       0.48274524       0.26658420       0.47118359 </v>
    <v>       0.64569390       0.08390654       0.39555238 </v>
    <v>       0.59253518       0.77125999       0.95264723 </v>
    <v>       0.19808207       0.73512075       0.00964728 </v>
    <v>       0.84103084       0.49099161       0.61878722 </v>
    <v>       0.60623616       0.18771161       0.00100241 </v>
    <v>       0.22136037       0.44959004       0.14641091 </v>
    <v>       0.44259338       0.61714615       0.68410004 </v>
    <v>       0.90464557       0.94689446       0.55119744 </v>
    <v>       0.93628735       0.16607288       0.02537988 </v>
    <v>       0.12370836       0.62714376       0.33061575 </v>
    <v>       0.26796003       0.17552786       0.28537649 </v>
    <v>       0.20220128       0.66527375       0.66801708 </v>
    <v>       0.14536474       0.09051292       0.62837031 </v>
    <v>       0.80510633       0.28781985       0.25874162 </v>
    <v>       0.77416344       0.04418016       0.94893810 </v>
    <v>       0.35852202       0.74310093       0.42484658 </v>
    <v>       0.45585625       0.52488470       0.35722883 </v>
    <v>       0.30911714       0.97678331       0.12052560 </v>
    <v>       0.71733692       0.23985554       0.69200329 </v>
    <v>       0.48592750       0.33203701       0.77846644 </v>
    <v>       0.21595285       0.20527406       0.91556789 </v>
    <v>       0.92791569       0.55524881       0.11689189 </v>
    <v>       0.31589200       0.89263633       0.85703245 </v>
    <v>       0.72756997       0.32887612       0.90756931 </v>
    <v>       0.63300495       0.72433374       0.51247210 </v>
    <v>       0.31208136       0.68442969       0.22777524 </v>
    <v>       0.34771761       0.66218920       0.88239161 </v>
    <v>       0.78582609       0.04109872       0.17901653 </v>
    <v>       0.69631052       0.49318286       0.18791678 </v>
    <v>       0.08897286       0.80998186       0.48269575 </v>
    <v>       0.08782449       0.38363430       0.31276538 </v>
    <v>       0.60245197       0.97271847       0.81919871 </v>
    <v>       0.11846768       0.33458465       0.54544002 </v>
    <v>       0.54527869       0.32682938       0.22410304 </v>
    <v>       0.94147527       0.90346758       0.15070987 </v>
    <v>       0.38862973       0.23634518       0.09404996 </v>
    <v>       0.09999262       0.95849351       0.01714758 </v>
    <v>       0.11685086       0.98210237       0.31180002 </v>
    <v>       0.61477788       0.92741989       0.57169553 </v>
    <v>       0.24055561       0.48258873       0.85846290 </v>
    <v>       0.79768557       0.22961531       0.52469242 </v>
    <v>       0.07039198       0.39842431       0.93953676 </v>
    <v>       0.73505839       0.56902293       0.96988004 </v>
    <v>       0.41079705       0.04939681       0.48684334 </v>
    <v>       0.33277424       0.23963568       0.63139241 </v>
    <v>       0.28524518       0.87688980       0.59380530 </v>
    <v>       0.67879797       0.59527221       0.37424640 </v>
    <v>       0.60239174       0.47909589       0.56170151 </v>
    <v>       0.02002423       0.03348244       0.80948839 </v>
    <v>       0.00153052       0.18163405       0.41482691 </v>
    <v>       0.68170012       0.91096008       0.89962784 </v>
    <v>       0.73045698       0.56937288       0.09414370 </v>
    <v>       0.06096681       0.48927294       0.24446786 </v>
    <v>       0.73901782       0.44258117       0.93614086 </v>
    <v>       0.05369613       0.19892457       0.53046225 </v>
    <v>       0.63851346       0.63677883       0.92834578 </v>
    <v>       0.49499995       0.48333258       0.49744000 </v>
    <v>       0.52979645       0.02675675       0.54782219 </v>
    <v>       0.75472751       0.73012425       0.52831226 </v>
    <v>       0.58937472       0.31371227       0.90934043 </v>
    <v>       0.62567633       0.53412193       0.28404054 </v>
    <v>       0.86993153       0.80792042       0.18824787 </v>
    <v>       0.87848994       0.99309966       0.10810822 </v>
    <v>       0.87043689       0.14116239       0.20151320 </v>
    <v>       0.04650305       0.85775995       0.07860354 </v>
    <v>       0.37210883       0.35292487       0.15001524 </v>
    <v>       0.96438838       0.80489712       0.47695584 </v>
    <v>       0.56738763       0.66450867       0.41574173 </v>
    <v>       0.48802329       0.92422390       0.85159090 </v>
    <v>       0.29984264       0.25407614       0.74236325 </v>
    <v>       0.42292202       0.09225468       0.37906612 </v>
    <v>       0.38978531       0.72859228       0.96994056 </v>
    <v>       0.75999865       0.00399354       0.28644734 </v>
    <v>       0.11528203       0.11594826       0.78172430 </v>
    <v>       0.25368039       0.71412548       0.82055897 </v>
    <v>       0.16285268       0.31837660       0.24781797 </v>
    <v>       0.00407109       0.98787720       0.70448132 </v>
    <v>       0.28987267       0.57759987       0.95171918 </v>
    <v>       0.10451137       0.06860999       0.05250405 </v>
    <v>       0.80406624       0.42719693       0.17537300 </v>
    <v>       0.05428563       0.96441015       0.90309035 </v>
    <v>       0.59052316       0.42982877       0.15736380 </v>
    <v>       0.78382467       0.24845443       0.97929748 </v>
    <v>       0.34950063       0.44275769       0.79397261 </v>
    <v>       0.10256610       0.40146656       0.43596953 </v>
    <v>       0.20049626       0.40414796       0.96046237 </v>
    <v>       0.79045062       0.32299160       0.80682680 </v>
    <v>       0.46903896       0.33005173       0.31681871 </v>
    <v>       0.68139382       0.20581330       0.51734836 </v>
    <v>       0.68476482       0.50452785       0.47310896 </v>
    <v>       0.28883360       0.61868559       0.34192683 </v>
    <v>       0.00022211       0.41387393       0.84114897 </v>
    <v>       0.43526199       0.65284060       0.20140321 </v>
    <v>       0.81902968       0.34944696       0.50966827 </v>
    <v>       0.55632347       0.81121957       0.53721059 </v>
    <v>       0.44497507       0.32531563       0.62124167 </v>
    <v>       0.70979828       0.96293004       0.50164290 </v>
    <v>       0.15993838       0.85847829       0.57280509 </v>
    <v>       0.06043659       0.07067283       0.37233438 </v>
    <v>       0.05302807       0.28327657       0.95918518 </v>
    <v>       0.27674159       0.96793796       0.68819873 </v>
    <v>       0.70102612       0.06718424       0.10839287 </v>
    <v>       0.35653591       0.13694434       0.56018161 </v>
    <v>       0.62554690       0.37593688       0.63699113 </v>
    <v>       0.32429107       0.15377500       0.15395781 </v>
    <v>       0.22605623       0.90630963       0.00041494 </v>
    <v>       0.60451541       0.59639606       0.62262255 </v>
    <v>       0.14520221       0.53467558       0.80743531 </v>
    <v>       0.05450228       0.48102042       0.03824362 </v>
    <v>       0.99553482       0.28889143       0.34889450 </v>
    <v>       0.35676153       0.77280710       0.58678061 </v>
    <v>       0.12881423       0.87167680       0.39273900 </v>
    <v>       0.59675629       0.09450352       0.83423299 </v>
    <v>       0.65427456       0.27548435       0.25913606 </v>
    <v>       0.46131902       0.63382395       0.83060243 </v>
    <v>       0.04841698       0.38726595       0.61780148 </v>
    <v>       0.84618826       0.63300616       0.97811536 </v>
    <v>       0.22471309       0.65224997       0.15553752 </v>
    <v>       0.01472189       0.96599009       0.22033847 </v>
    <v>       0.33771858       0.94932789       0.49730924 </v>
    <v>       0.50486704       0.23444895       0.13996452 </v>
    <v>       0.62589877       0.94571295       0.69759287 </v>
    <v>       0.91200888       0.10304449       0.85234267 </v>
    <v>       0.37769183       0.20703548       0.97455359 </v>
    <v>       0.33138117       0.80219120       0.25000036 </v>
    <v>       0.14644627       0.70060567       0.50970197 </v>
    <v>       0.79137249       0.63477087       0.35304535 </v>
    <v>       0.21721762       0.01583471       0.24592015 </v>
    <v>       0.24553390       0.32662680       0.55761692 </v>
    <v>       0.85783367       0.19403257       0.62521078 </v>
    <v>       0.87300826       0.15624445       0.43408415 </v>
   </varray>
  </structure>
  <varray name="forces" >
   <v>       0.20043751      -0.77737566       0.16973570 </v>
   <v>      -1.33807249      -0.22952508       1.92712326 </v>
   <v>       2.10195526      -1.01880540      -0.08557219 </v>
   <v>       1.13054855       1.17645567       0.02899116 </v>
   <v>       1.03355591      -0.21602456      -0.58527567 </v>
   <v>      -1.13868889       3.87468930      -0.81011788 </v>
   <v>      -0.71747522      -0.73539549       0.32492145 </v>
   <v>      -0.29529112      -1.89037854      -1.34755025 </v>
   <v>      -1.03218920      -1.16231939       1.24572389 </v>
   <v>      -0.54530549      -0.71062536      -1.67366004 </v>
   <v>       1.21740158      -0.83780652      -1.68669877 </v>
   <v>      -1.08614280       0.97917256       1.32775437 </v>
   <v>       1.55020456       1.32006151       0.84157520 </v>
   <v>      -0.03168474      -0.63409801       0.46809052 </v>
   <v>      -0.70134305       1.10669390       2.01102059 </v>
   <v>      -1.56302156      -0.73243445       0.69305656 </v>
   <v>       0.32874508      -1.20366892       1.18425669 </v>
   <v>       2.36685242      -1.08885227       0.59549318 </v>
   <v>      -0.23003283      -0.91156010      -0.87176150 </v>
   <v>       0.46314293       1.59280118      -0.91392310 </v>
   <v>      -0.44147554      -0.77848616      -2.28114999 </v>
   <v>       0.66553811       0.71057125       1.20257352 </v>
   <v>      -2.62767847      -0.75791659       1.32783583 </v>
   <v>      -1.14241726       0.48947467       0.72115589 </v>
   <v>      -0.67947969       0.53368832      -0.68809962 </v>
   <v>      -0.63576146      -0.66706856      -1.46274457 </v>
   <v>       1.52834402       0.70380103      -1.61292532 </v>
   <v>      -2.00636886       0.37434072       0.85729908 </v>
   <v>       2.15088421      -3.82352670       1.63949988 </v>
   <v>       5.05702239       0.56211463       0.81688354 </v>
   <v>       2.11819999      -1.38640610      -1.90000989 </v>
   <v>       4.69472387       4.69089309       2.87824564 </v>
   <v>       0.99746327      -2.54776820      -3.46622959 </v>
   <v>      -0.16984589      -3.23416744       3.27777747 </v>
   <v>      -2.48551684      -1.38593301       1.22198771 </v>
   <v>      -2.68932981      -1.14846579       1.27829233 </v>
   <v>       1.15594054      -0.29103778      -2.33064998 </v>
   <v>       1.59786983      -2.07244948      -2.02650831 </v>
   <v>       1.79910752      -4.61322606      -0.05245080 </v>
   <v>       0.24004298       3.15213064       0.13936698 </v>
   <v>       1.27391012      -2.36405634      -1.42948764 </v>
   <v>      -1.56928781      -1.71357124      -3.46793812 </v>
   <v>      -0.94064541       2.62364724       1.84164141 </v>
   <v>       2.44145064      -1.01303778       0.80633413 </v>
   <v>       5.19374885       1.05576374      -2.80028674 </v>
   <v>      -1.80585159       3.42580178       1.57446548 </v>
   <v>       3.25290765       0.69735061      -0.32641267 </v>
   <v>       0.89328030      -2.09314148       3.41782849 </v>
   <v>       1.95631878       5.44203828      -1.22842437 </v>
   <v>       0.13809311       4.29429527       1.69496568 </v>
   <v>       1.39407706      -1.54126491       3.04751404 </v>
   <v>      -1.05038641      -0.11267222       1.25607453 </v>
   <v>      -0.87324088       4.93750268       1.85129644 </v>
   <v>      -2.98887098       0.51329443       0.14257895 </v>
   <v>      -0.31821778       1.08124074      -1.17990134 </v>
   <v>      -2.91916254       0.19558644       2.98960084 </v>
   <v>       0.61558191      -0.70615335       2.66075579 </v>
   <v>      -0.23231044       5.20185247       1.54224211 </v>
   <v>       1.60020860       1.43534944      -1.89252905 </v>
   <v>       1.35325378      -3.86881753       0.55801588 </v>
   <v>       0.24821034      -0.76370982       1.87801687 </v>
   <v>      -1.66440968      -0.96462973      -1.96260037 </v>
   <v>      -2.80798559       0.41979943      -0.65857091 </v>
   <v>       3.61342395       0.50193979      -1.11750807 </v>
   <v>       1.13329515       1.21965432       0.43990425 </v>
   <v>       2.16490576       1.32103761      -1.42926791 </v>
   <v>      -1.41529961      -0.72385710      -3.74411252 </v>
   <v>      -1.62798014       0.42524379      -1.06331293 </v>
   <v>      -0.79250753       1.13415997      -1.14296935 </v>
   <v>      -1.72693582      -0.03300003      -1.94248677 </v>
   <v>       1.36414407       0.96396835       0.31332116 </v>
   <v>       3.02069758       0.66947744       0.21707599 </v>
   <v>       0.41666619      -0.43361287      -0.11831355 </v>
   <v>      -0.66080462      -2.09803983       1.13153743 </v>
   <v>       0.70042614       1.20520297      -1.06391963 </v>
   <v>       0.41249387       3.08310200       2.85678201 </v>
   <v>      -1.14781358      -2.31506396       2.47583089 </v>
   <v>      -0.72169166       0.00149699       1.64159484 </v>
   <v>       1.09189974       1.55212682      -0.36210146 </v>
   <v>       1.39505078      -0.00303824      -0.01566913 </v>
   <v>      -1.29870272      -2.30647838      -4.40873975 </v>
   <v>      -0.04245979      -1.74089998      -0.68306055 </v>
   <v>       0.37645586       1.74582335       0.87774293 </v>
   <v>      -1.27218138       1.52372426       1.85283264 </v>
   <v>      -0.04323707      -1.89650664      -0.03287510 </v>
   <v>      -1.11633352      -1.20746984      -0.76964821 </v>
   <v>      -1.14031520      -1.52095787       0.75442528 </v>
   <v>      -2.57113958       2.07415355       1.60423708 </v>
   <v>       1.61249243       0.72376809      -0.43120936 </v>
   <v>       1.24974723       0.12793808      -3.33807428 </v>
   <v>      -0.46738372       0.01861878      -2.44501907 </v>
   <v>      -0.31047728       1.38581058       1.51349660 </v>
   <v>      -1.54763938      -1.36801848      -0.78084231 </v>
   <v>       1.36155613       1.37396312      -1.57620639 </v>
   <v>       0.41124454       0.22779985      -0.92966928 </v>
   <v>       0.20156825       0.61335057       0.12849701 </v>
   <v>      -1.75678581      -1.68821948      -0.23797066 </v>
   <v>       0.21503172       0.55431782       0.72441963 </v>
   <v>       0.15131283       3.41673193       1.17285254 </v>
   <v>      -3.30345628      -3.98482418      -1.09456387 </v>
   <v>      -0.15964716      -1.33924723       1.02794263 </v>
   <v>       0.89878730       1.95832605       1.57663736 </v>
   <v>      -0.23096746       2.08135024       1.89768140 </v>
   <v>      -0.05228746      -3.83591013       1.20602862 </v>
   <v>       0.42044670      -3.35438976      -1.32551421 </v>
   <v>      -3.59557991       0.65262205      -4.15053362 </v>
   <v>      -0.53667789       1.10270684       0.29960256 </v>
   <v>       0.14373073       3.51933182      -1.23606684 </v>
   <v>       0.49775479      -1.93439951      -1.92721914 </v>
   <v>      -1.84813652       0.18661359      -0.07340866 </v>
   <v>      -0.33514225       0.24799848      -0.84389588 </v>
   <v>       1.77110816       0.58204615      -1.05816183 </v>
   <v>      -0.38030973      -0.66782510      -0.65788172 </v>
   <v>       0.41275070      -1.06421083      -0.85951497 </v>
   <v>      -2.09480795      -0.00783486       1.40702156 </v>
   <v>       0.90215935       3.79826166      -5.46000243 </v>
   <v>       1.87193081       0.07434952       0.51589955 </v>
   <v>      -2.55953093      -0.02131190       0.62971946 </v>
   <v>      -2.28175902       0.42179016       1.13020661 </v>
   <v>      -1.98617785       0.91355430       2.49860944 </v>
   <v>      -1.51316321      -1.70597486      -1.25431712 </v>
   <v>      -1.95778436      -0.89989719      -0.64935206 </v>
   <v>       3.34594655       0.14515457       5.10249338 </v>
   <v>      -0.45055442      -1.17705150       0.10882237 </v>
   <v>       1.75617861      -0.32469216      -0.36592901 </v>
   <v>       0.47130860      -1.13171973      -2.11002860 </v>
   <v>       1.79627686      -1.46802867       0.28164780 </v>
   <v>       0.17266052       0.37516024       0.80414375 </v>
   <v>      -1.18246119       0.50748345       0.94787200 </v>
   <v>      -1.32123169      -1.25910079      -2.58374567 </v>
   <v>      -1.38377340       0.23001841      -0.81189850 </v>
   <v>      -2.35051408      -1.02812373       2.89196666 </v>
   <v>      -0.63891298      -2.70304935       0.23862926 </v>
   <v>      -0.85884783      -0.41184104       0.82496511 </v>
   <v>       1.29642872       0.40038262       0.30205822 </v>
  </varray>
  <varray name="stress" >
   <v>     -57.42684571       8.01605986      -9.99229651 </v>
   <v>       8.01605985     -37.65678346      25.81931207 </v>
   <v>      -9.99229646      25.81931212      -2.39881148 </v>
  </varray>
  <energy>
   <i name="e_fr_energy">   -939.51255269 </i>
   <i name="e_wo_entrp">   -939.51255269 </i>
   <i name="e_0_energy">     -0.00000000 </i>
  </energy>
  <time name="totalsc"> 1553.95 1563.35</time>
  <eigenvalues>
   <array>
    <dimension dim="1">band</dimension>
    <dimension dim="2">kpoint</dimension>
    <dimension dim="3">spin</dimension>
    <field>eigene</field>
    <field>occ</field>
    <set>
     <set comment="spin 1">
      <set comment="kpoint 1">
       <r>  -40.6409    1.0000 </r>
       <r>  -40.2664    1.0000 </r>
       <r>  -39.9471    1.0000 </r>
       <r>  -39.8399    1.0000 </r>
       <r>  -39.5457    1.0000 </r>
       <r>  -39.2537    1.0000 </r>
       <r>  -39.2009    1.0000 </r>
       <r>  -38.8444    1.0000 </r>
       <r>  -38.6796    1.0000 </r>
       <r>  -38.5983    1.0000 </r>
       <r>  -38.5640    1.0000 </r>
[...]
       <r>     1.6680     1.9290   852.3366 </r>
       <r>     1.8426    33.8685   858.2490 </r>
       <r>     2.0172    10.0313   860.0001 </r>
       <r>     2.1917    10.1719   861.7758 </r>
       <r>     2.3663    10.0271   863.5262 </r>
       <r>     2.5409     2.7140   864.0000 </r>
       <r>     2.7155     0.0000   864.0000 </r>
       <r>     2.8900     1.0705   864.1869 </r>
       <r>     3.0646     5.2799   865.1086 </r>
       <r>     3.2392     5.6760   866.0994 </r>
       <r>     3.4137     8.6411   867.6079 </r>
       <r>     3.5883     2.3965   868.0263 </r>
       <r>     3.7629    10.1920   869.8054 </r>
       <r>     3.9374    12.3818   871.9669 </r>
       <r>     4.1120     3.0691   872.5027 </r>
       <r>     4.2866    19.6034   875.9248 </r>
       <r>     4.4611    29.9185   881.1476 </r>
       <r>     4.6357    28.8931   886.1914 </r>
       <r>     4.8103    44.5824   893.9741 </r>
       <r>     4.9848    42.5860   901.4083 </r>
       <r>     5.1594    62.3053   912.2848 </r>
       <r>     5.3340    66.5448   923.9014 </r>
       <r>     5.5085    59.7360   934.3294 </r>
       <r>     5.6831    50.7686   943.1920 </r>
       <r>     5.8577    61.8961   953.9970 </r>
       <r>     6.0322    73.8381   966.8868 </r>
       <r>     6.2068    72.8332   979.6012 </r>
       <r>     6.3814    87.2800   994.8375 </r>
       <r>     6.5559    76.0563  1008.1145 </r>
       <r>     6.7305    87.5640  1023.4003 </r>
       <r>     6.9051    77.7711  1036.9767 </r>
       <r>     7.0797    17.3172  1039.9997 </r>
       <r>     7.2542     0.0015  1040.0000 </r>
       <r>     7.4288     0.0000  1040.0000 </r>
       <r>     7.6034     0.0000  1040.0000 </r>
       <r>     7.7779     0.0000  1040.0000 </r>
       <r>     7.9525     0.0000  1040.0000 </r>
       <r>     8.1271     0.0000  1040.0000 </r>
       <r>     8.3016     0.0000  1040.0000 </r>
       <r>     8.4762     0.0000  1040.0000 </r>
       <r>     8.6508     0.0000  1040.0000 </r>
       <r>     8.8253     0.0000  1040.0000 </r>
       <r>     8.9999     0.0000  1040.0000 </r>
       <r>     9.1745     0.0000  1040.0000 </r>
       <r>     9.3490     0.0000  1040.0000 </r>
      </set>
     </set>
    </array>
   </total>
  </dos>
 </calculation>
 <structure name="finalpos" >
  <crystal>
   <varray name="basis" >
    <v>      13.31093562       0.00000000       0.00000000 </v>
    <v>       0.00000000      13.31093562       0.00000000 </v>
    <v>       0.00000000       0.00000000      13.31093562 </v>
   </varray>
   <i name="volume">   2358.44497833 </i>
   <varray name="rec_basis" >
    <v>       0.07512620       0.00000000       0.00000000 </v>
    <v>       0.00000000       0.07512620       0.00000000 </v>
    <v>       0.00000000       0.00000000       0.07512620 </v>
   </varray>
  </crystal>
  <varray name="positions" >
   <v>       0.46407922       0.58567536       0.04991953 </v>
   <v>       0.84639757       0.79764011       0.33764711 </v>
   <v>       0.93988537       0.28307508       0.77300265 </v>
   <v>       0.48274524       0.26658420       0.47118359 </v>
   <v>       0.64569390       0.08390654       0.39555238 </v>
   <v>       0.59253518       0.77125999       0.95264723 </v>
   <v>       0.19808207       0.73512075       0.00964728 </v>
   <v>       0.84103084       0.49099161       0.61878722 </v>
   <v>       0.60623616       0.18771161       0.00100241 </v>
   <v>       0.22136037       0.44959004       0.14641091 </v>
   <v>       0.44259338       0.61714615       0.68410004 </v>
   <v>       0.90464557       0.94689446       0.55119744 </v>
   <v>       0.93628735       0.16607288       0.02537988 </v>
   <v>       0.12370836       0.62714376       0.33061575 </v>
   <v>       0.26796003       0.17552786       0.28537649 </v>
   <v>       0.20220128       0.66527375       0.66801708 </v>
   <v>       0.14536474       0.09051292       0.62837031 </v>
   <v>       0.80510633       0.28781985       0.25874162 </v>
   <v>       0.77416344       0.04418016       0.94893810 </v>
   <v>       0.35852202       0.74310093       0.42484658 </v>
   <v>       0.45585625       0.52488470       0.35722883 </v>
   <v>       0.30911714       0.97678331       0.12052560 </v>
   <v>       0.71733692       0.23985554       0.69200329 </v>
   <v>       0.48592750       0.33203701       0.77846644 </v>
   <v>       0.21595285       0.20527406       0.91556789 </v>
   <v>       0.92791569       0.55524881       0.11689189 </v>
   <v>       0.31589200       0.89263633       0.85703245 </v>
   <v>       0.72756997       0.32887612       0.90756931 </v>
   <v>       0.63300495       0.72433374       0.51247210 </v>
   <v>       0.31208136       0.68442969       0.22777524 </v>
   <v>       0.34771761       0.66218920       0.88239161 </v>
   <v>       0.78582609       0.04109872       0.17901653 </v>
   <v>       0.69631052       0.49318286       0.18791678 </v>
   <v>       0.08897286       0.80998186       0.48269575 </v>
   <v>       0.08782449       0.38363430       0.31276538 </v>
   <v>       0.60245197       0.97271847       0.81919871 </v>
   <v>       0.11846768       0.33458465       0.54544002 </v>
   <v>       0.54527869       0.32682938       0.22410304 </v>
   <v>       0.94147527       0.90346758       0.15070987 </v>
   <v>       0.38862973       0.23634518       0.09404996 </v>
   <v>       0.09999262       0.95849351       0.01714758 </v>
   <v>       0.11685086       0.98210237       0.31180002 </v>
   <v>       0.61477788       0.92741989       0.57169553 </v>
   <v>       0.24055561       0.48258873       0.85846290 </v>
   <v>       0.79768557       0.22961531       0.52469242 </v>
   <v>       0.07039198       0.39842431       0.93953676 </v>
   <v>       0.73505839       0.56902293       0.96988004 </v>
   <v>       0.41079705       0.04939681       0.48684334 </v>
   <v>       0.33277424       0.23963568       0.63139241 </v>
   <v>       0.28524518       0.87688980       0.59380530 </v>
   <v>       0.67879797       0.59527221       0.37424640 </v>
   <v>       0.60239174       0.47909589       0.56170151 </v>
   <v>       0.02002423       0.03348244       0.80948839 </v>
   <v>       0.00153052       0.18163405       0.41482691 </v>
   <v>       0.68170012       0.91096008       0.89962784 </v>
   <v>       0.73045698       0.56937288       0.09414370 </v>
   <v>       0.06096681       0.48927294       0.24446786 </v>
   <v>       0.73901782       0.44258117       0.93614086 </v>
   <v>       0.05369613       0.19892457       0.53046225 </v>
   <v>       0.63851346       0.63677883       0.92834578 </v>
   <v>       0.49499995       0.48333258       0.49744000 </v>
   <v>       0.52979645       0.02675675       0.54782219 </v>
   <v>       0.75472751       0.73012425       0.52831226 </v>
   <v>       0.58937472       0.31371227       0.90934043 </v>
   <v>       0.62567633       0.53412193       0.28404054 </v>
   <v>       0.86993153       0.80792042       0.18824787 </v>
   <v>       0.87848994       0.99309966       0.10810822 </v>
   <v>       0.87043689       0.14116239       0.20151320 </v>
   <v>       0.04650305       0.85775995       0.07860354 </v>
   <v>       0.37210883       0.35292487       0.15001524 </v>
   <v>       0.96438838       0.80489712       0.47695584 </v>
   <v>       0.56738763       0.66450867       0.41574173 </v>
   <v>       0.48802329       0.92422390       0.85159090 </v>
   <v>       0.29984264       0.25407614       0.74236325 </v>
   <v>       0.42292202       0.09225468       0.37906612 </v>
   <v>       0.38978531       0.72859228       0.96994056 </v>
   <v>       0.75999865       0.00399354       0.28644734 </v>
   <v>       0.11528203       0.11594826       0.78172430 </v>
   <v>       0.25368039       0.71412548       0.82055897 </v>
   <v>       0.16285268       0.31837660       0.24781797 </v>
   <v>       0.00407109       0.98787720       0.70448132 </v>
   <v>       0.28987267       0.57759987       0.95171918 </v>
   <v>       0.10451137       0.06860999       0.05250405 </v>
   <v>       0.80406624       0.42719693       0.17537300 </v>
   <v>       0.05428563       0.96441015       0.90309035 </v>
   <v>       0.59052316       0.42982877       0.15736380 </v>
   <v>       0.78382467       0.24845443       0.97929748 </v>
   <v>       0.34950063       0.44275769       0.79397261 </v>
   <v>       0.10256610       0.40146656       0.43596953 </v>
   <v>       0.20049626       0.40414796       0.96046237 </v>
   <v>       0.79045062       0.32299160       0.80682680 </v>
   <v>       0.46903896       0.33005173       0.31681871 </v>
   <v>       0.68139382       0.20581330       0.51734836 </v>
   <v>       0.68476482       0.50452785       0.47310896 </v>
   <v>       0.28883360       0.61868559       0.34192683 </v>
   <v>       0.00022211       0.41387393       0.84114897 </v>
   <v>       0.43526199       0.65284060       0.20140321 </v>
   <v>       0.81902968       0.34944696       0.50966827 </v>
   <v>       0.55632347       0.81121957       0.53721059 </v>
   <v>       0.44497507       0.32531563       0.62124167 </v>
   <v>       0.70979828       0.96293004       0.50164290 </v>
   <v>       0.15993838       0.85847829       0.57280509 </v>
   <v>       0.06043659       0.07067283       0.37233438 </v>
   <v>       0.05302807       0.28327657       0.95918518 </v>
   <v>       0.27674159       0.96793796       0.68819873 </v>
   <v>       0.70102612       0.06718424       0.10839287 </v>
   <v>       0.35653591       0.13694434       0.56018161 </v>
   <v>       0.62554690       0.37593688       0.63699113 </v>
   <v>       0.32429107       0.15377500       0.15395781 </v>
   <v>       0.22605623       0.90630963       0.00041494 </v>
   <v>       0.60451541       0.59639606       0.62262255 </v>
   <v>       0.14520221       0.53467558       0.80743531 </v>
   <v>       0.05450228       0.48102042       0.03824362 </v>
   <v>       0.99553482       0.28889143       0.34889450 </v>
   <v>       0.35676153       0.77280710       0.58678061 </v>
   <v>       0.12881423       0.87167680       0.39273900 </v>
   <v>       0.59675629       0.09450352       0.83423299 </v>
   <v>       0.65427456       0.27548435       0.25913606 </v>
   <v>       0.46131902       0.63382395       0.83060243 </v>
   <v>       0.04841698       0.38726595       0.61780148 </v>
   <v>       0.84618826       0.63300616       0.97811536 </v>
   <v>       0.22471309       0.65224997       0.15553752 </v>
   <v>       0.01472189       0.96599009       0.22033847 </v>
   <v>       0.33771858       0.94932789       0.49730924 </v>
   <v>       0.50486704       0.23444895       0.13996452 </v>
   <v>       0.62589877       0.94571295       0.69759287 </v>
   <v>       0.91200888       0.10304449       0.85234267 </v>
   <v>       0.37769183       0.20703548       0.97455359 </v>
   <v>       0.33138117       0.80219120       0.25000036 </v>
   <v>       0.14644627       0.70060567       0.50970197 </v>
   <v>       0.79137249       0.63477087       0.35304535 </v>
   <v>       0.21721762       0.01583471       0.24592015 </v>
   <v>       0.24553390       0.32662680       0.55761692 </v>
   <v>       0.85783367       0.19403257       0.62521078 </v>
   <v>       0.87300826       0.15624445       0.43408415 </v>
  </varray>
  <varray name="velocities" >
   <v>       0.00000000       0.00000000       0.00000000 </v>
   <v>       0.00000000       0.00000000       0.00000000 </v>
   <v>       0.00000000       0.00000000       0.00000000 </v>
   <v>       0.00000000       0.00000000       0.00000000 </v>
   <v>       0.00000000       0.00000000       0.00000000 </v>
   <v>       0.00000000       0.00000000       0.00000000 </v>
   <v>       0.00000000       0.00000000       0.00000000 </v>
   <v>       0.00000000       0.00000000       0.00000000 </v>
   <v>       0.00000000       0.00000000       0.00000000 </v>
   <v>       0.00000000       0.00000000       0.00000000 </v>
   <v>       0.00000000       0.00000000       0.00000000 </v>
   <v>       0.00000000       0.00000000       0.00000000 </v>
   <v>       0.00000000       0.00000000       0.00000000 </v>
   <v>       0.00000000       0.00000000       0.00000000 </v>
   <v>       0.00000000       0.00000000       0.00000000 </v>
   <v>       0.00000000       0.00000000       0.00000000 </v>
   <v>       0.00000000       0.00000000       0.00000000 </v>
   <v>       0.00000000       0.00000000       0.00000000 </v>
   <v>       0.00000000       0.00000000       0.00000000 </v>
   <v>       0.00000000       0.00000000       0.00000000 </v>
   <v>       0.00000000       0.00000000       0.00000000 </v>
   <v>       0.00000000       0.00000000       0.00000000 </v>
   <v>       0.00000000       0.00000000       0.00000000 </v>
   <v>       0.00000000       0.00000000       0.00000000 </v>
   <v>       0.00000000       0.00000000       0.00000000 </v>
   <v>       0.00000000       0.00000000       0.00000000 </v>
   <v>       0.00000000       0.00000000       0.00000000 </v>
   <v>       0.00000000       0.00000000       0.00000000 </v>
   <v>       0.00000000       0.00000000       0.00000000 </v>
   <v>       0.00000000       0.00000000       0.00000000 </v>
   <v>       0.00000000       0.00000000       0.00000000 </v>
   <v>       0.00000000       0.00000000       0.00000000 </v>
   <v>       0.00000000       0.00000000       0.00000000 </v>
   <v>       0.00000000       0.00000000       0.00000000 </v>
   <v>       0.00000000       0.00000000       0.00000000 </v>
   <v>       0.00000000       0.00000000       0.00000000 </v>
   <v>       0.00000000       0.00000000       0.00000000 </v>
   <v>       0.00000000       0.00000000       0.00000000 </v>
   <v>       0.00000000       0.00000000       0.00000000 </v>
   <v>       0.00000000       0.00000000       0.00000000 </v>
   <v>       0.00000000       0.00000000       0.00000000 </v>
   <v>       0.00000000       0.00000000       0.00000000 </v>
   <v>       0.00000000       0.00000000       0.00000000 </v>
   <v>       0.00000000       0.00000000       0.00000000 </v>
   <v>       0.00000000       0.00000000       0.00000000 </v>
   <v>       0.00000000       0.00000000       0.00000000 </v>
   <v>       0.00000000       0.00000000       0.00000000 </v>
   <v>       0.00000000       0.00000000       0.00000000 </v>
   <v>       0.00000000       0.00000000       0.00000000 </v>
   <v>       0.00000000       0.00000000       0.00000000 </v>
   <v>       0.00000000       0.00000000       0.00000000 </v>
   <v>       0.00000000       0.00000000       0.00000000 </v>
   <v>       0.00000000       0.00000000       0.00000000 </v>
   <v>       0.00000000       0.00000000       0.00000000 </v>
   <v>       0.00000000       0.00000000       0.00000000 </v>
   <v>       0.00000000       0.00000000       0.00000000 </v>
   <v>       0.00000000       0.00000000       0.00000000 </v>
   <v>       0.00000000       0.00000000       0.00000000 </v>
   <v>       0.00000000       0.00000000       0.00000000 </v>
   <v>       0.00000000       0.00000000       0.00000000 </v>
   <v>       0.00000000       0.00000000       0.00000000 </v>
   <v>       0.00000000       0.00000000       0.00000000 </v>
   <v>       0.00000000       0.00000000       0.00000000 </v>
   <v>       0.00000000       0.00000000       0.00000000 </v>
   <v>       0.00000000       0.00000000       0.00000000 </v>
   <v>       0.00000000       0.00000000       0.00000000 </v>
   <v>       0.00000000       0.00000000       0.00000000 </v>
   <v>       0.00000000       0.00000000       0.00000000 </v>
   <v>       0.00000000       0.00000000       0.00000000 </v>
   <v>       0.00000000       0.00000000       0.00000000 </v>
   <v>       0.00000000       0.00000000       0.00000000 </v>
   <v>       0.00000000       0.00000000       0.00000000 </v>
   <v>       0.00000000       0.00000000       0.00000000 </v>
   <v>       0.00000000       0.00000000       0.00000000 </v>
   <v>       0.00000000       0.00000000       0.00000000 </v>
   <v>       0.00000000       0.00000000       0.00000000 </v>
   <v>       0.00000000       0.00000000       0.00000000 </v>
   <v>       0.00000000       0.00000000       0.00000000 </v>
   <v>       0.00000000       0.00000000       0.00000000 </v>
   <v>       0.00000000       0.00000000       0.00000000 </v>
   <v>       0.00000000       0.00000000       0.00000000 </v>
   <v>       0.00000000       0.00000000       0.00000000 </v>
   <v>       0.00000000       0.00000000       0.00000000 </v>
   <v>       0.00000000       0.00000000       0.00000000 </v>
   <v>       0.00000000       0.00000000       0.00000000 </v>
   <v>       0.00000000       0.00000000       0.00000000 </v>
   <v>       0.00000000       0.00000000       0.00000000 </v>
   <v>       0.00000000       0.00000000       0.00000000 </v>
   <v>       0.00000000       0.00000000       0.00000000 </v>
   <v>       0.00000000       0.00000000       0.00000000 </v>
   <v>       0.00000000       0.00000000       0.00000000 </v>
   <v>       0.00000000       0.00000000       0.00000000 </v>
   <v>       0.00000000       0.00000000       0.00000000 </v>
   <v>       0.00000000       0.00000000       0.00000000 </v>
   <v>       0.00000000       0.00000000       0.00000000 </v>
   <v>       0.00000000       0.00000000       0.00000000 </v>
   <v>       0.00000000       0.00000000       0.00000000 </v>
   <v>       0.00000000       0.00000000       0.00000000 </v>
   <v>       0.00000000       0.00000000       0.00000000 </v>
   <v>       0.00000000       0.00000000       0.00000000 </v>
   <v>       0.00000000       0.00000000       0.00000000 </v>
   <v>       0.00000000       0.00000000       0.00000000 </v>
   <v>       0.00000000       0.00000000       0.00000000 </v>
   <v>       0.00000000       0.00000000       0.00000000 </v>
   <v>       0.00000000       0.00000000       0.00000000 </v>
   <v>       0.00000000       0.00000000       0.00000000 </v>
   <v>       0.00000000       0.00000000       0.00000000 </v>
   <v>       0.00000000       0.00000000       0.00000000 </v>
   <v>       0.00000000       0.00000000       0.00000000 </v>
   <v>       0.00000000       0.00000000       0.00000000 </v>
   <v>       0.00000000       0.00000000       0.00000000 </v>
   <v>       0.00000000       0.00000000       0.00000000 </v>
   <v>       0.00000000       0.00000000       0.00000000 </v>
   <v>       0.00000000       0.00000000       0.00000000 </v>
   <v>       0.00000000       0.00000000       0.00000000 </v>
   <v>       0.00000000       0.00000000       0.00000000 </v>
   <v>       0.00000000       0.00000000       0.00000000 </v>
   <v>       0.00000000       0.00000000       0.00000000 </v>
   <v>       0.00000000       0.00000000       0.00000000 </v>
   <v>       0.00000000       0.00000000       0.00000000 </v>
   <v>       0.00000000       0.00000000       0.00000000 </v>
   <v>       0.00000000       0.00000000       0.00000000 </v>
   <v>       0.00000000       0.00000000       0.00000000 </v>
   <v>       0.00000000       0.00000000       0.00000000 </v>
   <v>       0.00000000       0.00000000       0.00000000 </v>
   <v>       0.00000000       0.00000000       0.00000000 </v>
   <v>       0.00000000       0.00000000       0.00000000 </v>
   <v>       0.00000000       0.00000000       0.00000000 </v>
   <v>       0.00000000       0.00000000       0.00000000 </v>
   <v>       0.00000000       0.00000000       0.00000000 </v>
   <v>       0.00000000       0.00000000       0.00000000 </v>
   <v>       0.00000000       0.00000000       0.00000000 </v>
   <v>       0.00000000       0.00000000       0.00000000 </v>
   <v>       0.00000000       0.00000000       0.00000000 </v>
   <v>       0.00000000       0.00000000       0.00000000 </v>
  </varray>
 </structure>
</modeling>
