<?xml version="1.0" encoding="ISO-8859-1"?>
<modeling>
 <generator>
  <i name="program" type="string">vasp </i>
  <i name="version" type="string">5.4.4.18Apr17-6-g9f103f2a35  </i>
  <i name="subversion" type="string">(build Mar 16 2023 09:39:13) complex            parallel </i>
  <i name="platform" type="string">LinuxIFC </i>
  <i name="date" type="string">2024 04 30 </i>
  <i name="time" type="string">03:20:32 </i>
 </generator>
 <incar>
  <i type="int" name="ISTART">     0</i>
  <i type="string" name="PREC">a</i>
  <i type="logical" name="ADDGRID"> T  </i>
  <i type="int" name="IBRION">    -1</i>
  <i name="EDIFF">      0.00000100</i>
  <i name="EDIFFG">     -0.01000000</i>
  <i type="int" name="NSW">     1</i>
  <i type="int" name="ISIF">     2</i>
  <i type="int" name="ISYM">     0</i>
  <i name="ENCUT">    600.00000000</i>
  <i name="POTIM">      1.00000000</i>
  <i type="string" name="LREAL">  A</i>
  <i type="int" name="ISMEAR">     0</i>
  <i name="SIGMA">      0.05000000</i>
  <i name="KSPACING">      0.30000000</i>
  <i type="logical" name="KGAMMA"> T  </i>
  <i type="logical" name="LWAVE"> F  </i>
  <i type="logical" name="LCHARG"> F  </i>
  <i type="logical" name="LSCALAPACK"> F  </i>
  <v type="int" name="KPOINT_BSE">    -1     0     0     0</v>
 </incar>
 <structure name="primitive_cell" >
  <crystal>
   <varray name="basis" >
    <v>      12.52607000       0.00000000       0.00000000 </v>
    <v>       0.00000000      12.52607000       0.00000000 </v>
    <v>       0.00000000       0.00000000      12.52607000 </v>
   </varray>
   <i name="volume">   1965.37081690 </i>
   <varray name="rec_basis" >
    <v>       0.07983350       0.00000000       0.00000000 </v>
    <v>       0.00000000       0.07983350       0.00000000 </v>
    <v>       0.00000000       0.00000000       0.07983350 </v>
   </varray>
  </crystal>
  <varray name="positions" >
   <v>      -0.42889537       0.23201066       0.19831862 </v>
   <v>      -0.25378227       0.18662104       0.23649525 </v>
   <v>      -0.46573420       0.13341685       0.37162624 </v>
   <v>      -0.41394962       0.35710972       0.36038308 </v>
   <v>       0.48012922       0.17133609       0.02424077 </v>
   <v>      -0.31471013       0.40531270       0.20990956 </v>
   <v>       0.43525917       0.37143514       0.09995650 </v>
   <v>       0.36099164       0.25999254       0.07467308 </v>
   <v>      -0.35872174      -0.00841969       0.21794317 </v>
   <v>      -0.40685727       0.46956044       0.29431151 </v>
   <v>      -0.22252669       0.26235494       0.04665268 </v>
   <v>       0.30888247       0.20259473       0.18290687 </v>
   <v>      -0.22837092       0.29521504       0.36285431 </v>
   <v>       0.34639853       0.37807312       0.26699174 </v>
   <v>      -0.16092270       0.19831395       0.13086610 </v>
   <v>      -0.22607370       0.04456704       0.23452840 </v>
   <v>      -0.47450707       0.23538926       0.48105939 </v>
   <v>       0.46320737       0.49144093       0.25446047 </v>
   <v>      -0.27619365       0.23141431      -0.06906136 </v>
   <v>      -0.35535252       0.33105526      -0.09400477 </v>
   <v>      -0.49541024       0.10794234      -0.08684958 </v>
   <v>      -0.35002083       0.12711589      -0.09221996 </v>
   <v>      -0.17577749       0.05201413       0.11441429 </v>
   <v>      -0.49434619       0.00749425       0.42815446 </v>
   <v>       0.35979881       0.20456114       0.44993709 </v>
   <v>      -0.35802585       0.28285488      -0.47957888 </v>
   <v>      -0.25973101      -0.49425213       0.09055799 </v>
   <v>       0.34072308      -0.01319288       0.12675373 </v>
   <v>       0.46281528      -0.47642545       0.04741615 </v>
   <v>      -0.36355325      -0.11825597       0.16690928 </v>
   <v>       0.35726695       0.39553394       0.44102983 </v>
   <v>       0.40309912      -0.06214999       0.35144470 </v>
   <v>      -0.38035778      -0.41065354       0.29521117 </v>
   <v>      -0.48697729      -0.13300469       0.13814690 </v>
   <v>      -0.15841387       0.00331493       0.32291226 </v>
   <v>      -0.44968388       0.10251609      -0.43876276 </v>
   <v>       0.41235769      -0.00685162      -0.06180885 </v>
   <v>       0.47479487       0.32249614      -0.43154264 </v>
   <v>       0.23881592       0.25975389      -0.02705539 </v>
   <v>       0.23132048       0.43133933       0.11311928 </v>
   <v>      -0.03389870       0.21050479       0.10069054 </v>
   <v>      -0.07904022       0.39587277       0.34264675 </v>
   <v>       0.34870697       0.31641897      -0.46237345 </v>
   <v>      -0.38940088      -0.36870018       0.07315956 </v>
   <v>       0.45929344       0.15646356      -0.20385048 </v>
   <v>      -0.15394960       0.01346085      -0.04025584 </v>
   <v>      -0.11689848       0.24155431       0.48972386 </v>
   <v>       0.14888679       0.27432398       0.12134952 </v>
   <v>      -0.44334825      -0.11564231       0.45764789 </v>
   <v>      -0.29418837      -0.15938168       0.05977949 </v>
   <v>       0.17556560       0.03752627       0.21555457 </v>
   <v>      -0.23367610      -0.47306769       0.46429161 </v>
   <v>      -0.17739311       0.16169330      -0.16233481 </v>
   <v>      -0.14755974       0.46980359      -0.05460450 </v>
   <v>       0.49153446      -0.41737965       0.47560432 </v>
   <v>      -0.11181826      -0.44669541       0.12906053 </v>
   <v>      -0.45163863       0.30626996      -0.25659538 </v>
   <v>      -0.45759042      -0.42130618      -0.11429458 </v>
   <v>      -0.17476334       0.02944274      -0.45867730 </v>
   <v>      -0.33842550      -0.23153562       0.23145143 </v>
   <v>      -0.30221974      -0.32328116       0.32237933 </v>
   <v>      -0.08518625       0.10518473      -0.49341503 </v>
   <v>       0.25767584      -0.39925183       0.16895911 </v>
   <v>      -0.00022855       0.02388570       0.29279628 </v>
   <v>      -0.29650844      -0.48810973      -0.18024278 </v>
   <v>      -0.30788289       0.08530441      -0.35068994 </v>
   <v>       0.44915380      -0.24384932       0.23756270 </v>
   <v>       0.09391873       0.25542775       0.32034308 </v>
   <v>      -0.22343919       0.31781259      -0.24268204 </v>
   <v>      -0.18266798      -0.34519909       0.28671539 </v>
   <v>       0.02033035       0.32235197       0.40129120 </v>
   <v>       0.18169603      -0.46994062       0.07041715 </v>
   <v>      -0.24493858      -0.49366081      -0.41301838 </v>
   <v>      -0.46440516      -0.03435850      -0.24252068 </v>
   <v>       0.33927656       0.47577205      -0.19719361 </v>
   <v>      -0.35946100       0.45939252      -0.33862109 </v>
   <v>       0.43124188      -0.16133861      -0.11408071 </v>
   <v>       0.00498957      -0.05515834       0.15742726 </v>
   <v>      -0.04671734      -0.46128414       0.01014843 </v>
   <v>       0.25626551      -0.41732145      -0.03918303 </v>
   <v>       0.22930758      -0.11751946       0.40147946 </v>
   <v>       0.12177417      -0.03848349       0.10810565 </v>
   <v>      -0.35759978      -0.29621740       0.43676481 </v>
   <v>      -0.06115426      -0.43709648       0.40630750 </v>
   <v>      -0.34068415      -0.28079598      -0.00952423 </v>
   <v>       0.21801692      -0.15414451       0.07572222 </v>
   <v>       0.45364561      -0.44370326      -0.21548567 </v>
   <v>       0.21204918       0.30244031      -0.19708150 </v>
   <v>       0.16216400       0.16097569      -0.45594225 </v>
   <v>      -0.11324329       0.21872901      -0.24383404 </v>
   <v>       0.36888510       0.00777645      -0.25654784 </v>
   <v>       0.24660523       0.31982090      -0.36975171 </v>
   <v>       0.03377372       0.10194254       0.46246370 </v>
   <v>       0.19645176       0.48882032      -0.49253220 </v>
   <v>       0.18791500      -0.40441492       0.35445790 </v>
   <v>      -0.25071468      -0.09441772      -0.21001045 </v>
   <v>       0.44955650      -0.46320075      -0.35665274 </v>
   <v>      -0.40369332      -0.21622748      -0.13165552 </v>
   <v>      -0.41688177      -0.21367397      -0.45691146 </v>
   <v>      -0.11189492      -0.23763501       0.17097564 </v>
   <v>       0.08998263       0.01560680      -0.01165965 </v>
   <v>      -0.22732012      -0.31701030      -0.08203562 </v>
   <v>      -0.37796747      -0.14142264      -0.23221548 </v>
   <v>       0.07158235       0.47778709       0.04992430 </v>
   <v>       0.29098357      -0.26615135       0.27722005 </v>
   <v>      -0.06924480      -0.14744366      -0.04721920 </v>
   <v>       0.20781989       0.02467235      -0.39691759 </v>
   <v>       0.18782792      -0.33201401       0.25030495 </v>
   <v>       0.22324749      -0.46307632      -0.16456616 </v>
   <v>      -0.05808022       0.42456348      -0.22026333 </v>
   <v>       0.00872834       0.25760058      -0.20509961 </v>
   <v>       0.07744618       0.38449071       0.49801456 </v>
   <v>      -0.07188739       0.11913800      -0.32942401 </v>
   <v>       0.47571714      -0.27867179      -0.45344767 </v>
   <v>       0.42699321      -0.31846594      -0.21611869 </v>
   <v>       0.11080122       0.45992985      -0.16587062 </v>
   <v>      -0.36461004      -0.20595841      -0.34443479 </v>
   <v>      -0.02347612      -0.34401893      -0.04962229 </v>
   <v>       0.14755576      -0.01595261      -0.20913452 </v>
   <v>      -0.16228732      -0.45813345      -0.31158680 </v>
   <v>      -0.06523250      -0.16818913      -0.44644788 </v>
   <v>      -0.10696695      -0.25624565      -0.09656205 </v>
   <v>       0.27439482      -0.16419943      -0.23502213 </v>
   <v>      -0.10246273      -0.07861945      -0.31327806 </v>
   <v>       0.05487445      -0.19257647       0.38021037 </v>
   <v>       0.18966155      -0.17213165      -0.41486166 </v>
   <v>       0.07750654      -0.30333820       0.17323771 </v>
   <v>       0.13584088      -0.25585926      -0.02353825 </v>
   <v>       0.33817659      -0.28758078      -0.36377502 </v>
   <v>       0.19489282      -0.07899817      -0.31201556 </v>
   <v>       0.20131351      -0.36767443      -0.24177907 </v>
   <v>       0.10318303      -0.33904586      -0.47854162 </v>
   <v>       0.05718701      -0.21180972      -0.48916255 </v>
   <v>      -0.04765446      -0.24852679      -0.22035951 </v>
   <v>       0.02563394      -0.35196658      -0.31997283 </v>
  </varray>
 </structure>
 <varray name="primitive_index" >
  <v type="int" >        1 </v>
  <v type="int" >       65 </v>
  <v type="int" >       85 </v>
  <v type="int" >       77 </v>
  <v type="int" >       80 </v>
  <v type="int" >       89 </v>
  <v type="int" >      118 </v>
  <v type="int" >       29 </v>
  <v type="int" >       74 </v>
  <v type="int" >       51 </v>
  <v type="int" >       91 </v>
  <v type="int" >      112 </v>
  <v type="int" >       19 </v>
  <v type="int" >       21 </v>
  <v type="int" >       44 </v>
  <v type="int" >       43 </v>
  <v type="int" >       28 </v>
  <v type="int" >       58 </v>
  <v type="int" >       48 </v>
  <v type="int" >       73 </v>
  <v type="int" >       40 </v>
  <v type="int" >       76 </v>
  <v type="int" >      129 </v>
  <v type="int" >       35 </v>
  <v type="int" >       98 </v>
  <v type="int" >       70 </v>
  <v type="int" >       13 </v>
  <v type="int" >       15 </v>
  <v type="int" >       24 </v>
  <v type="int" >       33 </v>
  <v type="int" >      100 </v>
  <v type="int" >      132 </v>
  <v type="int" >       82 </v>
  <v type="int" >       99 </v>
  <v type="int" >      104 </v>
  <v type="int" >       72 </v>
  <v type="int" >      123 </v>
  <v type="int" >      111 </v>
  <v type="int" >      130 </v>
  <v type="int" >       67 </v>
  <v type="int" >       83 </v>
  <v type="int" >       90 </v>
  <v type="int" >       32 </v>
  <v type="int" >      114 </v>
  <v type="int" >      125 </v>
  <v type="int" >       22 </v>
  <v type="int" >       78 </v>
  <v type="int" >        3 </v>
  <v type="int" >       62 </v>
  <v type="int" >      105 </v>
  <v type="int" >       61 </v>
  <v type="int" >       84 </v>
  <v type="int" >      108 </v>
  <v type="int" >       94 </v>
  <v type="int" >        9 </v>
  <v type="int" >      103 </v>
  <v type="int" >       26 </v>
  <v type="int" >      109 </v>
  <v type="int" >      106 </v>
  <v type="int" >       57 </v>
  <v type="int" >       42 </v>
  <v type="int" >       52 </v>
  <v type="int" >       92 </v>
  <v type="int" >        7 </v>
  <v type="int" >       20 </v>
  <v type="int" >       25 </v>
  <v type="int" >       23 </v>
  <v type="int" >       66 </v>
  <v type="int" >      122 </v>
  <v type="int" >      107 </v>
  <v type="int" >       54 </v>
  <v type="int" >       45 </v>
  <v type="int" >       34 </v>
  <v type="int" >       81 </v>
  <v type="int" >       69 </v>
  <v type="int" >       79 </v>
  <v type="int" >       10 </v>
  <v type="int" >      113 </v>
  <v type="int" >       39 </v>
  <v type="int" >      131 </v>
  <v type="int" >        2 </v>
  <v type="int" >       38 </v>
  <v type="int" >      128 </v>
  <v type="int" >        6 </v>
  <v type="int" >       31 </v>
  <v type="int" >      124 </v>
  <v type="int" >       47 </v>
  <v type="int" >       27 </v>
  <v type="int" >       11 </v>
  <v type="int" >       41 </v>
  <v type="int" >       16 </v>
  <v type="int" >       88 </v>
  <v type="int" >       68 </v>
  <v type="int" >       17 </v>
  <v type="int" >       75 </v>
  <v type="int" >       97 </v>
  <v type="int" >       60 </v>
  <v type="int" >      110 </v>
  <v type="int" >       53 </v>
  <v type="int" >        8 </v>
  <v type="int" >      116 </v>
  <v type="int" >      127 </v>
  <v type="int" >       36 </v>
  <v type="int" >       96 </v>
  <v type="int" >       95 </v>
  <v type="int" >       63 </v>
  <v type="int" >       59 </v>
  <v type="int" >       30 </v>
  <v type="int" >       50 </v>
  <v type="int" >       18 </v>
  <v type="int" >      120 </v>
  <v type="int" >      101 </v>
  <v type="int" >      121 </v>
  <v type="int" >       71 </v>
  <v type="int" >       93 </v>
  <v type="int" >      135 </v>
  <v type="int" >      133 </v>
  <v type="int" >       87 </v>
  <v type="int" >       86 </v>
  <v type="int" >      134 </v>
  <v type="int" >      126 </v>
  <v type="int" >       46 </v>
  <v type="int" >      102 </v>
  <v type="int" >       14 </v>
  <v type="int" >       64 </v>
  <v type="int" >      117 </v>
  <v type="int" >      119 </v>
  <v type="int" >        5 </v>
  <v type="int" >       12 </v>
  <v type="int" >       49 </v>
  <v type="int" >      115 </v>
  <v type="int" >       55 </v>
  <v type="int" >       37 </v>
  <v type="int" >       56 </v>
  <v type="int" >        4 </v>
 </varray>
 <kpoints>
  <generation param="Gamma">
   <v type="int" name="divisions">       2        2        2 </v>
   <v name="usershift">      0.00000000       0.00000000       0.00000000 </v>
   <v name="genvec1">      0.50000000       0.00000000       0.00000000 </v>
   <v name="genvec2">      0.00000000       0.50000000       0.00000000 </v>
   <v name="genvec3">      0.00000000       0.00000000       0.50000000 </v>
   <v name="shift">      0.00000000       0.00000000       0.00000000 </v>
  </generation>
  <varray name="kpointlist" >
   <v>       0.00000000       0.00000000       0.00000000 </v>
   <v>       0.50000000       0.00000000       0.00000000 </v>
   <v>       0.00000000       0.50000000       0.00000000 </v>
   <v>       0.50000000       0.50000000       0.00000000 </v>
   <v>       0.00000000       0.00000000       0.50000000 </v>
   <v>       0.50000000       0.00000000       0.50000000 </v>
   <v>       0.00000000       0.50000000       0.50000000 </v>
   <v>       0.50000000       0.50000000       0.50000000 </v>
  </varray>
  <varray name="weights" >
   <v>       0.12500000 </v>
   <v>       0.12500000 </v>
   <v>       0.12500000 </v>
   <v>       0.12500000 </v>
   <v>       0.12500000 </v>
   <v>       0.12500000 </v>
   <v>       0.12500000 </v>
   <v>       0.12500000 </v>
  </varray>
 </kpoints>
 <parameters>
  <separator name="general" >
   <i type="string" name="SYSTEM">unknown system</i>
   <i type="logical" name="LCOMPAT"> F  </i>
  </separator>
  <separator name="electronic" >
   <i type="string" name="PREC">a</i>
   <i name="ENMAX">    600.00000000</i>
   <i name="ENAUG">    605.39200000</i>
   <i name="EDIFF">      0.00000100</i>
   <i type="int" name="IALGO">    38</i>
   <i type="int" name="IWAVPR">    10</i>
   <i type="int" name="NBANDS">   520</i>
   <i name="NELECT">    864.00000000</i>
   <i type="int" name="TURBO">     0</i>
   <i type="int" name="IRESTART">     0</i>
   <i type="int" name="NREBOOT">     0</i>
   <i type="int" name="NMIN">     0</i>
   <i name="EREF">      0.00000000</i>
   <separator name="electronic smearing" >
    <i type="int" name="ISMEAR">     0</i>
    <i name="SIGMA">      0.05000000</i>
    <i name="KSPACING">      0.30000000</i>
    <i type="logical" name="KGAMMA"> T  </i>
   </separator>
   <separator name="electronic projectors" >
    <i type="logical" name="LREAL"> T  </i>
    <v name="ROPT">     -0.00025000     -0.00025000     -0.00025000</v>
    <i type="int" name="LMAXPAW">  -100</i>
    <i type="int" name="LMAXMIX">     2</i>
    <i type="logical" name="NLSPLINE"> F  </i>
   </separator>
   <separator name="electronic startup" >
    <i type="int" name="ISTART">     0</i>
    <i type="int" name="ICHARG">     2</i>
    <i type="int" name="INIWAV">     1</i>
   </separator>
   <separator name="electronic spin" >
    <i type="int" name="ISPIN">     1</i>
    <i type="logical" name="LNONCOLLINEAR"> F  </i>
    <v name="MAGMOM">      1.00000000      1.00000000      1.00000000      1.00000000      1.00000000      1.00000000      1.00000000      1.00000000      1.00000000      1.00000000      1.00000000      1.00000000      1.00000000      1.00000000      1.00000000      1.00000000      1.00000000      1.00000000      1.00000000      1.00000000
      1.00000000      1.00000000      1.00000000      1.00000000      1.00000000      1.00000000      1.00000000      1.00000000      1.00000000      1.00000000      1.00000000      1.00000000      1.00000000      1.00000000      1.00000000      1.00000000      1.00000000      1.00000000      1.00000000      1.00000000
      1.00000000      1.00000000      1.00000000      1.00000000      1.00000000      1.00000000      1.00000000      1.00000000      1.00000000      1.00000000      1.00000000      1.00000000      1.00000000      1.00000000      1.00000000      1.00000000      1.00000000      1.00000000      1.00000000      1.00000000
      1.00000000      1.00000000      1.00000000      1.00000000      1.00000000      1.00000000      1.00000000      1.00000000      1.00000000      1.00000000      1.00000000      1.00000000      1.00000000      1.00000000      1.00000000      1.00000000      1.00000000      1.00000000      1.00000000      1.00000000
      1.00000000      1.00000000      1.00000000      1.00000000      1.00000000      1.00000000      1.00000000      1.00000000      1.00000000      1.00000000      1.00000000      1.00000000      1.00000000      1.00000000      1.00000000      1.00000000      1.00000000      1.00000000      1.00000000      1.00000000
      1.00000000      1.00000000      1.00000000      1.00000000      1.00000000      1.00000000      1.00000000      1.00000000      1.00000000      1.00000000      1.00000000      1.00000000      1.00000000      1.00000000      1.00000000      1.00000000      1.00000000      1.00000000      1.00000000      1.00000000
      1.00000000      1.00000000      1.00000000      1.00000000      1.00000000      1.00000000      1.00000000      1.00000000      1.00000000      1.00000000      1.00000000      1.00000000      1.00000000      1.00000000      1.00000000</v>
    <i name="NUPDOWN">     -1.00000000</i>
    <i type="logical" name="LSORBIT"> F  </i>
    <v name="SAXIS">      0.00000000      0.00000000      1.00000000</v>
    <i type="logical" name="LSPIRAL"> F  </i>
    <v name="QSPIRAL">      0.00000000      0.00000000      0.00000000</v>
    <i type="logical" name="LZEROZ"> F  </i>
   </separator>
   <separator name="electronic exchange-correlation" >
    <i type="logical" name="LASPH"> F  </i>
    <i type="logical" name="LMETAGGA"> F  </i>
   </separator>
   <separator name="electronic convergence" >
    <i type="int" name="NELM">    60</i>
    <i type="int" name="NELMDL">    -5</i>
    <i type="int" name="NELMIN">     2</i>
    <i name="ENINI">    600.00000000</i>
    <separator name="electronic convergence detail" >
     <i type="logical" name="LDIAG"> T  </i>
     <i type="logical" name="LSUBROT"> F  </i>
     <i name="WEIMIN">      0.00000000</i>
     <i name="EBREAK">      0.00000000</i>
     <i name="DEPER">      0.30000000</i>
     <i type="int" name="NRMM">     4</i>
     <i name="TIME">      0.40000000</i>
    </separator>
   </separator>
   <separator name="electronic mixer" >
    <i name="AMIX">      0.40000000</i>
    <i name="BMIX">      1.00000000</i>
    <i name="AMIN">      0.10000000</i>
    <i name="AMIX_MAG">      1.60000000</i>
    <i name="BMIX_MAG">      1.00000000</i>
    <separator name="electronic mixer details" >
     <i type="int" name="IMIX">     4</i>
     <i type="logical" name="MIXFIRST"> F  </i>
     <i type="int" name="MAXMIX">   -45</i>
     <i name="WC">    100.00000000</i>
     <i type="int" name="INIMIX">     1</i>
     <i type="int" name="MIXPRE">     1</i>
     <i type="int" name="MREMOVE">     5</i>
    </separator>
   </separator>
   <separator name="electronic dipolcorrection" >
    <i type="logical" name="LDIPOL"> F  </i>
    <i type="logical" name="LMONO"> F  </i>
    <i type="int" name="IDIPOL">     0</i>
    <i name="EPSILON">      1.00000000</i>
    <v name="DIPOL">   -100.00000000   -100.00000000   -100.00000000</v>
    <i name="EFIELD">      0.00000000</i>
   </separator>
  </separator>
  <separator name="grids" >
   <i type="int" name="NGX">   100</i>
   <i type="int" name="NGY">   100</i>
   <i type="int" name="NGZ">   100</i>
   <i type="int" name="NGXF">   200</i>
   <i type="int" name="NGYF">   200</i>
   <i type="int" name="NGZF">   200</i>
   <i type="logical" name="ADDGRID"> T  </i>
  </separator>
  <separator name="ionic" >
   <i type="int" name="NSW">     1</i>
   <i type="int" name="IBRION">    -1</i>
   <i type="int" name="MDALGO">     0</i>
   <i type="int" name="ISIF">     2</i>
   <i name="PSTRESS">      0.00000000</i>
   <i name="EDIFFG">     -0.01000000</i>
   <i type="int" name="NFREE">     0</i>
   <i name="POTIM">      1.00000000</i>
   <i name="SMASS">     -3.00000000</i>
   <i name="SCALEE">      1.00000000</i>
  </separator>
  <separator name="ionic md" >
   <i name="TEBEG">      0.00010000</i>
   <i name="TEEND">      0.00010000</i>
   <i type="int" name="NBLOCK">     1</i>
   <i type="int" name="KBLOCK">     1</i>
   <i type="int" name="NPACO">   256</i>
   <i name="APACO">     16.00000000</i>
  </separator>
  <separator name="symmetry" >
   <i type="int" name="ISYM">     0</i>
   <i name="SYMPREC">      0.00001000</i>
  </separator>
  <separator name="dos" >
   <i type="int" name="LORBIT">     0</i>
   <v name="RWIGS">     -1.00000000     -1.00000000     -1.00000000</v>
   <i type="int" name="NEDOS">   301</i>
   <i name="EMIN">     10.00000000</i>
   <i name="EMAX">    -10.00000000</i>
   <i name="EFERMI">      0.00000000</i>
  </separator>
  <separator name="writing" >
   <i type="int" name="NWRITE">     2</i>
   <i type="logical" name="LWAVE"> F  </i>
   <i type="logical" name="LDOWNSAMPLE"> F  </i>
   <i type="logical" name="LCHARG"> F  </i>
   <i type="logical" name="LPARD"> F  </i>
   <i type="logical" name="LVTOT"> F  </i>
   <i type="logical" name="LVHAR"> F  </i>
   <i type="logical" name="LELF"> F  </i>
   <i type="logical" name="LOPTICS"> F  </i>
   <v name="STM">      0.00000000      0.00000000      0.00000000      0.00000000      0.00000000      0.00000000      0.00000000</v>
  </separator>
  <separator name="performance" >
   <i type="int" name="NPAR">     4</i>
   <i type="int" name="NSIM">     4</i>
   <i type="int" name="NBLK">    -1</i>
   <i type="logical" name="LPLANE"> T  </i>
   <i type="logical" name="LSCALAPACK"> F  </i>
   <i type="logical" name="LSCAAWARE"> F  </i>
   <i type="logical" name="LSCALU"> F  </i>
   <i type="logical" name="LASYNC"> F  </i>
   <i type="logical" name="LORBITALREAL"> F  </i>
  </separator>
  <separator name="miscellaneous" >
   <i type="int" name="IDIOT">     3</i>
   <i type="int" name="ISPECIAL">     0</i>
   <i type="logical" name="LMUSIC"> F  </i>
   <v name="POMASS">     40.07800000     28.08500000     16.00000000</v>
   <v name="DARWINR">      0.00000000      0.00000000      0.00000000</v>
   <v name="DARWINV">      1.00000000      1.00000000      1.00000000</v>
   <i type="logical" name="LCORR"> T  </i>
  </separator>
  <i type="logical" name="GGA_COMPAT"> T  </i>
  <i type="logical" name="LBERRY"> F  </i>
  <i type="int" name="ICORELEVEL">     0</i>
  <i type="logical" name="LDAU"> F  </i>
  <i type="int" name="I_CONSTRAINED_M">     0</i>
  <separator name="electronic exchange-correlation" >
   <i type="string" name="GGA">--</i>
   <i type="int" name="VOSKOWN">     0</i>
   <i type="logical" name="LHFCALC"> F  </i>
   <i type="string" name="PRECFOCK"></i>
   <i type="logical" name="LSYMGRAD"> F  </i>
   <i type="logical" name="LHFONE"> F  </i>
   <i type="logical" name="LRHFCALC"> F  </i>
   <i type="logical" name="LTHOMAS"> F  </i>
   <i type="logical" name="LMODELHF"> F  </i>
   <i name="ENCUT4O">     -1.00000000</i>
   <i type="int" name="EXXOEP">     0</i>
   <i type="int" name="FOURORBIT">     0</i>
   <i name="AEXX">      0.00000000</i>
   <i name="HFALPHA">      0.00000000</i>
   <i name="MCALPHA">      0.00000000</i>
   <i name="ALDAX">      1.00000000</i>
   <i name="AGGAX">      1.00000000</i>
   <i name="ALDAC">      1.00000000</i>
   <i name="AGGAC">      1.00000000</i>
   <i type="int" name="NKREDX">     1</i>
   <i type="int" name="NKREDY">     1</i>
   <i type="int" name="NKREDZ">     1</i>
   <i type="logical" name="SHIFTRED"> F  </i>
   <i type="logical" name="ODDONLY"> F  </i>
   <i type="logical" name="EVENONLY"> F  </i>
   <i type="int" name="LMAXFOCK">     0</i>
   <i type="int" name="NMAXFOCKAE">     0</i>
   <i type="logical" name="LFOCKAEDFT"> F  </i>
   <i name="HFSCREEN">      0.00000000</i>
   <i name="HFSCREENC">      0.00000000</i>
   <i type="int" name="NBANDSGWLOW">     0</i>
  </separator>
  <separator name="vdW DFT" >
   <i type="logical" name="LUSE_VDW"> F  </i>
   <i name="Zab_VDW">     -0.84910000</i>
   <i name="PARAM1">      0.12340000</i>
   <i name="PARAM2">      1.00000000</i>
   <i name="PARAM3">      0.00000000</i>
  </separator>
  <separator name="model GW" >
   <i type="int" name="MODEL_GW">     0</i>
   <i name="MODEL_EPS0">      8.73498141</i>
   <i name="MODEL_ALPHA">      1.00000000</i>
  </separator>
  <separator name="linear response parameters" >
   <i type="logical" name="LEPSILON"> F  </i>
   <i type="logical" name="LRPA"> F  </i>
   <i type="logical" name="LNABLA"> F  </i>
   <i type="logical" name="LVEL"> F  </i>
   <i type="int" name="KINTER">     0</i>
   <i name="CSHIFT">      0.10000000</i>
   <i name="OMEGAMAX">     -1.00000000</i>
   <i name="DEG_THRESHOLD">      0.00200000</i>
   <i name="RTIME">     -0.10000000</i>
   <i name="WPLASMAI">      0.00000000</i>
   <v name="DFIELD">      0.00000000      0.00000000      0.00000000</v>
   <v name="WPLASMA">      0.00000000      0.00000000      0.00000000      0.00000000      0.00000000      0.00000000      0.00000000      0.00000000      0.00000000</v>
  </separator>
  <separator name="orbital magnetization" >
   <i type="logical" name="NUCIND"> F  </i>
   <v name="MAGPOS">      0.00000000      0.00000000      0.00000000</v>
   <i type="logical" name="LNICSALL"> T  </i>
   <i type="logical" name="ORBITALMAG"> F  </i>
   <i type="logical" name="LMAGBLOCH"> F  </i>
   <i type="logical" name="LCHIMAG"> F  </i>
   <i type="logical" name="LGAUGE"> T  </i>
   <i type="int" name="MAGATOM">     0</i>
   <v name="MAGDIPOL">      0.00000000      0.00000000      0.00000000</v>
   <v name="AVECCONST">      0.00000000      0.00000000      0.00000000</v>
  </separator>
  <separator name="response functions" >
   <i type="logical" name="LADDER"> F  </i>
   <i type="logical" name="LRPAFORCE"> F  </i>
   <i type="logical" name="LFXC"> F  </i>
   <i type="logical" name="LHARTREE"> T  </i>
   <i type="int" name="IBSE">     0</i>
   <v type="int" name="KPOINT">    -1     0     0     0</v>
   <i type="logical" name="LTCTE"> F  </i>
   <i type="logical" name="LTETE"> F  </i>
   <i type="logical" name="LTRIPLET"> F  </i>
   <i type="logical" name="LFXCEPS"> F  </i>
   <i type="logical" name="LFXHEG"> F  </i>
   <i type="int" name="NATURALO">     2</i>
   <i type="logical" name="L2ORDER"> F  </i>
   <i type="logical" name="LMP2LT"> F  </i>
   <i type="logical" name="LUSEW"> F  </i>
   <i name="ENCUTGW">     -2.00000000</i>
   <i name="ENCUTGWSOFT">     -2.00000000</i>
   <i name="ENCUTLF">     -1.00000000</i>
   <i type="int" name="LMAXMP2">    -1</i>
   <i name="SCISSOR">      0.00000000</i>
   <i type="int" name="NOMEGA">     0</i>
   <i type="int" name="NOMEGAR">     0</i>
   <i type="int" name="NBANDSGW">    -1</i>
   <i type="int" name="NBANDSO">    -1</i>
   <i type="int" name="NBANDSV">    -1</i>
   <i type="int" name="NELM">     1</i>
   <i type="int" name="NELMHF">     1</i>
   <i type="int" name="DIM">     3</i>
   <i type="int" name="ANTIRES">     0</i>
   <i name="OMEGAMAX">    -30.00000000</i>
   <i name="OMEGAMIN">    -30.00000000</i>
   <i name="OMEGATL">   -200.00000000</i>
   <i type="int" name="OMEGAGRID">   140</i>
   <i name="CSHIFT">     -0.10000000</i>
   <i type="logical" name="SELFENERGY"> F  </i>
   <i type="logical" name="LSPECTRAL"> F  </i>
   <i type="logical" name="LSPECTRALGW"> F  </i>
   <i type="logical" name="LSINGLES"> F  </i>
   <i type="logical" name="LFERMIGW"> F  </i>
   <i type="logical" name="ODDONLYGW"> F  </i>
   <i type="logical" name="EVENONLYGW"> F  </i>
   <i type="int" name="NKREDLFX">     1</i>
   <i type="int" name="NKREDLFY">     1</i>
   <i type="int" name="NKREDLFZ">     1</i>
   <i type="int" name="MAXMEM">  2800</i>
   <i type="int" name="TELESCOPE">     0</i>
   <i type="int" name="TAUPAR">     1</i>
   <i type="int" name="OMEGAPAR">    -1</i>
   <i name="LAMBDA">      1.00000000</i>
  </separator>
  <separator name="External order field" >
   <i name="OFIELD_KAPPA">      0.00000000</i>
   <v name="OFIELD_K">      0.00000000      0.00000000      0.00000000</v>
   <i name="OFIELD_Q6_NEAR">      0.00000000</i>
   <i name="OFIELD_Q6_FAR">      0.00000000</i>
   <i name="OFIELD_A">      0.00000000</i>
  </separator>
 </parameters>
 <atominfo>
  <atoms>     135 </atoms>
  <types>       3 </types>
  <array name="atoms" >
   <dimension dim="1">ion</dimension>
   <field type="string">element</field>
   <field type="int">atomtype</field>
   <set>
    <rc><c>Ca</c><c>   1</c></rc>
    <rc><c>Ca</c><c>   1</c></rc>
    <rc><c>Ca</c><c>   1</c></rc>
    <rc><c>Ca</c><c>   1</c></rc>
    <rc><c>Ca</c><c>   1</c></rc>
    <rc><c>Ca</c><c>   1</c></rc>
    <rc><c>Ca</c><c>   1</c></rc>
    <rc><c>Ca</c><c>   1</c></rc>
    <rc><c>Ca</c><c>   1</c></rc>
    <rc><c>Ca</c><c>   1</c></rc>
    <rc><c>Ca</c><c>   1</c></rc>
    <rc><c>Ca</c><c>   1</c></rc>
    <rc><c>Ca</c><c>   1</c></rc>
    <rc><c>Ca</c><c>   1</c></rc>
    <rc><c>Ca</c><c>   1</c></rc>
    <rc><c>Ca</c><c>   1</c></rc>
    <rc><c>Ca</c><c>   1</c></rc>
    <rc><c>Ca</c><c>   1</c></rc>
    <rc><c>Ca</c><c>   1</c></rc>
    <rc><c>Ca</c><c>   1</c></rc>
    <rc><c>Ca</c><c>   1</c></rc>
    <rc><c>Ca</c><c>   1</c></rc>
    <rc><c>Ca</c><c>   1</c></rc>
    <rc><c>Ca</c><c>   1</c></rc>
    <rc><c>Ca</c><c>   1</c></rc>
    <rc><c>Ca</c><c>   1</c></rc>
    <rc><c>Ca</c><c>   1</c></rc>
    <rc><c>Si</c><c>   2</c></rc>
    <rc><c>Si</c><c>   2</c></rc>
    <rc><c>Si</c><c>   2</c></rc>
    <rc><c>Si</c><c>   2</c></rc>
    <rc><c>Si</c><c>   2</c></rc>
    <rc><c>Si</c><c>   2</c></rc>
    <rc><c>Si</c><c>   2</c></rc>
    <rc><c>Si</c><c>   2</c></rc>
    <rc><c>Si</c><c>   2</c></rc>
    <rc><c>Si</c><c>   2</c></rc>
    <rc><c>Si</c><c>   2</c></rc>
    <rc><c>Si</c><c>   2</c></rc>
    <rc><c>Si</c><c>   2</c></rc>
    <rc><c>Si</c><c>   2</c></rc>
    <rc><c>Si</c><c>   2</c></rc>
    <rc><c>Si</c><c>   2</c></rc>
    <rc><c>Si</c><c>   2</c></rc>
    <rc><c>Si</c><c>   2</c></rc>
    <rc><c>Si</c><c>   2</c></rc>
    <rc><c>Si</c><c>   2</c></rc>
    <rc><c>Si</c><c>   2</c></rc>
    <rc><c>Si</c><c>   2</c></rc>
    <rc><c>Si</c><c>   2</c></rc>
    <rc><c>Si</c><c>   2</c></rc>
    <rc><c>Si</c><c>   2</c></rc>
    <rc><c>Si</c><c>   2</c></rc>
    <rc><c>Si</c><c>   2</c></rc>
    <rc><c>O </c><c>   3</c></rc>
    <rc><c>O </c><c>   3</c></rc>
    <rc><c>O </c><c>   3</c></rc>
    <rc><c>O </c><c>   3</c></rc>
    <rc><c>O </c><c>   3</c></rc>
    <rc><c>O </c><c>   3</c></rc>
    <rc><c>O </c><c>   3</c></rc>
    <rc><c>O </c><c>   3</c></rc>
    <rc><c>O </c><c>   3</c></rc>
    <rc><c>O </c><c>   3</c></rc>
    <rc><c>O </c><c>   3</c></rc>
    <rc><c>O </c><c>   3</c></rc>
    <rc><c>O </c><c>   3</c></rc>
    <rc><c>O </c><c>   3</c></rc>
    <rc><c>O </c><c>   3</c></rc>
    <rc><c>O </c><c>   3</c></rc>
    <rc><c>O </c><c>   3</c></rc>
    <rc><c>O </c><c>   3</c></rc>
    <rc><c>O </c><c>   3</c></rc>
    <rc><c>O </c><c>   3</c></rc>
    <rc><c>O </c><c>   3</c></rc>
    <rc><c>O </c><c>   3</c></rc>
    <rc><c>O </c><c>   3</c></rc>
    <rc><c>O </c><c>   3</c></rc>
    <rc><c>O </c><c>   3</c></rc>
    <rc><c>O </c><c>   3</c></rc>
    <rc><c>O </c><c>   3</c></rc>
    <rc><c>O </c><c>   3</c></rc>
    <rc><c>O </c><c>   3</c></rc>
    <rc><c>O </c><c>   3</c></rc>
    <rc><c>O </c><c>   3</c></rc>
    <rc><c>O </c><c>   3</c></rc>
    <rc><c>O </c><c>   3</c></rc>
    <rc><c>O </c><c>   3</c></rc>
    <rc><c>O </c><c>   3</c></rc>
    <rc><c>O </c><c>   3</c></rc>
    <rc><c>O </c><c>   3</c></rc>
    <rc><c>O </c><c>   3</c></rc>
    <rc><c>O </c><c>   3</c></rc>
    <rc><c>O </c><c>   3</c></rc>
    <rc><c>O </c><c>   3</c></rc>
    <rc><c>O </c><c>   3</c></rc>
    <rc><c>O </c><c>   3</c></rc>
    <rc><c>O </c><c>   3</c></rc>
    <rc><c>O </c><c>   3</c></rc>
    <rc><c>O </c><c>   3</c></rc>
    <rc><c>O </c><c>   3</c></rc>
    <rc><c>O </c><c>   3</c></rc>
    <rc><c>O </c><c>   3</c></rc>
    <rc><c>O </c><c>   3</c></rc>
    <rc><c>O </c><c>   3</c></rc>
    <rc><c>O </c><c>   3</c></rc>
    <rc><c>O </c><c>   3</c></rc>
    <rc><c>O </c><c>   3</c></rc>
    <rc><c>O </c><c>   3</c></rc>
    <rc><c>O </c><c>   3</c></rc>
    <rc><c>O </c><c>   3</c></rc>
    <rc><c>O </c><c>   3</c></rc>
    <rc><c>O </c><c>   3</c></rc>
    <rc><c>O </c><c>   3</c></rc>
    <rc><c>O </c><c>   3</c></rc>
    <rc><c>O </c><c>   3</c></rc>
    <rc><c>O </c><c>   3</c></rc>
    <rc><c>O </c><c>   3</c></rc>
    <rc><c>O </c><c>   3</c></rc>
    <rc><c>O </c><c>   3</c></rc>
    <rc><c>O </c><c>   3</c></rc>
    <rc><c>O </c><c>   3</c></rc>
    <rc><c>O </c><c>   3</c></rc>
    <rc><c>O </c><c>   3</c></rc>
    <rc><c>O </c><c>   3</c></rc>
    <rc><c>O </c><c>   3</c></rc>
    <rc><c>O </c><c>   3</c></rc>
    <rc><c>O </c><c>   3</c></rc>
    <rc><c>O </c><c>   3</c></rc>
    <rc><c>O </c><c>   3</c></rc>
    <rc><c>O </c><c>   3</c></rc>
    <rc><c>O </c><c>   3</c></rc>
    <rc><c>O </c><c>   3</c></rc>
    <rc><c>O </c><c>   3</c></rc>
    <rc><c>O </c><c>   3</c></rc>
   </set>
  </array>
  <array name="atomtypes" >
   <dimension dim="1">type</dimension>
   <field type="int">atomspertype</field>
   <field type="string">element</field>
   <field>mass</field>
   <field>valence</field>
   <field type="string">pseudopotential</field>
   <set>
    <rc><c>  27</c><c>Ca</c><c>     40.07800000</c><c>     10.00000000</c><c>  PAW_PBE Ca_sv 06Sep2000               </c></rc>
    <rc><c>  27</c><c>Si</c><c>     28.08500000</c><c>      4.00000000</c><c>  PAW_PBE Si 05Jan2001                  </c></rc>
    <rc><c>  81</c><c>O </c><c>     16.00000000</c><c>      6.00000000</c><c>  PAW_PBE O 08Apr2002                   </c></rc>
   </set>
  </array>
 </atominfo>
 <structure name="initialpos" >
  <crystal>
   <varray name="basis" >
    <v>      12.52607000       0.00000000       0.00000000 </v>
    <v>       0.00000000      12.52607000       0.00000000 </v>
    <v>       0.00000000       0.00000000      12.52607000 </v>
   </varray>
   <i name="volume">   1965.37081690 </i>
   <varray name="rec_basis" >
    <v>       0.07983350       0.00000000       0.00000000 </v>
    <v>       0.00000000       0.07983350       0.00000000 </v>
    <v>       0.00000000       0.00000000       0.07983350 </v>
   </varray>
  </crystal>
  <varray name="positions" >
   <v>       0.57110463       0.23201066       0.19831862 </v>
   <v>       0.22930758       0.88248054       0.40147946 </v>
   <v>       0.14888679       0.27432398       0.12134952 </v>
   <v>       0.02563394       0.64803342       0.68002717 </v>
   <v>       0.13584088       0.74414074       0.97646175 </v>
   <v>       0.93884574       0.56290352       0.40630750 </v>
   <v>       0.99977145       0.02388570       0.29279628 </v>
   <v>       0.88810508       0.76236499       0.17097564 </v>
   <v>       0.49153446       0.58262035       0.47560432 </v>
   <v>       0.43124188       0.83866139       0.88591929 </v>
   <v>       0.16216400       0.16097569       0.54405775 </v>
   <v>       0.33817659       0.71241922       0.63622498 </v>
   <v>       0.74026899       0.50574787       0.09055799 </v>
   <v>       0.89753727       0.92138055       0.68672194 </v>
   <v>       0.34072308       0.98680712       0.12675373 </v>
   <v>       0.36888510       0.00777645       0.74345216 </v>
   <v>       0.19645176       0.48882032       0.50746780 </v>
   <v>       0.94191978       0.42456348       0.77973667 </v>
   <v>       0.77162908       0.29521504       0.36285431 </v>
   <v>       0.70349156       0.51189027       0.81975722 </v>
   <v>       0.34639853       0.37807312       0.26699174 </v>
   <v>       0.84605040       0.01346085       0.95974416 </v>
   <v>       0.44915380       0.75615068       0.23756270 </v>
   <v>       0.46281528       0.52357455       0.04741615 </v>
   <v>       0.69211711       0.08530441       0.64931006 </v>
   <v>       0.54836137       0.30626996       0.74340462 </v>
   <v>       0.21204918       0.30244031       0.80291850 </v>
   <v>       0.52549293       0.23538926       0.48105939 </v>
   <v>       0.36099164       0.25999254       0.07467308 </v>
   <v>       0.18782792       0.66798599       0.25030495 </v>
   <v>       0.65931585       0.71920402       0.99047577 </v>
   <v>       0.34870697       0.31641897       0.53762655 </v>
   <v>       0.63644675       0.88174403       0.16690928 </v>
   <v>       0.75506142       0.50633919       0.58698162 </v>
   <v>       0.50565381       0.00749425       0.42815446 </v>
   <v>       0.62203253       0.85857736       0.76778452 </v>
   <v>       0.05718701       0.78819028       0.51083745 </v>
   <v>       0.12177417       0.96151651       0.10810565 </v>
   <v>       0.95328266       0.53871586       0.01014843 </v>
   <v>       0.50458976       0.10794234       0.91315042 </v>
   <v>       0.88675671       0.21872901       0.75616596 </v>
   <v>       0.69778026       0.67671884       0.32237933 </v>
   <v>       0.77392630       0.04456704       0.23452840 </v>
   <v>       0.83907730       0.19831395       0.13086610 </v>
   <v>       0.18169603       0.53005938       0.07041715 </v>
   <v>       0.89303305       0.74375435       0.90343795 </v>
   <v>       0.45364561       0.55629674       0.78451433 </v>
   <v>       0.72380635       0.23141431       0.93093864 </v>
   <v>       0.19489282       0.92100183       0.68798444 </v>
   <v>       0.22324749       0.53692368       0.83543384 </v>
   <v>       0.59314273       0.46956044       0.29431151 </v>
   <v>       0.91481375       0.10518473       0.50658497 </v>
   <v>       0.58311823       0.78632603       0.54308854 </v>
   <v>       0.02033035       0.32235197       0.40129120 </v>
   <v>       0.10318303       0.66095414       0.52145838 </v>
   <v>       0.95234554       0.75147321       0.77964049 </v>
   <v>       0.66157450       0.76846438       0.23145143 </v>
   <v>       0.46320737       0.49144093       0.25446047 </v>
   <v>       0.20781989       0.02467235       0.60308241 </v>
   <v>       0.44955650       0.53679925       0.64334726 </v>
   <v>       0.17556560       0.03752627       0.21555457 </v>
   <v>       0.55665175       0.88435769       0.45764789 </v>
   <v>       0.93075520       0.85255634       0.95278080 </v>
   <v>       0.05487445       0.80742353       0.38021037 </v>
   <v>       0.74621773       0.18662104       0.23649525 </v>
   <v>       0.09391873       0.25542775       0.32034308 </v>
   <v>       0.23132048       0.43133933       0.11311928 </v>
   <v>       0.03377372       0.10194254       0.46246370 </v>
   <v>       0.33927656       0.47577205       0.80280639 </v>
   <v>       0.64197415       0.28285488       0.52042112 </v>
   <v>       0.47571714       0.72132821       0.54655233 </v>
   <v>       0.55031612       0.10251609       0.56123724 </v>
   <v>       0.64464748       0.33105526       0.90599523 </v>
   <v>       0.64127826       0.99158031       0.21794317 </v>
   <v>       0.18791500       0.59558508       0.35445790 </v>
   <v>       0.64997917       0.12711589       0.90778004 </v>
   <v>       0.58605038       0.35710972       0.36038308 </v>
   <v>       0.88310152       0.24155431       0.48972386 </v>
   <v>       0.64053900       0.45939252       0.66137891 </v>
   <v>       0.48012922       0.17133609       0.02424077 </v>
   <v>       0.53559484       0.96564150       0.75747932 </v>
   <v>       0.61964222       0.58934646       0.29521117 </v>
   <v>       0.96610130       0.21050479       0.10069054 </v>
   <v>       0.76632390       0.52693231       0.46429161 </v>
   <v>       0.53426580       0.13341685       0.37162624 </v>
   <v>       0.14755576       0.98404739       0.79086548 </v>
   <v>       0.97652388       0.65598107       0.95037771 </v>
   <v>       0.24660523       0.31982090       0.63024829 </v>
   <v>       0.68528987       0.40531270       0.20990956 </v>
   <v>       0.92095978       0.39587277       0.34264675 </v>
   <v>       0.77747331       0.26235494       0.04665268 </v>
   <v>       0.25767584       0.60074817       0.16895911 </v>
   <v>       0.42699321       0.68153406       0.78388131 </v>
   <v>       0.85244026       0.46980359       0.94539550 </v>
   <v>       0.29098357       0.73384865       0.27722005 </v>
   <v>       0.07158235       0.47778709       0.04992430 </v>
   <v>       0.74928532       0.90558228       0.78998955 </v>
   <v>       0.35979881       0.20456114       0.44993709 </v>
   <v>       0.51302271       0.86699531       0.13814690 </v>
   <v>       0.35726695       0.39553394       0.44102983 </v>
   <v>       0.07744618       0.38449071       0.49801456 </v>
   <v>       0.27439482       0.83580057       0.76497787 </v>
   <v>       0.88818174       0.55330459       0.12906053 </v>
   <v>       0.84158613       0.00331493       0.32291226 </v>
   <v>       0.70581163       0.84061832       0.05977949 </v>
   <v>       0.82523666       0.02944274       0.54132270 </v>
   <v>       0.81733202       0.65480091       0.28671539 </v>
   <v>       0.82260689       0.16169330       0.83766519 </v>
   <v>       0.54240958       0.57869382       0.88570542 </v>
   <v>       0.59630668       0.78377252       0.86834448 </v>
   <v>       0.47479487       0.32249614       0.56845736 </v>
   <v>       0.30888247       0.20259473       0.18290687 </v>
   <v>       0.00498957       0.94484166       0.15742726 </v>
   <v>       0.61059912       0.63129982       0.07315956 </v>
   <v>       0.20131351       0.63232557       0.75822093 </v>
   <v>       0.08998263       0.01560680       0.98834035 </v>
   <v>       0.18966155       0.82786835       0.58513834 </v>
   <v>       0.43525917       0.37143514       0.09995650 </v>
   <v>       0.07750654       0.69666180       0.17323771 </v>
   <v>       0.00872834       0.25760058       0.79490039 </v>
   <v>       0.92811261       0.11913800       0.67057599 </v>
   <v>       0.77656081       0.31781259       0.75731796 </v>
   <v>       0.41235769       0.99314838       0.93819115 </v>
   <v>       0.21801692       0.84585549       0.07572222 </v>
   <v>       0.45929344       0.15646356       0.79614952 </v>
   <v>       0.93476750       0.83181087       0.55355212 </v>
   <v>       0.77267988       0.68298970       0.91796438 </v>
   <v>       0.64240022       0.70378260       0.43676481 </v>
   <v>       0.82422251       0.05201413       0.11441429 </v>
   <v>       0.23881592       0.25975389       0.97294461 </v>
   <v>       0.25626551       0.58267855       0.96081697 </v>
   <v>       0.40309912       0.93785001       0.35144470 </v>
   <v>       0.63538996       0.79404159       0.65556521 </v>
   <v>       0.83771268       0.54186655       0.68841320 </v>
   <v>       0.11080122       0.45992985       0.83412938 </v>
  </varray>
  <varray name="velocities" >
   <v>       0.00000000       0.00000000       0.00000000 </v>
   <v>       0.00000000       0.00000000       0.00000000 </v>
   <v>       0.00000000       0.00000000       0.00000000 </v>
   <v>       0.00000000       0.00000000       0.00000000 </v>
   <v>       0.00000000       0.00000000       0.00000000 </v>
   <v>       0.00000000       0.00000000       0.00000000 </v>
   <v>       0.00000000       0.00000000       0.00000000 </v>
   <v>       0.00000000       0.00000000       0.00000000 </v>
   <v>       0.00000000       0.00000000       0.00000000 </v>
   <v>       0.00000000       0.00000000       0.00000000 </v>
   <v>       0.00000000       0.00000000       0.00000000 </v>
   <v>       0.00000000       0.00000000       0.00000000 </v>
   <v>       0.00000000       0.00000000       0.00000000 </v>
   <v>       0.00000000       0.00000000       0.00000000 </v>
   <v>       0.00000000       0.00000000       0.00000000 </v>
   <v>       0.00000000       0.00000000       0.00000000 </v>
   <v>       0.00000000       0.00000000       0.00000000 </v>
   <v>       0.00000000       0.00000000       0.00000000 </v>
   <v>       0.00000000       0.00000000       0.00000000 </v>
   <v>       0.00000000       0.00000000       0.00000000 </v>
   <v>       0.00000000       0.00000000       0.00000000 </v>
   <v>       0.00000000       0.00000000       0.00000000 </v>
   <v>       0.00000000       0.00000000       0.00000000 </v>
   <v>       0.00000000       0.00000000       0.00000000 </v>
   <v>       0.00000000       0.00000000       0.00000000 </v>
   <v>       0.00000000       0.00000000       0.00000000 </v>
   <v>       0.00000000       0.00000000       0.00000000 </v>
   <v>       0.00000000       0.00000000       0.00000000 </v>
   <v>       0.00000000       0.00000000       0.00000000 </v>
   <v>       0.00000000       0.00000000       0.00000000 </v>
   <v>       0.00000000       0.00000000       0.00000000 </v>
   <v>       0.00000000       0.00000000       0.00000000 </v>
   <v>       0.00000000       0.00000000       0.00000000 </v>
   <v>       0.00000000       0.00000000       0.00000000 </v>
   <v>       0.00000000       0.00000000       0.00000000 </v>
   <v>       0.00000000       0.00000000       0.00000000 </v>
   <v>       0.00000000       0.00000000       0.00000000 </v>
   <v>       0.00000000       0.00000000       0.00000000 </v>
   <v>       0.00000000       0.00000000       0.00000000 </v>
   <v>       0.00000000       0.00000000       0.00000000 </v>
   <v>       0.00000000       0.00000000       0.00000000 </v>
   <v>       0.00000000       0.00000000       0.00000000 </v>
   <v>       0.00000000       0.00000000       0.00000000 </v>
   <v>       0.00000000       0.00000000       0.00000000 </v>
   <v>       0.00000000       0.00000000       0.00000000 </v>
   <v>       0.00000000       0.00000000       0.00000000 </v>
   <v>       0.00000000       0.00000000       0.00000000 </v>
   <v>       0.00000000       0.00000000       0.00000000 </v>
   <v>       0.00000000       0.00000000       0.00000000 </v>
   <v>       0.00000000       0.00000000       0.00000000 </v>
   <v>       0.00000000       0.00000000       0.00000000 </v>
   <v>       0.00000000       0.00000000       0.00000000 </v>
   <v>       0.00000000       0.00000000       0.00000000 </v>
   <v>       0.00000000       0.00000000       0.00000000 </v>
   <v>       0.00000000       0.00000000       0.00000000 </v>
   <v>       0.00000000       0.00000000       0.00000000 </v>
   <v>       0.00000000       0.00000000       0.00000000 </v>
   <v>       0.00000000       0.00000000       0.00000000 </v>
   <v>       0.00000000       0.00000000       0.00000000 </v>
   <v>       0.00000000       0.00000000       0.00000000 </v>
   <v>       0.00000000       0.00000000       0.00000000 </v>
   <v>       0.00000000       0.00000000       0.00000000 </v>
   <v>       0.00000000       0.00000000       0.00000000 </v>
   <v>       0.00000000       0.00000000       0.00000000 </v>
   <v>       0.00000000       0.00000000       0.00000000 </v>
   <v>       0.00000000       0.00000000       0.00000000 </v>
   <v>       0.00000000       0.00000000       0.00000000 </v>
   <v>       0.00000000       0.00000000       0.00000000 </v>
   <v>       0.00000000       0.00000000       0.00000000 </v>
   <v>       0.00000000       0.00000000       0.00000000 </v>
   <v>       0.00000000       0.00000000       0.00000000 </v>
   <v>       0.00000000       0.00000000       0.00000000 </v>
   <v>       0.00000000       0.00000000       0.00000000 </v>
   <v>       0.00000000       0.00000000       0.00000000 </v>
   <v>       0.00000000       0.00000000       0.00000000 </v>
   <v>       0.00000000       0.00000000       0.00000000 </v>
   <v>       0.00000000       0.00000000       0.00000000 </v>
   <v>       0.00000000       0.00000000       0.00000000 </v>
   <v>       0.00000000       0.00000000       0.00000000 </v>
   <v>       0.00000000       0.00000000       0.00000000 </v>
   <v>       0.00000000       0.00000000       0.00000000 </v>
   <v>       0.00000000       0.00000000       0.00000000 </v>
   <v>       0.00000000       0.00000000       0.00000000 </v>
   <v>       0.00000000       0.00000000       0.00000000 </v>
   <v>       0.00000000       0.00000000       0.00000000 </v>
   <v>       0.00000000       0.00000000       0.00000000 </v>
   <v>       0.00000000       0.00000000       0.00000000 </v>
   <v>       0.00000000       0.00000000       0.00000000 </v>
   <v>       0.00000000       0.00000000       0.00000000 </v>
   <v>       0.00000000       0.00000000       0.00000000 </v>
   <v>       0.00000000       0.00000000       0.00000000 </v>
   <v>       0.00000000       0.00000000       0.00000000 </v>
   <v>       0.00000000       0.00000000       0.00000000 </v>
   <v>       0.00000000       0.00000000       0.00000000 </v>
   <v>       0.00000000       0.00000000       0.00000000 </v>
   <v>       0.00000000       0.00000000       0.00000000 </v>
   <v>       0.00000000       0.00000000       0.00000000 </v>
   <v>       0.00000000       0.00000000       0.00000000 </v>
   <v>       0.00000000       0.00000000       0.00000000 </v>
   <v>       0.00000000       0.00000000       0.00000000 </v>
   <v>       0.00000000       0.00000000       0.00000000 </v>
   <v>       0.00000000       0.00000000       0.00000000 </v>
   <v>       0.00000000       0.00000000       0.00000000 </v>
   <v>       0.00000000       0.00000000       0.00000000 </v>
   <v>       0.00000000       0.00000000       0.00000000 </v>
   <v>       0.00000000       0.00000000       0.00000000 </v>
   <v>       0.00000000       0.00000000       0.00000000 </v>
   <v>       0.00000000       0.00000000       0.00000000 </v>
   <v>       0.00000000       0.00000000       0.00000000 </v>
   <v>       0.00000000       0.00000000       0.00000000 </v>
   <v>       0.00000000       0.00000000       0.00000000 </v>
   <v>       0.00000000       0.00000000       0.00000000 </v>
   <v>       0.00000000       0.00000000       0.00000000 </v>
   <v>       0.00000000       0.00000000       0.00000000 </v>
   <v>       0.00000000       0.00000000       0.00000000 </v>
   <v>       0.00000000       0.00000000       0.00000000 </v>
   <v>       0.00000000       0.00000000       0.00000000 </v>
   <v>       0.00000000       0.00000000       0.00000000 </v>
   <v>       0.00000000       0.00000000       0.00000000 </v>
   <v>       0.00000000       0.00000000       0.00000000 </v>
   <v>       0.00000000       0.00000000       0.00000000 </v>
   <v>       0.00000000       0.00000000       0.00000000 </v>
   <v>       0.00000000       0.00000000       0.00000000 </v>
   <v>       0.00000000       0.00000000       0.00000000 </v>
   <v>       0.00000000       0.00000000       0.00000000 </v>
   <v>       0.00000000       0.00000000       0.00000000 </v>
   <v>       0.00000000       0.00000000       0.00000000 </v>
   <v>       0.00000000       0.00000000       0.00000000 </v>
   <v>       0.00000000       0.00000000       0.00000000 </v>
   <v>       0.00000000       0.00000000       0.00000000 </v>
   <v>       0.00000000       0.00000000       0.00000000 </v>
   <v>       0.00000000       0.00000000       0.00000000 </v>
   <v>       0.00000000       0.00000000       0.00000000 </v>
   <v>       0.00000000       0.00000000       0.00000000 </v>
   <v>       0.00000000       0.00000000       0.00000000 </v>
  </varray>
 </structure>
 <calculation>
  <scstep>
   <time name="dav">   41.57   41.75</time>
   <time name="total">   42.00   42.20</time>
   <energy>
    <i name="alphaZ">   2431.37857233 </i>
    <i name="ewald"> -42738.91045331 </i>
    <i name="hartreedc"> -19639.19672338 </i>
    <i name="XCdc">   3150.66391091 </i>
    <i name="pawpsdc">  50594.51003143 </i>
    <i name="pawaedc"> -49994.65612350 </i>
    <i name="eentropy">     -0.04361990 </i>
    <i name="bandstr">    631.36496045 </i>
    <i name="atom">  64968.54023382 </i>
    <i name="e_fr_energy">   9403.65078885 </i>
    <i name="e_wo_entrp">   9403.69440875 </i>
    <i name="e_0_energy">   9403.67259880 </i>
   </energy>
  </scstep>
  <scstep>
   <time name="dav">   47.80   48.09</time>
   <time name="total">   47.80   48.09</time>
   <energy>
    <i name="e_fr_energy">     -3.28597028 </i>
    <i name="e_wo_entrp">     -3.28597028 </i>
    <i name="e_0_energy">     -3.28597028 </i>
   </energy>
  </scstep>
  <scstep>
   <time name="dav">   48.64   48.90</time>
   <time name="total">   48.64   48.90</time>
   <energy>
    <i name="e_fr_energy">  -1018.96623324 </i>
    <i name="e_wo_entrp">  -1018.96623324 </i>
    <i name="e_0_energy">  -1018.96623324 </i>
   </energy>
  </scstep>
  <scstep>
   <time name="dav">   52.62   52.89</time>
   <time name="total">   52.62   52.89</time>
   <energy>
    <i name="e_fr_energy">  -1069.52700388 </i>
    <i name="e_wo_entrp">  -1069.52700388 </i>
    <i name="e_0_energy">  -1069.52700388 </i>
   </energy>
  </scstep>
  <scstep>
   <time name="dav">   65.12   66.82</time>
   <time name="total">   66.83   68.59</time>
   <energy>
    <i name="e_fr_energy">  -1075.44209721 </i>
    <i name="e_wo_entrp">  -1075.44209721 </i>
    <i name="e_0_energy">  -1075.44209721 </i>
   </energy>
  </scstep>
  <scstep>
   <time name="dav">   50.58   50.87</time>
   <time name="total">   52.79   53.09</time>
   <energy>
    <i name="e_fr_energy">   -920.27736644 </i>
    <i name="e_wo_entrp">   -920.27736644 </i>
    <i name="e_0_energy">   -920.27736644 </i>
   </energy>
  </scstep>
  <scstep>
   <time name="dav">   51.57   51.83</time>
   <time name="total">   53.87   54.14</time>
   <energy>
    <i name="e_fr_energy">   -921.59857283 </i>
    <i name="e_wo_entrp">   -921.59857283 </i>
    <i name="e_0_energy">   -921.59857283 </i>
   </energy>
  </scstep>
  <scstep>
   <time name="dav">   50.30   50.52</time>
   <time name="total">   52.52   52.81</time>
   <energy>
    <i name="e_fr_energy">   -919.81633513 </i>
    <i name="e_wo_entrp">   -919.81617669 </i>
    <i name="e_0_energy">   -919.81625591 </i>
   </energy>
  </scstep>
  <scstep>
   <time name="dav">   50.55   50.81</time>
   <time name="total">   52.76   53.04</time>
   <energy>
    <i name="e_fr_energy">   -919.47246449 </i>
    <i name="e_wo_entrp">   -919.45231773 </i>
    <i name="e_0_energy">   -919.46239111 </i>
   </energy>
  </scstep>
  <scstep>
   <time name="dav">   50.11   50.35</time>
   <time name="total">   52.30   52.55</time>
   <energy>
    <i name="e_fr_energy">   -919.64182111 </i>
    <i name="e_wo_entrp">   -919.64182111 </i>
    <i name="e_0_energy">   -919.64182111 </i>
   </energy>
  </scstep>
  <scstep>
   <time name="dav">   61.16   61.93</time>
   <time name="total">   63.33   64.12</time>
   <energy>
    <i name="e_fr_energy">   -919.54102088 </i>
    <i name="e_wo_entrp">   -919.54088165 </i>
    <i name="e_0_energy">   -919.54095126 </i>
   </energy>
  </scstep>
  <scstep>
   <time name="dav">   53.80   54.35</time>
   <time name="total">   56.01   56.58</time>
   <energy>
    <i name="e_fr_energy">   -919.53996501 </i>
    <i name="e_wo_entrp">   -919.52512649 </i>
    <i name="e_0_energy">   -919.53254575 </i>
   </energy>
  </scstep>
  <scstep>
   <time name="dav">   51.48   51.76</time>
   <time name="total">   53.67   53.97</time>
   <energy>
    <i name="e_fr_energy">   -919.54850395 </i>
    <i name="e_wo_entrp">   -919.54425980 </i>
    <i name="e_0_energy">   -919.54638188 </i>
   </energy>
  </scstep>
  <scstep>
   <time name="dav">   47.65   47.91</time>
   <time name="total">   49.86   50.14</time>
   <energy>
    <i name="e_fr_energy">   -919.54551199 </i>
    <i name="e_wo_entrp">   -919.53519080 </i>
    <i name="e_0_energy">   -919.54035139 </i>
   </energy>
  </scstep>
  <scstep>
   <time name="dav">   57.09   57.39</time>
   <time name="total">   59.29   59.61</time>
   <energy>
    <i name="e_fr_energy">   -919.54548836 </i>
    <i name="e_wo_entrp">   -919.53324408 </i>
    <i name="e_0_energy">   -919.53936622 </i>
   </energy>
  </scstep>
  <scstep>
   <time name="dav">   50.64   50.87</time>
   <time name="total">   52.83   53.09</time>
   <energy>
    <i name="e_fr_energy">   -919.54565297 </i>
    <i name="e_wo_entrp">   -919.53251984 </i>
    <i name="e_0_energy">   -919.53908641 </i>
   </energy>
  </scstep>
  <scstep>
   <time name="dav">   46.89   47.08</time>
   <time name="total">   49.11   49.32</time>
   <energy>
    <i name="e_fr_energy">   -919.54572312 </i>
    <i name="e_wo_entrp">   -919.53249676 </i>
    <i name="e_0_energy">   -919.53910994 </i>
   </energy>
  </scstep>
  <scstep>
   <time name="dav">   55.99   56.26</time>
   <time name="total">   58.23   58.51</time>
   <energy>
    <i name="e_fr_energy">   -919.54571964 </i>
    <i name="e_wo_entrp">   -919.53315264 </i>
    <i name="e_0_energy">   -919.53943614 </i>
   </energy>
  </scstep>
  <scstep>
   <time name="dav">   51.69   51.89</time>
   <time name="total">   53.96   54.18</time>
   <energy>
    <i name="e_fr_energy">   -919.54571310 </i>
    <i name="e_wo_entrp">   -919.53292193 </i>
    <i name="e_0_energy">   -919.53931751 </i>
   </energy>
  </scstep>
  <scstep>
   <time name="dav">   45.84   46.05</time>
   <time name="total">   48.06   48.31</time>
   <energy>
    <i name="e_fr_energy">   -919.54571339 </i>
    <i name="e_wo_entrp">   -919.53287274 </i>
    <i name="e_0_energy">   -919.53929306 </i>
   </energy>
  </scstep>
  <scstep>
   <time name="dav">   41.67   41.85</time>
   <time name="total">   42.12   42.31</time>
   <energy>
    <i name="alphaZ">   2431.37857233 </i>
    <i name="ewald"> -42738.91045331 </i>
    <i name="hartreedc"> -21301.39865524 </i>
    <i name="XCdc">   3254.00083613 </i>
    <i name="pawpsdc">  89625.85189799 </i>
    <i name="pawaedc"> -89287.64661817 </i>
    <i name="eentropy">     -0.01284836 </i>
    <i name="bandstr">  -7871.34867876 </i>
    <i name="atom">  64968.54023382 </i>
    <i name="e_fr_energy">   -919.54571356 </i>
    <i name="e_wo_entrp">   -919.53286521 </i>
    <i name="e_0_energy">   -919.53928939 </i>
   </energy>
  </scstep>
  <structure>
   <crystal>
    <varray name="basis" >
     <v>      12.52607000       0.00000000       0.00000000 </v>
     <v>       0.00000000      12.52607000       0.00000000 </v>
     <v>       0.00000000       0.00000000      12.52607000 </v>
    </varray>
    <i name="volume">   1965.37081690 </i>
    <varray name="rec_basis" >
     <v>       0.07983350       0.00000000       0.00000000 </v>
     <v>       0.00000000       0.07983350       0.00000000 </v>
     <v>       0.00000000       0.00000000       0.07983350 </v>
    </varray>
   </crystal>
   <varray name="positions" >
    <v>       0.57110463       0.23201066       0.19831862 </v>
    <v>       0.22930758       0.88248054       0.40147946 </v>
    <v>       0.14888679       0.27432398       0.12134952 </v>
    <v>       0.02563394       0.64803342       0.68002717 </v>
    <v>       0.13584088       0.74414074       0.97646175 </v>
    <v>       0.93884574       0.56290352       0.40630750 </v>
    <v>       0.99977145       0.02388570       0.29279628 </v>
    <v>       0.88810508       0.76236499       0.17097564 </v>
    <v>       0.49153446       0.58262035       0.47560432 </v>
    <v>       0.43124188       0.83866139       0.88591929 </v>
    <v>       0.16216400       0.16097569       0.54405775 </v>
    <v>       0.33817659       0.71241922       0.63622498 </v>
    <v>       0.74026899       0.50574787       0.09055799 </v>
    <v>       0.89753727       0.92138055       0.68672194 </v>
    <v>       0.34072308       0.98680712       0.12675373 </v>
    <v>       0.36888510       0.00777645       0.74345216 </v>
    <v>       0.19645176       0.48882032       0.50746780 </v>
    <v>       0.94191978       0.42456348       0.77973667 </v>
    <v>       0.77162908       0.29521504       0.36285431 </v>
    <v>       0.70349156       0.51189027       0.81975722 </v>
    <v>       0.34639853       0.37807312       0.26699174 </v>
    <v>       0.84605040       0.01346085       0.95974416 </v>
    <v>       0.44915380       0.75615068       0.23756270 </v>
    <v>       0.46281528       0.52357455       0.04741615 </v>
    <v>       0.69211711       0.08530441       0.64931006 </v>
    <v>       0.54836137       0.30626996       0.74340462 </v>
    <v>       0.21204918       0.30244031       0.80291850 </v>
    <v>       0.52549293       0.23538926       0.48105939 </v>
    <v>       0.36099164       0.25999254       0.07467308 </v>
    <v>       0.18782792       0.66798599       0.25030495 </v>
    <v>       0.65931585       0.71920402       0.99047577 </v>
    <v>       0.34870697       0.31641897       0.53762655 </v>
    <v>       0.63644675       0.88174403       0.16690928 </v>
    <v>       0.75506142       0.50633919       0.58698162 </v>
    <v>       0.50565381       0.00749425       0.42815446 </v>
    <v>       0.62203253       0.85857736       0.76778452 </v>
    <v>       0.05718701       0.78819028       0.51083745 </v>
    <v>       0.12177417       0.96151651       0.10810565 </v>
    <v>       0.95328266       0.53871586       0.01014843 </v>
    <v>       0.50458976       0.10794234       0.91315042 </v>
    <v>       0.88675671       0.21872901       0.75616596 </v>
    <v>       0.69778026       0.67671884       0.32237933 </v>
    <v>       0.77392630       0.04456704       0.23452840 </v>
    <v>       0.83907730       0.19831395       0.13086610 </v>
    <v>       0.18169603       0.53005938       0.07041715 </v>
    <v>       0.89303305       0.74375435       0.90343795 </v>
    <v>       0.45364561       0.55629674       0.78451433 </v>
    <v>       0.72380635       0.23141431       0.93093864 </v>
    <v>       0.19489282       0.92100183       0.68798444 </v>
    <v>       0.22324749       0.53692368       0.83543384 </v>
    <v>       0.59314273       0.46956044       0.29431151 </v>
    <v>       0.91481375       0.10518473       0.50658497 </v>
    <v>       0.58311823       0.78632603       0.54308854 </v>
    <v>       0.02033035       0.32235197       0.40129120 </v>
    <v>       0.10318303       0.66095414       0.52145838 </v>
    <v>       0.95234554       0.75147321       0.77964049 </v>
    <v>       0.66157450       0.76846438       0.23145143 </v>
    <v>       0.46320737       0.49144093       0.25446047 </v>
    <v>       0.20781989       0.02467235       0.60308241 </v>
    <v>       0.44955650       0.53679925       0.64334726 </v>
    <v>       0.17556560       0.03752627       0.21555457 </v>
    <v>       0.55665175       0.88435769       0.45764789 </v>
    <v>       0.93075520       0.85255634       0.95278080 </v>
    <v>       0.05487445       0.80742353       0.38021037 </v>
    <v>       0.74621773       0.18662104       0.23649525 </v>
    <v>       0.09391873       0.25542775       0.32034308 </v>
    <v>       0.23132048       0.43133933       0.11311928 </v>
    <v>       0.03377372       0.10194254       0.46246370 </v>
    <v>       0.33927656       0.47577205       0.80280639 </v>
    <v>       0.64197415       0.28285488       0.52042112 </v>
    <v>       0.47571714       0.72132821       0.54655233 </v>
    <v>       0.55031612       0.10251609       0.56123724 </v>
    <v>       0.64464748       0.33105526       0.90599523 </v>
    <v>       0.64127826       0.99158031       0.21794317 </v>
    <v>       0.18791500       0.59558508       0.35445790 </v>
    <v>       0.64997917       0.12711589       0.90778004 </v>
    <v>       0.58605038       0.35710972       0.36038308 </v>
    <v>       0.88310152       0.24155431       0.48972386 </v>
    <v>       0.64053900       0.45939252       0.66137891 </v>
    <v>       0.48012922       0.17133609       0.02424077 </v>
    <v>       0.53559484       0.96564150       0.75747932 </v>
    <v>       0.61964222       0.58934646       0.29521117 </v>
    <v>       0.96610130       0.21050479       0.10069054 </v>
    <v>       0.76632390       0.52693231       0.46429161 </v>
    <v>       0.53426580       0.13341685       0.37162624 </v>
    <v>       0.14755576       0.98404739       0.79086548 </v>
    <v>       0.97652388       0.65598107       0.95037771 </v>
    <v>       0.24660523       0.31982090       0.63024829 </v>
    <v>       0.68528987       0.40531270       0.20990956 </v>
    <v>       0.92095978       0.39587277       0.34264675 </v>
    <v>       0.77747331       0.26235494       0.04665268 </v>
    <v>       0.25767584       0.60074817       0.16895911 </v>
    <v>       0.42699321       0.68153406       0.78388131 </v>
    <v>       0.85244026       0.46980359       0.94539550 </v>
    <v>       0.29098357       0.73384865       0.27722005 </v>
    <v>       0.07158235       0.47778709       0.04992430 </v>
    <v>       0.74928532       0.90558228       0.78998955 </v>
    <v>       0.35979881       0.20456114       0.44993709 </v>
    <v>       0.51302271       0.86699531       0.13814690 </v>
    <v>       0.35726695       0.39553394       0.44102983 </v>
    <v>       0.07744618       0.38449071       0.49801456 </v>
    <v>       0.27439482       0.83580057       0.76497787 </v>
    <v>       0.88818174       0.55330459       0.12906053 </v>
    <v>       0.84158613       0.00331493       0.32291226 </v>
    <v>       0.70581163       0.84061832       0.05977949 </v>
    <v>       0.82523666       0.02944274       0.54132270 </v>
    <v>       0.81733202       0.65480091       0.28671539 </v>
    <v>       0.82260689       0.16169330       0.83766519 </v>
    <v>       0.54240958       0.57869382       0.88570542 </v>
    <v>       0.59630668       0.78377252       0.86834448 </v>
    <v>       0.47479487       0.32249614       0.56845736 </v>
    <v>       0.30888247       0.20259473       0.18290687 </v>
    <v>       0.00498957       0.94484166       0.15742726 </v>
    <v>       0.61059912       0.63129982       0.07315956 </v>
    <v>       0.20131351       0.63232557       0.75822093 </v>
    <v>       0.08998263       0.01560680       0.98834035 </v>
    <v>       0.18966155       0.82786835       0.58513834 </v>
    <v>       0.43525917       0.37143514       0.09995650 </v>
    <v>       0.07750654       0.69666180       0.17323771 </v>
    <v>       0.00872834       0.25760058       0.79490039 </v>
    <v>       0.92811261       0.11913800       0.67057599 </v>
    <v>       0.77656081       0.31781259       0.75731796 </v>
    <v>       0.41235769       0.99314838       0.93819115 </v>
    <v>       0.21801692       0.84585549       0.07572222 </v>
    <v>       0.45929344       0.15646356       0.79614952 </v>
    <v>       0.93476750       0.83181087       0.55355212 </v>
    <v>       0.77267988       0.68298970       0.91796438 </v>
    <v>       0.64240022       0.70378260       0.43676481 </v>
    <v>       0.82422251       0.05201413       0.11441429 </v>
    <v>       0.23881592       0.25975389       0.97294461 </v>
    <v>       0.25626551       0.58267855       0.96081697 </v>
    <v>       0.40309912       0.93785001       0.35144470 </v>
    <v>       0.63538996       0.79404159       0.65556521 </v>
    <v>       0.83771268       0.54186655       0.68841320 </v>
    <v>       0.11080122       0.45992985       0.83412938 </v>
   </varray>
  </structure>
  <varray name="forces" >
   <v>      -0.42211320       0.89605516       0.30356359 </v>
   <v>       0.89223874       0.32617120      -1.46423840 </v>
   <v>      -2.97947993      -1.01743104       0.75406603 </v>
   <v>       0.62737162      -0.83228404       0.87332155 </v>
   <v>      -0.03292433       1.39893634      -0.52846149 </v>
   <v>       0.50475061       0.11578591      -1.67512148 </v>
   <v>       4.08261270       1.43140622       1.40987695 </v>
   <v>       2.56143887      -0.05455002      -0.32734888 </v>
   <v>       0.01768273      -4.33418153      -0.36270630 </v>
   <v>      -2.01289282      -2.50876552       0.13015763 </v>
   <v>       0.76120684       2.98309640      -0.48020148 </v>
   <v>      -2.59653212      -0.42871093       2.64503977 </v>
   <v>      -0.24646669      -1.02984535      -0.87103683 </v>
   <v>       0.47408920       0.50303221       1.35633300 </v>
   <v>      -0.08188505       0.31385532       0.29645259 </v>
   <v>      -0.20103584       2.11614709       0.08313574 </v>
   <v>       1.64380599       2.21338086      -0.89026167 </v>
   <v>       0.27225947      -0.67725159       1.07478690 </v>
   <v>      -0.69830349       2.53157517       2.94597583 </v>
   <v>       0.59627884      -0.89778103       0.58348594 </v>
   <v>      -2.21213673      -0.04439039       0.64898367 </v>
   <v>       1.94063397      -2.02609000      -3.22191855 </v>
   <v>      -0.60613202      -1.42982565       1.65969135 </v>
   <v>      -0.97847865       0.90611445       0.06075992 </v>
   <v>       0.68916860       0.34225050       0.12618625 </v>
   <v>       0.85648529       0.62709674      -1.30888830 </v>
   <v>      -1.38151041      -0.66313951       0.96839788 </v>
   <v>       2.12298294      -2.46712942       0.59274794 </v>
   <v>      -1.08944678      -0.05515287      -3.33340241 </v>
   <v>      -2.94675424      -0.25527586      -0.24933175 </v>
   <v>       1.02044104       2.75977742      -2.22749742 </v>
   <v>      -1.04136019      -2.65514093      -0.38830357 </v>
   <v>      -2.07320285      -6.51822638      -2.76265872 </v>
   <v>      -3.09459786      -2.10983009       5.07770306 </v>
   <v>      -1.91981515       0.79808402      -0.35222245 </v>
   <v>       3.85907549       4.40758887       0.70138339 </v>
   <v>      -1.00925077      -0.62477296      -1.59335257 </v>
   <v>       0.07907560       1.10912853      -2.43139844 </v>
   <v>      -2.39620533      -1.74757231       3.34488643 </v>
   <v>      -1.52470369      -1.16489629      -1.13765630 </v>
   <v>       5.27458663       2.54809669      -5.17545705 </v>
   <v>       3.43096472       4.68819330       0.74174139 </v>
   <v>      -5.21835013       1.20500234      -1.86816780 </v>
   <v>       5.83679577      -1.58873960       0.38992254 </v>
   <v>       4.78501252       4.56045103       1.74884123 </v>
   <v>       1.29480114       1.26018083      -4.42921506 </v>
   <v>      -1.26922357       2.34289906      -3.34414619 </v>
   <v>      -0.35010274       2.20662131      -4.14499230 </v>
   <v>      -1.77397422      -0.46645304       1.72577600 </v>
   <v>      -0.78309022      -0.60104709       0.49759208 </v>
   <v>      -2.44617289      -6.90085502      -4.19347218 </v>
   <v>       0.30505945       5.62259063       3.47089828 </v>
   <v>       0.01935389      -0.10260403      -5.64197317 </v>
   <v>      -2.65298045       0.25490200      -1.92502240 </v>
   <v>      -2.49091388       0.30876716       1.29354693 </v>
   <v>      -2.48592443       0.55327322       1.66136502 </v>
   <v>       0.09239885       1.34847683       1.87470284 </v>
   <v>       3.11383559       1.76756169       0.54144255 </v>
   <v>       2.80677414      -2.76359925       0.84249840 </v>
   <v>      -0.15710142      -0.18556990       2.13028325 </v>
   <v>       0.43943009      -2.41549251      -1.87813838 </v>
   <v>       1.38164813       1.98141939       1.25265881 </v>
   <v>      -1.40155654       0.59163298       1.80146493 </v>
   <v>       1.35195693       1.38874262       1.26688920 </v>
   <v>       1.43655583      -2.83459004      -1.72254559 </v>
   <v>      -0.39672582       0.53176456       0.67950712 </v>
   <v>       3.69232323      -7.27834746       2.44006119 </v>
   <v>      -1.43084965      -2.31627722      -0.88762233 </v>
   <v>       0.51887285      -0.45816230       1.32740043 </v>
   <v>       2.06355306      -2.41879613      -0.13592840 </v>
   <v>      -0.37404620       2.33005623       0.09302727 </v>
   <v>      -2.74826479      -1.18631614      -2.56278871 </v>
   <v>      -0.27286633       0.52540039       0.31147536 </v>
   <v>       3.88625040       5.16720812       2.17080670 </v>
   <v>      -1.70682228      -2.49505303       1.82810090 </v>
   <v>      -2.82259730      -2.54276223       1.04708537 </v>
   <v>      -1.69872966      -0.10755160       0.30514714 </v>
   <v>       1.88476244      -2.16251552      -1.16653439 </v>
   <v>       3.40682904       2.28260224      -2.42603077 </v>
   <v>      -1.48160821       1.66782348       2.07975621 </v>
   <v>       2.08054587      -3.73868558       0.09780416 </v>
   <v>      -1.91508096      -1.20254728      -0.55568484 </v>
   <v>      -2.57783771      -0.13765839       2.06763136 </v>
   <v>       0.39186037      -0.25639796       0.62184412 </v>
   <v>       0.45174286      -0.92312219      -0.75563804 </v>
   <v>      -0.68764276      -0.47800542      -1.55436944 </v>
   <v>       0.80755396      -2.84081164       1.40251578 </v>
   <v>       2.38432822      -0.31540666      -2.27327260 </v>
   <v>      -1.62118943       0.50886752       0.93697085 </v>
   <v>       1.69632809      -0.60648060       1.01190594 </v>
   <v>      -2.86654837       0.77007433      -2.81982668 </v>
   <v>      -0.17462500      -1.72714228      -5.63770634 </v>
   <v>      -1.26235528       1.47410767       0.08886956 </v>
   <v>       2.54126716       0.96320095      -0.75027048 </v>
   <v>       1.92579195       5.68082266       2.51286645 </v>
   <v>      -6.16005061       1.14648971      -2.59446575 </v>
   <v>      -2.09139762       0.23783784      -0.71791125 </v>
   <v>       0.66866252       0.75159539       2.71533620 </v>
   <v>      -1.17574015       1.30810017      -1.93976731 </v>
   <v>      -2.38394420       4.48588561      -0.68280768 </v>
   <v>      -2.00853077      -0.98621685       0.12569922 </v>
   <v>       1.98265386       1.94676398      -1.82312057 </v>
   <v>       2.67747692       1.55642711      -2.10199074 </v>
   <v>      -0.48561467      -1.37555328       2.78773691 </v>
   <v>       0.05852521      -0.88208972      -1.47357765 </v>
   <v>      -2.82583535      -2.50737547      -0.71742782 </v>
   <v>       0.41009716       0.21331338       1.97661107 </v>
   <v>      -4.54674166      -4.75569471       8.74038720 </v>
   <v>       0.04967021      -3.75269952      -0.69753360 </v>
   <v>       0.57879404      -1.61698594       3.56864338 </v>
   <v>      -1.30798014      -0.46648974       3.02851515 </v>
   <v>       2.41623246       1.33072477      -1.87364493 </v>
   <v>      -1.81641769      -3.48844349      -0.70835235 </v>
   <v>       0.40959797       1.81854599      -1.39570763 </v>
   <v>      -0.95783095       0.98073963      -1.55238672 </v>
   <v>       1.28464899      -0.55807495       2.50006750 </v>
   <v>      -2.64726526       0.12477467      -1.27603799 </v>
   <v>      -0.57373411      -4.76345276      -0.56794153 </v>
   <v>       0.67933277      -0.43694092       0.50046286 </v>
   <v>      -1.58113743       1.46500502      -0.64443187 </v>
   <v>      -0.96696515       1.21290074      -0.30191089 </v>
   <v>       3.45814331      -0.58293743      -1.52352509 </v>
   <v>       2.28808190       3.59441803      -0.07978334 </v>
   <v>      -0.03395324       3.61923116       1.19903408 </v>
   <v>       0.65711886       0.41516576       1.95092406 </v>
   <v>       3.78414796      -2.46937701      -0.68955329 </v>
   <v>      -1.40536804       0.46958510       1.39491400 </v>
   <v>      -0.05962265       1.82628696       3.40154086 </v>
   <v>      -1.24316018       2.17853263       2.23511946 </v>
   <v>       4.49915721      -0.22638585       1.72151881 </v>
   <v>      -2.19565124      -0.43965403       0.36828247 </v>
   <v>       1.69343040       2.18367714       1.44739393 </v>
   <v>       0.89823837      -0.23177822       0.36272092 </v>
   <v>      -0.09830833       0.14452944      -2.73275867 </v>
   <v>       2.38086600       0.81263184      -0.37479604 </v>
  </varray>
  <varray name="stress" >
   <v>      -9.64537194       1.61501161      -2.54459784 </v>
   <v>       1.61501159      38.88559893       2.65561068 </v>
   <v>      -2.54459776       2.65561071       7.54404007 </v>
  </varray>
  <energy>
   <i name="e_fr_energy">   -919.54571356 </i>
   <i name="e_wo_entrp">   -919.53928939 </i>
   <i name="e_0_energy">     -0.01284836 </i>
  </energy>
  <time name="totalsc"> 1156.58 1164.64</time>
  <eigenvalues>
   <array>
    <dimension dim="1">band</dimension>
    <dimension dim="2">kpoint</dimension>
    <dimension dim="3">spin</dimension>
    <field>eigene</field>
    <field>occ</field>
    <set>
     <set comment="spin 1">
      <set comment="kpoint 1">
       <r>  -38.4649    1.0000 </r>
       <r>  -37.3752    1.0000 </r>
       <r>  -37.3331    1.0000 </r>
       <r>  -37.3123    1.0000 </r>
       <r>  -37.3065    1.0000 </r>
       <r>  -37.2790    1.0000 </r>
       <r>  -37.1632    1.0000 </r>
       <r>  -37.1545    1.0000 </r>
       <r>  -37.1298    1.0000 </r>
       <r>  -37.1297    1.0000 </r>
       <r>  -37.0036    1.0000 </r>
       <r>  -36.8546    1.0000 </r>
       <r>  -36.7583    1.0000 </r>
       <r>  -36.6504    1.0000 </r>
       <r>  -36.6378    1.0000 </r>
       <r>  -36.5787    1.0000 </r>
       <r>  -36.5285    1.0000 </r>
       <r>  -36.4774    1.0000 </r>
       <r>  -36.3146    1.0000 </r>
[...]
       <r>     3.2655    14.5380   857.9508 </r>
       <r>     3.4377     4.4956   858.7248 </r>
       <r>     3.6099     7.5145   860.0187 </r>
       <r>     3.7821    11.4367   861.9879 </r>
       <r>     3.9543     0.2887   862.0376 </r>
       <r>     4.1264    12.7084   864.2257 </r>
       <r>     4.2986     1.6770   864.5144 </r>
       <r>     4.4708     7.6496   865.8316 </r>
       <r>     4.6430     7.0219   867.0406 </r>
       <r>     4.8152     4.1491   867.7550 </r>
       <r>     4.9874    15.2498   870.3807 </r>
       <r>     5.1595     9.6505   872.0424 </r>
       <r>     5.3317    11.0249   873.9406 </r>
       <r>     5.5039    12.4302   876.0809 </r>
       <r>     5.6761    19.7309   879.4782 </r>
       <r>     5.8483    19.0074   882.7509 </r>
       <r>     6.0204    21.5808   886.4667 </r>
       <r>     6.1926    37.8001   892.9751 </r>
       <r>     6.3648    46.9415   901.0576 </r>
       <r>     6.5370    39.7727   907.9057 </r>
       <r>     6.7092    35.2412   913.9736 </r>
       <r>     6.8813    45.7958   921.8587 </r>
       <r>     7.0535    50.2591   930.5124 </r>
       <r>     7.2257    53.0340   939.6438 </r>
       <r>     7.3979    66.5145   951.0964 </r>
       <r>     7.5701    76.5475   964.2764 </r>
       <r>     7.7422    74.6330   977.1268 </r>
       <r>     7.9144    86.1066   991.9527 </r>
       <r>     8.0866    89.8883  1007.4298 </r>
       <r>     8.2588    88.1774  1022.6123 </r>
       <r>     8.4310    83.8290  1037.0460 </r>
       <r>     8.6032    17.1534  1039.9995 </r>
       <r>     8.7753     0.0028  1040.0000 </r>
       <r>     8.9475     0.0000  1040.0000 </r>
       <r>     9.1197     0.0000  1040.0000 </r>
       <r>     9.2919     0.0000  1040.0000 </r>
       <r>     9.4641     0.0000  1040.0000 </r>
       <r>     9.6362     0.0000  1040.0000 </r>
       <r>     9.8084     0.0000  1040.0000 </r>
       <r>     9.9806     0.0000  1040.0000 </r>
       <r>    10.1528     0.0000  1040.0000 </r>
       <r>    10.3250     0.0000  1040.0000 </r>
       <r>    10.4971     0.0000  1040.0000 </r>
       <r>    10.6693     0.0000  1040.0000 </r>
       <r>    10.8415     0.0000  1040.0000 </r>
      </set>
     </set>
    </array>
   </total>
  </dos>
 </calculation>
 <structure name="finalpos" >
  <crystal>
   <varray name="basis" >
    <v>      12.52607000       0.00000000       0.00000000 </v>
    <v>       0.00000000      12.52607000       0.00000000 </v>
    <v>       0.00000000       0.00000000      12.52607000 </v>
   </varray>
   <i name="volume">   1965.37081690 </i>
   <varray name="rec_basis" >
    <v>       0.07983350       0.00000000       0.00000000 </v>
    <v>       0.00000000       0.07983350       0.00000000 </v>
    <v>       0.00000000       0.00000000       0.07983350 </v>
   </varray>
  </crystal>
  <varray name="positions" >
   <v>       0.57110463       0.23201066       0.19831862 </v>
   <v>       0.22930758       0.88248054       0.40147946 </v>
   <v>       0.14888679       0.27432398       0.12134952 </v>
   <v>       0.02563394       0.64803342       0.68002717 </v>
   <v>       0.13584088       0.74414074       0.97646175 </v>
   <v>       0.93884574       0.56290352       0.40630750 </v>
   <v>       0.99977145       0.02388570       0.29279628 </v>
   <v>       0.88810508       0.76236499       0.17097564 </v>
   <v>       0.49153446       0.58262035       0.47560432 </v>
   <v>       0.43124188       0.83866139       0.88591929 </v>
   <v>       0.16216400       0.16097569       0.54405775 </v>
   <v>       0.33817659       0.71241922       0.63622498 </v>
   <v>       0.74026899       0.50574787       0.09055799 </v>
   <v>       0.89753727       0.92138055       0.68672194 </v>
   <v>       0.34072308       0.98680712       0.12675373 </v>
   <v>       0.36888510       0.00777645       0.74345216 </v>
   <v>       0.19645176       0.48882032       0.50746780 </v>
   <v>       0.94191978       0.42456348       0.77973667 </v>
   <v>       0.77162908       0.29521504       0.36285431 </v>
   <v>       0.70349156       0.51189027       0.81975722 </v>
   <v>       0.34639853       0.37807312       0.26699174 </v>
   <v>       0.84605040       0.01346085       0.95974416 </v>
   <v>       0.44915380       0.75615068       0.23756270 </v>
   <v>       0.46281528       0.52357455       0.04741615 </v>
   <v>       0.69211711       0.08530441       0.64931006 </v>
   <v>       0.54836137       0.30626996       0.74340462 </v>
   <v>       0.21204918       0.30244031       0.80291850 </v>
   <v>       0.52549293       0.23538926       0.48105939 </v>
   <v>       0.36099164       0.25999254       0.07467308 </v>
   <v>       0.18782792       0.66798599       0.25030495 </v>
   <v>       0.65931585       0.71920402       0.99047577 </v>
   <v>       0.34870697       0.31641897       0.53762655 </v>
   <v>       0.63644675       0.88174403       0.16690928 </v>
   <v>       0.75506142       0.50633919       0.58698162 </v>
   <v>       0.50565381       0.00749425       0.42815446 </v>
   <v>       0.62203253       0.85857736       0.76778452 </v>
   <v>       0.05718701       0.78819028       0.51083745 </v>
   <v>       0.12177417       0.96151651       0.10810565 </v>
   <v>       0.95328266       0.53871586       0.01014843 </v>
   <v>       0.50458976       0.10794234       0.91315042 </v>
   <v>       0.88675671       0.21872901       0.75616596 </v>
   <v>       0.69778026       0.67671884       0.32237933 </v>
   <v>       0.77392630       0.04456704       0.23452840 </v>
   <v>       0.83907730       0.19831395       0.13086610 </v>
   <v>       0.18169603       0.53005938       0.07041715 </v>
   <v>       0.89303305       0.74375435       0.90343795 </v>
   <v>       0.45364561       0.55629674       0.78451433 </v>
   <v>       0.72380635       0.23141431       0.93093864 </v>
   <v>       0.19489282       0.92100183       0.68798444 </v>
   <v>       0.22324749       0.53692368       0.83543384 </v>
   <v>       0.59314273       0.46956044       0.29431151 </v>
   <v>       0.91481375       0.10518473       0.50658497 </v>
   <v>       0.58311823       0.78632603       0.54308854 </v>
   <v>       0.02033035       0.32235197       0.40129120 </v>
   <v>       0.10318303       0.66095414       0.52145838 </v>
   <v>       0.95234554       0.75147321       0.77964049 </v>
   <v>       0.66157450       0.76846438       0.23145143 </v>
   <v>       0.46320737       0.49144093       0.25446047 </v>
   <v>       0.20781989       0.02467235       0.60308241 </v>
   <v>       0.44955650       0.53679925       0.64334726 </v>
   <v>       0.17556560       0.03752627       0.21555457 </v>
   <v>       0.55665175       0.88435769       0.45764789 </v>
   <v>       0.93075520       0.85255634       0.95278080 </v>
   <v>       0.05487445       0.80742353       0.38021037 </v>
   <v>       0.74621773       0.18662104       0.23649525 </v>
   <v>       0.09391873       0.25542775       0.32034308 </v>
   <v>       0.23132048       0.43133933       0.11311928 </v>
   <v>       0.03377372       0.10194254       0.46246370 </v>
   <v>       0.33927656       0.47577205       0.80280639 </v>
   <v>       0.64197415       0.28285488       0.52042112 </v>
   <v>       0.47571714       0.72132821       0.54655233 </v>
   <v>       0.55031612       0.10251609       0.56123724 </v>
   <v>       0.64464748       0.33105526       0.90599523 </v>
   <v>       0.64127826       0.99158031       0.21794317 </v>
   <v>       0.18791500       0.59558508       0.35445790 </v>
   <v>       0.64997917       0.12711589       0.90778004 </v>
   <v>       0.58605038       0.35710972       0.36038308 </v>
   <v>       0.88310152       0.24155431       0.48972386 </v>
   <v>       0.64053900       0.45939252       0.66137891 </v>
   <v>       0.48012922       0.17133609       0.02424077 </v>
   <v>       0.53559484       0.96564150       0.75747932 </v>
   <v>       0.61964222       0.58934646       0.29521117 </v>
   <v>       0.96610130       0.21050479       0.10069054 </v>
   <v>       0.76632390       0.52693231       0.46429161 </v>
   <v>       0.53426580       0.13341685       0.37162624 </v>
   <v>       0.14755576       0.98404739       0.79086548 </v>
   <v>       0.97652388       0.65598107       0.95037771 </v>
   <v>       0.24660523       0.31982090       0.63024829 </v>
   <v>       0.68528987       0.40531270       0.20990956 </v>
   <v>       0.92095978       0.39587277       0.34264675 </v>
   <v>       0.77747331       0.26235494       0.04665268 </v>
   <v>       0.25767584       0.60074817       0.16895911 </v>
   <v>       0.42699321       0.68153406       0.78388131 </v>
   <v>       0.85244026       0.46980359       0.94539550 </v>
   <v>       0.29098357       0.73384865       0.27722005 </v>
   <v>       0.07158235       0.47778709       0.04992430 </v>
   <v>       0.74928532       0.90558228       0.78998955 </v>
   <v>       0.35979881       0.20456114       0.44993709 </v>
   <v>       0.51302271       0.86699531       0.13814690 </v>
   <v>       0.35726695       0.39553394       0.44102983 </v>
   <v>       0.07744618       0.38449071       0.49801456 </v>
   <v>       0.27439482       0.83580057       0.76497787 </v>
   <v>       0.88818174       0.55330459       0.12906053 </v>
   <v>       0.84158613       0.00331493       0.32291226 </v>
   <v>       0.70581163       0.84061832       0.05977949 </v>
   <v>       0.82523666       0.02944274       0.54132270 </v>
   <v>       0.81733202       0.65480091       0.28671539 </v>
   <v>       0.82260689       0.16169330       0.83766519 </v>
   <v>       0.54240958       0.57869382       0.88570542 </v>
   <v>       0.59630668       0.78377252       0.86834448 </v>
   <v>       0.47479487       0.32249614       0.56845736 </v>
   <v>       0.30888247       0.20259473       0.18290687 </v>
   <v>       0.00498957       0.94484166       0.15742726 </v>
   <v>       0.61059912       0.63129982       0.07315956 </v>
   <v>       0.20131351       0.63232557       0.75822093 </v>
   <v>       0.08998263       0.01560680       0.98834035 </v>
   <v>       0.18966155       0.82786835       0.58513834 </v>
   <v>       0.43525917       0.37143514       0.09995650 </v>
   <v>       0.07750654       0.69666180       0.17323771 </v>
   <v>       0.00872834       0.25760058       0.79490039 </v>
   <v>       0.92811261       0.11913800       0.67057599 </v>
   <v>       0.77656081       0.31781259       0.75731796 </v>
   <v>       0.41235769       0.99314838       0.93819115 </v>
   <v>       0.21801692       0.84585549       0.07572222 </v>
   <v>       0.45929344       0.15646356       0.79614952 </v>
   <v>       0.93476750       0.83181087       0.55355212 </v>
   <v>       0.77267988       0.68298970       0.91796438 </v>
   <v>       0.64240022       0.70378260       0.43676481 </v>
   <v>       0.82422251       0.05201413       0.11441429 </v>
   <v>       0.23881592       0.25975389       0.97294461 </v>
   <v>       0.25626551       0.58267855       0.96081697 </v>
   <v>       0.40309912       0.93785001       0.35144470 </v>
   <v>       0.63538996       0.79404159       0.65556521 </v>
   <v>       0.83771268       0.54186655       0.68841320 </v>
   <v>       0.11080122       0.45992985       0.83412938 </v>
  </varray>
  <varray name="velocities" >
   <v>       0.00000000       0.00000000       0.00000000 </v>
   <v>       0.00000000       0.00000000       0.00000000 </v>
   <v>       0.00000000       0.00000000       0.00000000 </v>
   <v>       0.00000000       0.00000000       0.00000000 </v>
   <v>       0.00000000       0.00000000       0.00000000 </v>
   <v>       0.00000000       0.00000000       0.00000000 </v>
   <v>       0.00000000       0.00000000       0.00000000 </v>
   <v>       0.00000000       0.00000000       0.00000000 </v>
   <v>       0.00000000       0.00000000       0.00000000 </v>
   <v>       0.00000000       0.00000000       0.00000000 </v>
   <v>       0.00000000       0.00000000       0.00000000 </v>
   <v>       0.00000000       0.00000000       0.00000000 </v>
   <v>       0.00000000       0.00000000       0.00000000 </v>
   <v>       0.00000000       0.00000000       0.00000000 </v>
   <v>       0.00000000       0.00000000       0.00000000 </v>
   <v>       0.00000000       0.00000000       0.00000000 </v>
   <v>       0.00000000       0.00000000       0.00000000 </v>
   <v>       0.00000000       0.00000000       0.00000000 </v>
   <v>       0.00000000       0.00000000       0.00000000 </v>
   <v>       0.00000000       0.00000000       0.00000000 </v>
   <v>       0.00000000       0.00000000       0.00000000 </v>
   <v>       0.00000000       0.00000000       0.00000000 </v>
   <v>       0.00000000       0.00000000       0.00000000 </v>
   <v>       0.00000000       0.00000000       0.00000000 </v>
   <v>       0.00000000       0.00000000       0.00000000 </v>
   <v>       0.00000000       0.00000000       0.00000000 </v>
   <v>       0.00000000       0.00000000       0.00000000 </v>
   <v>       0.00000000       0.00000000       0.00000000 </v>
   <v>       0.00000000       0.00000000       0.00000000 </v>
   <v>       0.00000000       0.00000000       0.00000000 </v>
   <v>       0.00000000       0.00000000       0.00000000 </v>
   <v>       0.00000000       0.00000000       0.00000000 </v>
   <v>       0.00000000       0.00000000       0.00000000 </v>
   <v>       0.00000000       0.00000000       0.00000000 </v>
   <v>       0.00000000       0.00000000       0.00000000 </v>
   <v>       0.00000000       0.00000000       0.00000000 </v>
   <v>       0.00000000       0.00000000       0.00000000 </v>
   <v>       0.00000000       0.00000000       0.00000000 </v>
   <v>       0.00000000       0.00000000       0.00000000 </v>
   <v>       0.00000000       0.00000000       0.00000000 </v>
   <v>       0.00000000       0.00000000       0.00000000 </v>
   <v>       0.00000000       0.00000000       0.00000000 </v>
   <v>       0.00000000       0.00000000       0.00000000 </v>
   <v>       0.00000000       0.00000000       0.00000000 </v>
   <v>       0.00000000       0.00000000       0.00000000 </v>
   <v>       0.00000000       0.00000000       0.00000000 </v>
   <v>       0.00000000       0.00000000       0.00000000 </v>
   <v>       0.00000000       0.00000000       0.00000000 </v>
   <v>       0.00000000       0.00000000       0.00000000 </v>
   <v>       0.00000000       0.00000000       0.00000000 </v>
   <v>       0.00000000       0.00000000       0.00000000 </v>
   <v>       0.00000000       0.00000000       0.00000000 </v>
   <v>       0.00000000       0.00000000       0.00000000 </v>
   <v>       0.00000000       0.00000000       0.00000000 </v>
   <v>       0.00000000       0.00000000       0.00000000 </v>
   <v>       0.00000000       0.00000000       0.00000000 </v>
   <v>       0.00000000       0.00000000       0.00000000 </v>
   <v>       0.00000000       0.00000000       0.00000000 </v>
   <v>       0.00000000       0.00000000       0.00000000 </v>
   <v>       0.00000000       0.00000000       0.00000000 </v>
   <v>       0.00000000       0.00000000       0.00000000 </v>
   <v>       0.00000000       0.00000000       0.00000000 </v>
   <v>       0.00000000       0.00000000       0.00000000 </v>
   <v>       0.00000000       0.00000000       0.00000000 </v>
   <v>       0.00000000       0.00000000       0.00000000 </v>
   <v>       0.00000000       0.00000000       0.00000000 </v>
   <v>       0.00000000       0.00000000       0.00000000 </v>
   <v>       0.00000000       0.00000000       0.00000000 </v>
   <v>       0.00000000       0.00000000       0.00000000 </v>
   <v>       0.00000000       0.00000000       0.00000000 </v>
   <v>       0.00000000       0.00000000       0.00000000 </v>
   <v>       0.00000000       0.00000000       0.00000000 </v>
   <v>       0.00000000       0.00000000       0.00000000 </v>
   <v>       0.00000000       0.00000000       0.00000000 </v>
   <v>       0.00000000       0.00000000       0.00000000 </v>
   <v>       0.00000000       0.00000000       0.00000000 </v>
   <v>       0.00000000       0.00000000       0.00000000 </v>
   <v>       0.00000000       0.00000000       0.00000000 </v>
   <v>       0.00000000       0.00000000       0.00000000 </v>
   <v>       0.00000000       0.00000000       0.00000000 </v>
   <v>       0.00000000       0.00000000       0.00000000 </v>
   <v>       0.00000000       0.00000000       0.00000000 </v>
   <v>       0.00000000       0.00000000       0.00000000 </v>
   <v>       0.00000000       0.00000000       0.00000000 </v>
   <v>       0.00000000       0.00000000       0.00000000 </v>
   <v>       0.00000000       0.00000000       0.00000000 </v>
   <v>       0.00000000       0.00000000       0.00000000 </v>
   <v>       0.00000000       0.00000000       0.00000000 </v>
   <v>       0.00000000       0.00000000       0.00000000 </v>
   <v>       0.00000000       0.00000000       0.00000000 </v>
   <v>       0.00000000       0.00000000       0.00000000 </v>
   <v>       0.00000000       0.00000000       0.00000000 </v>
   <v>       0.00000000       0.00000000       0.00000000 </v>
   <v>       0.00000000       0.00000000       0.00000000 </v>
   <v>       0.00000000       0.00000000       0.00000000 </v>
   <v>       0.00000000       0.00000000       0.00000000 </v>
   <v>       0.00000000       0.00000000       0.00000000 </v>
   <v>       0.00000000       0.00000000       0.00000000 </v>
   <v>       0.00000000       0.00000000       0.00000000 </v>
   <v>       0.00000000       0.00000000       0.00000000 </v>
   <v>       0.00000000       0.00000000       0.00000000 </v>
   <v>       0.00000000       0.00000000       0.00000000 </v>
   <v>       0.00000000       0.00000000       0.00000000 </v>
   <v>       0.00000000       0.00000000       0.00000000 </v>
   <v>       0.00000000       0.00000000       0.00000000 </v>
   <v>       0.00000000       0.00000000       0.00000000 </v>
   <v>       0.00000000       0.00000000       0.00000000 </v>
   <v>       0.00000000       0.00000000       0.00000000 </v>
   <v>       0.00000000       0.00000000       0.00000000 </v>
   <v>       0.00000000       0.00000000       0.00000000 </v>
   <v>       0.00000000       0.00000000       0.00000000 </v>
   <v>       0.00000000       0.00000000       0.00000000 </v>
   <v>       0.00000000       0.00000000       0.00000000 </v>
   <v>       0.00000000       0.00000000       0.00000000 </v>
   <v>       0.00000000       0.00000000       0.00000000 </v>
   <v>       0.00000000       0.00000000       0.00000000 </v>
   <v>       0.00000000       0.00000000       0.00000000 </v>
   <v>       0.00000000       0.00000000       0.00000000 </v>
   <v>       0.00000000       0.00000000       0.00000000 </v>
   <v>       0.00000000       0.00000000       0.00000000 </v>
   <v>       0.00000000       0.00000000       0.00000000 </v>
   <v>       0.00000000       0.00000000       0.00000000 </v>
   <v>       0.00000000       0.00000000       0.00000000 </v>
   <v>       0.00000000       0.00000000       0.00000000 </v>
   <v>       0.00000000       0.00000000       0.00000000 </v>
   <v>       0.00000000       0.00000000       0.00000000 </v>
   <v>       0.00000000       0.00000000       0.00000000 </v>
   <v>       0.00000000       0.00000000       0.00000000 </v>
   <v>       0.00000000       0.00000000       0.00000000 </v>
   <v>       0.00000000       0.00000000       0.00000000 </v>
   <v>       0.00000000       0.00000000       0.00000000 </v>
   <v>       0.00000000       0.00000000       0.00000000 </v>
   <v>       0.00000000       0.00000000       0.00000000 </v>
   <v>       0.00000000       0.00000000       0.00000000 </v>
   <v>       0.00000000       0.00000000       0.00000000 </v>
  </varray>
 </structure>
</modeling>
