<?xml version="1.0" encoding="ISO-8859-1"?>
<modeling>
 <generator>
  <i name="program" type="string">vasp </i>
  <i name="version" type="string">5.4.4.18Apr17-6-g9f103f2a35  </i>
  <i name="subversion" type="string">(build Oct 31 2019 15:01:46) complex            parallel </i>
  <i name="platform" type="string">LinuxIFC </i>
  <i name="date" type="string">2024 04 19 </i>
  <i name="time" type="string">09:14:34 </i>
 </generator>
 <incar>
  <i type="int" name="ISTART">     0</i>
  <i type="string" name="PREC">anormal</i>
  <i type="logical" name="ADDGRID"> T  </i>
  <i type="int" name="IBRION">    -1</i>
  <i name="EDIFF">      0.00000100</i>
  <i name="EDIFFG">     -0.01000000</i>
  <i type="int" name="NSW">     1</i>
  <i type="int" name="ISIF">     2</i>
  <i type="int" name="ISYM">     2</i>
  <i name="ENCUT">    600.00000000</i>
  <i name="POTIM">      1.00000000</i>
  <i type="string" name="LREAL"> Auto.</i>
  <i type="int" name="ISMEAR">     0</i>
  <i name="SIGMA">      0.05000000</i>
  <i name="KSPACING">      0.25000000</i>
  <i type="logical" name="LWAVE"> F  </i>
  <i type="logical" name="LCHARG"> F  </i>
  <i type="logical" name="LSCALAPACK"> F  </i>
  <v type="int" name="KPOINT_BSE">    -1     0     0     0</v>
 </incar>
 <structure name="primitive_cell" >
  <crystal>
   <varray name="basis" >
    <v>      13.12862340       0.00000000       0.00000000 </v>
    <v>      -6.56431170      11.36972138       0.00000000 </v>
    <v>       0.00000000       0.00000000      26.82809424 </v>
   </varray>
   <i name="volume">   4004.59716953 </i>
   <varray name="rec_basis" >
    <v>       0.07616945       0.04397645       0.00000000 </v>
    <v>       0.00000000       0.08795290       0.00000000 </v>
    <v>       0.00000000       0.00000000       0.03727436 </v>
   </varray>
  </crystal>
  <varray name="positions" >
   <v>       0.08179253       0.16734824       0.44969791 </v>
   <v>      -0.08020159       0.07632771       0.41381488 </v>
   <v>       0.16214190       0.08326254       0.41204762 </v>
   <v>       0.23878639       0.24476484       0.49731083 </v>
   <v>       0.16967012       0.33329595       0.40380018 </v>
   <v>      -0.00256856      -0.00277482       0.49844713 </v>
   <v>      -0.00575230       0.25190065       0.49763612 </v>
   <v>       0.15666556       0.33089341      -0.45721406 </v>
   <v>       0.08970807       0.41262868       0.45040787 </v>
   <v>      -0.08484610       0.08367826      -0.45301600 </v>
   <v>       0.16680095       0.08154737      -0.45342141 </v>
   <v>      -0.16265152      -0.08291534       0.45596322 </v>
   <v>      -0.16768747       0.17170093       0.45529346 </v>
   <v>       0.08048013      -0.08525922       0.45386173 </v>
   <v>       0.33418294       0.16134813       0.45231458 </v>
   <v>       0.34629050       0.42037723       0.44540521 </v>
   <v>       0.08796777       0.16591933      -0.40799323 </v>
   <v>      -0.07680005       0.33873461       0.41343464 </v>
   <v>       0.24351889       0.49871650       0.49637919 </v>
   <v>      -0.25382194      -0.00234846      -0.49838659 </v>
   <v>       0.42924987       0.34658407       0.41026449 </v>
   <v>       0.24992365      -0.00583542      -0.49925027 </v>
   <v>      -0.09289643      -0.18501318       0.40829372 </v>
   <v>       0.39966602       0.32596057      -0.45549493 </v>
   <v>      -0.08467481      -0.15942420      -0.45152293 </v>
   <v>      -0.08534228       0.33553279      -0.44891549 </v>
   <v>       0.31320716       0.42907596      -0.41524628 </v>
   <v>       0.07860614       0.40948809      -0.41336313 </v>
   <v>       0.32239423       0.16051956      -0.41097673 </v>
   <v>       0.14720055      -0.43514039       0.40568407 </v>
   <v>      -0.15570215      -0.06715347      -0.40397996 </v>
   <v>       0.08912248      -0.08001400      -0.40927360 </v>
   <v>      -0.32740890       0.09118707       0.41034022 </v>
   <v>      -0.33020033      -0.15762054       0.40805989 </v>
   <v>      -0.17766488       0.16200798      -0.40843389 </v>
   <v>       0.48785759       0.24176174      -0.49671732 </v>
   <v>      -0.25038428      -0.24427994       0.49806586 </v>
   <v>       0.16683647      -0.16681321       0.41183396 </v>
   <v>       0.00473516      -0.49929922      -0.49832261 </v>
   <v>       0.41038189       0.07578755       0.40699992 </v>
   <v>       0.43134655      -0.41153548       0.41405365 </v>
   <v>      -0.49886401       0.49615182      -0.49674538 </v>
   <v>      -0.25273948       0.25281900      -0.49738270 </v>
   <v>      -0.00532110      -0.25792611      -0.49834759 </v>
   <v>       0.16928131      -0.42375059      -0.45133537 </v>
   <v>       0.16489439      -0.16355389      -0.45601768 </v>
   <v>       0.41953308      -0.42103111      -0.45658843 </v>
   <v>      -0.33439789      -0.16173683      -0.45053092 </v>
   <v>       0.32405808      -0.08848411       0.45178926 </v>
   <v>       0.41119571       0.07671752      -0.45202749 </v>
   <v>      -0.41734720      -0.08474501       0.45322942 </v>
   <v>      -0.34120433       0.07925984      -0.45513561 </v>
   <v>      -0.16750721       0.41831845       0.45424091 </v>
   <v>      -0.16677002      -0.33491550       0.45213352 </v>
   <v>       0.33922286      -0.32906291       0.44846070 </v>
   <v>      -0.41174690       0.41402778       0.45943673 </v>
   <v>      -0.40138220      -0.32425548       0.44976248 </v>
   <v>       0.07964202      -0.34325681       0.45533629 </v>
   <v>      -0.41889598       0.16580704       0.45103043 </v>
   <v>       0.32821874      -0.07202440      -0.41196314 </v>
   <v>      -0.16378821       0.41137940      -0.40910694 </v>
   <v>      -0.40877862      -0.06741539      -0.40675966 </v>
   <v>      -0.16083874      -0.32837124      -0.40870349 </v>
   <v>      -0.31962567      -0.40952150       0.41256983 </v>
   <v>       0.34817123      -0.33172813      -0.41099492 </v>
   <v>       0.25821143      -0.25403011       0.49682664 </v>
   <v>      -0.09737804      -0.43033962       0.40760288 </v>
   <v>      -0.49425687      -0.24250040      -0.49946886 </v>
   <v>      -0.33233268       0.34597653       0.40973667 </v>
   <v>       0.49945714       0.00194761       0.49701988 </v>
   <v>      -0.40204046       0.43265701      -0.40897364 </v>
   <v>      -0.32811889       0.33409482      -0.44727106 </v>
   <v>      -0.32434301      -0.41605072      -0.45173427 </v>
   <v>      -0.07648938      -0.41151181      -0.45129190 </v>
   <v>      -0.43105179      -0.34097952      -0.41105693 </v>
   <v>      -0.42474005       0.16761508      -0.40935164 </v>
   <v>       0.08732511      -0.32587428      -0.40584056 </v>
   <v>       0.41438631      -0.16021510       0.40943013 </v>
   <v>      -0.24764651      -0.49844944      -0.49498350 </v>
   <v>       0.41568360      -0.16949022      -0.44991661 </v>
  </varray>
 </structure>
 <varray name="primitive_index" >
  <v type="int" >        1 </v>
  <v type="int" >       61 </v>
  <v type="int" >       49 </v>
  <v type="int" >       70 </v>
  <v type="int" >       50 </v>
  <v type="int" >       65 </v>
  <v type="int" >       66 </v>
  <v type="int" >       18 </v>
  <v type="int" >        2 </v>
  <v type="int" >       29 </v>
  <v type="int" >       17 </v>
  <v type="int" >       16 </v>
  <v type="int" >       13 </v>
  <v type="int" >        4 </v>
  <v type="int" >        5 </v>
  <v type="int" >        6 </v>
  <v type="int" >       33 </v>
  <v type="int" >       62 </v>
  <v type="int" >       71 </v>
  <v type="int" >       77 </v>
  <v type="int" >       54 </v>
  <v type="int" >       69 </v>
  <v type="int" >       64 </v>
  <v type="int" >       22 </v>
  <v type="int" >       32 </v>
  <v type="int" >       30 </v>
  <v type="int" >       38 </v>
  <v type="int" >       34 </v>
  <v type="int" >       37 </v>
  <v type="int" >       51 </v>
  <v type="int" >       48 </v>
  <v type="int" >       36 </v>
  <v type="int" >       57 </v>
  <v type="int" >       60 </v>
  <v type="int" >       45 </v>
  <v type="int" >       74 </v>
  <v type="int" >       80 </v>
  <v type="int" >       52 </v>
  <v type="int" >       67 </v>
  <v type="int" >       53 </v>
  <v type="int" >       55 </v>
  <v type="int" >       75 </v>
  <v type="int" >       78 </v>
  <v type="int" >       68 </v>
  <v type="int" >       19 </v>
  <v type="int" >       20 </v>
  <v type="int" >       23 </v>
  <v type="int" >       28 </v>
  <v type="int" >        8 </v>
  <v type="int" >       21 </v>
  <v type="int" >       12 </v>
  <v type="int" >       25 </v>
  <v type="int" >       14 </v>
  <v type="int" >       15 </v>
  <v type="int" >        7 </v>
  <v type="int" >       10 </v>
  <v type="int" >       11 </v>
  <v type="int" >        3 </v>
  <v type="int" >        9 </v>
  <v type="int" >       40 </v>
  <v type="int" >       46 </v>
  <v type="int" >       44 </v>
  <v type="int" >       47 </v>
  <v type="int" >       59 </v>
  <v type="int" >       39 </v>
  <v type="int" >       72 </v>
  <v type="int" >       63 </v>
  <v type="int" >       76 </v>
  <v type="int" >       58 </v>
  <v type="int" >       73 </v>
  <v type="int" >       42 </v>
  <v type="int" >       26 </v>
  <v type="int" >       27 </v>
  <v type="int" >       31 </v>
  <v type="int" >       43 </v>
  <v type="int" >       41 </v>
  <v type="int" >       35 </v>
  <v type="int" >       56 </v>
  <v type="int" >       79 </v>
  <v type="int" >       24 </v>
 </varray>
 <kpoints>
  <generation param="Gamma">
   <v type="int" name="divisions">       3        3        1 </v>
   <v name="usershift">      0.00000000       0.00000000       0.00000000 </v>
   <v name="genvec1">      0.33333333       0.00000000       0.00000000 </v>
   <v name="genvec2">      0.00000000       0.33333333       0.00000000 </v>
   <v name="genvec3">      0.00000000       0.00000000       1.00000000 </v>
   <v name="shift">      0.00000000       0.00000000       0.00000000 </v>
  </generation>
  <varray name="kpointlist" >
   <v>       0.00000000       0.00000000       0.00000000 </v>
   <v>       0.33333333      -0.00000000       0.00000000 </v>
   <v>       0.00000000       0.33333333       0.00000000 </v>
   <v>       0.33333333       0.33333333       0.00000000 </v>
   <v>      -0.33333333       0.33333333       0.00000000 </v>
  </varray>
  <varray name="weights" >
   <v>       0.11111111 </v>
   <v>       0.22222222 </v>
   <v>       0.22222222 </v>
   <v>       0.22222222 </v>
   <v>       0.22222222 </v>
  </varray>
 </kpoints>
 <parameters>
  <separator name="general" >
   <i type="string" name="SYSTEM">unknown system</i>
   <i type="logical" name="LCOMPAT"> F  </i>
  </separator>
  <separator name="electronic" >
   <i type="string" name="PREC">anorma</i>
   <i name="ENMAX">    600.00000000</i>
   <i name="ENAUG">    644.87300000</i>
   <i name="EDIFF">      0.00000100</i>
   <i type="int" name="IALGO">    38</i>
   <i type="int" name="IWAVPR">    10</i>
   <i type="int" name="NBANDS">   384</i>
   <i name="NELECT">    640.00000000</i>
   <i type="int" name="TURBO">     0</i>
   <i type="int" name="IRESTART">     0</i>
   <i type="int" name="NREBOOT">     0</i>
   <i type="int" name="NMIN">     0</i>
   <i name="EREF">      0.00000000</i>
   <separator name="electronic smearing" >
    <i type="int" name="ISMEAR">     0</i>
    <i name="SIGMA">      0.05000000</i>
    <i name="KSPACING">      0.25000000</i>
    <i type="logical" name="KGAMMA"> T  </i>
   </separator>
   <separator name="electronic projectors" >
    <i type="logical" name="LREAL"> T  </i>
    <v name="ROPT">     -0.00025000     -0.00025000     -0.00025000</v>
    <i type="int" name="LMAXPAW">  -100</i>
    <i type="int" name="LMAXMIX">     2</i>
    <i type="logical" name="NLSPLINE"> F  </i>
   </separator>
   <separator name="electronic startup" >
    <i type="int" name="ISTART">     0</i>
    <i type="int" name="ICHARG">     2</i>
    <i type="int" name="INIWAV">     1</i>
   </separator>
   <separator name="electronic spin" >
    <i type="int" name="ISPIN">     1</i>
    <i type="logical" name="LNONCOLLINEAR"> F  </i>
    <v name="MAGMOM">      1.00000000      1.00000000      1.00000000      1.00000000      1.00000000      1.00000000      1.00000000      1.00000000      1.00000000      1.00000000      1.00000000      1.00000000      1.00000000      1.00000000      1.00000000      1.00000000      1.00000000      1.00000000      1.00000000      1.00000000
      1.00000000      1.00000000      1.00000000      1.00000000      1.00000000      1.00000000      1.00000000      1.00000000      1.00000000      1.00000000      1.00000000      1.00000000      1.00000000      1.00000000      1.00000000      1.00000000      1.00000000      1.00000000      1.00000000      1.00000000
      1.00000000      1.00000000      1.00000000      1.00000000      1.00000000      1.00000000      1.00000000      1.00000000      1.00000000      1.00000000      1.00000000      1.00000000      1.00000000      1.00000000      1.00000000      1.00000000      1.00000000      1.00000000      1.00000000      1.00000000
      1.00000000      1.00000000      1.00000000      1.00000000      1.00000000      1.00000000      1.00000000      1.00000000      1.00000000      1.00000000      1.00000000      1.00000000      1.00000000      1.00000000      1.00000000      1.00000000      1.00000000      1.00000000      1.00000000      1.00000000
</v>
    <i name="NUPDOWN">     -1.00000000</i>
    <i type="logical" name="LSORBIT"> F  </i>
    <v name="SAXIS">      0.00000000      0.00000000      1.00000000</v>
    <i type="logical" name="LSPIRAL"> F  </i>
    <v name="QSPIRAL">      0.00000000      0.00000000      0.00000000</v>
    <i type="logical" name="LZEROZ"> F  </i>
   </separator>
   <separator name="electronic exchange-correlation" >
    <i type="logical" name="LASPH"> F  </i>
    <i type="logical" name="LMETAGGA"> F  </i>
   </separator>
   <separator name="electronic convergence" >
    <i type="int" name="NELM">    60</i>
    <i type="int" name="NELMDL">    -5</i>
    <i type="int" name="NELMIN">     2</i>
    <i name="ENINI">    600.00000000</i>
    <separator name="electronic convergence detail" >
     <i type="logical" name="LDIAG"> T  </i>
     <i type="logical" name="LSUBROT"> F  </i>
     <i name="WEIMIN">      0.00000000</i>
     <i name="EBREAK">      0.00000000</i>
     <i name="DEPER">      0.30000000</i>
     <i type="int" name="NRMM">     4</i>
     <i name="TIME">      0.40000000</i>
    </separator>
   </separator>
   <separator name="electronic mixer" >
    <i name="AMIX">      0.40000000</i>
    <i name="BMIX">      1.00000000</i>
    <i name="AMIN">      0.10000000</i>
    <i name="AMIX_MAG">      1.60000000</i>
    <i name="BMIX_MAG">      1.00000000</i>
    <separator name="electronic mixer details" >
     <i type="int" name="IMIX">     4</i>
     <i type="logical" name="MIXFIRST"> F  </i>
     <i type="int" name="MAXMIX">   -45</i>
     <i name="WC">    100.00000000</i>
     <i type="int" name="INIMIX">     1</i>
     <i type="int" name="MIXPRE">     1</i>
     <i type="int" name="MREMOVE">     5</i>
    </separator>
   </separator>
   <separator name="electronic dipolcorrection" >
    <i type="logical" name="LDIPOL"> F  </i>
    <i type="logical" name="LMONO"> F  </i>
    <i type="int" name="IDIPOL">     0</i>
    <i name="EPSILON">      1.00000000</i>
    <v name="DIPOL">   -100.00000000   -100.00000000   -100.00000000</v>
    <i name="EFIELD">      0.00000000</i>
   </separator>
  </separator>
  <separator name="grids" >
   <i type="int" name="NGX">   108</i>
   <i type="int" name="NGY">   108</i>
   <i type="int" name="NGZ">   216</i>
   <i type="int" name="NGXF">   216</i>
   <i type="int" name="NGYF">   216</i>
   <i type="int" name="NGZF">   432</i>
   <i type="logical" name="ADDGRID"> T  </i>
  </separator>
  <separator name="ionic" >
   <i type="int" name="NSW">     1</i>
   <i type="int" name="IBRION">    -1</i>
   <i type="int" name="MDALGO">     0</i>
   <i type="int" name="ISIF">     2</i>
   <i name="PSTRESS">      0.00000000</i>
   <i name="EDIFFG">     -0.01000000</i>
   <i type="int" name="NFREE">     0</i>
   <i name="POTIM">      1.00000000</i>
   <i name="SMASS">     -3.00000000</i>
   <i name="SCALEE">      1.00000000</i>
  </separator>
  <separator name="ionic md" >
   <i name="TEBEG">      0.00010000</i>
   <i name="TEEND">      0.00010000</i>
   <i type="int" name="NBLOCK">     1</i>
   <i type="int" name="KBLOCK">     1</i>
   <i type="int" name="NPACO">   256</i>
   <i name="APACO">     16.00000000</i>
  </separator>
  <separator name="symmetry" >
   <i type="int" name="ISYM">     2</i>
   <i name="SYMPREC">      0.00001000</i>
  </separator>
  <separator name="dos" >
   <i type="int" name="LORBIT">     0</i>
   <v name="RWIGS">     -1.00000000     -1.00000000     -1.00000000</v>
   <i type="int" name="NEDOS">   301</i>
   <i name="EMIN">     10.00000000</i>
   <i name="EMAX">    -10.00000000</i>
   <i name="EFERMI">      0.00000000</i>
  </separator>
  <separator name="writing" >
   <i type="int" name="NWRITE">     2</i>
   <i type="logical" name="LWAVE"> F  </i>
   <i type="logical" name="LDOWNSAMPLE"> F  </i>
   <i type="logical" name="LCHARG"> F  </i>
   <i type="logical" name="LPARD"> F  </i>
   <i type="logical" name="LVTOT"> F  </i>
   <i type="logical" name="LVHAR"> F  </i>
   <i type="logical" name="LELF"> F  </i>
   <i type="logical" name="LOPTICS"> F  </i>
   <v name="STM">      0.00000000      0.00000000      0.00000000      0.00000000      0.00000000      0.00000000      0.00000000</v>
  </separator>
  <separator name="performance" >
   <i type="int" name="NPAR">     4</i>
   <i type="int" name="NSIM">     4</i>
   <i type="int" name="NBLK">    -1</i>
   <i type="logical" name="LPLANE"> T  </i>
   <i type="logical" name="LSCALAPACK"> F  </i>
   <i type="logical" name="LSCAAWARE"> F  </i>
   <i type="logical" name="LSCALU"> F  </i>
   <i type="logical" name="LASYNC"> F  </i>
   <i type="logical" name="LORBITALREAL"> F  </i>
  </separator>
  <separator name="miscellaneous" >
   <i type="int" name="IDIOT">     3</i>
   <i type="int" name="ISPECIAL">     0</i>
   <i type="logical" name="LMUSIC"> F  </i>
   <v name="POMASS">     44.95600000     18.99800000     12.01100000</v>
   <v name="DARWINR">      0.00000000      0.00000000      0.00000000</v>
   <v name="DARWINV">      1.00000000      1.00000000      1.00000000</v>
   <i type="logical" name="LCORR"> T  </i>
  </separator>
  <i type="logical" name="GGA_COMPAT"> T  </i>
  <i type="logical" name="LBERRY"> F  </i>
  <i type="int" name="ICORELEVEL">     0</i>
  <i type="logical" name="LDAU"> F  </i>
  <i type="int" name="I_CONSTRAINED_M">     0</i>
  <separator name="electronic exchange-correlation" >
   <i type="string" name="GGA">--</i>
   <i type="int" name="VOSKOWN">     0</i>
   <i type="logical" name="LHFCALC"> F  </i>
   <i type="string" name="PRECFOCK"></i>
   <i type="logical" name="LSYMGRAD"> F  </i>
   <i type="logical" name="LHFONE"> F  </i>
   <i type="logical" name="LRHFCALC"> F  </i>
   <i type="logical" name="LTHOMAS"> F  </i>
   <i type="logical" name="LMODELHF"> F  </i>
   <i name="ENCUT4O">     -1.00000000</i>
   <i type="int" name="EXXOEP">     0</i>
   <i type="int" name="FOURORBIT">     0</i>
   <i name="AEXX">      0.00000000</i>
   <i name="HFALPHA">      0.00000000</i>
   <i name="MCALPHA">      0.00000000</i>
   <i name="ALDAX">      1.00000000</i>
   <i name="AGGAX">      1.00000000</i>
   <i name="ALDAC">      1.00000000</i>
   <i name="AGGAC">      1.00000000</i>
   <i type="int" name="NKREDX">     1</i>
   <i type="int" name="NKREDY">     1</i>
   <i type="int" name="NKREDZ">     1</i>
   <i type="logical" name="SHIFTRED"> F  </i>
   <i type="logical" name="ODDONLY"> F  </i>
   <i type="logical" name="EVENONLY"> F  </i>
   <i type="int" name="LMAXFOCK">     0</i>
   <i type="int" name="NMAXFOCKAE">     0</i>
   <i type="logical" name="LFOCKAEDFT"> F  </i>
   <i name="HFSCREEN">      0.00000000</i>
   <i name="HFSCREENC">      0.00000000</i>
   <i type="int" name="NBANDSGWLOW">     0</i>
  </separator>
  <separator name="vdW DFT" >
   <i type="logical" name="LUSE_VDW"> F  </i>
   <i name="Zab_VDW">     -0.84910000</i>
   <i name="PARAM1">      0.12340000</i>
   <i name="PARAM2">      1.00000000</i>
   <i name="PARAM3">      0.00000000</i>
  </separator>
  <separator name="model GW" >
   <i type="int" name="MODEL_GW">     0</i>
   <i name="MODEL_EPS0">     30.03447877</i>
   <i name="MODEL_ALPHA">      1.00000000</i>
  </separator>
  <separator name="linear response parameters" >
   <i type="logical" name="LEPSILON"> F  </i>
   <i type="logical" name="LRPA"> F  </i>
   <i type="logical" name="LNABLA"> F  </i>
   <i type="logical" name="LVEL"> F  </i>
   <i type="int" name="KINTER">     0</i>
   <i name="CSHIFT">      0.10000000</i>
   <i name="OMEGAMAX">     -1.00000000</i>
   <i name="DEG_THRESHOLD">      0.00200000</i>
   <i name="RTIME">     -0.10000000</i>
   <i name="WPLASMAI">      0.00000000</i>
   <v name="DFIELD">      0.00000000      0.00000000      0.00000000</v>
   <v name="WPLASMA">      0.00000000      0.00000000      0.00000000      0.00000000      0.00000000      0.00000000      0.00000000      0.00000000      0.00000000</v>
  </separator>
  <separator name="orbital magnetization" >
   <i type="logical" name="NUCIND"> F  </i>
   <v name="MAGPOS">      0.00000000      0.00000000      0.00000000</v>
   <i type="logical" name="LNICSALL"> T  </i>
   <i type="logical" name="ORBITALMAG"> F  </i>
   <i type="logical" name="LMAGBLOCH"> F  </i>
   <i type="logical" name="LCHIMAG"> F  </i>
   <i type="logical" name="LGAUGE"> T  </i>
   <i type="int" name="MAGATOM">     0</i>
   <v name="MAGDIPOL">      0.00000000      0.00000000      0.00000000</v>
   <v name="AVECCONST">      0.00000000      0.00000000      0.00000000</v>
  </separator>
  <separator name="response functions" >
   <i type="logical" name="LADDER"> F  </i>
   <i type="logical" name="LRPAFORCE"> F  </i>
   <i type="logical" name="LFXC"> F  </i>
   <i type="logical" name="LHARTREE"> T  </i>
   <i type="int" name="IBSE">     0</i>
   <v type="int" name="KPOINT">    -1     0     0     0</v>
   <i type="logical" name="LTCTE"> F  </i>
   <i type="logical" name="LTETE"> F  </i>
   <i type="logical" name="LTRIPLET"> F  </i>
   <i type="logical" name="LFXCEPS"> F  </i>
   <i type="logical" name="LFXHEG"> F  </i>
   <i type="int" name="NATURALO">     2</i>
   <i type="logical" name="L2ORDER"> F  </i>
   <i type="logical" name="LMP2LT"> F  </i>
   <i type="logical" name="LUSEW"> F  </i>
   <i name="ENCUTGW">     -2.00000000</i>
   <i name="ENCUTGWSOFT">     -2.00000000</i>
   <i name="ENCUTLF">     -1.00000000</i>
   <i type="int" name="LMAXMP2">    -1</i>
   <i name="SCISSOR">      0.00000000</i>
   <i type="int" name="NOMEGA">     0</i>
   <i type="int" name="NOMEGAR">     0</i>
   <i type="int" name="NBANDSGW">    -1</i>
   <i type="int" name="NBANDSO">    -1</i>
   <i type="int" name="NBANDSV">    -1</i>
   <i type="int" name="NELM">     1</i>
   <i type="int" name="NELMHF">     1</i>
   <i type="int" name="DIM">     3</i>
   <i type="int" name="ANTIRES">     0</i>
   <i name="OMEGAMAX">    -30.00000000</i>
   <i name="OMEGAMIN">    -30.00000000</i>
   <i name="OMEGATL">   -200.00000000</i>
   <i type="int" name="OMEGAGRID">   140</i>
   <i name="CSHIFT">     -0.10000000</i>
   <i type="logical" name="SELFENERGY"> F  </i>
   <i type="logical" name="LSPECTRAL"> F  </i>
   <i type="logical" name="LSPECTRALGW"> F  </i>
   <i type="logical" name="LSINGLES"> F  </i>
   <i type="logical" name="LFERMIGW"> F  </i>
   <i type="logical" name="ODDONLYGW"> F  </i>
   <i type="logical" name="EVENONLYGW"> F  </i>
   <i type="int" name="NKREDLFX">     1</i>
   <i type="int" name="NKREDLFY">     1</i>
   <i type="int" name="NKREDLFZ">     1</i>
   <i type="int" name="MAXMEM">  2800</i>
   <i type="int" name="TELESCOPE">     0</i>
   <i type="int" name="TAUPAR">     1</i>
   <i type="int" name="OMEGAPAR">    -1</i>
   <i name="LAMBDA">      1.00000000</i>
  </separator>
  <separator name="External order field" >
   <i name="OFIELD_KAPPA">      0.00000000</i>
   <v name="OFIELD_K">      0.00000000      0.00000000      0.00000000</v>
   <i name="OFIELD_Q6_NEAR">      0.00000000</i>
   <i name="OFIELD_Q6_FAR">      0.00000000</i>
   <i name="OFIELD_A">      0.00000000</i>
  </separator>
 </parameters>
 <atominfo>
  <atoms>      80 </atoms>
  <types>       3 </types>
  <array name="atoms" >
   <dimension dim="1">ion</dimension>
   <field type="string">element</field>
   <field type="int">atomtype</field>
   <set>
    <rc><c>Sc</c><c>   1</c></rc>
    <rc><c>Sc</c><c>   1</c></rc>
    <rc><c>Sc</c><c>   1</c></rc>
    <rc><c>Sc</c><c>   1</c></rc>
    <rc><c>Sc</c><c>   1</c></rc>
    <rc><c>Sc</c><c>   1</c></rc>
    <rc><c>Sc</c><c>   1</c></rc>
    <rc><c>Sc</c><c>   1</c></rc>
    <rc><c>Sc</c><c>   1</c></rc>
    <rc><c>Sc</c><c>   1</c></rc>
    <rc><c>Sc</c><c>   1</c></rc>
    <rc><c>Sc</c><c>   1</c></rc>
    <rc><c>Sc</c><c>   1</c></rc>
    <rc><c>Sc</c><c>   1</c></rc>
    <rc><c>Sc</c><c>   1</c></rc>
    <rc><c>Sc</c><c>   1</c></rc>
    <rc><c>Sc</c><c>   1</c></rc>
    <rc><c>Sc</c><c>   1</c></rc>
    <rc><c>Sc</c><c>   1</c></rc>
    <rc><c>Sc</c><c>   1</c></rc>
    <rc><c>Sc</c><c>   1</c></rc>
    <rc><c>Sc</c><c>   1</c></rc>
    <rc><c>Sc</c><c>   1</c></rc>
    <rc><c>Sc</c><c>   1</c></rc>
    <rc><c>Sc</c><c>   1</c></rc>
    <rc><c>Sc</c><c>   1</c></rc>
    <rc><c>Sc</c><c>   1</c></rc>
    <rc><c>Sc</c><c>   1</c></rc>
    <rc><c>Sc</c><c>   1</c></rc>
    <rc><c>Sc</c><c>   1</c></rc>
    <rc><c>Sc</c><c>   1</c></rc>
    <rc><c>Sc</c><c>   1</c></rc>
    <rc><c>F </c><c>   2</c></rc>
    <rc><c>F </c><c>   2</c></rc>
    <rc><c>F </c><c>   2</c></rc>
    <rc><c>F </c><c>   2</c></rc>
    <rc><c>F </c><c>   2</c></rc>
    <rc><c>F </c><c>   2</c></rc>
    <rc><c>F </c><c>   2</c></rc>
    <rc><c>F </c><c>   2</c></rc>
    <rc><c>F </c><c>   2</c></rc>
    <rc><c>F </c><c>   2</c></rc>
    <rc><c>F </c><c>   2</c></rc>
    <rc><c>F </c><c>   2</c></rc>
    <rc><c>F </c><c>   2</c></rc>
    <rc><c>F </c><c>   2</c></rc>
    <rc><c>F </c><c>   2</c></rc>
    <rc><c>F </c><c>   2</c></rc>
    <rc><c>F </c><c>   2</c></rc>
    <rc><c>F </c><c>   2</c></rc>
    <rc><c>F </c><c>   2</c></rc>
    <rc><c>F </c><c>   2</c></rc>
    <rc><c>F </c><c>   2</c></rc>
    <rc><c>F </c><c>   2</c></rc>
    <rc><c>F </c><c>   2</c></rc>
    <rc><c>F </c><c>   2</c></rc>
    <rc><c>F </c><c>   2</c></rc>
    <rc><c>F </c><c>   2</c></rc>
    <rc><c>F </c><c>   2</c></rc>
    <rc><c>F </c><c>   2</c></rc>
    <rc><c>F </c><c>   2</c></rc>
    <rc><c>F </c><c>   2</c></rc>
    <rc><c>F </c><c>   2</c></rc>
    <rc><c>F </c><c>   2</c></rc>
    <rc><c>C </c><c>   3</c></rc>
    <rc><c>C </c><c>   3</c></rc>
    <rc><c>C </c><c>   3</c></rc>
    <rc><c>C </c><c>   3</c></rc>
    <rc><c>C </c><c>   3</c></rc>
    <rc><c>C </c><c>   3</c></rc>
    <rc><c>C </c><c>   3</c></rc>
    <rc><c>C </c><c>   3</c></rc>
    <rc><c>C </c><c>   3</c></rc>
    <rc><c>C </c><c>   3</c></rc>
    <rc><c>C </c><c>   3</c></rc>
    <rc><c>C </c><c>   3</c></rc>
    <rc><c>C </c><c>   3</c></rc>
    <rc><c>C </c><c>   3</c></rc>
    <rc><c>C </c><c>   3</c></rc>
    <rc><c>C </c><c>   3</c></rc>
   </set>
  </array>
  <array name="atomtypes" >
   <dimension dim="1">type</dimension>
   <field type="int">atomspertype</field>
   <field type="string">element</field>
   <field>mass</field>
   <field>valence</field>
   <field type="string">pseudopotential</field>
   <set>
    <rc><c>  32</c><c>Sc</c><c>     44.95600000</c><c>     11.00000000</c><c>  PAW_PBE Sc_sv 07Sep2000               </c></rc>
    <rc><c>  32</c><c>F </c><c>     18.99800000</c><c>      7.00000000</c><c>  PAW_PBE F 08Apr2002                   </c></rc>
    <rc><c>  16</c><c>C </c><c>     12.01100000</c><c>      4.00000000</c><c>  PAW_PBE C 08Apr2002                   </c></rc>
   </set>
  </array>
 </atominfo>
 <structure name="initialpos" >
  <crystal>
   <varray name="basis" >
    <v>      13.12862340       0.00000000       0.00000000 </v>
    <v>      -6.56431170      11.36972138       0.00000000 </v>
    <v>       0.00000000       0.00000000      26.82809424 </v>
   </varray>
   <i name="volume">   4004.59716953 </i>
   <varray name="rec_basis" >
    <v>       0.07616945       0.04397645       0.00000000 </v>
    <v>       0.00000000       0.08795290       0.00000000 </v>
    <v>       0.00000000       0.00000000       0.03727436 </v>
   </varray>
  </crystal>
  <varray name="positions" >
   <v>       0.08179253       0.16734824       0.44969791 </v>
   <v>       0.08970807       0.41262868       0.45040787 </v>
   <v>       0.07964202       0.65674319       0.45533629 </v>
   <v>       0.08048013       0.91474078       0.45386173 </v>
   <v>       0.33418294       0.16134813       0.45231458 </v>
   <v>       0.34629050       0.42037723       0.44540521 </v>
   <v>       0.33922286       0.67093709       0.44846070 </v>
   <v>       0.32405808       0.91151589       0.45178926 </v>
   <v>       0.58110402       0.16580704       0.45103043 </v>
   <v>       0.58825310       0.41402778       0.45943673 </v>
   <v>       0.59861780       0.67574452       0.44976248 </v>
   <v>       0.58265280       0.91525499       0.45322942 </v>
   <v>       0.83231253       0.17170093       0.45529346 </v>
   <v>       0.83249279       0.41831845       0.45424091 </v>
   <v>       0.83322998       0.66508450       0.45213352 </v>
   <v>       0.83734848       0.91708466       0.45596322 </v>
   <v>       0.16680095       0.08154737       0.54657859 </v>
   <v>       0.15666556       0.33089341       0.54278594 </v>
   <v>       0.16928131       0.57624941       0.54866463 </v>
   <v>       0.16489439       0.83644611       0.54398232 </v>
   <v>       0.41119571       0.07671752       0.54797251 </v>
   <v>       0.39966602       0.32596057       0.54450507 </v>
   <v>       0.41953308       0.57896889       0.54341157 </v>
   <v>       0.41568360       0.83050978       0.55008339 </v>
   <v>       0.65879567       0.07925984       0.54486439 </v>
   <v>       0.67188111       0.33409482       0.55272894 </v>
   <v>       0.67565699       0.58394928       0.54826573 </v>
   <v>       0.66560211       0.83826317       0.54946908 </v>
   <v>       0.91515390       0.08367826       0.54698400 </v>
   <v>       0.91465772       0.33553279       0.55108451 </v>
   <v>       0.92351062       0.58848819       0.54870810 </v>
   <v>       0.91532519       0.84057580       0.54847707 </v>
   <v>       0.08796777       0.16591933       0.59200677 </v>
   <v>       0.07860614       0.40948809       0.58663687 </v>
   <v>       0.08732511       0.67412572       0.59415944 </v>
   <v>       0.08912248       0.91998600       0.59072640 </v>
   <v>       0.32239423       0.16051956       0.58902327 </v>
   <v>       0.31320716       0.42907596       0.58475372 </v>
   <v>       0.34817123       0.66827187       0.58900508 </v>
   <v>       0.32821874       0.92797560       0.58803686 </v>
   <v>       0.57525995       0.16761508       0.59064836 </v>
   <v>       0.59795954       0.43265701       0.59102636 </v>
   <v>       0.56894821       0.65902048       0.58894307 </v>
   <v>       0.59122138       0.93258461       0.59324034 </v>
   <v>       0.82233512       0.16200798       0.59156611 </v>
   <v>       0.83621179       0.41137940       0.59089306 </v>
   <v>       0.83916126       0.67162876       0.59129651 </v>
   <v>       0.84429785       0.93284653       0.59602004 </v>
   <v>       0.16214190       0.08326254       0.41204762 </v>
   <v>       0.16967012       0.33329595       0.40380018 </v>
   <v>       0.14720055       0.56485961       0.40568407 </v>
   <v>       0.16683647       0.83318679       0.41183396 </v>
   <v>       0.41038189       0.07578755       0.40699992 </v>
   <v>       0.42924987       0.34658407       0.41026449 </v>
   <v>       0.43134655       0.58846452       0.41405365 </v>
   <v>       0.41438631       0.83978490       0.40943013 </v>
   <v>       0.67259110       0.09118707       0.41034022 </v>
   <v>       0.66766732       0.34597653       0.40973667 </v>
   <v>       0.68037433       0.59047850       0.41256983 </v>
   <v>       0.66979967       0.84237946       0.40805989 </v>
   <v>       0.91979841       0.07632771       0.41381488 </v>
   <v>       0.92319995       0.33873461       0.41343464 </v>
   <v>       0.90262196       0.56966038       0.40760288 </v>
   <v>       0.90710357       0.81498682       0.40829372 </v>
   <v>       0.99743144       0.99722518       0.49844713 </v>
   <v>       0.99424770       0.25190065       0.49763612 </v>
   <v>       0.00473516       0.50070078       0.50167739 </v>
   <v>       0.99467890       0.74207389       0.50165241 </v>
   <v>       0.24992365       0.99416458       0.50074973 </v>
   <v>       0.23878639       0.24476484       0.49731083 </v>
   <v>       0.24351889       0.49871650       0.49637919 </v>
   <v>       0.25821143       0.74596989       0.49682664 </v>
   <v>       0.49945714       0.00194761       0.49701988 </v>
   <v>       0.48785759       0.24176174       0.50328268 </v>
   <v>       0.50113599       0.49615182       0.50325462 </v>
   <v>       0.50574313       0.75749960       0.50053114 </v>
   <v>       0.74617806       0.99765154       0.50161341 </v>
   <v>       0.74726052       0.25281900       0.50261730 </v>
   <v>       0.75235349       0.50155056       0.50501650 </v>
   <v>       0.74961572       0.75572006       0.49806586 </v>
  </varray>
  <varray name="velocities" >
   <v>       0.00000000       0.00000000       0.00000000 </v>
   <v>       0.00000000       0.00000000       0.00000000 </v>
   <v>       0.00000000       0.00000000       0.00000000 </v>
   <v>       0.00000000       0.00000000       0.00000000 </v>
   <v>       0.00000000       0.00000000       0.00000000 </v>
   <v>       0.00000000       0.00000000       0.00000000 </v>
   <v>       0.00000000       0.00000000       0.00000000 </v>
   <v>       0.00000000       0.00000000       0.00000000 </v>
   <v>       0.00000000       0.00000000       0.00000000 </v>
   <v>       0.00000000       0.00000000       0.00000000 </v>
   <v>       0.00000000       0.00000000       0.00000000 </v>
   <v>       0.00000000       0.00000000       0.00000000 </v>
   <v>       0.00000000       0.00000000       0.00000000 </v>
   <v>       0.00000000       0.00000000       0.00000000 </v>
   <v>       0.00000000       0.00000000       0.00000000 </v>
   <v>       0.00000000       0.00000000       0.00000000 </v>
   <v>       0.00000000       0.00000000       0.00000000 </v>
   <v>       0.00000000       0.00000000       0.00000000 </v>
   <v>       0.00000000       0.00000000       0.00000000 </v>
   <v>       0.00000000       0.00000000       0.00000000 </v>
   <v>       0.00000000       0.00000000       0.00000000 </v>
   <v>       0.00000000       0.00000000       0.00000000 </v>
   <v>       0.00000000       0.00000000       0.00000000 </v>
   <v>       0.00000000       0.00000000       0.00000000 </v>
   <v>       0.00000000       0.00000000       0.00000000 </v>
   <v>       0.00000000       0.00000000       0.00000000 </v>
   <v>       0.00000000       0.00000000       0.00000000 </v>
   <v>       0.00000000       0.00000000       0.00000000 </v>
   <v>       0.00000000       0.00000000       0.00000000 </v>
   <v>       0.00000000       0.00000000       0.00000000 </v>
   <v>       0.00000000       0.00000000       0.00000000 </v>
   <v>       0.00000000       0.00000000       0.00000000 </v>
   <v>       0.00000000       0.00000000       0.00000000 </v>
   <v>       0.00000000       0.00000000       0.00000000 </v>
   <v>       0.00000000       0.00000000       0.00000000 </v>
   <v>       0.00000000       0.00000000       0.00000000 </v>
   <v>       0.00000000       0.00000000       0.00000000 </v>
   <v>       0.00000000       0.00000000       0.00000000 </v>
   <v>       0.00000000       0.00000000       0.00000000 </v>
   <v>       0.00000000       0.00000000       0.00000000 </v>
   <v>       0.00000000       0.00000000       0.00000000 </v>
   <v>       0.00000000       0.00000000       0.00000000 </v>
   <v>       0.00000000       0.00000000       0.00000000 </v>
   <v>       0.00000000       0.00000000       0.00000000 </v>
   <v>       0.00000000       0.00000000       0.00000000 </v>
   <v>       0.00000000       0.00000000       0.00000000 </v>
   <v>       0.00000000       0.00000000       0.00000000 </v>
   <v>       0.00000000       0.00000000       0.00000000 </v>
   <v>       0.00000000       0.00000000       0.00000000 </v>
   <v>       0.00000000       0.00000000       0.00000000 </v>
   <v>       0.00000000       0.00000000       0.00000000 </v>
   <v>       0.00000000       0.00000000       0.00000000 </v>
   <v>       0.00000000       0.00000000       0.00000000 </v>
   <v>       0.00000000       0.00000000       0.00000000 </v>
   <v>       0.00000000       0.00000000       0.00000000 </v>
   <v>       0.00000000       0.00000000       0.00000000 </v>
   <v>       0.00000000       0.00000000       0.00000000 </v>
   <v>       0.00000000       0.00000000       0.00000000 </v>
   <v>       0.00000000       0.00000000       0.00000000 </v>
   <v>       0.00000000       0.00000000       0.00000000 </v>
   <v>       0.00000000       0.00000000       0.00000000 </v>
   <v>       0.00000000       0.00000000       0.00000000 </v>
   <v>       0.00000000       0.00000000       0.00000000 </v>
   <v>       0.00000000       0.00000000       0.00000000 </v>
   <v>       0.00000000       0.00000000       0.00000000 </v>
   <v>       0.00000000       0.00000000       0.00000000 </v>
   <v>       0.00000000       0.00000000       0.00000000 </v>
   <v>       0.00000000       0.00000000       0.00000000 </v>
   <v>       0.00000000       0.00000000       0.00000000 </v>
   <v>       0.00000000       0.00000000       0.00000000 </v>
   <v>       0.00000000       0.00000000       0.00000000 </v>
   <v>       0.00000000       0.00000000       0.00000000 </v>
   <v>       0.00000000       0.00000000       0.00000000 </v>
   <v>       0.00000000       0.00000000       0.00000000 </v>
   <v>       0.00000000       0.00000000       0.00000000 </v>
   <v>       0.00000000       0.00000000       0.00000000 </v>
   <v>       0.00000000       0.00000000       0.00000000 </v>
   <v>       0.00000000       0.00000000       0.00000000 </v>
   <v>       0.00000000       0.00000000       0.00000000 </v>
   <v>       0.00000000       0.00000000       0.00000000 </v>
  </varray>
 </structure>
 <calculation>
  <scstep>
   <time name="dav">   47.16   47.17</time>
   <time name="total">   48.07   48.08</time>
   <energy>
    <i name="alphaZ">    871.83850952 </i>
    <i name="ewald"> 287382.49429684 </i>
    <i name="hartreedc">-341720.58257111 </i>
    <i name="XCdc">   3043.64059654 </i>
    <i name="pawpsdc">  50525.51240023 </i>
    <i name="pawaedc"> -50422.77561733 </i>
    <i name="eentropy">     -0.07412685 </i>
    <i name="bandstr">   -254.36062319 </i>
    <i name="atom">  64207.43592568 </i>
    <i name="e_fr_energy">  13633.12879034 </i>
    <i name="e_wo_entrp">  13633.20291719 </i>
    <i name="e_0_energy">  13633.16585377 </i>
   </energy>
  </scstep>
  <scstep>
   <time name="dav">   50.02   50.03</time>
   <time name="total">   50.02   50.03</time>
   <energy>
    <i name="e_fr_energy">   2491.38842205 </i>
    <i name="e_wo_entrp">   2491.43937463 </i>
    <i name="e_0_energy">   2491.41389834 </i>
   </energy>
  </scstep>
  <scstep>
   <time name="dav">   68.91   68.91</time>
   <time name="total">   68.91   68.91</time>
   <energy>
    <i name="e_fr_energy">   -383.88589449 </i>
    <i name="e_wo_entrp">   -383.88589449 </i>
    <i name="e_0_energy">   -383.88589449 </i>
   </energy>
  </scstep>
  <scstep>
   <time name="dav">   62.63   62.64</time>
   <time name="total">   62.63   62.64</time>
   <energy>
    <i name="e_fr_energy">   -740.69647005 </i>
    <i name="e_wo_entrp">   -740.69647005 </i>
    <i name="e_0_energy">   -740.69647005 </i>
   </energy>
  </scstep>
  <scstep>
   <time name="dav">   62.95   62.96</time>
   <time name="total">   66.63   66.64</time>
   <energy>
    <i name="e_fr_energy">   -754.94427805 </i>
    <i name="e_wo_entrp">   -754.94427805 </i>
    <i name="e_0_energy">   -754.94427805 </i>
   </energy>
  </scstep>
  <scstep>
   <time name="dav">   59.60   59.61</time>
   <time name="total">   64.13   64.15</time>
   <energy>
    <i name="e_fr_energy">   -598.97022215 </i>
    <i name="e_wo_entrp">   -598.97022215 </i>
    <i name="e_0_energy">   -598.97022215 </i>
   </energy>
  </scstep>
  <scstep>
   <time name="dav">   61.19   61.19</time>
   <time name="total">   65.79   65.81</time>
   <energy>
    <i name="e_fr_energy">   -598.95214574 </i>
    <i name="e_wo_entrp">   -598.95214574 </i>
    <i name="e_0_energy">   -598.95214574 </i>
   </energy>
  </scstep>
  <scstep>
   <time name="dav">   57.90   57.90</time>
   <time name="total">   62.40   62.42</time>
   <energy>
    <i name="e_fr_energy">   -597.32760526 </i>
    <i name="e_wo_entrp">   -597.32760526 </i>
    <i name="e_0_energy">   -597.32760526 </i>
   </energy>
  </scstep>
  <scstep>
   <time name="dav">   57.78   57.78</time>
   <time name="total">   62.29   62.30</time>
   <energy>
    <i name="e_fr_energy">   -596.80413044 </i>
    <i name="e_wo_entrp">   -596.80413044 </i>
    <i name="e_0_energy">   -596.80413044 </i>
   </energy>
  </scstep>
  <scstep>
   <time name="dav">   61.77   61.78</time>
   <time name="total">   66.36   66.38</time>
   <energy>
    <i name="e_fr_energy">   -596.76721822 </i>
    <i name="e_wo_entrp">   -596.76721822 </i>
    <i name="e_0_energy">   -596.76721822 </i>
   </energy>
  </scstep>
  <scstep>
   <time name="dav">   57.98   57.98</time>
   <time name="total">   62.47   62.48</time>
   <energy>
    <i name="e_fr_energy">   -596.63374319 </i>
    <i name="e_wo_entrp">   -596.63374319 </i>
    <i name="e_0_energy">   -596.63374319 </i>
   </energy>
  </scstep>
  <scstep>
   <time name="dav">   60.93   60.93</time>
   <time name="total">   65.41   65.42</time>
   <energy>
    <i name="e_fr_energy">   -596.60680318 </i>
    <i name="e_wo_entrp">   -596.60680318 </i>
    <i name="e_0_energy">   -596.60680318 </i>
   </energy>
  </scstep>
  <scstep>
   <time name="dav">   58.49   58.49</time>
   <time name="total">   62.94   62.95</time>
   <energy>
    <i name="e_fr_energy">   -596.59752800 </i>
    <i name="e_wo_entrp">   -596.59752800 </i>
    <i name="e_0_energy">   -596.59752800 </i>
   </energy>
  </scstep>
  <scstep>
   <time name="dav">   59.97   59.97</time>
   <time name="total">   64.52   64.53</time>
   <energy>
    <i name="e_fr_energy">   -596.59497175 </i>
    <i name="e_wo_entrp">   -596.59497175 </i>
    <i name="e_0_energy">   -596.59497175 </i>
   </energy>
  </scstep>
  <scstep>
   <time name="dav">   59.73   59.73</time>
   <time name="total">   64.16   64.17</time>
   <energy>
    <i name="e_fr_energy">   -596.60159912 </i>
    <i name="e_wo_entrp">   -596.60159912 </i>
    <i name="e_0_energy">   -596.60159912 </i>
   </energy>
  </scstep>
  <scstep>
   <time name="dav">   56.33   56.33</time>
   <time name="total">   60.84   60.85</time>
   <energy>
    <i name="e_fr_energy">   -596.60483720 </i>
    <i name="e_wo_entrp">   -596.60483720 </i>
    <i name="e_0_energy">   -596.60483720 </i>
   </energy>
  </scstep>
  <scstep>
   <time name="dav">   61.22   61.22</time>
   <time name="total">   65.76   65.77</time>
   <energy>
    <i name="e_fr_energy">   -596.61022540 </i>
    <i name="e_wo_entrp">   -596.61022540 </i>
    <i name="e_0_energy">   -596.61022540 </i>
   </energy>
  </scstep>
  <scstep>
   <time name="dav">   57.31   57.31</time>
   <time name="total">   61.79   61.81</time>
   <energy>
    <i name="e_fr_energy">   -596.61318587 </i>
    <i name="e_wo_entrp">   -596.61318587 </i>
    <i name="e_0_energy">   -596.61318587 </i>
   </energy>
  </scstep>
  <scstep>
   <time name="dav">   60.90   60.91</time>
   <time name="total">   65.40   65.42</time>
   <energy>
    <i name="e_fr_energy">   -596.61481853 </i>
    <i name="e_wo_entrp">   -596.61481853 </i>
    <i name="e_0_energy">   -596.61481853 </i>
   </energy>
  </scstep>
  <scstep>
   <time name="dav">   55.41   55.42</time>
   <time name="total">   59.94   59.95</time>
   <energy>
    <i name="e_fr_energy">   -596.61813499 </i>
    <i name="e_wo_entrp">   -596.61813499 </i>
    <i name="e_0_energy">   -596.61813499 </i>
   </energy>
  </scstep>
  <scstep>
   <time name="dav">   53.96   53.97</time>
   <time name="total">   58.41   58.42</time>
   <energy>
    <i name="e_fr_energy">   -596.62042555 </i>
    <i name="e_wo_entrp">   -596.62042555 </i>
    <i name="e_0_energy">   -596.62042555 </i>
   </energy>
  </scstep>
  <scstep>
   <time name="dav">   50.11   50.11</time>
   <time name="total">   54.59   54.60</time>
   <energy>
    <i name="e_fr_energy">   -596.62133219 </i>
    <i name="e_wo_entrp">   -596.62133219 </i>
    <i name="e_0_energy">   -596.62133219 </i>
   </energy>
  </scstep>
  <scstep>
   <time name="dav">   49.85   49.85</time>
   <time name="total">   54.33   54.34</time>
   <energy>
    <i name="e_fr_energy">   -596.62182933 </i>
    <i name="e_wo_entrp">   -596.62182933 </i>
    <i name="e_0_energy">   -596.62182933 </i>
   </energy>
  </scstep>
  <scstep>
   <time name="dav">   47.49   47.49</time>
   <time name="total">   51.92   51.94</time>
   <energy>
    <i name="e_fr_energy">   -596.62213435 </i>
    <i name="e_wo_entrp">   -596.62213435 </i>
    <i name="e_0_energy">   -596.62213435 </i>
   </energy>
  </scstep>
  <scstep>
   <time name="dav">   46.14   46.14</time>
   <time name="total">   50.61   50.62</time>
   <energy>
    <i name="e_fr_energy">   -596.62235278 </i>
    <i name="e_wo_entrp">   -596.62235278 </i>
    <i name="e_0_energy">   -596.62235278 </i>
   </energy>
  </scstep>
  <scstep>
   <time name="dav">   37.11   37.11</time>
   <time name="total">   41.53   41.54</time>
   <energy>
    <i name="e_fr_energy">   -596.62243632 </i>
    <i name="e_wo_entrp">   -596.62243632 </i>
    <i name="e_0_energy">   -596.62243632 </i>
   </energy>
  </scstep>
  <scstep>
   <time name="dav">   33.45   33.45</time>
   <time name="total">   37.97   37.98</time>
   <energy>
    <i name="e_fr_energy">   -596.62246109 </i>
    <i name="e_wo_entrp">   -596.62246109 </i>
    <i name="e_0_energy">   -596.62246109 </i>
   </energy>
  </scstep>
  <scstep>
   <time name="dav">   35.98   35.98</time>
   <time name="total">   40.41   40.42</time>
   <energy>
    <i name="e_fr_energy">   -596.62248729 </i>
    <i name="e_wo_entrp">   -596.62248729 </i>
    <i name="e_0_energy">   -596.62248729 </i>
   </energy>
  </scstep>
  <scstep>
   <time name="dav">   33.32   33.33</time>
   <time name="total">   37.83   37.84</time>
   <energy>
    <i name="e_fr_energy">   -596.62249439 </i>
    <i name="e_wo_entrp">   -596.62249439 </i>
    <i name="e_0_energy">   -596.62249439 </i>
   </energy>
  </scstep>
  <scstep>
   <time name="dav">   33.39   33.39</time>
   <time name="total">   37.87   37.88</time>
   <energy>
    <i name="e_fr_energy">   -596.62250054 </i>
    <i name="e_wo_entrp">   -596.62250054 </i>
    <i name="e_0_energy">   -596.62250054 </i>
   </energy>
  </scstep>
  <scstep>
   <time name="dav">   32.53   32.53</time>
   <time name="total">   36.96   36.97</time>
   <energy>
    <i name="e_fr_energy">   -596.62250272 </i>
    <i name="e_wo_entrp">   -596.62250272 </i>
    <i name="e_0_energy">   -596.62250272 </i>
   </energy>
  </scstep>
  <scstep>
   <time name="dav">   33.48   33.48</time>
   <time name="total">   37.90   37.91</time>
   <energy>
    <i name="e_fr_energy">   -596.62250506 </i>
    <i name="e_wo_entrp">   -596.62250506 </i>
    <i name="e_0_energy">   -596.62250506 </i>
   </energy>
  </scstep>
  <scstep>
   <time name="dav">   32.53   32.53</time>
   <time name="total">   33.32   33.33</time>
   <energy>
    <i name="alphaZ">    871.83850952 </i>
    <i name="ewald"> 287382.49429684 </i>
    <i name="hartreedc">-342977.35307603 </i>
    <i name="XCdc">   3055.20703074 </i>
    <i name="pawpsdc">  66463.26036560 </i>
    <i name="pawaedc"> -66456.56535374 </i>
    <i name="eentropy">     -0.00000000 </i>
    <i name="bandstr"> -13142.94020460 </i>
    <i name="atom">  64207.43592568 </i>
    <i name="e_fr_energy">   -596.62250599 </i>
    <i name="e_wo_entrp">   -596.62250599 </i>
    <i name="e_0_energy">   -596.62250599 </i>
   </energy>
  </scstep>
  <structure>
   <crystal>
    <varray name="basis" >
     <v>      13.12862340       0.00000000       0.00000000 </v>
     <v>      -6.56431170      11.36972138       0.00000000 </v>
     <v>       0.00000000       0.00000000      26.82809424 </v>
    </varray>
    <i name="volume">   4004.59716953 </i>
    <varray name="rec_basis" >
     <v>       0.07616945       0.04397645       0.00000000 </v>
     <v>       0.00000000       0.08795290       0.00000000 </v>
     <v>       0.00000000       0.00000000       0.03727436 </v>
    </varray>
   </crystal>
   <varray name="positions" >
    <v>       0.08179253       0.16734824       0.44969791 </v>
    <v>       0.08970807       0.41262868       0.45040787 </v>
    <v>       0.07964202       0.65674319       0.45533629 </v>
    <v>       0.08048013       0.91474078       0.45386173 </v>
    <v>       0.33418294       0.16134813       0.45231458 </v>
    <v>       0.34629050       0.42037723       0.44540521 </v>
    <v>       0.33922286       0.67093709       0.44846070 </v>
    <v>       0.32405808       0.91151589       0.45178926 </v>
    <v>       0.58110402       0.16580704       0.45103043 </v>
    <v>       0.58825310       0.41402778       0.45943673 </v>
    <v>       0.59861780       0.67574452       0.44976248 </v>
    <v>       0.58265280       0.91525499       0.45322942 </v>
    <v>       0.83231253       0.17170093       0.45529346 </v>
    <v>       0.83249279       0.41831845       0.45424091 </v>
    <v>       0.83322998       0.66508450       0.45213352 </v>
    <v>       0.83734848       0.91708466       0.45596322 </v>
    <v>       0.16680095       0.08154737       0.54657859 </v>
    <v>       0.15666556       0.33089341       0.54278594 </v>
    <v>       0.16928131       0.57624941       0.54866463 </v>
    <v>       0.16489439       0.83644611       0.54398232 </v>
    <v>       0.41119571       0.07671752       0.54797251 </v>
    <v>       0.39966602       0.32596057       0.54450507 </v>
    <v>       0.41953308       0.57896889       0.54341157 </v>
    <v>       0.41568360       0.83050978       0.55008339 </v>
    <v>       0.65879567       0.07925984       0.54486439 </v>
    <v>       0.67188111       0.33409482       0.55272894 </v>
    <v>       0.67565699       0.58394928       0.54826573 </v>
    <v>       0.66560211       0.83826317       0.54946908 </v>
    <v>       0.91515390       0.08367826       0.54698400 </v>
    <v>       0.91465772       0.33553279       0.55108451 </v>
    <v>       0.92351062       0.58848819       0.54870810 </v>
    <v>       0.91532519       0.84057580       0.54847707 </v>
    <v>       0.08796777       0.16591933       0.59200677 </v>
    <v>       0.07860614       0.40948809       0.58663687 </v>
    <v>       0.08732511       0.67412572       0.59415944 </v>
    <v>       0.08912248       0.91998600       0.59072640 </v>
    <v>       0.32239423       0.16051956       0.58902327 </v>
    <v>       0.31320716       0.42907596       0.58475372 </v>
    <v>       0.34817123       0.66827187       0.58900508 </v>
    <v>       0.32821874       0.92797560       0.58803686 </v>
    <v>       0.57525995       0.16761508       0.59064836 </v>
    <v>       0.59795954       0.43265701       0.59102636 </v>
    <v>       0.56894821       0.65902048       0.58894307 </v>
    <v>       0.59122138       0.93258461       0.59324034 </v>
    <v>       0.82233512       0.16200798       0.59156611 </v>
    <v>       0.83621179       0.41137940       0.59089306 </v>
    <v>       0.83916126       0.67162876       0.59129651 </v>
    <v>       0.84429785       0.93284653       0.59602004 </v>
    <v>       0.16214190       0.08326254       0.41204762 </v>
    <v>       0.16967012       0.33329595       0.40380018 </v>
    <v>       0.14720055       0.56485961       0.40568407 </v>
    <v>       0.16683647       0.83318679       0.41183396 </v>
    <v>       0.41038189       0.07578755       0.40699992 </v>
    <v>       0.42924987       0.34658407       0.41026449 </v>
    <v>       0.43134655       0.58846452       0.41405365 </v>
    <v>       0.41438631       0.83978490       0.40943013 </v>
    <v>       0.67259110       0.09118707       0.41034022 </v>
    <v>       0.66766732       0.34597653       0.40973667 </v>
    <v>       0.68037433       0.59047850       0.41256983 </v>
    <v>       0.66979967       0.84237946       0.40805989 </v>
    <v>       0.91979841       0.07632771       0.41381488 </v>
    <v>       0.92319995       0.33873461       0.41343464 </v>
    <v>       0.90262196       0.56966038       0.40760288 </v>
    <v>       0.90710357       0.81498682       0.40829372 </v>
    <v>       0.99743144       0.99722518       0.49844713 </v>
    <v>       0.99424770       0.25190065       0.49763612 </v>
    <v>       0.00473516       0.50070078       0.50167739 </v>
    <v>       0.99467890       0.74207389       0.50165241 </v>
    <v>       0.24992365       0.99416458       0.50074973 </v>
    <v>       0.23878639       0.24476484       0.49731083 </v>
    <v>       0.24351889       0.49871650       0.49637919 </v>
    <v>       0.25821143       0.74596989       0.49682664 </v>
    <v>       0.49945714       0.00194761       0.49701988 </v>
    <v>       0.48785759       0.24176174       0.50328268 </v>
    <v>       0.50113599       0.49615182       0.50325462 </v>
    <v>       0.50574313       0.75749960       0.50053114 </v>
    <v>       0.74617806       0.99765154       0.50161341 </v>
    <v>       0.74726052       0.25281900       0.50261730 </v>
    <v>       0.75235349       0.50155056       0.50501650 </v>
    <v>       0.74961572       0.75572006       0.49806586 </v>
   </varray>
  </structure>
  <varray name="forces" >
   <v>       0.14043243      -0.04247288       0.33387971 </v>
   <v>      -1.04282411       0.61438625      -0.19890701 </v>
   <v>       0.40718962       0.20425938      -0.75582781 </v>
   <v>      -0.00501774      -0.35325610      -0.45111211 </v>
   <v>      -0.32494270       0.25874970       0.16574032 </v>
   <v>      -1.22181026      -0.32030926       1.72674819 </v>
   <v>      -0.49286592      -0.30845510       1.20542190 </v>
   <v>       1.30654845       0.07886661       0.00594892 </v>
   <v>      -0.02144033      -0.20586096       0.63068901 </v>
   <v>      -0.53957752      -0.05580413      -0.36423182 </v>
   <v>      -0.56116467      -0.03712596       1.04137863 </v>
   <v>      -0.15492175       0.44692272      -0.22021793 </v>
   <v>      -0.00135354      -0.29974176      -0.47717146 </v>
   <v>       0.44892934      -0.21267026       0.29463075 </v>
   <v>       0.71549066       0.06036493       0.71536123 </v>
   <v>      -0.95113758       0.15180010      -1.17177170 </v>
   <v>      -0.71354088       0.25580171       0.09961745 </v>
   <v>       1.00154487      -0.13525091       0.04578728 </v>
   <v>      -0.12962314       0.85625399      -0.91384515 </v>
   <v>       0.36754692      -1.06855774       1.35426121 </v>
   <v>       0.38195433       1.23925084      -0.54962136 </v>
   <v>       0.84084118       0.41175532       0.51728093 </v>
   <v>      -0.49320342       0.67042908       0.10130741 </v>
   <v>       0.01389312      -0.00405446      -1.23445061 </v>
   <v>       0.26169852       0.60133118       0.69796661 </v>
   <v>      -0.92047679      -0.21700398      -0.42272726 </v>
   <v>      -1.19276401       0.17393805       0.44888539 </v>
   <v>      -0.00265754      -0.48710316      -0.23035747 </v>
   <v>      -0.38299367       0.40787766       0.46655331 </v>
   <v>       0.25847145      -0.75646318      -1.23457964 </v>
   <v>       0.11187976      -0.15607434       0.44329841 </v>
   <v>       0.57804067      -0.63143784       0.18788428 </v>
   <v>      -0.32634717      -0.00764105      -0.67567345 </v>
   <v>       0.10502772       0.24445798       0.86367375 </v>
   <v>       0.17796022      -0.18321341      -0.55488135 </v>
   <v>      -0.24841919      -0.12421337      -0.34697821 </v>
   <v>       0.14763113       0.30495233       0.19502511 </v>
   <v>       0.79112237      -0.70449689       0.62525148 </v>
   <v>      -0.68061518      -0.02922545       0.18053683 </v>
   <v>       0.46956311      -1.28572025       0.74353679 </v>
   <v>       0.25005837      -0.14352784       0.07253004 </v>
   <v>      -0.04289382      -0.68957540       0.42822439 </v>
   <v>       0.63191451       0.53880976       0.14200779 </v>
   <v>      -0.20367863      -0.74293376      -0.18041455 </v>
   <v>       0.38616266       0.25104148      -0.31715955 </v>
   <v>      -0.38034868       0.38889071       0.68437879 </v>
   <v>      -0.21083685       0.13248530      -0.05614124 </v>
   <v>       0.02829334      -0.53633884      -0.71560038 </v>
   <v>       0.38175697      -0.29331110      -0.44913999 </v>
   <v>       0.14874094      -0.07015821       0.37018691 </v>
   <v>       0.21522920       0.78945559       0.17592292 </v>
   <v>      -0.47326437      -0.23981083      -0.33274558 </v>
   <v>      -0.09406282       0.41237506       0.27656776 </v>
   <v>       0.40799359      -0.60775523      -0.44261496 </v>
   <v>      -0.29132648       0.02739529      -1.13628586 </v>
   <v>       0.39314483      -0.31869646      -0.31157513 </v>
   <v>      -0.15935668      -0.07101161      -0.08828295 </v>
   <v>       0.22482189      -0.44520315       0.34268086 </v>
   <v>      -0.79782955      -0.61185074      -0.49582629 </v>
   <v>       0.14542771      -0.35764500       0.16742101 </v>
   <v>      -0.66020162       0.20146063      -0.75632193 </v>
   <v>      -0.62158988      -0.41430249      -0.39890339 </v>
   <v>       0.22502909       0.46581395       0.49475588 </v>
   <v>       0.19105912       0.89217086       0.14362441 </v>
   <v>       0.38986342       0.12820520       0.86364259 </v>
   <v>       0.70355806      -0.70039163       0.74934638 </v>
   <v>      -0.67411091      -0.03261093       0.35142940 </v>
   <v>       0.16328091       1.14728569      -0.55683628 </v>
   <v>      -1.09163461       0.53210556      -0.93796935 </v>
   <v>       1.09352209       0.36478922       0.07191455 </v>
   <v>       1.10859304       0.32852528      -0.16664401 </v>
   <v>      -1.06068062       0.18374905       0.92637416 </v>
   <v>      -0.11826929      -0.01851828       0.71120712 </v>
   <v>       0.38090997       0.88244124      -1.04935645 </v>
   <v>      -0.02504308      -0.01628391      -1.36789338 </v>
   <v>      -0.10726511      -0.44659568      -0.41759872 </v>
   <v>       0.41805631       0.47142191      -0.04750779 </v>
   <v>       0.02298530       0.01152706      -0.60067928 </v>
   <v>       0.26232853      -0.34293734      -0.74890815 </v>
   <v>       0.72159437      -0.40573582       1.31387968 </v>
  </varray>
  <varray name="stress" >
   <v>       3.35808535       0.56354636       2.50288636 </v>
   <v>       0.56354636       4.47715067      -1.39406780 </v>
   <v>       2.50288636      -1.39406778      -0.01497206 </v>
  </varray>
  <energy>
   <i name="e_fr_energy">   -596.62250599 </i>
   <i name="e_wo_entrp">   -596.62250599 </i>
   <i name="e_0_energy">     -0.00000000 </i>
  </energy>
  <time name="totalsc"> 1890.24 1890.66</time>
  <eigenvalues>
   <array>
    <dimension dim="1">band</dimension>
    <dimension dim="2">kpoint</dimension>
    <dimension dim="3">spin</dimension>
    <field>eigene</field>
    <field>occ</field>
    <set>
     <set comment="spin 1">
      <set comment="kpoint 1">
       <r>  -51.9667    1.0000 </r>
       <r>  -51.6604    1.0000 </r>
       <r>  -51.6438    1.0000 </r>
       <r>  -51.6258    1.0000 </r>
       <r>  -51.6057    1.0000 </r>
       <r>  -51.5872    1.0000 </r>
       <r>  -51.5743    1.0000 </r>
       <r>  -51.5440    1.0000 </r>
       <r>  -51.5321    1.0000 </r>
       <r>  -51.5253    1.0000 </r>
       <r>  -51.5089    1.0000 </r>
       <r>  -51.4859    1.0000 </r>
       <r>  -51.4519    1.0000 </r>
       <r>  -51.4361    1.0000 </r>
       <r>  -51.4321    1.0000 </r>
       <r>  -51.4187    1.0000 </r>
       <r>  -51.4160    1.0000 </r>
       <r>  -51.2869    1.0000 </r>
       <r>  -51.2860    1.0000 </r>
       <r>  -51.2756    1.0000 </r>
       <r>  -51.2589    1.0000 </r>
       <r>  -51.2358    1.0000 </r>
       <r>  -51.2284    1.0000 </r>
       <r>  -51.1971    1.0000 </r>
       <r>  -51.1906    1.0000 </r>
       <r>  -51.1822    1.0000 </r>
       <r>  -51.1385    1.0000 </r>
       <r>  -51.1179    1.0000 </r>
       <r>  -51.0724    1.0000 </r>
       <r>  -51.0715    1.0000 </r>
       <r>  -51.0392    1.0000 </r>
       <r>  -51.0314    1.0000 </r>
       <r>  -30.9910    1.0000 </r>
       <r>  -30.8517    1.0000 </r>
       <r>  -30.7195    1.0000 </r>
       <r>  -30.6684    1.0000 </r>
       <r>  -30.6484    1.0000 </r>
       <r>  -30.5948    1.0000 </r>
       <r>  -30.5645    1.0000 </r>
       <r>  -30.5363    1.0000 </r>
       <r>  -30.5212    1.0000 </r>
       <r>  -30.4948    1.0000 </r>
       <r>  -30.4898    1.0000 </r>
       <r>  -30.4705    1.0000 </r>
       <r>  -30.4622    1.0000 </r>
       <r>  -30.4563    1.0000 </r>
       <r>  -30.4505    1.0000 </r>
       <r>  -30.4442    1.0000 </r>
       <r>  -30.4200    1.0000 </r>
       <r>  -30.4163    1.0000 </r>
       <r>  -30.4094    1.0000 </r>
       <r>  -30.3930    1.0000 </r>
       <r>  -30.3749    1.0000 </r>
       <r>  -30.3674    1.0000 </r>
       <r>  -30.3629    1.0000 </r>
       <r>  -30.3523    1.0000 </r>
       <r>  -30.3445    1.0000 </r>
       <r>  -30.3388    1.0000 </r>
       <r>  -30.3245    1.0000 </r>
       <r>  -30.3016    1.0000 </r>
       <r>  -30.2953    1.0000 </r>
       <r>  -30.2888    1.0000 </r>
       <r>  -30.2698    1.0000 </r>
       <r>  -30.2571    1.0000 </r>
       <r>  -30.2510    1.0000 </r>
       <r>  -30.2446    1.0000 </r>
       <r>  -30.2399    1.0000 </r>
       <r>  -30.2294    1.0000 </r>
       <r>  -30.2227    1.0000 </r>
       <r>  -30.2082    1.0000 </r>
       <r>  -30.2006    1.0000 </r>
       <r>  -30.1952    1.0000 </r>
       <r>  -30.1874    1.0000 </r>
       <r>  -30.1728    1.0000 </r>
       <r>  -30.1651    1.0000 </r>
       <r>  -30.1599    1.0000 </r>
       <r>  -30.1527    1.0000 </r>
       <r>  -30.1399    1.0000 </r>
       <r>  -30.1326    1.0000 </r>
       <r>  -30.1244    1.0000 </r>
       <r>  -30.1194    1.0000 </r>
       <r>  -30.1155    1.0000 </r>
       <r>  -30.0981    1.0000 </r>
       <r>  -30.0895    1.0000 </r>
       <r>  -30.0818    1.0000 </r>
       <r>  -30.0745    1.0000 </r>
       <r>  -30.0657    1.0000 </r>
       <r>  -30.0562    1.0000 </r>
       <r>  -30.0405    1.0000 </r>
       <r>  -30.0247    1.0000 </r>
       <r>  -30.0179    1.0000 </r>
       <r>  -30.0118    1.0000 </r>
       <r>  -29.9970    1.0000 </r>
       <r>  -29.9813    1.0000 </r>
       <r>  -29.9744    1.0000 </r>
       <r>  -29.9571    1.0000 </r>
       <r>  -29.9510    1.0000 </r>
       <r>  -29.9389    1.0000 </r>
       <r>  -29.9360    1.0000 </r>
       <r>  -29.9309    1.0000 </r>
       <r>  -29.9206    1.0000 </r>
       <r>  -29.9125    1.0000 </r>
       <r>  -29.9033    1.0000 </r>
       <r>  -29.8986    1.0000 </r>
       <r>  -29.8907    1.0000 </r>
       <r>  -29.8890    1.0000 </r>
       <r>  -29.8838    1.0000 </r>
       <r>  -29.8748    1.0000 </r>
       <r>  -29.8636    1.0000 </r>
       <r>  -29.8487    1.0000 </r>
       <r>  -29.8417    1.0000 </r>
       <r>  -29.8375    1.0000 </r>
       <r>  -29.8186    1.0000 </r>
       <r>  -29.8182    1.0000 </r>
       <r>  -29.8159    1.0000 </r>
       <r>  -29.8051    1.0000 </r>
       <r>  -29.7943    1.0000 </r>
       <r>  -29.7811    1.0000 </r>
       <r>  -29.7749    1.0000 </r>
       <r>  -29.7616    1.0000 </r>
       <r>  -29.7550    1.0000 </r>
       <r>  -29.7316    1.0000 </r>
       <r>  -29.7288    1.0000 </r>
       <r>  -29.7211    1.0000 </r>
       <r>  -29.7175    1.0000 </r>
       <r>  -29.7084    1.0000 </r>
       <r>  -29.6891    1.0000 </r>
       <r>  -29.6838    1.0000 </r>
       <r>  -27.3005    1.0000 </r>
       <r>  -27.0422    1.0000 </r>
       <r>  -26.9233    1.0000 </r>
       <r>  -26.8493    1.0000 </r>
       <r>  -26.8142    1.0000 </r>
       <r>  -26.7893    1.0000 </r>
       <r>  -26.7263    1.0000 </r>
       <r>  -26.6453    1.0000 </r>
       <r>  -26.6106    1.0000 </r>
       <r>  -26.5924    1.0000 </r>
       <r>  -26.5780    1.0000 </r>
       <r>  -26.5733    1.0000 </r>
       <r>  -26.5488    1.0000 </r>
       <r>  -26.5423    1.0000 </r>
       <r>  -26.5388    1.0000 </r>
       <r>  -26.5325    1.0000 </r>
       <r>  -26.5092    1.0000 </r>
       <r>  -26.4948    1.0000 </r>
       <r>  -26.4865    1.0000 </r>
       <r>  -26.4777    1.0000 </r>
       <r>  -26.4645    1.0000 </r>
       <r>  -26.4617    1.0000 </r>
       <r>  -26.4574    1.0000 </r>
       <r>  -26.4458    1.0000 </r>
       <r>  -26.4202    1.0000 </r>
       <r>  -26.3648    1.0000 </r>
       <r>  -26.2107    1.0000 </r>
       <r>  -26.2058    1.0000 </r>
       <r>  -26.1794    1.0000 </r>
       <r>  -26.1208    1.0000 </r>
       <r>  -26.1202    1.0000 </r>
       <r>  -26.0569    1.0000 </r>
       <r>  -11.9909    1.0000 </r>
       <r>  -11.6189    1.0000 </r>
       <r>  -11.5939    1.0000 </r>
       <r>  -11.5626    1.0000 </r>
       <r>  -11.5206    1.0000 </r>
       <r>  -11.4872    1.0000 </r>
       <r>  -11.4657    1.0000 </r>
       <r>  -11.0797    1.0000 </r>
       <r>  -11.0028    1.0000 </r>
       <r>  -10.9711    1.0000 </r>
       <r>  -10.9326    1.0000 </r>
       <r>  -10.9149    1.0000 </r>
       <r>  -10.8851    1.0000 </r>
       <r>  -10.8332    1.0000 </r>
       <r>  -10.8205    1.0000 </r>
       <r>  -10.7966    1.0000 </r>
       <r>   -9.6144    1.0000 </r>
       <r>   -9.6031    1.0000 </r>
       <r>   -9.4081    1.0000 </r>
       <r>   -9.3692    1.0000 </r>
       <r>   -9.2820    1.0000 </r>
       <r>   -9.2097    1.0000 </r>
       <r>   -9.1722    1.0000 </r>
       <r>   -9.1589    1.0000 </r>
       <r>   -9.1442    1.0000 </r>
       <r>   -9.1342    1.0000 </r>
       <r>   -9.0749    1.0000 </r>
       <r>   -9.0686    1.0000 </r>
       <r>   -9.0416    1.0000 </r>
       <r>   -9.0293    1.0000 </r>
       <r>   -8.9768    1.0000 </r>
       <r>   -8.9439    1.0000 </r>
       <r>   -8.9267    1.0000 </r>
       <r>   -8.9045    1.0000 </r>
       <r>   -8.8906    1.0000 </r>
       <r>   -8.8577    1.0000 </r>
       <r>   -8.8557    1.0000 </r>
       <r>   -8.8317    1.0000 </r>
       <r>   -8.8078    1.0000 </r>
       <r>   -8.7966    1.0000 </r>
       <r>   -8.7812    1.0000 </r>
       <r>   -8.7695    1.0000 </r>
       <r>   -8.7587    1.0000 </r>
       <r>   -8.7419    1.0000 </r>
       <r>   -8.7177    1.0000 </r>
       <r>   -8.7041    1.0000 </r>
       <r>   -8.6982    1.0000 </r>
       <r>   -8.6743    1.0000 </r>
       <r>   -8.6644    1.0000 </r>
       <r>   -8.6578    1.0000 </r>
       <r>   -8.6521    1.0000 </r>
       <r>   -8.6112    1.0000 </r>
       <r>   -8.6060    1.0000 </r>
       <r>   -8.5855    1.0000 </r>
       <r>   -8.5811    1.0000 </r>
       <r>   -8.5735    1.0000 </r>
       <r>   -8.5438    1.0000 </r>
       <r>   -8.5297    1.0000 </r>
       <r>   -8.5181    1.0000 </r>
       <r>   -8.5060    1.0000 </r>
       <r>   -8.4733    1.0000 </r>
       <r>   -8.4622    1.0000 </r>
       <r>   -8.4593    1.0000 </r>
       <r>   -8.4407    1.0000 </r>
       <r>   -8.4323    1.0000 </r>
       <r>   -8.4210    1.0000 </r>
       <r>   -8.4153    1.0000 </r>
       <r>   -8.3979    1.0000 </r>
       <r>   -8.3845    1.0000 </r>
       <r>   -8.3793    1.0000 </r>
       <r>   -8.3754    1.0000 </r>
       <r>   -8.3615    1.0000 </r>
       <r>   -8.3551    1.0000 </r>
       <r>   -8.3460    1.0000 </r>
       <r>   -8.3361    1.0000 </r>
       <r>   -8.3267    1.0000 </r>
       <r>   -8.3100    1.0000 </r>
       <r>   -8.2955    1.0000 </r>
       <r>   -8.2892    1.0000 </r>
       <r>   -8.2772    1.0000 </r>
       <r>   -8.2721    1.0000 </r>
       <r>   -8.2697    1.0000 </r>
       <r>   -8.2458    1.0000 </r>
       <r>   -8.2419    1.0000 </r>
       <r>   -8.2317    1.0000 </r>
       <r>   -8.2237    1.0000 </r>
       <r>   -8.2183    1.0000 </r>
       <r>   -8.2052    1.0000 </r>
       <r>   -8.1911    1.0000 </r>
       <r>   -8.1864    1.0000 </r>
       <r>   -8.1779    1.0000 </r>
       <r>   -8.1654    1.0000 </r>
       <r>   -8.1487    1.0000 </r>
       <r>   -8.1375    1.0000 </r>
       <r>   -8.1276    1.0000 </r>
       <r>   -8.1103    1.0000 </r>
       <r>   -8.0926    1.0000 </r>
       <r>   -8.0508    1.0000 </r>
       <r>   -8.0315    1.0000 </r>
       <r>   -8.0017    1.0000 </r>
       <r>   -7.9842    1.0000 </r>
       <r>   -7.9560    1.0000 </r>
       <r>   -7.9360    1.0000 </r>
       <r>   -7.9302    1.0000 </r>
       <r>   -7.9192    1.0000 </r>
       <r>   -7.9104    1.0000 </r>
       <r>   -7.8965    1.0000 </r>
       <r>   -7.8805    1.0000 </r>
       <r>   -7.8591    1.0000 </r>
       <r>   -7.8461    1.0000 </r>
       <r>   -7.8268    1.0000 </r>
       <r>   -7.7533    1.0000 </r>
       <r>   -5.0797    1.0000 </r>
       <r>   -5.0506    1.0000 </r>
       <r>   -5.0284    1.0000 </r>
       <r>   -4.8240    1.0000 </r>
       <r>   -4.7910    1.0000 </r>
       <r>   -4.7499    1.0000 </r>
       <r>   -4.7112    1.0000 </r>
       <r>   -4.6805    1.0000 </r>
       <r>   -4.6578    1.0000 </r>
       <r>   -4.4059    1.0000 </r>
       <r>   -4.3374    1.0000 </r>
       <r>   -4.2879    1.0000 </r>
       <r>   -4.2420    1.0000 </r>
       <r>   -4.2263    1.0000 </r>
       <r>   -4.1893    1.0000 </r>
       <r>   -4.1571    1.0000 </r>
       <r>   -4.1307    1.0000 </r>
       <r>   -4.1085    1.0000 </r>
       <r>   -4.0970    1.0000 </r>
       <r>   -4.0709    1.0000 </r>
       <r>   -4.0577    1.0000 </r>
       <r>   -4.0446    1.0000 </r>
       <r>   -4.0131    1.0000 </r>
       <r>   -4.0083    1.0000 </r>
       <r>   -3.9627    1.0000 </r>
       <r>   -3.9385    1.0000 </r>
       <r>   -3.9263    1.0000 </r>
       <r>   -3.9193    1.0000 </r>
       <r>   -3.8680    1.0000 </r>
       <r>   -3.8373    1.0000 </r>
       <r>   -3.7993    1.0000 </r>
       <r>   -3.7778    1.0000 </r>
       <r>   -3.7547    1.0000 </r>
       <r>   -3.7439    1.0000 </r>
       <r>   -3.7143    1.0000 </r>
       <r>   -3.6985    1.0000 </r>
       <r>   -3.6616    1.0000 </r>
       <r>   -3.2546    1.0000 </r>
       <r>   -3.2272    1.0000 </r>
       <r>   -3.1846    1.0000 </r>
       <r>   -3.1300    1.0000 </r>
       <r>   -3.0759    1.0000 </r>
       <r>   -3.0627    1.0000 </r>
       <r>   -3.0530    1.0000 </r>
       <r>   -2.9881    1.0000 </r>
       <r>   -2.9367    1.0000 </r>
       <r>   -2.7741    1.0000 </r>
       <r>   -2.7182    1.0000 </r>
       <r>   -1.7961    0.0000 </r>
       <r>   -1.7648    0.0000 </r>
       <r>   -1.7018    0.0000 </r>
       <r>   -1.1765    0.0000 </r>
       <r>   -1.1583    0.0000 </r>
       <r>   -1.1091    0.0000 </r>
       <r>   -1.1001    0.0000 </r>
       <r>   -1.0380    0.0000 </r>
       <r>   -1.0210    0.0000 </r>
       <r>   -0.4458    0.0000 </r>
       <r>   -0.3845    0.0000 </r>
       <r>   -0.3587    0.0000 </r>
       <r>   -0.3432    0.0000 </r>
       <r>   -0.3059    0.0000 </r>
       <r>   -0.2745    0.0000 </r>
       <r>   -0.2123    0.0000 </r>
       <r>   -0.1937    0.0000 </r>
       <r>   -0.1149    0.0000 </r>
       <r>   -0.0804    0.0000 </r>
       <r>   -0.0541    0.0000 </r>
       <r>   -0.0177    0.0000 </r>
       <r>   -0.0001    0.0000 </r>
       <r>    0.0339    0.0000 </r>
       <r>    0.0865    0.0000 </r>
       <r>    0.3731    0.0000 </r>
       <r>    0.4048    0.0000 </r>
       <r>    0.4286    0.0000 </r>
       <r>    0.4659    0.0000 </r>
       <r>    0.4842    0.0000 </r>
       <r>    0.5116    0.0000 </r>
       <r>    0.5199    0.0000 </r>
       <r>    0.5516    0.0000 </r>
       <r>    0.5617    0.0000 </r>
       <r>    0.5975    0.0000 </r>
       <r>    0.6121    0.0000 </r>
       <r>    0.6372    0.0000 </r>
       <r>    0.6609    0.0000 </r>
       <r>    0.6983    0.0000 </r>
       <r>    0.7172    0.0000 </r>
       <r>    0.7439    0.0000 </r>
       <r>    0.7968    0.0000 </r>
       <r>    0.8160    0.0000 </r>
       <r>    0.8341    0.0000 </r>
       <r>    0.8593    0.0000 </r>
       <r>    0.8748    0.0000 </r>
       <r>    0.8927    0.0000 </r>
       <r>    0.9320    0.0000 </r>
       <r>    0.9456    0.0000 </r>
       <r>    0.9755    0.0000 </r>
       <r>    0.9994    0.0000 </r>
       <r>    1.0222    0.0000 </r>
       <r>    1.0356    0.0000 </r>
       <r>    1.0845    0.0000 </r>
       <r>    1.0944    0.0000 </r>
       <r>    1.1127    0.0000 </r>
       <r>    1.1221    0.0000 </r>
       <r>    1.1274    0.0000 </r>
       <r>    1.1562    0.0000 </r>
       <r>    1.1667    0.0000 </r>
       <r>    1.1831    0.0000 </r>
       <r>    1.2034    0.0000 </r>
       <r>    1.2174    0.0000 </r>
       <r>    1.2492    0.0000 </r>
       <r>    1.2882    0.0000 </r>
      </set>
      <set comment="kpoint 2">
       <r>  -51.9667    1.0000 </r>
       <r>  -51.6604    1.0000 </r>
       <r>  -51.6438    1.0000 </r>
       <r>  -51.6258    1.0000 </r>
       <r>  -51.6057    1.0000 </r>
       <r>  -51.5872    1.0000 </r>
       <r>  -51.5743    1.0000 </r>
       <r>  -51.5441    1.0000 </r>
       <r>  -51.5321    1.0000 </r>
       <r>  -51.5253    1.0000 </r>
       <r>  -51.5089    1.0000 </r>
       <r>  -51.4859    1.0000 </r>
       <r>  -51.4519    1.0000 </r>
       <r>  -51.4361    1.0000 </r>
       <r>  -51.4321    1.0000 </r>
       <r>  -51.4187    1.0000 </r>
       <r>  -51.4160    1.0000 </r>
       <r>  -51.2869    1.0000 </r>
       <r>  -51.2859    1.0000 </r>
       <r>  -51.2756    1.0000 </r>
       <r>  -51.2589    1.0000 </r>
       <r>  -51.2358    1.0000 </r>
       <r>  -51.2284    1.0000 </r>
       <r>  -51.1971    1.0000 </r>
       <r>  -51.1906    1.0000 </r>
       <r>  -51.1822    1.0000 </r>
       <r>  -51.1385    1.0000 </r>
       <r>  -51.1179    1.0000 </r>
       <r>  -51.0724    1.0000 </r>
       <r>  -51.0715    1.0000 </r>
       <r>  -51.0392    1.0000 </r>
       <r>  -51.0314    1.0000 </r>
       <r>  -30.9907    1.0000 </r>
       <r>  -30.8509    1.0000 </r>
       <r>  -30.7180    1.0000 </r>
       <r>  -30.6649    1.0000 </r>
       <r>  -30.6484    1.0000 </r>
       <r>  -30.5882    1.0000 </r>
       <r>  -30.5622    1.0000 </r>
       <r>  -30.5361    1.0000 </r>
       <r>  -30.5246    1.0000 </r>
       <r>  -30.4974    1.0000 </r>
       <r>  -30.4856    1.0000 </r>
       <r>  -30.4807    1.0000 </r>
       <r>  -30.4668    1.0000 </r>
       <r>  -30.4581    1.0000 </r>
       <r>  -30.4508    1.0000 </r>
       <r>  -30.4385    1.0000 </r>
       <r>  -30.4269    1.0000 </r>
       <r>  -30.4155    1.0000 </r>
       <r>  -30.4104    1.0000 </r>
       <r>  -30.3926    1.0000 </r>
       <r>  -30.3810    1.0000 </r>
       <r>  -30.3730    1.0000 </r>
       <r>  -30.3642    1.0000 </r>
       <r>  -30.3564    1.0000 </r>
       <r>  -30.3410    1.0000 </r>
       <r>  -30.3303    1.0000 </r>
       <r>  -30.3226    1.0000 </r>
       <r>  -30.3072    1.0000 </r>
       <r>  -30.2986    1.0000 </r>
       <r>  -30.2871    1.0000 </r>
       <r>  -30.2810    1.0000 </r>
       <r>  -30.2688    1.0000 </r>
       <r>  -30.2511    1.0000 </r>
       <r>  -30.2415    1.0000 </r>
       <r>  -30.2324    1.0000 </r>
       <r>  -30.2275    1.0000 </r>
       <r>  -30.2187    1.0000 </r>
       <r>  -30.2157    1.0000 </r>
       <r>  -30.2052    1.0000 </r>
       <r>  -30.1964    1.0000 </r>
       <r>  -30.1845    1.0000 </r>
       <r>  -30.1744    1.0000 </r>
       <r>  -30.1613    1.0000 </r>
       <r>  -30.1543    1.0000 </r>
       <r>  -30.1467    1.0000 </r>
       <r>  -30.1356    1.0000 </r>
       <r>  -30.1296    1.0000 </r>
       <r>  -30.1223    1.0000 </r>
       <r>  -30.1163    1.0000 </r>
       <r>  -30.1146    1.0000 </r>
       <r>  -30.0983    1.0000 </r>
       <r>  -30.0869    1.0000 </r>
       <r>  -30.0821    1.0000 </r>
       <r>  -30.0741    1.0000 </r>
       <r>  -30.0617    1.0000 </r>
       <r>  -30.0502    1.0000 </r>
       <r>  -30.0423    1.0000 </r>
       <r>  -30.0276    1.0000 </r>
       <r>  -30.0194    1.0000 </r>
       <r>  -30.0071    1.0000 </r>
       <r>  -29.9953    1.0000 </r>
       <r>  -29.9807    1.0000 </r>
       <r>  -29.9745    1.0000 </r>
       <r>  -29.9643    1.0000 </r>
       <r>  -29.9520    1.0000 </r>
       <r>  -29.9408    1.0000 </r>
       <r>  -29.9370    1.0000 </r>
       <r>  -29.9279    1.0000 </r>
       <r>  -29.9148    1.0000 </r>
       <r>  -29.9109    1.0000 </r>
       <r>  -29.9017    1.0000 </r>
       <r>  -29.8955    1.0000 </r>
       <r>  -29.8926    1.0000 </r>
       <r>  -29.8887    1.0000 </r>
       <r>  -29.8814    1.0000 </r>
       <r>  -29.8733    1.0000 </r>
       <r>  -29.8577    1.0000 </r>
       <r>  -29.8459    1.0000 </r>
       <r>  -29.8403    1.0000 </r>
       <r>  -29.8329    1.0000 </r>
       <r>  -29.8246    1.0000 </r>
       <r>  -29.8170    1.0000 </r>
       <r>  -29.8137    1.0000 </r>
       <r>  -29.8060    1.0000 </r>
       <r>  -29.7945    1.0000 </r>
       <r>  -29.7845    1.0000 </r>
       <r>  -29.7769    1.0000 </r>
       <r>  -29.7622    1.0000 </r>
       <r>  -29.7566    1.0000 </r>
       <r>  -29.7384    1.0000 </r>
       <r>  -29.7314    1.0000 </r>
       <r>  -29.7240    1.0000 </r>
       <r>  -29.7176    1.0000 </r>
       <r>  -29.7107    1.0000 </r>
       <r>  -29.6905    1.0000 </r>
       <r>  -29.6866    1.0000 </r>
       <r>  -27.3003    1.0000 </r>
       <r>  -27.0419    1.0000 </r>
       <r>  -26.9233    1.0000 </r>
       <r>  -26.8482    1.0000 </r>
       <r>  -26.8156    1.0000 </r>
       <r>  -26.7885    1.0000 </r>
       <r>  -26.7264    1.0000 </r>
       <r>  -26.6444    1.0000 </r>
       <r>  -26.6106    1.0000 </r>
       <r>  -26.5938    1.0000 </r>
       <r>  -26.5778    1.0000 </r>
       <r>  -26.5734    1.0000 </r>
       <r>  -26.5494    1.0000 </r>
       <r>  -26.5426    1.0000 </r>
       <r>  -26.5376    1.0000 </r>
       <r>  -26.5331    1.0000 </r>
       <r>  -26.5092    1.0000 </r>
       <r>  -26.4946    1.0000 </r>
       <r>  -26.4863    1.0000 </r>
       <r>  -26.4775    1.0000 </r>
       <r>  -26.4639    1.0000 </r>
       <r>  -26.4621    1.0000 </r>
       <r>  -26.4574    1.0000 </r>
       <r>  -26.4456    1.0000 </r>
       <r>  -26.4208    1.0000 </r>
       <r>  -26.3648    1.0000 </r>
       <r>  -26.2105    1.0000 </r>
       <r>  -26.2060    1.0000 </r>
       <r>  -26.1793    1.0000 </r>
[...]
       <r>   -32.3579     0.0000    64.0000 </r>
       <r>   -32.1625     0.0000    64.0000 </r>
       <r>   -31.9672     0.0000    64.0000 </r>
       <r>   -31.7718     0.0000    64.0000 </r>
       <r>   -31.5764     0.0000    64.0000 </r>
       <r>   -31.3810     0.0000    64.0000 </r>
       <r>   -31.1857     0.0000    64.0000 </r>
       <r>   -30.9903     5.1403    65.0043 </r>
       <r>   -30.7949    14.9173    67.9188 </r>
       <r>   -30.5995    35.9718    74.9469 </r>
       <r>   -30.4041   134.8874   101.3009 </r>
       <r>   -30.2088   195.0986   139.4188 </r>
       <r>   -30.0134   216.2491   181.6690 </r>
       <r>   -29.8180   231.8701   226.9712 </r>
       <r>   -29.6226   147.7641   255.8411 </r>
       <r>   -29.4273     0.8135   256.0000 </r>
       <r>   -29.2319     0.0000   256.0000 </r>
       <r>   -29.0365     0.0000   256.0000 </r>
       <r>   -28.8411     0.0000   256.0000 </r>
       <r>   -28.6457     0.0000   256.0000 </r>
       <r>   -28.4504     0.0000   256.0000 </r>
       <r>   -28.2550     0.0000   256.0000 </r>
       <r>   -28.0596     0.0000   256.0000 </r>
       <r>   -27.8642     0.0000   256.0000 </r>
       <r>   -27.6689     0.0000   256.0000 </r>
       <r>   -27.4735     0.0000   256.0000 </r>
       <r>   -27.2781     7.5244   257.4701 </r>
       <r>   -27.0827     3.9882   258.2493 </r>
       <r>   -26.8873    19.2426   262.0089 </r>
       <r>   -26.6920    40.2444   269.8717 </r>
       <r>   -26.4966   112.2166   291.7963 </r>
       <r>   -26.3012    82.6528   307.9449 </r>
       <r>   -26.1058    45.1463   316.7654 </r>
       <r>   -25.9105    16.5553   320.0000 </r>
       <r>   -25.7151     0.0002   320.0000 </r>
       <r>   -25.5197     0.0000   320.0000 </r>
       <r>   -25.3243     0.0000   320.0000 </r>
       <r>   -25.1289     0.0000   320.0000 </r>
       <r>   -24.9336     0.0000   320.0000 </r>
       <r>   -24.7382     0.0000   320.0000 </r>
       <r>   -24.5428     0.0000   320.0000 </r>
       <r>   -24.3474     0.0000   320.0000 </r>
       <r>   -24.1521     0.0000   320.0000 </r>
       <r>   -23.9567     0.0000   320.0000 </r>
       <r>   -23.7613     0.0000   320.0000 </r>
       <r>   -23.5659     0.0000   320.0000 </r>
       <r>   -23.3705     0.0000   320.0000 </r>
       <r>   -23.1752     0.0000   320.0000 </r>
       <r>   -22.9798     0.0000   320.0000 </r>
       <r>   -22.7844     0.0000   320.0000 </r>
       <r>   -22.5890     0.0000   320.0000 </r>
       <r>   -22.3937     0.0000   320.0000 </r>
       <r>   -22.1983     0.0000   320.0000 </r>
       <r>   -22.0029     0.0000   320.0000 </r>
       <r>   -21.8075     0.0000   320.0000 </r>
       <r>   -21.6121     0.0000   320.0000 </r>
       <r>   -21.4168     0.0000   320.0000 </r>
       <r>   -21.2214     0.0000   320.0000 </r>
       <r>   -21.0260     0.0000   320.0000 </r>
       <r>   -20.8306     0.0000   320.0000 </r>
       <r>   -20.6353     0.0000   320.0000 </r>
       <r>   -20.4399     0.0000   320.0000 </r>
       <r>   -20.2445     0.0000   320.0000 </r>
       <r>   -20.0491     0.0000   320.0000 </r>
       <r>   -19.8537     0.0000   320.0000 </r>
       <r>   -19.6584     0.0000   320.0000 </r>
       <r>   -19.4630     0.0000   320.0000 </r>
       <r>   -19.2676     0.0000   320.0000 </r>
       <r>   -19.0722     0.0000   320.0000 </r>
       <r>   -18.8769     0.0000   320.0000 </r>
       <r>   -18.6815     0.0000   320.0000 </r>
       <r>   -18.4861     0.0000   320.0000 </r>
       <r>   -18.2907     0.0000   320.0000 </r>
       <r>   -18.0953     0.0000   320.0000 </r>
       <r>   -17.9000     0.0000   320.0000 </r>
       <r>   -17.7046     0.0000   320.0000 </r>
       <r>   -17.5092     0.0000   320.0000 </r>
       <r>   -17.3138     0.0000   320.0000 </r>
       <r>   -17.1185     0.0000   320.0000 </r>
       <r>   -16.9231     0.0000   320.0000 </r>
       <r>   -16.7277     0.0000   320.0000 </r>
       <r>   -16.5323     0.0000   320.0000 </r>
       <r>   -16.3369     0.0000   320.0000 </r>
       <r>   -16.1416     0.0000   320.0000 </r>
       <r>   -15.9462     0.0000   320.0000 </r>
       <r>   -15.7508     0.0000   320.0000 </r>
       <r>   -15.5554     0.0000   320.0000 </r>
       <r>   -15.3601     0.0000   320.0000 </r>
       <r>   -15.1647     0.0000   320.0000 </r>
       <r>   -14.9693     0.0000   320.0000 </r>
       <r>   -14.7739     0.0000   320.0000 </r>
       <r>   -14.5785     0.0000   320.0000 </r>
       <r>   -14.3832     0.0000   320.0000 </r>
       <r>   -14.1878     0.0000   320.0000 </r>
       <r>   -13.9924     0.0000   320.0000 </r>
       <r>   -13.7970     0.0000   320.0000 </r>
       <r>   -13.6017     0.0000   320.0000 </r>
       <r>   -13.4063     0.0000   320.0000 </r>
       <r>   -13.2109     0.0000   320.0000 </r>
       <r>   -13.0155     0.0000   320.0000 </r>
       <r>   -12.8201     0.0000   320.0000 </r>
       <r>   -12.6248     0.0000   320.0000 </r>
       <r>   -12.4294     0.0000   320.0000 </r>
       <r>   -12.2340     0.0000   320.0000 </r>
       <r>   -12.0386     0.1241   320.0243 </r>
       <r>   -11.8433    10.6627   322.1075 </r>
       <r>   -11.6479    15.4088   325.1180 </r>
       <r>   -11.4525    17.5626   328.5494 </r>
       <r>   -11.2571    23.6331   333.1668 </r>
       <r>   -11.0618    26.4070   338.3261 </r>
       <r>   -10.8664    38.0876   345.7676 </r>
       <r>   -10.6710    31.1279   351.8493 </r>
       <r>   -10.4756     0.7716   352.0000 </r>
       <r>   -10.2802     0.0000   352.0000 </r>
       <r>   -10.0849     0.0000   352.0000 </r>
       <r>    -9.8895     0.0000   352.0000 </r>
       <r>    -9.6941     0.1246   352.0244 </r>
       <r>    -9.4987    20.3466   355.9996 </r>
       <r>    -9.3034    20.7529   360.0543 </r>
       <r>    -9.1080    59.1303   371.6070 </r>
       <r>    -8.9126    74.9925   386.2589 </r>
       <r>    -8.7172   121.6091   410.0186 </r>
       <r>    -8.5218   134.9759   436.3898 </r>
       <r>    -8.3265   176.0049   470.7773 </r>
       <r>    -8.1311   189.4164   507.7850 </r>
       <r>    -7.9357    96.7045   526.6789 </r>
       <r>    -7.7403    84.0296   543.0964 </r>
       <r>    -7.5450     4.6248   544.0000 </r>
       <r>    -7.3496     0.0000   544.0000 </r>
       <r>    -7.1542     0.0000   544.0000 </r>
       <r>    -6.9588     0.0000   544.0000 </r>
       <r>    -6.7634     0.0000   544.0000 </r>
       <r>    -6.5681     0.0000   544.0000 </r>
       <r>    -6.3727     0.0000   544.0000 </r>
       <r>    -6.1773     0.0000   544.0000 </r>
       <r>    -5.9819     0.0000   544.0000 </r>
       <r>    -5.7866     0.0000   544.0000 </r>
       <r>    -5.5912     0.0000   544.0000 </r>
       <r>    -5.3958     0.0000   544.0000 </r>
       <r>    -5.2004     0.0004   544.0001 </r>
       <r>    -5.0050    12.9281   546.5259 </r>
       <r>    -4.8097    38.4158   554.0315 </r>
       <r>    -4.6143    40.1794   561.8817 </r>
       <r>    -4.4189    21.7499   566.1311 </r>
       <r>    -4.2235    35.4608   573.0594 </r>
       <r>    -4.0282    44.4467   581.7433 </r>
       <r>    -3.8328    80.7023   597.5107 </r>
       <r>    -3.6374    82.8704   613.7017 </r>
       <r>    -3.4420    26.1143   618.8039 </r>
       <r>    -3.2466    37.9429   626.2171 </r>
       <r>    -3.0513    34.5877   632.9747 </r>
       <r>    -2.8559    25.6068   637.9777 </r>
       <r>    -2.6605    10.2862   639.9874 </r>
       <r>    -2.4651     0.0644   640.0000 </r>
       <r>    -2.2698     0.0000   640.0000 </r>
       <r>    -2.0744     0.0000   640.0000 </r>
       <r>    -1.8790     0.0115   640.0023 </r>
       <r>    -1.6836     6.4865   641.2696 </r>
       <r>    -1.4882    10.6613   643.3525 </r>
       <r>    -1.2929    22.8991   647.8265 </r>
       <r>    -1.0975    11.5982   650.0925 </r>
       <r>    -0.9021    20.7861   654.1537 </r>
       <r>    -0.7067    28.1059   659.6449 </r>
       <r>    -0.5114    22.8366   664.1067 </r>
       <r>    -0.3160    34.6326   670.8731 </r>
       <r>    -0.1206    29.4249   676.6221 </r>
       <r>     0.0748    36.9772   683.8466 </r>
       <r>     0.2702    24.8269   688.6973 </r>
       <r>     0.4655    31.1953   694.7921 </r>
       <r>     0.6609    53.8491   705.3130 </r>
       <r>     0.8563    94.6235   723.8003 </r>
       <r>     1.0517   102.3079   743.7890 </r>
       <r>     1.2470   100.9679   763.5159 </r>
       <r>     1.4424    22.9504   767.9999 </r>
       <r>     1.6378     0.0005   768.0000 </r>
       <r>     1.8332     0.0000   768.0000 </r>
       <r>     2.0286     0.0000   768.0000 </r>
       <r>     2.2239     0.0000   768.0000 </r>
       <r>     2.4193     0.0000   768.0000 </r>
       <r>     2.6147     0.0000   768.0000 </r>
       <r>     2.8101     0.0000   768.0000 </r>
       <r>     3.0054     0.0000   768.0000 </r>
       <r>     3.2008     0.0000   768.0000 </r>
       <r>     3.3962     0.0000   768.0000 </r>
       <r>     3.5916     0.0000   768.0000 </r>
       <r>     3.7870     0.0000   768.0000 </r>
       <r>     3.9823     0.0000   768.0000 </r>
      </set>
     </set>
    </array>
   </total>
  </dos>
 </calculation>
 <structure name="finalpos" >
  <crystal>
   <varray name="basis" >
    <v>      13.12862340       0.00000000       0.00000000 </v>
    <v>      -6.56431170      11.36972138       0.00000000 </v>
    <v>       0.00000000       0.00000000      26.82809424 </v>
   </varray>
   <i name="volume">   4004.59716953 </i>
   <varray name="rec_basis" >
    <v>       0.07616945       0.04397645       0.00000000 </v>
    <v>       0.00000000       0.08795290       0.00000000 </v>
    <v>       0.00000000       0.00000000       0.03727436 </v>
   </varray>
  </crystal>
  <varray name="positions" >
   <v>       0.08179253       0.16734824       0.44969791 </v>
   <v>       0.08970807       0.41262868       0.45040787 </v>
   <v>       0.07964202       0.65674319       0.45533629 </v>
   <v>       0.08048013       0.91474078       0.45386173 </v>
   <v>       0.33418294       0.16134813       0.45231458 </v>
   <v>       0.34629050       0.42037723       0.44540521 </v>
   <v>       0.33922286       0.67093709       0.44846070 </v>
   <v>       0.32405808       0.91151589       0.45178926 </v>
   <v>       0.58110402       0.16580704       0.45103043 </v>
   <v>       0.58825310       0.41402778       0.45943673 </v>
   <v>       0.59861780       0.67574452       0.44976248 </v>
   <v>       0.58265280       0.91525499       0.45322942 </v>
   <v>       0.83231253       0.17170093       0.45529346 </v>
   <v>       0.83249279       0.41831845       0.45424091 </v>
   <v>       0.83322998       0.66508450       0.45213352 </v>
   <v>       0.83734848       0.91708466       0.45596322 </v>
   <v>       0.16680095       0.08154737       0.54657859 </v>
   <v>       0.15666556       0.33089341       0.54278594 </v>
   <v>       0.16928131       0.57624941       0.54866463 </v>
   <v>       0.16489439       0.83644611       0.54398232 </v>
   <v>       0.41119571       0.07671752       0.54797251 </v>
   <v>       0.39966602       0.32596057       0.54450507 </v>
   <v>       0.41953308       0.57896889       0.54341157 </v>
   <v>       0.41568360       0.83050978       0.55008339 </v>
   <v>       0.65879567       0.07925984       0.54486439 </v>
   <v>       0.67188111       0.33409482       0.55272894 </v>
   <v>       0.67565699       0.58394928       0.54826573 </v>
   <v>       0.66560211       0.83826317       0.54946908 </v>
   <v>       0.91515390       0.08367826       0.54698400 </v>
   <v>       0.91465772       0.33553279       0.55108451 </v>
   <v>       0.92351062       0.58848819       0.54870810 </v>
   <v>       0.91532519       0.84057580       0.54847707 </v>
   <v>       0.08796777       0.16591933       0.59200677 </v>
   <v>       0.07860614       0.40948809       0.58663687 </v>
   <v>       0.08732511       0.67412572       0.59415944 </v>
   <v>       0.08912248       0.91998600       0.59072640 </v>
   <v>       0.32239423       0.16051956       0.58902327 </v>
   <v>       0.31320716       0.42907596       0.58475372 </v>
   <v>       0.34817123       0.66827187       0.58900508 </v>
   <v>       0.32821874       0.92797560       0.58803686 </v>
   <v>       0.57525995       0.16761508       0.59064836 </v>
   <v>       0.59795954       0.43265701       0.59102636 </v>
   <v>       0.56894821       0.65902048       0.58894307 </v>
   <v>       0.59122138       0.93258461       0.59324034 </v>
   <v>       0.82233512       0.16200798       0.59156611 </v>
   <v>       0.83621179       0.41137940       0.59089306 </v>
   <v>       0.83916126       0.67162876       0.59129651 </v>
   <v>       0.84429785       0.93284653       0.59602004 </v>
   <v>       0.16214190       0.08326254       0.41204762 </v>
   <v>       0.16967012       0.33329595       0.40380018 </v>
   <v>       0.14720055       0.56485961       0.40568407 </v>
   <v>       0.16683647       0.83318679       0.41183396 </v>
   <v>       0.41038189       0.07578755       0.40699992 </v>
   <v>       0.42924987       0.34658407       0.41026449 </v>
   <v>       0.43134655       0.58846452       0.41405365 </v>
   <v>       0.41438631       0.83978490       0.40943013 </v>
   <v>       0.67259110       0.09118707       0.41034022 </v>
   <v>       0.66766732       0.34597653       0.40973667 </v>
   <v>       0.68037433       0.59047850       0.41256983 </v>
   <v>       0.66979967       0.84237946       0.40805989 </v>
   <v>       0.91979841       0.07632771       0.41381488 </v>
   <v>       0.92319995       0.33873461       0.41343464 </v>
   <v>       0.90262196       0.56966038       0.40760288 </v>
   <v>       0.90710357       0.81498682       0.40829372 </v>
   <v>       0.99743144       0.99722518       0.49844713 </v>
   <v>       0.99424770       0.25190065       0.49763612 </v>
   <v>       0.00473516       0.50070078       0.50167739 </v>
   <v>       0.99467890       0.74207389       0.50165241 </v>
   <v>       0.24992365       0.99416458       0.50074973 </v>
   <v>       0.23878639       0.24476484       0.49731083 </v>
   <v>       0.24351889       0.49871650       0.49637919 </v>
   <v>       0.25821143       0.74596989       0.49682664 </v>
   <v>       0.49945714       0.00194761       0.49701988 </v>
   <v>       0.48785759       0.24176174       0.50328268 </v>
   <v>       0.50113599       0.49615182       0.50325462 </v>
   <v>       0.50574313       0.75749960       0.50053114 </v>
   <v>       0.74617806       0.99765154       0.50161341 </v>
   <v>       0.74726052       0.25281900       0.50261730 </v>
   <v>       0.75235349       0.50155056       0.50501650 </v>
   <v>       0.74961572       0.75572006       0.49806586 </v>
  </varray>
  <varray name="velocities" >
   <v>       0.00000000       0.00000000       0.00000000 </v>
   <v>       0.00000000       0.00000000       0.00000000 </v>
   <v>       0.00000000       0.00000000       0.00000000 </v>
   <v>       0.00000000       0.00000000       0.00000000 </v>
   <v>       0.00000000       0.00000000       0.00000000 </v>
   <v>       0.00000000       0.00000000       0.00000000 </v>
   <v>       0.00000000       0.00000000       0.00000000 </v>
   <v>       0.00000000       0.00000000       0.00000000 </v>
   <v>       0.00000000       0.00000000       0.00000000 </v>
   <v>       0.00000000       0.00000000       0.00000000 </v>
   <v>       0.00000000       0.00000000       0.00000000 </v>
   <v>       0.00000000       0.00000000       0.00000000 </v>
   <v>       0.00000000       0.00000000       0.00000000 </v>
   <v>       0.00000000       0.00000000       0.00000000 </v>
   <v>       0.00000000       0.00000000       0.00000000 </v>
   <v>       0.00000000       0.00000000       0.00000000 </v>
   <v>       0.00000000       0.00000000       0.00000000 </v>
   <v>       0.00000000       0.00000000       0.00000000 </v>
   <v>       0.00000000       0.00000000       0.00000000 </v>
   <v>       0.00000000       0.00000000       0.00000000 </v>
   <v>       0.00000000       0.00000000       0.00000000 </v>
   <v>       0.00000000       0.00000000       0.00000000 </v>
   <v>       0.00000000       0.00000000       0.00000000 </v>
   <v>       0.00000000       0.00000000       0.00000000 </v>
   <v>       0.00000000       0.00000000       0.00000000 </v>
   <v>       0.00000000       0.00000000       0.00000000 </v>
   <v>       0.00000000       0.00000000       0.00000000 </v>
   <v>       0.00000000       0.00000000       0.00000000 </v>
   <v>       0.00000000       0.00000000       0.00000000 </v>
   <v>       0.00000000       0.00000000       0.00000000 </v>
   <v>       0.00000000       0.00000000       0.00000000 </v>
   <v>       0.00000000       0.00000000       0.00000000 </v>
   <v>       0.00000000       0.00000000       0.00000000 </v>
   <v>       0.00000000       0.00000000       0.00000000 </v>
   <v>       0.00000000       0.00000000       0.00000000 </v>
   <v>       0.00000000       0.00000000       0.00000000 </v>
   <v>       0.00000000       0.00000000       0.00000000 </v>
   <v>       0.00000000       0.00000000       0.00000000 </v>
   <v>       0.00000000       0.00000000       0.00000000 </v>
   <v>       0.00000000       0.00000000       0.00000000 </v>
   <v>       0.00000000       0.00000000       0.00000000 </v>
   <v>       0.00000000       0.00000000       0.00000000 </v>
   <v>       0.00000000       0.00000000       0.00000000 </v>
   <v>       0.00000000       0.00000000       0.00000000 </v>
   <v>       0.00000000       0.00000000       0.00000000 </v>
   <v>       0.00000000       0.00000000       0.00000000 </v>
   <v>       0.00000000       0.00000000       0.00000000 </v>
   <v>       0.00000000       0.00000000       0.00000000 </v>
   <v>       0.00000000       0.00000000       0.00000000 </v>
   <v>       0.00000000       0.00000000       0.00000000 </v>
   <v>       0.00000000       0.00000000       0.00000000 </v>
   <v>       0.00000000       0.00000000       0.00000000 </v>
   <v>       0.00000000       0.00000000       0.00000000 </v>
   <v>       0.00000000       0.00000000       0.00000000 </v>
   <v>       0.00000000       0.00000000       0.00000000 </v>
   <v>       0.00000000       0.00000000       0.00000000 </v>
   <v>       0.00000000       0.00000000       0.00000000 </v>
   <v>       0.00000000       0.00000000       0.00000000 </v>
   <v>       0.00000000       0.00000000       0.00000000 </v>
   <v>       0.00000000       0.00000000       0.00000000 </v>
   <v>       0.00000000       0.00000000       0.00000000 </v>
   <v>       0.00000000       0.00000000       0.00000000 </v>
   <v>       0.00000000       0.00000000       0.00000000 </v>
   <v>       0.00000000       0.00000000       0.00000000 </v>
   <v>       0.00000000       0.00000000       0.00000000 </v>
   <v>       0.00000000       0.00000000       0.00000000 </v>
   <v>       0.00000000       0.00000000       0.00000000 </v>
   <v>       0.00000000       0.00000000       0.00000000 </v>
   <v>       0.00000000       0.00000000       0.00000000 </v>
   <v>       0.00000000       0.00000000       0.00000000 </v>
   <v>       0.00000000       0.00000000       0.00000000 </v>
   <v>       0.00000000       0.00000000       0.00000000 </v>
   <v>       0.00000000       0.00000000       0.00000000 </v>
   <v>       0.00000000       0.00000000       0.00000000 </v>
   <v>       0.00000000       0.00000000       0.00000000 </v>
   <v>       0.00000000       0.00000000       0.00000000 </v>
   <v>       0.00000000       0.00000000       0.00000000 </v>
   <v>       0.00000000       0.00000000       0.00000000 </v>
   <v>       0.00000000       0.00000000       0.00000000 </v>
   <v>       0.00000000       0.00000000       0.00000000 </v>
  </varray>
 </structure>
</modeling>
