 vasp.5.4.4.18Apr17-6-g9f103f2a35 (build Oct 31 2019 15:01:46) complex          
  
 executed on             LinuxIFC date 2024.04.30  03:04:17
 running on   52 total cores
 distrk:  each k-point on   52 cores,    1 groups
 distr:  one band on NCORES_PER_BAND=  13 cores,    4 groups


--------------------------------------------------------------------------------------------------------


 INCAR:
 POTCAR:    PAW_PBE Ca_sv 06Sep2000               
 POTCAR:    PAW_PBE Si 05Jan2001                  
 POTCAR:    PAW_PBE O 08Apr2002                   
 POTCAR:    PAW_PBE Ca_sv 06Sep2000               
   SHA256 =  a47365830e737f14e0e6c5cf1ed81b94e081eecf0a33df105380881bc9da05d5 Ca
   COPYR  = (c) Copyright 06Sep2000 Georg Kresse                                
   COPYR  = This file is part of the software VASP. Any use, copying, and all ot
   COPYR  = If you do not have a valid VASP license, you may not use, copy or di
   VRHFIN =Ca: 3s3p4s                                                           
   LEXCH  = PE                                                                  
   EATOM  =  1006.0909 eV,   73.9456 Ry                                         
                                                                                
   TITEL  = PAW_PBE Ca_sv 06Sep2000                                             
   LULTRA =        F    use ultrasoft PP ?                                      
   IUNSCR =        1    unscreen: 0-lin 1-nonlin 2-no                           
   RPACOR =    2.000    partial core radius                                     
   POMASS =   40.078; ZVAL   =   10.000    mass and valenz                      
   RCORE  =    2.300    outmost cutoff radius                                   
   RWIGS  =    2.500; RWIGS  =    1.323    wigner-seitz radius (au A)           
   ENMAX  =  266.622; ENMIN  =  199.967 eV                                      
   RCLOC  =    1.808    cutoff for local pot                                    
   LCOR   =        T    correct aug charges                                     
   LPAW   =        T    paw PP                                                  
   EAUG   =  420.852                                                            
   RMAX   =    2.359    core radius for proj-oper                               
   RAUG   =    1.300    factor for augmentation sphere                          
   RDEP   =    2.392    radius for radial grids                                 
   RDEPT  =    1.987    core radius for aug-charge                              
                                                                                
   Atomic configuration                                                         
    7 entries                                                                   
     n  l   j            E        occ.                                          
     1  0  0.50     -3949.1705   2.0000                                         
     2  0  0.50      -414.3434   2.0000                                         
     2  1  1.50      -334.7047   6.0000                                         
     3  0  0.50       -47.0896   2.0000                                         
     4  0  0.50        -3.7663   2.0000                                         
     3  1  1.50       -28.0061   6.0000                                         
     3  2  1.50        -4.0817   0.0000                                         
   Description                                                                  
     l       E           TYP  RCUT    TYP  RCUT                                 
     0    -47.0896403     23  2.300                                             
     0     -3.7663320     23  2.300                                             
     1    -28.0060855     23  2.300                                             
     1      6.8029130     23  2.300                                             
     2     -4.0817478     23  2.300                                             
     2      0.4464412     23  2.300                                             
  local pseudopotential read in
  partial core-charges read in
  partial kinetic energy density read in
  atomic valenz-charges read in
  non local Contribution for L=           0  read in
    real space projection operators read in
  non local Contribution for L=           0  read in
    real space projection operators read in
  non local Contribution for L=           1  read in
    real space projection operators read in
  non local Contribution for L=           1  read in
    real space projection operators read in
  non local Contribution for L=           2  read in
    real space projection operators read in
  non local Contribution for L=           2  read in
    real space projection operators read in
    PAW grid and wavefunctions read in
 
   number of l-projection  operators is LMAX  =           6
   number of lm-projection operators is LMMAX =          18
 
 POTCAR:    PAW_PBE Si 05Jan2001                  
   SHA256 =  79d9987ad8750f624c4d6acb2a16d13abf6a777132adc04dc6c8399be72b42bb Si
   COPYR  = (c) Copyright 05Jan2001 Georg Kresse                                
   COPYR  = This file is part of the software VASP. Any use, copying, and all ot
   COPYR  = If you do not have a valid VASP license, you may not use, copy or di
   VRHFIN =Si: s2p2                                                             
   LEXCH  = PE                                                                  
   EATOM  =   103.0669 eV,    7.5752 Ry                                         
                                                                                
   TITEL  = PAW_PBE Si 05Jan2001                                                
   LULTRA =        F    use ultrasoft PP ?                                      
   IUNSCR =        1    unscreen: 0-lin 1-nonlin 2-no                           
   RPACOR =    1.500    partial core radius                                     
   POMASS =   28.085; ZVAL   =    4.000    mass and valenz                      
   RCORE  =    1.900    outmost cutoff radius                                   
   RWIGS  =    2.480; RWIGS  =    1.312    wigner-seitz radius (au A)           
   ENMAX  =  245.345; ENMIN  =  184.009 eV                                      
   ICORE  =        2    local potential                                         
   LCOR   =        T    correct aug charges                                     
   LPAW   =        T    paw PP                                                  
   EAUG   =  322.069                                                            
   DEXC   =    0.000                                                            
   RMAX   =    1.950    core radius for proj-oper                               
   RAUG   =    1.300    factor for augmentation sphere                          
   RDEP   =    1.993    radius for radial grids                                 
   RDEPT  =    1.837    core radius for aug-charge                              
                                                                                
   Atomic configuration                                                         
    6 entries                                                                   
     n  l   j            E        occ.                                          
     1  0  0.50     -1785.8828   2.0000                                         
     2  0  0.50      -139.4969   2.0000                                         
     2  1  1.50       -95.5546   6.0000                                         
     3  0  0.50       -10.8127   2.0000                                         
     3  1  0.50        -4.0811   2.0000                                         
     3  2  1.50        -4.0817   0.0000                                         
   Description                                                                  
     l       E           TYP  RCUT    TYP  RCUT                                 
     0    -10.8127223     23  1.900                                             
     0     -7.6451159     23  1.900                                             
     1     -4.0811372     23  1.900                                             
     1      2.4879257     23  1.900                                             
     2     -4.0817478      7  1.900                                             
  local pseudopotential read in
  partial core-charges read in
  partial kinetic energy density read in
  atomic valenz-charges read in
  non local Contribution for L=           0  read in
    real space projection operators read in
  non local Contribution for L=           0  read in
    real space projection operators read in
  non local Contribution for L=           1  read in
    real space projection operators read in
  non local Contribution for L=           1  read in
    real space projection operators read in
    PAW grid and wavefunctions read in
 
   number of l-projection  operators is LMAX  =           4
   number of lm-projection operators is LMMAX =           8
 
 POTCAR:    PAW_PBE O 08Apr2002                   
   SHA256 =  818f92134a0a090dccd8ba1447fa70422a3b330e708bb4f08108d8ae51209ddf O/
   COPYR  = (c) Copyright 08Apr2002 Georg Kresse                                
   COPYR  = This file is part of the software VASP. Any use, copying, and all ot
   COPYR  = If you do not have a valid VASP license, you may not use, copy or di
   VRHFIN =O: s2p4                                                              
   LEXCH  = PE                                                                  
   EATOM  =   432.3788 eV,   31.7789 Ry                                         
                                                                                
   TITEL  = PAW_PBE O 08Apr2002                                                 
   LULTRA =        F    use ultrasoft PP ?                                      
   IUNSCR =        1    unscreen: 0-lin 1-nonlin 2-no                           
   RPACOR =    1.200    partial core radius                                     
   POMASS =   16.000; ZVAL   =    6.000    mass and valenz                      
   RCORE  =    1.520    outmost cutoff radius                                   
   RWIGS  =    1.550; RWIGS  =    0.820    wigner-seitz radius (au A)           
   ENMAX  =  400.000; ENMIN  =  300.000 eV                                      
   ICORE  =        2    local potential                                         
   LCOR   =        T    correct aug charges                                     
   LPAW   =        T    paw PP                                                  
   EAUG   =  605.392                                                            
   DEXC   =    0.000                                                            
   RMAX   =    1.553    core radius for proj-oper                               
   RAUG   =    1.300    factor for augmentation sphere                          
   RDEP   =    1.550    radius for radial grids                                 
   RDEPT  =    1.329    core radius for aug-charge                              
                                                                                
   Atomic configuration                                                         
    4 entries                                                                   
     n  l   j            E        occ.                                          
     1  0  0.50      -514.6923   2.0000                                         
     2  0  0.50       -23.9615   2.0000                                         
     2  1  0.50        -9.0305   4.0000                                         
     3  2  1.50        -9.5241   0.0000                                         
   Description                                                                  
     l       E           TYP  RCUT    TYP  RCUT                                 
     0    -23.9615318     23  1.200                                             
     0     -9.5240782     23  1.200                                             
     1     -9.0304911     23  1.520                                             
     1      8.1634956     23  1.520                                             
     2     -9.5240782      7  1.500                                             
  local pseudopotential read in
  partial core-charges read in
  partial kinetic energy density read in
  kinetic energy density of atom read in
  atomic valenz-charges read in
  non local Contribution for L=           0  read in
    real space projection operators read in
  non local Contribution for L=           0  read in
    real space projection operators read in
  non local Contribution for L=           1  read in
    real space projection operators read in
  non local Contribution for L=           1  read in
    real space projection operators read in
    PAW grid and wavefunctions read in
 
   number of l-projection  operators is LMAX  =           4
   number of lm-projection operators is LMMAX =           8
 
 Optimization of the real space projectors (new method)

 maximal supplied QI-value         = 16.25
 optimisation between [QCUT,QGAM] = [ 12.51, 25.03] = [ 43.85,175.40] Ry 
 Optimized for a Real-space Cutoff    1.47 Angstroem

   l    n(q)    QCUT    max X(q) W(low)/X(q) W(high)/X(q)  e(spline) 
   0     11    12.514    11.817    0.25E-04    0.32E-05    0.87E-07
   0     11    12.514     8.461    0.39E-04    0.59E-05    0.18E-06
   1     11    12.514     3.957    0.97E-05    0.57E-05    0.28E-07
   1     11    12.514     4.314    0.42E-04    0.14E-04    0.23E-06
   2     10    12.514    14.565    0.79E-04    0.50E-03    0.16E-05
   2     10    12.514    14.552    0.75E-04    0.48E-03    0.15E-05
 Optimization of the real space projectors (new method)

 maximal supplied QI-value         = 19.84
 optimisation between [QCUT,QGAM] = [ 12.50, 25.00] = [ 43.76,175.03] Ry 
 Optimized for a Real-space Cutoff    1.16 Angstroem

   l    n(q)    QCUT    max X(q) W(low)/X(q) W(high)/X(q)  e(spline) 
   0      9    12.501   159.560    0.10E-03    0.83E-04    0.71E-07
   0      9    12.501   115.863    0.99E-04    0.81E-04    0.70E-07
   1      8    12.501    88.339    0.20E-03    0.25E-03    0.76E-07
   1      8    12.501    48.592    0.20E-03    0.24E-03    0.75E-07
 Optimization of the real space projectors (new method)

 maximal supplied QI-value         = 24.76
 optimisation between [QCUT,QGAM] = [ 12.38, 25.00] = [ 42.90,175.06] Ry 
 Optimized for a Real-space Cutoff    1.16 Angstroem

   l    n(q)    QCUT    max X(q) W(low)/X(q) W(high)/X(q)  e(spline) 
   0      9    12.378    20.381    0.16E-03    0.67E-05    0.31E-06
   0      9    12.378    15.268    0.17E-03    0.81E-05    0.33E-06
   1      8    12.378     5.964    0.20E-03    0.16E-03    0.30E-06
   1      8    12.378     5.382    0.18E-03    0.14E-03    0.26E-06
  PAW_PBE Ca_sv 06Sep2000               :
 energy of atom  1       EATOM=-1006.0909
 kinetic energy error for atom=    0.0012 (will be added to EATOM!!)
  PAW_PBE Si 05Jan2001                  :
 energy of atom  2       EATOM= -103.0669
 kinetic energy error for atom=    0.0003 (will be added to EATOM!!)
  PAW_PBE O 08Apr2002                   :
 energy of atom  3       EATOM= -432.3788
 kinetic energy error for atom=    0.0168 (will be added to EATOM!!)
 
 
 POSCAR: Ca Si  O                                
  positions in direct lattice
  No initial velocities read in
 exchange correlation table for  LEXCH =        8
   RHO(1)=    0.500       N(1)  =     2000
   RHO(2)=  100.500       N(2)  =     4000
 


--------------------------------------------------------------------------------------------------------


 ion  position               nearest neighbor table
   1  0.935  0.623  0.421- 106 2.07  85 2.21  57 2.36 127 2.37  31 2.40 135 2.50  16 3.03  50 3.05
                            54 3.10
   2  0.209  0.847  0.491-  83 2.04  82 2.42  62 2.44  15 2.99
   3  0.838  0.191  0.989- 133 1.94  73 2.20  87 2.22 108 2.52  63 2.53  39 2.72
   4  0.593  0.471  0.623- 101 2.15  86 2.34   7 2.76  35 3.14
   5  0.374  0.203  0.200- 126 2.28  45 3.01  17 3.08
   6  0.502  0.015  0.753-  55 2.23 104 2.28  98 2.28 102 2.29  61 2.31  40 3.09  51 3.15
   7  0.433  0.452  0.785-  92 2.19 107 2.36 129 2.45   4 2.76  19 3.15
   8  0.476  0.001  0.478-  90 2.08  72 2.13 104 2.18  99 2.24  68 2.52  60 2.55  40 2.73
   9  0.088  0.333  0.426- 127 1.87  89 2.12 124 2.28  94 2.45  53 2.99  31 3.12
  10  0.987  0.870  0.263- 111 1.71 135 2.10 106 2.30  37 2.60  50 2.87  47 3.14
  11  0.312  0.858  0.971-  66 1.96  59 2.08  55 2.09  80 2.15  91 2.22  28 2.89  43 2.94  17 3.13

  12  0.798  0.466  0.058-  63 2.01  70 2.33 133 2.36 100 2.43  69 2.56  35 2.99  34 3.02  50 3.09

  13  0.944  0.216  0.648- 124 1.83  78 2.15  93 2.57  52 2.80
  14  0.695  0.907  0.345- 115 2.29 111 2.33  90 2.38  25 2.93  38 3.14
  15  0.114  0.789  0.713-  82 2.14  59 2.21  83 2.31 110 2.39   2 2.99  28 3.08
  16  0.922  0.516  0.647-  57 1.81  93 2.15  85 2.21 101 2.47 128 2.48  54 2.88   1 3.03
  17  0.262  0.975  0.197- 125 2.08  91 2.40   5 3.08  11 3.13
  18  0.265  0.139  0.615- 104 2.02  74 2.20  72 2.32  28 2.75
  19  0.552  0.279  0.939- 129 2.09 117 2.28 102 2.48  35 2.89   7 3.15
  20  0.574  0.372  0.274-  70 1.92  67 2.10 122 2.24  45 2.83  34 2.96
  21  0.078  0.732  0.050- 100 2.36 119 2.47 135 2.53 110 2.56  32 2.78  50 2.96
  22  0.036  0.438  0.891- 128 2.09  93 2.29  63 2.38  97 2.56  30 3.14
  23  0.549  0.797  0.156-  66 2.10 114 2.10  95 2.27  76 2.36  51 2.79  44 2.83  34 2.92
  24  0.350  0.485  0.057- 107 2.06 109 2.09 119 2.41  67 2.47 114 2.54  80 2.55  34 2.94  43 3.05
                            45 3.09  36 3.11
  25  0.686  0.706  0.480- 103 1.91  95 2.23  85 2.26 123 2.35  88 2.44  49 2.52  41 2.81  14 2.93
                            44 2.95
  26  0.822  0.929  0.845- 118 2.31  87 2.34  81 2.37  64 2.49  98 2.56  29 2.96  32 3.12
  27  0.579  0.689  0.851- 112 2.07  41 2.95
  28  0.238  0.997  0.791-  55 1.54  77 1.73  74 1.75  82 1.81  18 2.75  11 2.89  33 3.02  15 3.08

  29  0.741  1.000  0.626-  61 1.53  78 1.78  88 1.96  64 1.97  90 2.00  98 2.05  52 2.49  47 2.88
                            26 2.96
  30  0.187  0.411  0.681-  97 1.48  89 1.67  93 1.82  92 2.01 105 2.46  48 2.79  22 3.14
  31  0.128  0.586  0.392-  62 1.57 127 1.62  94 1.73 134 2.08   1 2.40  36 3.10   9 3.12
  32  0.903  0.692  0.908- 110 1.69 118 1.74 100 1.75 128 1.75  21 2.78  26 3.12
  33  0.292  0.205  0.919- 126 1.55 129 1.67  74 1.72  84 1.85  46 2.90  28 3.02
  34  0.574  0.560  0.116-  70 1.48  69 1.62 114 1.82  67 2.08 107 2.20  23 2.92  24 2.94  20 2.96
                            12 3.02
  35  0.730  0.395  0.831- 117 1.59  65 1.72 101 1.74  63 1.80  19 2.89  12 2.99  52 3.12   4 3.14

  36  0.298  0.675  0.222- 119 1.59 116 1.60 125 1.61 114 2.25  62 2.29  44 2.79  31 3.10  24 3.11

  37  0.849  0.947  0.118- 111 1.57 132 1.67 121 1.75  73 1.90  10 2.60
  38  0.649  0.102  0.180- 115 1.70  73 1.70 122 1.71  76 1.78  42 2.68  51 2.89  14 3.14
  39  0.023  0.070  0.947- 108 1.44  87 1.56  77 1.61 132 1.69  91 2.47   3 2.72  46 2.88
  40  0.537  0.195  0.575-  68 1.55  71 1.62 104 1.66  86 1.83  52 2.38   8 2.73   6 3.09
  41  0.515  0.760  0.627-  60 1.64 112 1.78 103 1.90  75 2.05  25 2.81  27 2.95
  42  0.809  0.230  0.264- 131 1.68 113 1.68 115 2.10 133 2.15  38 2.68
  43  0.265  0.639  0.876-  59 1.63  80 1.69 105 1.76  11 2.94  24 3.05
  44  0.473  0.725  0.365- 116 1.50  95 1.61  75 1.77  99 1.79  36 2.79  23 2.83  25 2.95
  45  0.349  0.427  0.305-  58 1.56 109 1.63  67 1.83  94 1.89  48 2.59  20 2.83   5 3.01  24 3.09

  46  0.111  0.254  0.068- 108 1.53  84 1.64  96 1.80  39 2.88  33 2.90
  47  0.927  0.900  0.514-  79 1.56  83 1.64 106 1.77  64 1.92  88 2.12  29 2.88  53 2.93  10 3.14

  48  0.348  0.397  0.518-  58 1.47  92 1.62  86 1.79  89 2.05  94 2.48  45 2.59  30 2.79
  49  0.772  0.741  0.667- 103 1.46  88 1.56  85 1.70 118 2.01  25 2.52  98 2.54
  50  0.880  0.674  0.181- 135 1.62  56 1.69 100 1.87 121 1.94  10 2.87  21 2.96   1 3.05  12 3.09

  51  0.559  0.969  0.002-  76 1.56 102 1.57  81 1.74  66 1.91  23 2.79  38 2.89   6 3.15
  52  0.713  0.201  0.662-  71 1.57  61 1.61  65 1.69  78 1.81 130 2.11  40 2.38  29 2.49  13 2.80
                            35 3.12
  53  0.014  0.098  0.406- 120 1.52 113 1.81  79 1.85 124 1.94  47 2.93   9 2.99
  54  0.805  0.408  0.471-  57 1.41 123 1.60 130 1.73 131 1.88  16 2.88   1 3.10
  55  0.350  0.974  0.848-  28 1.54  11 2.09   6 2.23
  56  0.781  0.591  0.234-  50 1.69
  57  0.904  0.453  0.513-  54 1.41  16 1.81   1 2.36
  58  0.398  0.371  0.410-  48 1.47  45 1.56
  59  0.219  0.765  0.860-  43 1.63  11 2.08  15 2.21
  60  0.424  0.860  0.626-  41 1.64   8 2.55
  61  0.673  0.078  0.697-  29 1.53  52 1.61   6 2.31
  62  0.166  0.704  0.355-  31 1.57  36 2.29   2 2.44
  63  0.848  0.388  0.920-  35 1.80  12 2.01  22 2.38   3 2.53
  64  0.897  0.964  0.656-  47 1.92  29 1.97  26 2.49
  65  0.763  0.270  0.773-  52 1.69  35 1.72
  66  0.468  0.840  0.009-  51 1.91  11 1.96  23 2.10
  67  0.460  0.496  0.229-  45 1.83  34 2.08  20 2.10  24 2.47
  68  0.604  0.165  0.470-  40 1.55   8 2.52
  69  0.666  0.632  0.053-  34 1.62  12 2.56
  70  0.640  0.471  0.168-  34 1.48  20 1.92  12 2.33
  71  0.594  0.245  0.685-  52 1.57  40 1.62
  72  0.356  0.126  0.447-   8 2.13  18 2.32
  73  0.752  0.067  0.091-  38 1.70  37 1.90   3 2.20
  74  0.253  0.141  0.797-  33 1.72  28 1.75  18 2.20
  75  0.477  0.660  0.496-  44 1.77  41 2.05
  76  0.569  0.989  0.129-  51 1.56  38 1.78  23 2.36
  77  0.126  0.028  0.874-  39 1.61  28 1.73
  78  0.810  0.121  0.580-  29 1.78  52 1.81  13 2.15
  79  0.908  0.990  0.424-  47 1.56  53 1.85
  80  0.303  0.684  0.002-  43 1.69  11 2.15  24 2.55
  81  0.682  0.899  0.979-  51 1.74  26 2.37
  82  0.181  0.945  0.663-  28 1.81  15 2.14   2 2.42
  83  0.050  0.854  0.545-  47 1.64   2 2.04  15 2.31
  84  0.200  0.310  0.982-  46 1.64  33 1.85
  85  0.843  0.663  0.574-  49 1.70   1 2.21  16 2.21  25 2.26
  86  0.469  0.330  0.573-  48 1.79  40 1.83   4 2.34
  87  0.926  0.091  0.863-  39 1.56   3 2.22  26 2.34
  88  0.779  0.846  0.593-  49 1.56  29 1.96  47 2.12  25 2.44
  89  0.196  0.339  0.564-  30 1.67  48 2.05   9 2.12
  90  0.626  0.933  0.528-  29 2.00   8 2.08  14 2.38
  91  0.160  0.943  0.029-  11 2.22  17 2.40  39 2.47
  92  0.337  0.465  0.633-  48 1.62  30 2.01   7 2.19
  93  0.039  0.397  0.706-  30 1.82  16 2.15  22 2.29  13 2.57
  94  0.222  0.479  0.379-  31 1.73  45 1.89   9 2.45  48 2.48
  95  0.597  0.718  0.319-  44 1.61  25 2.23  23 2.27
  96  0.128  0.227  0.214-  46 1.80
  97  0.221  0.393  0.798-  30 1.48  22 2.56
  98  0.649  0.900  0.726-  29 2.05   6 2.28  49 2.54  26 2.56
  99  0.461  0.871  0.347-  44 1.79   8 2.24
 100  0.913  0.629  0.037-  32 1.75  50 1.87  21 2.36  12 2.43
 101  0.736  0.494  0.726-  35 1.74   4 2.15  16 2.47
 102  0.538  0.074  0.928-  51 1.57   6 2.29  19 2.48
 103  0.661  0.704  0.636-  49 1.46  41 1.90  25 1.91
 104  0.430  0.116  0.610-  40 1.66  18 2.02   8 2.18   6 2.28
 105  0.171  0.590  0.776-  43 1.76  30 2.46
 106  0.907  0.792  0.418-  47 1.77   1 2.07  10 2.30
 107  0.488  0.514  0.962-  24 2.06  34 2.20   7 2.36
 108  0.042  0.159  0.024-  39 1.44  46 1.53   3 2.52
 109  0.279  0.406  0.192-  45 1.63  24 2.09
 110  0.991  0.792  0.867-  32 1.69  15 2.39  21 2.56
 111  0.859  0.926  0.246-  37 1.57  10 1.71  14 2.33
 112  0.482  0.648  0.716-  41 1.78  27 2.07
 113  0.928  0.174  0.310-  42 1.68  53 1.81
 114  0.456  0.653  0.126-  34 1.82  23 2.10  36 2.25  24 2.54
 115  0.712  0.092  0.304-  38 1.70  42 2.10  14 2.29
 116  0.387  0.650  0.317-  44 1.50  36 1.60
 117  0.625  0.446  0.891-  35 1.59  19 2.28
 118  0.790  0.741  0.832-  32 1.74  49 2.01  26 2.31
 119  0.220  0.613  0.138-  36 1.59  24 2.41  21 2.47
 120  0.111  0.030  0.364-  53 1.52
 121  0.830  0.804  0.101-  37 1.75  50 1.94
 122  0.589  0.229  0.159-  38 1.71  20 2.24
 123  0.739  0.521  0.451-  54 1.60  25 2.35
 124  0.042  0.188  0.536-  13 1.83  53 1.94   9 2.28
 125  0.290  0.805  0.195-  36 1.61  17 2.08
 126  0.310  0.147  0.032-  33 1.55   5 2.28
 127  0.054  0.475  0.374-  31 1.62   9 1.87   1 2.37
 128  0.968  0.587  0.834-  32 1.75  22 2.09  16 2.48
 129  0.400  0.266  0.858-  33 1.67  19 2.09   7 2.45
 130  0.781  0.348  0.598-  54 1.73  52 2.11
 131  0.772  0.281  0.387-  42 1.68  54 1.88
 132  0.953  0.009  0.051-  37 1.67  39 1.69
 133  0.762  0.279  0.100-   3 1.94  42 2.15  12 2.36
 134  0.123  0.615  0.561-  31 2.08
 135  0.998  0.698  0.240-  50 1.62  10 2.10   1 2.50  21 2.53
 

IMPORTANT INFORMATION: All symmetrisations will be switched off!
NOSYMM: (Re-)initialisation of all symmetry stuff for point group C_1.

 
 

Automatic generation of k-mesh.
 generate k-points for:    2    2    2
Space group operators:
 irot       det(A)        alpha          n_x          n_y          n_z        tau_x        tau_y        tau_z
    1     1.000000     0.000000     1.000000     0.000000     0.000000     0.000000     0.000000     0.000000
 
 Subroutine IBZKPT returns following result:
 ===========================================
 
 Found      8 irreducible k-points:
 
 Following reciprocal coordinates:
            Coordinates               Weight
  0.000000  0.000000  0.000000      1.000000
  0.500000  0.000000  0.000000      1.000000
  0.000000  0.500000  0.000000      1.000000
  0.500000  0.500000  0.000000      1.000000
  0.000000  0.000000  0.500000      1.000000
  0.500000  0.000000  0.500000      1.000000
  0.000000  0.500000  0.500000      1.000000
  0.500000  0.500000  0.500000      1.000000
 
 Following cartesian coordinates:
            Coordinates               Weight
  0.000000  0.000000  0.000000      1.000000
  0.041344  0.000000  0.000000      1.000000
  0.000000  0.041344  0.000000      1.000000
  0.041344  0.041344  0.000000      1.000000
  0.000000  0.000000  0.041344      1.000000
  0.041344  0.000000  0.041344      1.000000
  0.000000  0.041344  0.041344      1.000000
  0.041344  0.041344  0.041344      1.000000
 


--------------------------------------------------------------------------------------------------------




 Dimension of arrays:
   k-points           NKPTS =      8   k-points in BZ     NKDIM =      8   number of bands    NBANDS=    520
   number of dos      NEDOS =    301   number of ions     NIONS =    135
   non local maximal  LDIM  =      6   non local SUM 2l+1 LMDIM =     18
   total plane-waves  NPLWV = 941192
   max r-space proj   IRMAX =   7140   max aug-charges    IRDMAX= 203274
   dimension x,y,z NGX =    98 NGY =   98 NGZ =   98
   dimension x,y,z NGXF=   196 NGYF=  196 NGZF=  196
   support grid    NGXF=   392 NGYF=  392 NGZF=  392
   ions per type =              27  27  81
   NGX,Y,Z   is equivalent  to a cutoff of  13.47, 13.47, 13.47 a.u.
   NGXF,Y,Z  is equivalent  to a cutoff of  26.94, 26.94, 26.94 a.u.

 SYSTEM =  unknown system                          
 POSCAR =  Ca Si  O                                

 Startparameter for this run:
   NWRITE =      2    write-flag & timer
   PREC   = a         normal or accurate (medium, high low for compatibility)
   ISTART =      0    job   : 0-new  1-cont  2-samecut
   ICHARG =      2    charge: 1-file 2-atom 10-const
   ISPIN  =      1    spin polarized calculation?
   LNONCOLLINEAR =      F non collinear calculations
   LSORBIT =      F    spin-orbit coupling
   INIWAV =      1    electr: 0-lowe 1-rand  2-diag
   LASPH  =      F    aspherical Exc in radial PAW
   METAGGA=      F    non-selfconsistent MetaGGA calc.

 Electronic Relaxation 1
   ENCUT  =  600.0 eV  44.10 Ry    6.64 a.u.  24.15 24.15 24.15*2*pi/ulx,y,z
   ENINI  =  600.0     initial cutoff
   ENAUG  =  605.4 eV  augmentation charge cutoff
   NELM   =     60;   NELMIN=  2; NELMDL= -5     # of ELM steps 
   EDIFF  = 0.1E-05   stopping-criterion for ELM
   LREAL  =      T    real-space projection
   NLSPLINE    = F    spline interpolate recip. space projectors
   LCOMPAT=      F    compatible to vasp.4.4
   GGA_COMPAT  = T    GGA compatible to vasp.4.4-vasp.4.6
   LMAXPAW     = -100 max onsite density
   LMAXMIX     =    2 max onsite mixed and CHGCAR
   VOSKOWN=      0    Vosko Wilk Nusair interpolation
   ROPT   =   -0.00025  -0.00025  -0.00025
 Ionic relaxation
   EDIFFG = -.1E-01   stopping-criterion for IOM
   NSW    =      1    number of steps for IOM
   NBLOCK =      1;   KBLOCK =      1    inner block; outer block 
   IBRION =     -1    ionic relax: 0-MD 1-quasi-New 2-CG
   NFREE  =      0    steps in history (QN), initial steepest desc. (CG)
   ISIF   =      2    stress and relaxation
   IWAVPR =     10    prediction:  0-non 1-charg 2-wave 3-comb
   ISYM   =      0    0-nonsym 1-usesym 2-fastsym
   LCORR  =      T    Harris-Foulkes like correction to forces

   POTIM  = 1.0000    time-step for ionic-motion
   TEIN   =    0.0    initial temperature
   TEBEG  =    0.0;   TEEND  =   0.0 temperature during run
   SMASS  =  -3.00    Nose mass-parameter (am)
   estimated Nose-frequenzy (Omega)   =  0.10E-29 period in steps =****** mass=  -0.334E-26a.u.
   SCALEE = 1.0000    scale energy and forces
   NPACO  =    256;   APACO  = 16.0  distance and # of slots for P.C.
   PSTRESS=    0.0 pullay stress

  Mass of Ions in am
   POMASS =  40.08 28.09 16.00
  Ionic Valenz
   ZVAL   =  10.00  4.00  6.00
  Atomic Wigner-Seitz radii
   RWIGS  =  -1.00 -1.00 -1.00
  virtual crystal weights 
   VCA    =   1.00  1.00  1.00
   NELECT =     864.0000    total number of electrons
   NUPDOWN=      -1.0000    fix difference up-down

 DOS related values:
   EMIN   =  10.00;   EMAX   =-10.00  energy-range for DOS
   EFERMI =   0.00
   ISMEAR =     0;   SIGMA  =   0.05  broadening in eV -4-tet -1-fermi 0-gaus

 Electronic relaxation 2 (details)
   IALGO  =     38    algorithm
   LDIAG  =      T    sub-space diagonalisation (order eigenvalues)
   LSUBROT=      F    optimize rotation matrix (better conditioning)
   TURBO    =      0    0=normal 1=particle mesh
   IRESTART =      0    0=no restart 2=restart with 2 vectors
   NREBOOT  =      0    no. of reboots
   NMIN     =      0    reboot dimension
   EREF     =   0.00    reference energy to select bands
   IMIX   =      4    mixing-type and parameters
     AMIX     =   0.40;   BMIX     =  1.00
     AMIX_MAG =   1.60;   BMIX_MAG =  1.00
     AMIN     =   0.10
     WC   =   100.;   INIMIX=   1;  MIXPRE=   1;  MAXMIX= -45

 Intra band minimization:
   WEIMIN = 0.0000     energy-eigenvalue tresh-hold
   EBREAK =  0.48E-09  absolut break condition
   DEPER  =   0.30     relativ break condition  

   TIME   =   0.40     timestep for ELM

  volume/ion in A,a.u.               =      13.10        88.42
  Fermi-wavevector in a.u.,A,eV,Ry     =   1.289289  2.436404 22.616517  1.662267
  Thomas-Fermi vector in A             =   2.421191
 
 Write flags
   LWAVE        =      F    write WAVECAR
   LDOWNSAMPLE  =      F    k-point downsampling of WAVECAR
   LCHARG       =      F    write CHGCAR
   LVTOT        =      F    write LOCPOT, total local potential
   LVHAR        =      F    write LOCPOT, Hartree potential only
   LELF         =      F    write electronic localiz. function (ELF)
   LORBIT       =      0    0 simple, 1 ext, 2 COOP (PROOUT), +10 PAW based schemes


 Dipole corrections
   LMONO  =      F    monopole corrections only (constant potential shift)
   LDIPOL =      F    correct potential (dipole corrections)
   IDIPOL =      0    1-x, 2-y, 3-z, 4-all directions 
   EPSILON=  1.0000000 bulk dielectric constant

 Exchange correlation treatment:
   GGA     =    --    GGA type
   LEXCH   =     8    internal setting for exchange type
   VOSKOWN=      0    Vosko Wilk Nusair interpolation
   LHFCALC =     F    Hartree Fock is set to
   LHFONE  =     F    Hartree Fock one center treatment
   AEXX    =    0.0000 exact exchange contribution

 Linear response parameters
   LEPSILON=     F    determine dielectric tensor
   LRPA    =     F    only Hartree local field effects (RPA)
   LNABLA  =     F    use nabla operator in PAW spheres
   LVEL    =     F    velocity operator in full k-point grid
   LINTERFAST=   F  fast interpolation
   KINTER  =     0    interpolate to denser k-point grid
   CSHIFT  =0.1000    complex shift for real part using Kramers Kronig
   OMEGAMAX=  -1.0    maximum frequency
   DEG_THRESHOLD= 0.2000000E-02 threshold for treating states as degnerate
   RTIME   =   -0.100 relaxation time in fs
  (WPLASMAI=    0.000 imaginary part of plasma frequency in eV, 0.658/RTIME)
   DFIELD  = 0.0000000 0.0000000 0.0000000 field for delta impulse in time
 
 Orbital magnetization related:
   ORBITALMAG=     F  switch on orbital magnetization
   LCHIMAG   =     F  perturbation theory with respect to B field
   DQ        =  0.001000  dq finite difference perturbation B field
   LLRAUG    =     F  two centre corrections for induced B field



--------------------------------------------------------------------------------------------------------


 Static calculation
 charge density and potential will be updated during run
 non-spin polarized calculation
 Variant of blocked Davidson
 Davidson routine will perform the subspace rotation
 perform sub-space diagonalisation
    after iterative eigenvector-optimisation
 modified Broyden-mixing scheme, WC =      100.0
 initial mixing is a Kerker type mixing with AMIX =  0.4000 and BMIX =      1.0000
 Hartree-type preconditioning will be used
 using additional bands           88
 real space projection scheme for non local part
 use partial core corrections
 calculate Harris-corrections to forces 
   (improved forces if not selfconsistent)
 use gradient corrections 
 use of overlap-Matrix (Vanderbilt PP)
 Gauss-broadening in eV      SIGMA  =   0.05


--------------------------------------------------------------------------------------------------------


  energy-cutoff  :      600.00
  volume of cell :     1768.83
      direct lattice vectors                 reciprocal lattice vectors
    12.093787620  0.000000000  0.000000000     0.082687081  0.000000000  0.000000000
     0.000000000 12.093787620  0.000000000     0.000000000  0.082687081  0.000000000
     0.000000000  0.000000000 12.093787620     0.000000000  0.000000000  0.082687081

  length of vectors
    12.093787620 12.093787620 12.093787620     0.082687081  0.082687081  0.082687081


 
 k-points in units of 2pi/SCALE and weight: read from INCAR                         
   0.00000000  0.00000000  0.00000000       0.125
   0.04134354  0.00000000  0.00000000       0.125
   0.00000000  0.04134354  0.00000000       0.125
   0.04134354  0.04134354  0.00000000       0.125
   0.00000000  0.00000000  0.04134354       0.125
   0.04134354  0.00000000  0.04134354       0.125
   0.00000000  0.04134354  0.04134354       0.125
   0.04134354  0.04134354  0.04134354       0.125
 
 k-points in reciprocal lattice and weights: read from INCAR                         
   0.00000000  0.00000000  0.00000000       0.125
   0.50000000  0.00000000  0.00000000       0.125
   0.00000000  0.50000000  0.00000000       0.125
   0.50000000  0.50000000  0.00000000       0.125
   0.00000000  0.00000000  0.50000000       0.125
   0.50000000  0.00000000  0.50000000       0.125
   0.00000000  0.50000000  0.50000000       0.125
   0.50000000  0.50000000  0.50000000       0.125
 
 position of ions in fractional coordinates (direct lattice) 
   0.93500093  0.62340477  0.42146419
   0.20907858  0.84673198  0.49118635
   0.83840716  0.19110981  0.98920296
   0.59251115  0.47091621  0.62330932
   0.37401985  0.20320652  0.20009695
   0.50173238  0.01488192  0.75252088
   0.43308119  0.45232829  0.78543684
   0.47609389  0.00095342  0.47832253
   0.08840162  0.33318713  0.42591047
   0.98738822  0.86971788  0.26340471
   0.31189223  0.85801285  0.97073633
   0.79785298  0.46625445  0.05780467
   0.94420610  0.21589424  0.64828399
   0.69485009  0.90727921  0.34539817
   0.11432420  0.78889274  0.71254777
   0.92228168  0.51644632  0.64722312
   0.26241106  0.97457807  0.19653471
   0.26495435  0.13921600  0.61547443
   0.55208754  0.27865535  0.93906850
   0.57381026  0.37236786  0.27363308
   0.07846076  0.73167785  0.04985661
   0.03624212  0.43804035  0.89075674
   0.54927160  0.79703776  0.15596723
   0.34983292  0.48543926  0.05653794
   0.68647121  0.70598997  0.48016519
   0.82166447  0.92901276  0.84518474
   0.57872884  0.68946777  0.85100087
   0.23815125  0.99693122  0.79105674
   0.74119264  0.99968627  0.62555859
   0.18662671  0.41140224  0.68117527
   0.12756478  0.58576101  0.39182804
   0.90261337  0.69217757  0.90764963
   0.29179057  0.20468745  0.91885628
   0.57361053  0.56013402  0.11636202
   0.72961580  0.39545186  0.83057043
   0.29815872  0.67535825  0.22245824
   0.84904556  0.94657776  0.11779962
   0.64853631  0.10176758  0.17968164
   0.02266538  0.07006439  0.94682091
   0.53679060  0.19537375  0.57502054
   0.51507155  0.76023273  0.62685331
   0.80902743  0.22972707  0.26396531
   0.26466986  0.63926731  0.87584418
   0.47252412  0.72527334  0.36525167
   0.34875315  0.42724560  0.30544657
   0.11147034  0.25416814  0.06836763
   0.92663896  0.90035729  0.51432190
   0.34825161  0.39654703  0.51769456
   0.77191728  0.74059222  0.66714907
   0.88026884  0.67434578  0.18103878
   0.55864843  0.96912625  0.00242156
   0.71345920  0.20054877  0.66174183
   0.01405891  0.09824323  0.40597771
   0.80500406  0.40776019  0.47078862
   0.34997724  0.97421581  0.84828478
   0.78099771  0.59136824  0.23376689
   0.90400180  0.45342323  0.51293197
   0.39792882  0.37107245  0.41016157
   0.21877861  0.76468255  0.86032608
   0.42378060  0.85998099  0.62570661
   0.67311694  0.07835153  0.69731971
   0.16580255  0.70428370  0.35492531
   0.84794482  0.38842905  0.92006895
   0.89704549  0.96375780  0.65648061
   0.76347616  0.26960039  0.77281929
   0.46811575  0.83998960  0.00872938
   0.46006624  0.49586213  0.22855280
   0.60427741  0.16525985  0.47017165
   0.66633814  0.63241694  0.05288210
   0.63966341  0.47109266  0.16818234
   0.59384520  0.24452272  0.68536591
   0.35583510  0.12598025  0.44738318
   0.75160485  0.06692258  0.09060617
   0.25331032  0.14090274  0.79731079
   0.47707928  0.65955336  0.49601393
   0.56912505  0.98894075  0.12929459
   0.12588767  0.02802310  0.87392269
   0.81008152  0.12101189  0.57957680
   0.90789823  0.98987694  0.42350993
   0.30252872  0.68371491  0.00239510
   0.68214535  0.89869609  0.97904667
   0.18051432  0.94545212  0.66320717
   0.04981263  0.85355442  0.54517753
   0.19957844  0.30984125  0.98180055
   0.84284909  0.66342465  0.57374576
   0.46888423  0.33027775  0.57319496
   0.92600741  0.09065279  0.86330031
   0.77938988  0.84555409  0.59267251
   0.19554280  0.33931083  0.56412951
   0.62571643  0.93274627  0.52802855
   0.16013254  0.94300740  0.02896585
   0.33694803  0.46456030  0.63293228
   0.03929029  0.39676720  0.70624193
   0.22150409  0.47887265  0.37921048
   0.59716098  0.71844562  0.31937866
   0.12838639  0.22680190  0.21365427
   0.22070044  0.39252719  0.79762213
   0.64886311  0.89984781  0.72637997
   0.46053653  0.87136778  0.34734791
   0.91322113  0.62894429  0.03701727
   0.73554169  0.49442412  0.72633164
   0.53788876  0.07406863  0.92837558
   0.66143249  0.70404752  0.63583110
   0.43048026  0.11557164  0.61024038
   0.17111528  0.59033952  0.77616190
   0.90747234  0.79241731  0.41781773
   0.48831895  0.51372469  0.96213332
   0.04165106  0.15892145  0.02407063
   0.27937659  0.40589371  0.19234116
   0.99110945  0.79245149  0.86675886
   0.85876052  0.92563743  0.24560024
   0.48240655  0.64790101  0.71602660
   0.92762105  0.17403268  0.31015025
   0.45609087  0.65327278  0.12596172
   0.71181736  0.09163736  0.30447367
   0.38698845  0.65005861  0.31682084
   0.62500441  0.44605016  0.89147624
   0.78995685  0.74117090  0.83228098
   0.21956639  0.61263120  0.13792527
   0.11120184  0.03025588  0.36356466
   0.83033155  0.80431230  0.10147126
   0.58930774  0.22851200  0.15859765
   0.73906190  0.52080444  0.45100507
   0.04187503  0.18770501  0.53644953
   0.29001482  0.80508851  0.19545197
   0.31011083  0.14699413  0.03162452
   0.05403525  0.47527688  0.37442771
   0.96838863  0.58676433  0.83405158
   0.39979292  0.26584556  0.85834876
   0.78101448  0.34825224  0.59834410
   0.77234633  0.28087744  0.38740087
   0.95322225  0.00860594  0.05141519
   0.76199110  0.27926589  0.09978406
   0.12252560  0.61521898  0.56084905
   0.99801589  0.69787766  0.23957248
 
 position of ions in cartesian coordinates  (Angst):
  11.30770265  7.53932494  5.09709843
   2.52855199 10.24019669  5.94030340
  10.13951811  2.31124143 11.96321046
   7.16570402  5.69516064  7.53817050
   4.52331661  2.45753647  2.41992999
   6.06784487  0.17997878  9.10082771
   5.23759192  5.47036223  9.49890633
   5.75777839  0.01153049  5.78473108
   1.06911038  4.02949440  5.15087072
  11.94126344 10.51818330  3.18556061
   3.77195834 10.37662519 11.73987904
   9.64906444  5.63878235  0.69907737
  11.41902801  2.61097903  7.84020893
   8.40336942 10.97244207  4.17717216
   1.38261265  9.54070121  8.61740144
  11.15387874  6.24579213  7.82737898
   3.17354367 11.78634020  2.37684900
   3.20430166  1.68364873  7.44341707
   6.67682947  3.36999866 11.35689494
   6.93953947  4.50333781  3.30926041
   0.94888776  8.84875649  0.60295525
   0.43830454  5.29756698 10.77262278
   6.64277409  9.63920537  1.88623460
   4.23080498  5.87079928  0.68375778
   8.30203699  8.53809277  5.80701585
   9.93703562 11.23528304 10.22148469
   6.99902368  8.33827679 10.29182381
   2.88015066 12.05667450  9.56687216
   8.96382634 12.08999347  7.56537272
   2.25702374  4.97541133  8.23798901
   1.54274135  7.08406929  4.73868505
  10.91601439  8.37104856 10.97692190
   3.52885320  2.47544655 11.11245266
   6.93712391  6.77414187  1.40725751
   8.82381847  4.78251083 10.04474237
   3.60586827  8.16763924  2.69036274
  10.26817666 11.44771034  1.42464360
   7.84326036  1.23075554  2.17303163
   0.27411035  0.84734391 11.45065100
   6.49183156  2.36280865  6.95417630
   6.22916595  9.19409317  7.58103077
   9.78420588  2.77827037  3.19234040
   3.20086107  7.73116311 10.59227355
   5.71460632  8.77130168  4.41727615
   4.21774658  5.16701760  3.69400598
   1.34809864  3.07385546  0.82682357
  11.20657481 10.88872990  6.22009980
   4.21168107  4.79575559  6.26088810
   9.33540360  8.95656507  8.06835915
  10.64578439  8.15539460  2.18944451
   6.75617541 11.72040700  0.02928579
   8.62842400  2.42539429  8.00296510
   0.17002544  1.18813278  4.90980820
   9.73554812  4.93136516  5.69361753
   4.23255041 11.78195913 10.25897602
   9.44522044  7.15188188  2.82712710
  10.93280580  5.48360430  6.20329036
   4.81246665  4.48767140  4.96040686
   2.64586199  9.24790834 10.40460087
   5.12511254 10.40042750  7.56716280
   8.14053335  0.94756676  8.43323649
   2.00518078  8.51745750  4.29239128
  10.25486457  4.69757843 11.12711853
  10.84867762 11.65548211  7.93933712
   9.23331853  3.26048987  9.34631236
   5.66129250 10.15865577  0.10557131
   5.56394341  5.99685123  2.76406906
   7.30800267  1.99861752  5.68615603
   8.05855189  7.64831621  0.63954489
   7.73595338  5.69729463  2.03396154
   7.18183769  2.95720580  8.28866971
   4.30339412  1.52357840  5.41055717
   9.08974944  0.80934745  1.09577174
   3.06348126  1.70404784  9.64250736
   5.76969551  7.97649831  5.99868710
   6.88287753 11.96003943  1.56366130
   1.52245877  0.33890544 10.56903544
   9.79695385  1.46349214  7.00927878
  10.97992841 11.97136149  5.12183919
   3.65871808  8.26870290  0.02896578
   8.24972093 10.86863961 11.84038251
   2.18310181 11.43409716  8.02068666
   0.60242340 10.32270585  6.59326124
   2.41365925  3.74715432 11.87368729
  10.19323795  8.02331682  6.93875934
   5.67058635  3.99430902  6.93209808
  11.19893697  1.09633556 10.44057060
   9.42577571 10.22595155  7.16765552
   2.36485315  4.10355314  6.82246249
   7.56728161 11.28043532  6.38586520
   1.93660891 11.40453121  0.35030682
   4.07497787  5.61829358  7.65454853
   0.47516837  4.79841829  8.54113989
   2.67882340  5.79138412  4.58609103
   7.22193810  8.68872872  3.86249767
   1.55267776  2.74289397  2.58388935
   2.66910422  4.74714048  9.64627265
   7.84721262 10.88256830  8.78468503
   5.56963096 10.53813693  4.20075180
  11.04430242  7.60631871  0.44767896
   8.89548501  5.97946035  8.78410058
   6.50511244  0.89577023 11.22757704
   7.99922402  8.51460119  7.68960627
   5.20613685  1.39769884  7.38011755
   2.06943190  7.13944077  9.38673713
  10.97477771  9.58332663  5.05299888
   5.90562565  6.21287732 11.63583602
   0.50371913  1.92196222  0.29110506
   3.37872112  4.90879234  2.32613310
  11.98626723  9.58374002 10.48239757
  10.38566737 11.19446248  2.97023715
   5.83412236  7.83557725  8.65947364
  11.21845192  2.10471429  3.75089121
   5.51586613  7.90054223  1.52335431
   8.60856801  1.10824281  3.68223994
   4.68015616  7.86167080  3.83156400
   7.55867063  5.39443590 10.78132427
   9.55357038  8.96356349 10.06542946
   2.65538934  7.40903159  1.66803890
   1.34485145  0.36590824  4.39687381
  10.04185337  9.72718218  1.22717184
   7.12696262  2.76357555  1.91804633
   8.93805764  6.29849833  5.45435954
   0.50642777  2.27006451  6.48770668
   3.50737768  9.73656942  2.36375460
   3.75041447  1.77771584  0.38246022
   0.65349078  5.74789767  4.52824925
  11.71148648  7.09620321 10.08684268
   4.83501069  3.21507975 10.38068756
   9.44542327  4.21168861  7.23624649
   9.34059250  3.39687213  4.68514390
  11.52806750  0.10407836  0.62180443
   9.21535852  3.37738235  1.20676722
   1.48179853  7.44032765  6.78278935
  12.06979217  8.43998426  2.89733865
 


--------------------------------------------------------------------------------------------------------


 k-point  1 :   0.0000 0.0000 0.0000  plane waves:   58893
 k-point  2 :   0.5000 0.0000 0.0000  plane waves:   59080
 k-point  3 :   0.0000 0.5000 0.0000  plane waves:   59080
 k-point  4 :   0.5000 0.5000 0.0000  plane waves:   58996
 k-point  5 :   0.0000 0.0000 0.5000  plane waves:   59080
 k-point  6 :   0.5000 0.0000 0.5000  plane waves:   58996
 k-point  7 :   0.0000 0.5000 0.5000  plane waves:   58996
 k-point  8 :   0.5000 0.5000 0.5000  plane waves:   59152

 maximum and minimum number of plane-waves per node :      4596     4500

 maximum number of plane-waves:     59152
 maximum index in each direction: 
   IXMAX=   24   IYMAX=   24   IZMAX=   24
   IXMIN=  -24   IYMIN=  -24   IZMIN=  -24


 real space projection operators:
  total allocation   :      48966.66 KBytes
  max/ min on nodes  :       4008.59       3522.08


 parallel 3D FFT for wavefunctions:
    minimum data exchange during FFTs selected (reduces bandwidth)
 parallel 3D FFT for charge:
    minimum data exchange during FFTs selected (reduces bandwidth)


 total amount of memory used by VASP MPI-rank0   166778. kBytes
=======================================================================

   base      :      30000. kBytes
   nonlr-proj:      21289. kBytes
   fftplans  :      24448. kBytes
   grid      :      12995. kBytes
   one-center:        171. kBytes
   wavefun   :      77875. kBytes
 
     INWAV:  cpu time    0.0000: real time    0.0000
 Broyden mixing: mesh for mixing (old mesh)
   NGX = 49   NGY = 49   NGZ = 49
  (NGX  =196   NGY  =196   NGZ  =196)
  gives a total of 117649 points

 initial charge density was supplied:
 charge density of overlapping atoms calculated
 number of electron     864.0000000 magnetization 
 keeping initial charge density in first step


--------------------------------------------------------------------------------------------------------


 Maximum index for non-local projection operator          774
 Maximum index for augmentation-charges         6565 (set IRDMAX)


--------------------------------------------------------------------------------------------------------


 First call to EWALD:  gamma=   0.147
 Maximum number of real-space cells 3x 3x 3
 Maximum number of reciprocal cells 3x 3x 3

    FEWALD:  cpu time    0.0056: real time    0.0056


--------------------------------------- Iteration      1(   1)  ---------------------------------------


    POTLOK:  cpu time    0.1444: real time    0.1557
    SETDIJ:  cpu time    0.3390: real time    0.3410
     EDDAV:  cpu time   35.8503: real time   35.8528
       DOS:  cpu time    0.0030: real time    0.0030
    --------------------------------------------
      LOOP:  cpu time   36.3368: real time   36.3525

 eigenvalue-minimisations  :  8320
 total energy-change (2. order) : 0.9566737E+04  (-0.4780660E+05)
 number of electron     864.0000000 magnetization 
 augmentation part      864.0000000 magnetization 

 Free energy of the ion-electron system (eV)
  ---------------------------------------------------
  alpha Z        PSCENC =      2701.53174423
  Ewald energy   TEWEN  =    -44354.55221833
  -Hartree energ DENC   =    -19050.25206565
  -exchange      EXHF   =         0.00000000
  -V(xc)+E(xc)   XCENC  =      3169.79431573
  PAW double counting   =     50594.51003143   -49994.65612350
  entropy T*S    EENTRO =        -0.04156298
  eigenvalues    EBANDS =      1531.86215822
  atomic energy  EATOM  =     64968.54023382
  Solvation  Ediel_sol  =         0.00000000
  ---------------------------------------------------
  free energy    TOTEN  =      9566.73651297 eV

  energy without entropy =     9566.77807595  energy(sigma->0) =     9566.75729446


--------------------------------------------------------------------------------------------------------




--------------------------------------- Iteration      1(   2)  ---------------------------------------


     EDDAV:  cpu time   40.7881: real time   40.8033
       DOS:  cpu time    0.0012: real time    0.0012
    --------------------------------------------
      LOOP:  cpu time   40.7893: real time   40.8044

 eigenvalue-minimisations  :  9896
 total energy-change (2. order) :-0.9491380E+04  (-0.9190150E+04)
 number of electron     864.0000000 magnetization 
 augmentation part      864.0000000 magnetization 

 Free energy of the ion-electron system (eV)
  ---------------------------------------------------
  alpha Z        PSCENC =      2701.53174423
  Ewald energy   TEWEN  =    -44354.55221833
  -Hartree energ DENC   =    -19050.25206565
  -exchange      EXHF   =         0.00000000
  -V(xc)+E(xc)   XCENC  =      3169.79431573
  PAW double counting   =     50594.51003143   -49994.65612350
  entropy T*S    EENTRO =        -0.00000000
  eigenvalues    EBANDS =     -7959.55946020
  atomic energy  EATOM  =     64968.54023382
  Solvation  Ediel_sol  =         0.00000000
  ---------------------------------------------------
  free energy    TOTEN  =        75.35645753 eV

  energy without entropy =       75.35645753  energy(sigma->0) =       75.35645753


--------------------------------------------------------------------------------------------------------




--------------------------------------- Iteration      1(   3)  ---------------------------------------


     EDDAV:  cpu time   42.1457: real time   42.1645
       DOS:  cpu time    0.0010: real time    0.0010
    --------------------------------------------
      LOOP:  cpu time   42.1467: real time   42.1655

 eigenvalue-minimisations  : 10272
 total energy-change (2. order) :-0.1052972E+04  (-0.1044152E+04)
 number of electron     864.0000000 magnetization 
 augmentation part      864.0000000 magnetization 

 Free energy of the ion-electron system (eV)
  ---------------------------------------------------
  alpha Z        PSCENC =      2701.53174423
  Ewald energy   TEWEN  =    -44354.55221833
  -Hartree energ DENC   =    -19050.25206565
  -exchange      EXHF   =         0.00000000
  -V(xc)+E(xc)   XCENC  =      3169.79431573
  PAW double counting   =     50594.51003143   -49994.65612350
  entropy T*S    EENTRO =        -0.00000000
  eigenvalues    EBANDS =     -9012.53144566
  atomic energy  EATOM  =     64968.54023382
  Solvation  Ediel_sol  =         0.00000000
  ---------------------------------------------------
  free energy    TOTEN  =      -977.61552792 eV

  energy without entropy =     -977.61552792  energy(sigma->0) =     -977.61552792


--------------------------------------------------------------------------------------------------------




--------------------------------------- Iteration      1(   4)  ---------------------------------------


     EDDAV:  cpu time   45.8642: real time   45.8674
       DOS:  cpu time    0.0010: real time    0.0010
    --------------------------------------------
      LOOP:  cpu time   45.8652: real time   45.8684

 eigenvalue-minimisations  : 11496
 total energy-change (2. order) :-0.5287745E+02  (-0.5267669E+02)
 number of electron     864.0000000 magnetization 
 augmentation part      864.0000000 magnetization 

 Free energy of the ion-electron system (eV)
  ---------------------------------------------------
  alpha Z        PSCENC =      2701.53174423
  Ewald energy   TEWEN  =    -44354.55221833
  -Hartree energ DENC   =    -19050.25206565
  -exchange      EXHF   =         0.00000000
  -V(xc)+E(xc)   XCENC  =      3169.79431573
  PAW double counting   =     50594.51003143   -49994.65612350
  entropy T*S    EENTRO =        -0.00000000
  eigenvalues    EBANDS =     -9065.40890007
  atomic energy  EATOM  =     64968.54023382
  Solvation  Ediel_sol  =         0.00000000
  ---------------------------------------------------
  free energy    TOTEN  =     -1030.49298234 eV

  energy without entropy =    -1030.49298234  energy(sigma->0) =    -1030.49298234


--------------------------------------------------------------------------------------------------------




--------------------------------------- Iteration      1(   5)  ---------------------------------------


     EDDAV:  cpu time   56.0663: real time   56.0798
       DOS:  cpu time    0.0013: real time    0.0013
    CHARGE:  cpu time    1.4155: real time    1.4155
    MIXING:  cpu time    0.0064: real time    0.0067
    --------------------------------------------
      LOOP:  cpu time   57.4895: real time   57.5033

 eigenvalue-minimisations  : 14672
 total energy-change (2. order) :-0.5789146E+01  (-0.5786068E+01)
 number of electron     864.0000006 magnetization 
 augmentation part      133.7439215 magnetization 

 Broyden mixing:
  rms(total) = 0.85881E+01    rms(broyden)= 0.85874E+01
  rms(prec ) = 0.10284E+02
  weight for this iteration     100.00

 Free energy of the ion-electron system (eV)
  ---------------------------------------------------
  alpha Z        PSCENC =      2701.53174423
  Ewald energy   TEWEN  =    -44354.55221833
  -Hartree energ DENC   =    -19050.25206565
  -exchange      EXHF   =         0.00000000
  -V(xc)+E(xc)   XCENC  =      3169.79431573
  PAW double counting   =     50594.51003143   -49994.65612350
  entropy T*S    EENTRO =        -0.00000000
  eigenvalues    EBANDS =     -9071.19804585
  atomic energy  EATOM  =     64968.54023382
  Solvation  Ediel_sol  =         0.00000000
  ---------------------------------------------------
  free energy    TOTEN  =     -1036.28212812 eV

  energy without entropy =    -1036.28212812  energy(sigma->0) =    -1036.28212812


--------------------------------------------------------------------------------------------------------




--------------------------------------- Iteration      1(   6)  ---------------------------------------


    POTLOK:  cpu time    0.1408: real time    0.1446
    SETDIJ:  cpu time    0.3501: real time    0.3500
     EDDAV:  cpu time   41.0360: real time   41.0377
       DOS:  cpu time    0.0027: real time    0.0027
    CHARGE:  cpu time    1.3660: real time    1.3660
    MIXING:  cpu time    0.0062: real time    0.0062
    --------------------------------------------
      LOOP:  cpu time   42.9018: real time   42.9073

 eigenvalue-minimisations  :  9960
 total energy-change (2. order) : 0.1572283E+03  (-0.7262141E+02)
 number of electron     864.0000006 magnetization 
 augmentation part      118.6344580 magnetization 

 Broyden mixing:
  rms(total) = 0.40630E+01    rms(broyden)= 0.40618E+01
  rms(prec ) = 0.45856E+01
  weight for this iteration     100.00

 eigenvalues of (default mixing * dielectric matrix)
  average eigenvalue GAMMA=   0.9212
  0.9212

 Free energy of the ion-electron system (eV)
  ---------------------------------------------------
  alpha Z        PSCENC =      2701.53174423
  Ewald energy   TEWEN  =    -44354.55221833
  -Hartree energ DENC   =    -20524.01724312
  -exchange      EXHF   =         0.00000000
  -V(xc)+E(xc)   XCENC  =      3263.44675365
  PAW double counting   =     64944.82408473   -64484.42716893
  entropy T*S    EENTRO =        -0.02920769
  eigenvalues    EBANDS =     -7394.37083324
  atomic energy  EATOM  =     64968.54023382
  Solvation  Ediel_sol  =         0.00000000
  ---------------------------------------------------
  free energy    TOTEN  =      -879.05385489 eV

  energy without entropy =     -879.02464720  energy(sigma->0) =     -879.03925105


--------------------------------------------------------------------------------------------------------




--------------------------------------- Iteration      1(   7)  ---------------------------------------


    POTLOK:  cpu time    0.1470: real time    0.1613
    SETDIJ:  cpu time    0.3643: real time    0.3647
     EDDAV:  cpu time   42.9451: real time   42.9446
       DOS:  cpu time    0.0027: real time    0.0027
    CHARGE:  cpu time    1.3649: real time    1.3649
    MIXING:  cpu time    0.0057: real time    0.0057
    --------------------------------------------
      LOOP:  cpu time   44.8296: real time   44.8438

 eigenvalue-minimisations  : 10464
 total energy-change (2. order) :-0.5602729E+01  (-0.1071067E+02)
 number of electron     864.0000005 magnetization 
 augmentation part      118.7006722 magnetization 

 Broyden mixing:
  rms(total) = 0.23700E+01    rms(broyden)= 0.23697E+01
  rms(prec ) = 0.28350E+01
  weight for this iteration     100.00

 eigenvalues of (default mixing * dielectric matrix)
  average eigenvalue GAMMA=   0.9060
  1.0051  0.8069

 Free energy of the ion-electron system (eV)
  ---------------------------------------------------
  alpha Z        PSCENC =      2701.53174423
  Ewald energy   TEWEN  =    -44354.55221833
  -Hartree energ DENC   =    -20539.02723930
  -exchange      EXHF   =         0.00000000
  -V(xc)+E(xc)   XCENC  =      3262.10612210
  PAW double counting   =     75689.47120002   -75274.84120743
  entropy T*S    EENTRO =        -0.02152909
  eigenvalues    EBANDS =     -7337.86369028
  atomic energy  EATOM  =     64968.54023382
  Solvation  Ediel_sol  =         0.00000000
  ---------------------------------------------------
  free energy    TOTEN  =      -884.65658425 eV

  energy without entropy =     -884.63505516  energy(sigma->0) =     -884.64581971


--------------------------------------------------------------------------------------------------------




--------------------------------------- Iteration      1(   8)  ---------------------------------------


    POTLOK:  cpu time    0.1082: real time    0.1120
    SETDIJ:  cpu time    0.3288: real time    0.3288
     EDDAV:  cpu time   48.9531: real time   48.9522
       DOS:  cpu time    0.0017: real time    0.0017
    CHARGE:  cpu time    1.3591: real time    1.3590
    MIXING:  cpu time    0.0063: real time    0.0063
    --------------------------------------------
      LOOP:  cpu time   50.7573: real time   50.7601

 eigenvalue-minimisations  : 12456
 total energy-change (2. order) : 0.8539680E+01  (-0.2352948E+01)
 number of electron     864.0000005 magnetization 
 augmentation part      118.2031621 magnetization 

 Broyden mixing:
  rms(total) = 0.12813E+01    rms(broyden)= 0.12812E+01
  rms(prec ) = 0.14861E+01
  weight for this iteration     100.00

 eigenvalues of (default mixing * dielectric matrix)
  average eigenvalue GAMMA=   1.1337
  1.7123  0.9949  0.6938

 Free energy of the ion-electron system (eV)
  ---------------------------------------------------
  alpha Z        PSCENC =      2701.53174423
  Ewald energy   TEWEN  =    -44354.55221833
  -Hartree energ DENC   =    -20579.67285984
  -exchange      EXHF   =         0.00000000
  -V(xc)+E(xc)   XCENC  =      3263.15796312
  PAW double counting   =     80738.36943110   -80349.84738481
  entropy T*S    EENTRO =        -0.00000003
  eigenvalues    EBANDS =     -7263.64381324
  atomic energy  EATOM  =     64968.54023382
  Solvation  Ediel_sol  =         0.00000000
  ---------------------------------------------------
  free energy    TOTEN  =      -876.11690399 eV

  energy without entropy =     -876.11690395  energy(sigma->0) =     -876.11690397


--------------------------------------------------------------------------------------------------------




--------------------------------------- Iteration      1(   9)  ---------------------------------------


    POTLOK:  cpu time    0.1369: real time    0.1547
    SETDIJ:  cpu time    0.3536: real time    0.3536
     EDDAV:  cpu time   40.0639: real time   40.0639
       DOS:  cpu time    0.0026: real time    0.0026
    CHARGE:  cpu time    1.3719: real time    1.3719
    MIXING:  cpu time    0.0053: real time    0.0053
    --------------------------------------------
      LOOP:  cpu time   41.9342: real time   41.9520

 eigenvalue-minimisations  :  9656
 total energy-change (2. order) :-0.3730324E+01  (-0.1847941E+01)
 number of electron     864.0000006 magnetization 
 augmentation part      117.2945473 magnetization 

 Broyden mixing:
  rms(total) = 0.22625E+01    rms(broyden)= 0.22621E+01
  rms(prec ) = 0.32584E+01
  weight for this iteration     100.00

 eigenvalues of (default mixing * dielectric matrix)
  average eigenvalue GAMMA=   0.9312
  1.7023  1.0587  0.4818  0.4818

 Free energy of the ion-electron system (eV)
  ---------------------------------------------------
  alpha Z        PSCENC =      2701.53174423
  Ewald energy   TEWEN  =    -44354.55221833
  -Hartree energ DENC   =    -20664.28234568
  -exchange      EXHF   =         0.00000000
  -V(xc)+E(xc)   XCENC  =      3266.37293500
  PAW double counting   =     88030.21399741   -87670.40763616
  entropy T*S    EENTRO =        -0.04277312
  eigenvalues    EBANDS =     -7157.22116491
  atomic energy  EATOM  =     64968.54023382
  Solvation  Ediel_sol  =         0.00000000
  ---------------------------------------------------
  free energy    TOTEN  =      -879.84722774 eV

  energy without entropy =     -879.80445462  energy(sigma->0) =     -879.82584118


--------------------------------------------------------------------------------------------------------




--------------------------------------- Iteration      1(  10)  ---------------------------------------


    POTLOK:  cpu time    0.1523: real time    0.1554
    SETDIJ:  cpu time    0.3526: real time    0.3526
     EDDAV:  cpu time   41.7821: real time   41.7811
       DOS:  cpu time    0.0026: real time    0.0026
    CHARGE:  cpu time    1.3643: real time    1.3643
    MIXING:  cpu time    0.0068: real time    0.0068
    --------------------------------------------
      LOOP:  cpu time   43.6607: real time   43.6629

 eigenvalue-minimisations  : 10216
 total energy-change (2. order) : 0.4070546E+01  (-0.1345415E+01)
 number of electron     864.0000005 magnetization 
 augmentation part      117.8663258 magnetization 

 Broyden mixing:
  rms(total) = 0.51990E+00    rms(broyden)= 0.51889E+00
  rms(prec ) = 0.68566E+00
  weight for this iteration     100.00

 eigenvalues of (default mixing * dielectric matrix)
  average eigenvalue GAMMA=   0.9416
  1.9962  1.0359  0.6728  0.6728  0.3304

 Free energy of the ion-electron system (eV)
  ---------------------------------------------------
  alpha Z        PSCENC =      2701.53174423
  Ewald energy   TEWEN  =    -44354.55221833
  -Hartree energ DENC   =    -20654.93705138
  -exchange      EXHF   =         0.00000000
  -V(xc)+E(xc)   XCENC  =      3265.95066627
  PAW double counting   =     88311.08261144   -87953.71527312
  entropy T*S    EENTRO =        -0.03411239
  eigenvalues    EBANDS =     -7159.64328213
  atomic energy  EATOM  =     64968.54023382
  Solvation  Ediel_sol  =         0.00000000
  ---------------------------------------------------
  free energy    TOTEN  =      -875.77668159 eV

  energy without entropy =     -875.74256920  energy(sigma->0) =     -875.75962539


--------------------------------------------------------------------------------------------------------




--------------------------------------- Iteration      1(  11)  ---------------------------------------


    POTLOK:  cpu time    0.1474: real time    0.1607
    SETDIJ:  cpu time    0.3599: real time    0.3636
     EDDAV:  cpu time   42.2906: real time   42.2904
       DOS:  cpu time    0.0024: real time    0.0024
    CHARGE:  cpu time    1.3504: real time    1.3503
    MIXING:  cpu time    0.0065: real time    0.0065
    --------------------------------------------
      LOOP:  cpu time   44.1571: real time   44.1739

 eigenvalue-minimisations  : 10336
 total energy-change (2. order) : 0.3413851E-01  (-0.2441992E+00)
 number of electron     864.0000005 magnetization 
 augmentation part      117.9869404 magnetization 

 Broyden mixing:
  rms(total) = 0.39293E+00    rms(broyden)= 0.39277E+00
  rms(prec ) = 0.59548E+00
  weight for this iteration     100.00

 eigenvalues of (default mixing * dielectric matrix)
  average eigenvalue GAMMA=   0.9383
  2.1810  0.9899  0.9899  0.7253  0.3720  0.3720

 Free energy of the ion-electron system (eV)
  ---------------------------------------------------
  alpha Z        PSCENC =      2701.53174423
  Ewald energy   TEWEN  =    -44354.55221833
  -Hartree energ DENC   =    -20672.98685188
  -exchange      EXHF   =         0.00000000
  -V(xc)+E(xc)   XCENC  =      3266.93211132
  PAW double counting   =     89701.01893366   -89349.60994173
  entropy T*S    EENTRO =        -0.00061296
  eigenvalues    EBANDS =     -7136.61594121
  atomic energy  EATOM  =     64968.54023382
  Solvation  Ediel_sol  =         0.00000000
  ---------------------------------------------------
  free energy    TOTEN  =      -875.74254308 eV

  energy without entropy =     -875.74193012  energy(sigma->0) =     -875.74223660


--------------------------------------------------------------------------------------------------------




--------------------------------------- Iteration      1(  12)  ---------------------------------------


    POTLOK:  cpu time    0.1401: real time    0.1437
    SETDIJ:  cpu time    0.3543: real time    0.3543
     EDDAV:  cpu time   45.2336: real time   45.2335
       DOS:  cpu time    0.0028: real time    0.0028
    CHARGE:  cpu time    1.3266: real time    1.3265
    MIXING:  cpu time    0.0051: real time    0.0051
    --------------------------------------------
      LOOP:  cpu time   47.0625: real time   47.0659

 eigenvalue-minimisations  : 11288
 total energy-change (2. order) : 0.1367666E-01  (-0.6975779E-01)
 number of electron     864.0000005 magnetization 
 augmentation part      117.7451876 magnetization 

 Broyden mixing:
  rms(total) = 0.37240E+00    rms(broyden)= 0.37233E+00
  rms(prec ) = 0.55064E+00
  weight for this iteration     100.00

 eigenvalues of (default mixing * dielectric matrix)
  average eigenvalue GAMMA=   0.9120
  2.2846  1.1437  0.9984  0.6205  0.6205  0.3581  0.3581

 Free energy of the ion-electron system (eV)
  ---------------------------------------------------
  alpha Z        PSCENC =      2701.53174423
  Ewald energy   TEWEN  =    -44354.55221833
  -Hartree energ DENC   =    -20694.53235352
  -exchange      EXHF   =         0.00000000
  -V(xc)+E(xc)   XCENC  =      3267.96659493
  PAW double counting   =     90372.68358889   -90024.52548093
  entropy T*S    EENTRO =        -0.04294211
  eigenvalues    EBANDS =     -7112.79803340
  atomic energy  EATOM  =     64968.54023382
  Solvation  Ediel_sol  =         0.00000000
  ---------------------------------------------------
  free energy    TOTEN  =      -875.72886642 eV

  energy without entropy =     -875.68592431  energy(sigma->0) =     -875.70739536


--------------------------------------------------------------------------------------------------------




--------------------------------------- Iteration      1(  13)  ---------------------------------------


    POTLOK:  cpu time    0.1437: real time    0.1569
    SETDIJ:  cpu time    0.3639: real time    0.3643
     EDDAV:  cpu time   43.4543: real time   43.4534
       DOS:  cpu time    0.0026: real time    0.0025
    CHARGE:  cpu time    1.3285: real time    1.3285
    MIXING:  cpu time    0.0063: real time    0.0063
    --------------------------------------------
      LOOP:  cpu time   45.2993: real time   45.3120

 eigenvalue-minimisations  : 10728
 total energy-change (2. order) : 0.1556389E+00  (-0.2938466E-01)
 number of electron     864.0000005 magnetization 
 augmentation part      117.8052591 magnetization 

 Broyden mixing:
  rms(total) = 0.25627E+00    rms(broyden)= 0.25622E+00
  rms(prec ) = 0.41131E+00
  weight for this iteration     100.00

 eigenvalues of (default mixing * dielectric matrix)
  average eigenvalue GAMMA=   0.9121
  2.3496  1.4663  0.8408  0.8408  0.5917  0.5917  0.3081  0.3081

 Free energy of the ion-electron system (eV)
  ---------------------------------------------------
  alpha Z        PSCENC =      2701.53174423
  Ewald energy   TEWEN  =    -44354.55221833
  -Hartree energ DENC   =    -20698.76355447
  -exchange      EXHF   =         0.00000000
  -V(xc)+E(xc)   XCENC  =      3268.26659189
  PAW double counting   =     90479.95301320   -90132.15912523
  entropy T*S    EENTRO =        -0.00522187
  eigenvalues    EBANDS =     -7108.38469079
  atomic energy  EATOM  =     64968.54023382
  Solvation  Ediel_sol  =         0.00000000
  ---------------------------------------------------
  free energy    TOTEN  =      -875.57322755 eV

  energy without entropy =     -875.56800568  energy(sigma->0) =     -875.57061661


--------------------------------------------------------------------------------------------------------




--------------------------------------- Iteration      1(  14)  ---------------------------------------


    POTLOK:  cpu time    0.1119: real time    0.1156
    SETDIJ:  cpu time    0.3346: real time    0.3383
     EDDAV:  cpu time   43.5274: real time   43.5286
       DOS:  cpu time    0.0028: real time    0.0028
    CHARGE:  cpu time    1.3388: real time    1.3388
    MIXING:  cpu time    0.0074: real time    0.0074
    --------------------------------------------
      LOOP:  cpu time   45.3230: real time   45.3315

 eigenvalue-minimisations  : 10784
 total energy-change (2. order) : 0.3567920E-01  (-0.8564355E-02)
 number of electron     864.0000005 magnetization 
 augmentation part      117.7125922 magnetization 

 Broyden mixing:
  rms(total) = 0.17885E+00    rms(broyden)= 0.17881E+00
  rms(prec ) = 0.26845E+00
  weight for this iteration     100.00

 eigenvalues of (default mixing * dielectric matrix)
  average eigenvalue GAMMA=   0.8685
  2.3759  1.5814  0.8207  0.8207  0.6428  0.6428  0.3402  0.3402  0.2512

 Free energy of the ion-electron system (eV)
  ---------------------------------------------------
  alpha Z        PSCENC =      2701.53174423
  Ewald energy   TEWEN  =    -44354.55221833
  -Hartree energ DENC   =    -20704.11538214
  -exchange      EXHF   =         0.00000000
  -V(xc)+E(xc)   XCENC  =      3268.47109048
  PAW double counting   =     90478.50540987   -90130.75100000
  entropy T*S    EENTRO =        -0.04076634
  eigenvalues    EBANDS =     -7103.12665994
  atomic energy  EATOM  =     64968.54023382
  Solvation  Ediel_sol  =         0.00000000
  ---------------------------------------------------
  free energy    TOTEN  =      -875.53754835 eV

  energy without entropy =     -875.49678200  energy(sigma->0) =     -875.51716518


--------------------------------------------------------------------------------------------------------




--------------------------------------- Iteration      1(  15)  ---------------------------------------


    POTLOK:  cpu time    0.1312: real time    0.1453
    SETDIJ:  cpu time    0.3357: real time    0.3357
     EDDAV:  cpu time   43.9158: real time   43.9148
       DOS:  cpu time    0.0025: real time    0.0025
    CHARGE:  cpu time    1.3265: real time    1.3265
    MIXING:  cpu time    0.0057: real time    0.0057
    --------------------------------------------
      LOOP:  cpu time   45.7173: real time   45.7305

 eigenvalue-minimisations  : 10904
 total energy-change (2. order) : 0.3422831E-01  (-0.6864364E-02)
 number of electron     864.0000005 magnetization 
 augmentation part      117.6991827 magnetization 

 Broyden mixing:
  rms(total) = 0.11828E+00    rms(broyden)= 0.11823E+00
  rms(prec ) = 0.16482E+00
  weight for this iteration     100.00

 eigenvalues of (default mixing * dielectric matrix)
  average eigenvalue GAMMA=   0.8009
  2.3692  1.6031  0.8444  0.8444  0.6297  0.6297  0.3219  0.3219  0.2224  0.2224

 Free energy of the ion-electron system (eV)
  ---------------------------------------------------
  alpha Z        PSCENC =      2701.53174423
  Ewald energy   TEWEN  =    -44354.55221833
  -Hartree energ DENC   =    -20705.63007638
  -exchange      EXHF   =         0.00000000
  -V(xc)+E(xc)   XCENC  =      3268.53589172
  PAW double counting   =     90451.88317198   -90103.95763172
  entropy T*S    EENTRO =        -0.03859935
  eigenvalues    EBANDS =     -7101.81583602
  atomic energy  EATOM  =     64968.54023382
  Solvation  Ediel_sol  =         0.00000000
  ---------------------------------------------------
  free energy    TOTEN  =      -875.50332003 eV

  energy without entropy =     -875.46472069  energy(sigma->0) =     -875.48402036


--------------------------------------------------------------------------------------------------------




--------------------------------------- Iteration      1(  16)  ---------------------------------------


    POTLOK:  cpu time    0.1070: real time    0.1123
    SETDIJ:  cpu time    0.3282: real time    0.3282
     EDDAV:  cpu time   43.5585: real time   43.5598
       DOS:  cpu time    0.0026: real time    0.0026
    CHARGE:  cpu time    1.3841: real time    1.3841
    MIXING:  cpu time    0.0078: real time    0.0078
    --------------------------------------------
      LOOP:  cpu time   45.3882: real time   45.3947

 eigenvalue-minimisations  : 10800
 total energy-change (2. order) : 0.1233670E-02  (-0.3060974E-02)
 number of electron     864.0000005 magnetization 
 augmentation part      117.7107679 magnetization 

 Broyden mixing:
  rms(total) = 0.11585E+00    rms(broyden)= 0.11583E+00
  rms(prec ) = 0.18256E+00
  weight for this iteration     100.00

 eigenvalues of (default mixing * dielectric matrix)
  average eigenvalue GAMMA=   0.8484
  2.3838  1.9122  0.8582  0.8582  0.7882  0.7882  0.5625  0.3311  0.3311  0.2596
  0.2596

 Free energy of the ion-electron system (eV)
  ---------------------------------------------------
  alpha Z        PSCENC =      2701.53174423
  Ewald energy   TEWEN  =    -44354.55221833
  -Hartree energ DENC   =    -20705.72731109
  -exchange      EXHF   =         0.00000000
  -V(xc)+E(xc)   XCENC  =      3268.53535406
  PAW double counting   =     90433.66128320   -90085.66123842
  entropy T*S    EENTRO =        -0.03394725
  eigenvalues    EBANDS =     -7101.79598660
  atomic energy  EATOM  =     64968.54023382
  Solvation  Ediel_sol  =         0.00000000
  ---------------------------------------------------
  free energy    TOTEN  =      -875.50208636 eV

  energy without entropy =     -875.46813912  energy(sigma->0) =     -875.48511274


--------------------------------------------------------------------------------------------------------




--------------------------------------- Iteration      1(  17)  ---------------------------------------


    POTLOK:  cpu time    0.1423: real time    0.1558
    SETDIJ:  cpu time    0.3476: real time    0.3496
     EDDAV:  cpu time   41.9345: real time   41.9355
       DOS:  cpu time    0.0025: real time    0.0025
    CHARGE:  cpu time    1.3334: real time    1.3334
    MIXING:  cpu time    0.0061: real time    0.0061
    --------------------------------------------
      LOOP:  cpu time   43.7664: real time   43.7829

 eigenvalue-minimisations  : 10264
 total energy-change (2. order) : 0.1048133E-02  (-0.1029510E-01)
 number of electron     864.0000005 magnetization 
 augmentation part      117.6651335 magnetization 

 Broyden mixing:
  rms(total) = 0.27804E+00    rms(broyden)= 0.27791E+00
  rms(prec ) = 0.38316E+00
  weight for this iteration     100.00

 eigenvalues of (default mixing * dielectric matrix)
  average eigenvalue GAMMA=   0.8187
  2.3652  1.9079  0.9205  0.9205  0.9102  0.7940  0.5682  0.3376  0.3376  0.3494
  0.2720  0.1411

 Free energy of the ion-electron system (eV)
  ---------------------------------------------------
  alpha Z        PSCENC =      2701.53174423
  Ewald energy   TEWEN  =    -44354.55221833
  -Hartree energ DENC   =    -20708.11024492
  -exchange      EXHF   =         0.00000000
  -V(xc)+E(xc)   XCENC  =      3268.63285985
  PAW double counting   =     90358.17865532   -90009.77930144
  entropy T*S    EENTRO =        -0.04276158
  eigenvalues    EBANDS =     -7099.90000518
  atomic energy  EATOM  =     64968.54023382
  Solvation  Ediel_sol  =         0.00000000
  ---------------------------------------------------
  free energy    TOTEN  =      -875.50103823 eV

  energy without entropy =     -875.45827665  energy(sigma->0) =     -875.47965744


--------------------------------------------------------------------------------------------------------




--------------------------------------- Iteration      1(  18)  ---------------------------------------


    POTLOK:  cpu time    0.1073: real time    0.1111
    SETDIJ:  cpu time    0.3288: real time    0.3288
     EDDAV:  cpu time   43.2284: real time   43.2275
       DOS:  cpu time    0.0026: real time    0.0026
    CHARGE:  cpu time    1.3456: real time    1.3456
    MIXING:  cpu time    0.0071: real time    0.0071
    --------------------------------------------
      LOOP:  cpu time   45.0198: real time   45.0227

 eigenvalue-minimisations  : 10696
 total energy-change (2. order) : 0.1916978E-01  (-0.1539442E-02)
 number of electron     864.0000005 magnetization 
 augmentation part      117.6931839 magnetization 

 Broyden mixing:
  rms(total) = 0.97766E-01    rms(broyden)= 0.97705E-01
  rms(prec ) = 0.12962E+00
  weight for this iteration     100.00

 eigenvalues of (default mixing * dielectric matrix)
  average eigenvalue GAMMA=   0.8722
  2.3398  2.3398  1.1228  1.1228  1.0022  0.6997  0.6997  0.5440  0.4323  0.3241
  0.3241  0.1936  0.1936

 Free energy of the ion-electron system (eV)
  ---------------------------------------------------
  alpha Z        PSCENC =      2701.53174423
  Ewald energy   TEWEN  =    -44354.55221833
  -Hartree energ DENC   =    -20708.88274524
  -exchange      EXHF   =         0.00000000
  -V(xc)+E(xc)   XCENC  =      3268.66519489
  PAW double counting   =     90340.44610536   -89991.94850742
  entropy T*S    EENTRO =        -0.03543923
  eigenvalues    EBANDS =     -7099.24623653
  atomic energy  EATOM  =     64968.54023382
  Solvation  Ediel_sol  =         0.00000000
  ---------------------------------------------------
  free energy    TOTEN  =      -875.48186846 eV

  energy without entropy =     -875.44642922  energy(sigma->0) =     -875.46414884


[...]
   -.839E+02 -.644E+02 0.142E+02   0.811E+02 0.795E+02 -.295E+02   0.475E+01 -.124E+02 0.121E+02   0.192E-03 0.327E-03 0.362E-03
   -.360E+02 0.638E+02 0.253E+02   0.274E+02 -.784E+02 -.388E+02   0.124E+02 0.144E+02 0.135E+02   0.130E-02 -.166E-02 0.822E-03
   0.423E+02 -.173E+02 0.641E+02   -.482E+02 0.123E+02 -.632E+02   0.858E+01 0.607E+01 -.220E+01   -.145E-02 0.765E-03 -.485E-04
   0.671E+02 -.665E+02 -.993E+02   -.708E+02 0.683E+02 0.952E+02   0.370E+01 -.287E+01 0.790E+01   -.857E-03 0.267E-02 -.835E-02
   0.532E+02 -.154E+03 0.477E+02   -.505E+02 0.173E+03 -.291E+02   -.414E+01 -.172E+02 -.197E+02   0.500E-03 -.294E-03 -.524E-03
   -.539E+02 0.107E+03 -.372E+02   0.405E+02 -.110E+03 0.390E+02   0.158E+02 0.154E+01 -.267E+01   0.299E-03 -.762E-03 -.205E-02
   -.585E+02 0.909E+01 0.254E+02   0.536E+02 -.197E+02 -.245E+02   0.122E+02 0.102E+02 -.572E+00   0.138E-02 0.136E-02 0.225E-02
   -.569E+02 0.852E+02 0.466E+02   0.821E+02 -.934E+02 -.580E+02   -.241E+02 0.852E+01 0.111E+02   -.587E-03 0.121E-02 0.434E-03
   0.144E+02 -.282E+02 -.510E+02   -.157E+02 0.238E+02 0.715E+02   0.178E+01 0.531E+01 -.245E+02   0.468E-02 -.882E-02 0.560E-02
   -.112E+02 0.421E+02 -.111E+03   0.194E+02 -.477E+02 0.147E+03   -.502E+01 0.388E+01 -.316E+02   0.166E-02 -.984E-03 -.353E-02
   0.709E+02 0.616E+02 -.132E+03   -.745E+02 -.642E+02 0.135E+03   0.391E+01 0.101E+01 -.161E+01   -.681E-03 0.675E-03 0.244E-03
   0.155E+03 -.115E+03 0.326E+02   -.158E+03 0.132E+03 -.374E+02   0.241E+01 -.200E+02 0.488E+01   -.180E-02 0.129E-02 -.507E-03
   -.618E+02 0.132E+03 -.405E+02   0.650E+02 -.148E+03 0.433E+02   -.303E+01 0.159E+02 -.231E+01   0.248E-03 0.559E-02 -.389E-03
   -.322E+02 -.661E+02 -.851E+02   0.369E+02 0.819E+02 0.726E+02   -.473E+01 -.167E+02 0.148E+02   -.626E-03 0.465E-03 -.886E-03
   0.121E+02 -.854E+02 -.610E+02   -.178E+02 0.109E+03 0.457E+02   0.573E+01 -.218E+02 0.154E+02   -.223E-02 -.154E-02 -.448E-03
   0.147E+03 0.885E+02 -.127E+03   -.170E+03 -.106E+03 0.126E+03   0.110E+02 0.143E+02 0.392E+01   -.414E-03 0.565E-03 -.454E-04
   0.851E+02 -.276E+02 -.175E+02   -.101E+03 0.184E+02 0.218E+02   0.200E+02 0.941E+01 -.148E+01   -.222E-02 -.670E-03 -.250E-02
   -.509E+02 0.143E+02 0.407E+02   0.365E+02 -.185E+02 -.546E+02   0.171E+02 0.353E+01 0.159E+02   0.142E-03 0.256E-02 -.133E-02
   -.251E+02 -.282E+01 0.434E+02   0.245E+02 -.770E+01 -.511E+02   -.129E+01 0.125E+02 0.769E+01   0.740E-03 0.765E-03 -.397E-03
   0.245E+02 -.407E+01 0.224E+02   -.190E+02 0.648E+01 -.291E+02   -.675E+01 -.192E+01 0.708E+01   0.690E-03 0.472E-03 -.704E-03
   -.543E+02 -.148E+03 -.122E+03   0.437E+02 0.150E+03 0.141E+03   0.114E+02 0.550E+01 -.156E+02   0.439E-02 -.226E-01 -.672E-02
   0.207E+03 0.141E+03 0.851E+01   -.229E+03 -.143E+03 -.268E+02   0.228E+02 -.123E+01 0.203E+02   0.459E-02 0.145E-02 0.241E-02
   -.490E+02 -.688E+02 -.582E+01   0.649E+02 0.851E+02 -.316E+01   -.175E+02 -.164E+02 0.118E+02   0.391E-02 0.578E-02 0.282E-02
   0.810E+02 -.126E+03 0.252E+02   -.902E+02 0.128E+03 0.359E+01   -.453E-01 0.364E+01 -.295E+02   0.191E-02 -.105E-02 -.143E-02
   0.216E+03 0.135E+01 0.270E+02   -.227E+03 -.148E+02 -.222E+02   0.105E+02 0.143E+02 -.607E+01   -.413E-03 0.118E-02 -.453E-03
   -.108E+03 -.997E+02 0.104E+03   0.117E+03 0.976E+02 -.109E+03   -.876E+01 0.194E+01 0.431E+01   -.169E-02 -.385E-02 0.310E-02
   0.323E+02 0.260E+01 0.218E+02   -.448E+02 0.560E+01 -.288E+02   0.140E+02 -.975E+01 0.726E+01   -.182E-03 0.279E-02 0.982E-03
   0.242E+02 -.919E+02 -.301E+02   -.165E+02 0.884E+02 0.588E+02   -.866E+01 0.493E+01 -.319E+02   -.152E-02 -.136E-02 0.796E-03
   0.964E+02 0.578E+02 -.147E+03   -.995E+02 -.870E+02 0.154E+03   -.147E+01 0.267E+02 -.712E+01   -.295E-03 0.251E-02 0.740E-03
   -.187E+02 -.312E+02 -.461E+02   -.334E+01 0.505E+02 0.615E+02   0.228E+02 -.227E+02 -.155E+02   -.102E-02 0.358E-03 -.944E-03
   0.830E+01 0.722E+02 -.690E+02   -.254E+02 -.650E+02 0.718E+02   0.167E+02 -.876E+01 -.457E+01   0.920E-03 0.169E-02 0.145E-03
   0.213E+03 0.154E+03 -.195E+02   -.230E+03 -.167E+03 0.165E+00   0.161E+02 0.116E+02 0.217E+02   -.600E-03 0.624E-02 0.870E-03
   -.183E+03 -.568E+02 0.599E+02   0.211E+03 0.411E+02 -.700E+02   -.254E+02 0.139E+02 0.862E+01   0.206E-02 -.380E-02 -.526E-03
   0.365E+02 0.477E+02 0.605E+02   -.502E+02 -.597E+02 -.735E+02   0.153E+02 0.117E+02 0.129E+02   0.250E-02 0.181E-02 -.730E-03
   0.976E+02 0.212E+02 -.113E+02   -.994E+02 -.692E+00 0.460E+01   -.651E+00 -.239E+02 0.736E+01   -.170E-02 -.172E-02 0.597E-03
   0.131E+03 0.823E+02 0.179E+03   -.142E+03 -.584E+02 -.185E+03   0.713E+01 -.246E+02 0.470E+01   -.775E-03 0.538E-03 0.508E-03
   -.140E+03 0.903E+02 0.802E+02   0.149E+03 -.868E+02 -.728E+02   -.619E+01 -.730E+01 -.156E+02   0.116E-02 -.182E-02 0.223E-02
   0.520E+02 -.947E+02 -.871E+02   -.528E+02 0.115E+03 0.812E+02   0.910E+00 -.196E+02 0.604E+01   -.487E-02 0.676E-02 -.464E-02
   0.293E+01 0.366E+02 -.120E+03   0.374E+00 -.534E+02 0.143E+03   -.231E+01 0.152E+02 -.197E+02   -.137E-02 -.106E-01 -.250E-02
   0.751E+02 0.566E+02 0.248E+03   -.892E+02 -.739E+02 -.255E+03   0.891E+01 0.230E+02 0.480E+01   0.792E-04 0.216E-02 0.279E-02
   -.272E+02 -.130E+02 -.301E+02   0.372E+02 0.472E+01 0.168E+02   -.125E+02 0.101E+02 0.149E+02   -.747E-04 0.381E-02 -.139E-02
   0.560E+02 -.734E+00 0.675E+01   -.444E+02 0.627E+01 -.235E+02   -.121E+02 -.470E+01 0.182E+02   0.365E-03 -.338E-02 -.197E-02
   0.205E+02 0.629E+02 0.553E+02   -.185E+02 -.606E+02 -.364E+02   -.424E+01 -.546E+01 -.208E+02   -.733E-03 -.590E-03 0.307E-04
   -.837E+01 -.416E+02 0.742E+02   -.261E+01 0.302E+02 -.546E+02   0.111E+02 0.152E+02 -.209E+02   -.183E-02 -.678E-03 0.189E-02
   -.788E+02 0.132E+02 -.827E+02   0.905E+02 -.986E+01 0.899E+02   -.147E+02 -.683E+01 -.564E+01   0.960E-02 -.729E-02 -.353E-02
   -.597E+02 -.697E+02 -.130E+03   0.509E+02 0.748E+02 0.127E+03   0.105E+02 -.332E+01 0.887E+01   -.479E-02 -.180E-02 -.291E-04
   -.143E+03 -.111E+02 -.412E+02   0.146E+03 0.126E+02 0.542E+02   -.363E+01 -.223E+01 -.166E+02   0.536E-03 0.152E-02 0.317E-03
   -.108E+03 0.163E+03 0.556E+02   0.136E+03 -.164E+03 -.412E+02   -.286E+02 -.992E+00 -.164E+02   0.131E-02 0.453E-02 -.114E-02
 -----------------------------------------------------------------------------------------------
   0.693E+02 0.207E+02 0.563E+02   0.171E-12 0.313E-12 0.129E-11   -.693E+02 -.207E+02 -.563E+02   -.150E-01 -.105E-02 -.175E-01
 
 
 POSITION                                       TOTAL-FORCE (eV/Angst)
 -----------------------------------------------------------------------------------
     11.30770      7.53932      5.09710        -2.830623     -0.262982      0.377919
      2.52855     10.24020      5.94030         0.606370     -0.226949     -0.653637
     10.13952      2.31124     11.96321         0.910888     -0.341652     -2.813578
      7.16570      5.69516      7.53817         1.943947      0.814943     -1.819948
      4.52332      2.45754      2.41993        -1.038319      0.363230     -0.186340
      6.06784      0.17998      9.10083         0.496604     -1.117639      0.290349
      5.23759      5.47036      9.49891        -1.596959     -0.172474      1.746069
      5.75778      0.01153      5.78473        -0.931988     -0.997557     -1.301448
      1.06911      4.02949      5.15087         0.187642     -2.902829     -0.945401
     11.94126     10.51818      3.18556        10.777190     -2.164198      4.210523
      3.77196     10.37663     11.73988        -2.392614      0.472979      1.300997
      9.64906      5.63878      0.69908        -1.800741      2.062639      3.008399
     11.41903      2.61098      7.84021        -2.524872      1.536279      5.433859
      8.40337     10.97244      4.17717         0.608837      0.470812      1.128369
      1.38261      9.54070      8.61740        -1.995808     -2.498132      0.826757
     11.15388      6.24579      7.82738         0.712365      3.224332      7.385975
      3.17354     11.78634      2.37685        -1.522662      0.071743     -0.479968
      3.20430      1.68365      7.44342        -2.208273      1.005628     -2.382162
      6.67683      3.37000     11.35689         0.331508     -1.322311      1.309953
      6.93954      4.50334      3.30926         1.856145     -1.875331      3.180397
      0.94889      8.84876      0.60296         2.684426      0.954942     -0.466973
      0.43830      5.29757     10.77262         0.855236     -0.145203     -1.292851
      6.64277      9.63921      1.88623         1.091641     -0.635162     -0.635698
      4.23080      5.87080      0.68376        -1.543758      1.787254      0.140475
      8.30204      8.53809      5.80702         1.817226     -1.497680     -6.123909
      9.93704     11.23528     10.22148        -0.421188     -0.325074     -0.224688
      6.99902      8.33828     10.29182         1.889282      0.543229      3.711327
      2.88015     12.05667      9.56687        -5.008228      1.446197     -0.424821
      8.96383     12.08999      7.56537         2.312925     -8.431496     -3.573934
      2.25702      4.97541      8.23799        -4.066571      2.909490     -2.767642
      1.54274      7.08407      4.73869         4.736834     -2.871422      4.851308
     10.91601      8.37105     10.97692         2.004892     -1.381887     -4.898464
      3.52885      2.47545     11.11245         0.710458      2.315090     -4.373234
      6.93712      6.77414      1.40726        -5.282700      6.674533     -4.442531
      8.82382      4.78251     10.04474         5.870266      2.127281     -3.415968
      3.60587      8.16764      2.69036        -1.116257      1.949835     -2.597517
     10.26818     11.44771      1.42464        -2.899936      0.338081     -3.723556
      7.84326      1.23076      2.17303         0.229879      0.428975     -1.250243
      0.27411      0.84734     11.45065         1.026599    -10.791623     -5.704403
      6.49183      2.36281      6.95418        -6.339936      3.143375     -1.201576
      6.22917      9.19409      7.58103        -1.850398     -2.256270      0.494730
      9.78421      2.77827      3.19234         0.257533     -1.889904      1.914349
      3.20086      7.73116     10.59227        -2.647399      2.690932     -1.568617
      5.71461      8.77130      4.41728         3.935824      4.767073      4.398563
      4.21775      5.16702      3.69401        -4.008267      6.779769     -6.116925
      1.34810      3.07386      0.82682         3.274795      2.377634      7.651904
     11.20657     10.88873      6.22010         0.253032     -5.039822      4.311902
      4.21168      4.79576      6.26089        -3.324787     -0.610223     10.756881
      9.33540      8.95657      8.06836         9.119919      0.709175      4.146267
     10.64578      8.15539      2.18944        -4.330816     -0.881047     -2.132458
      6.75618     11.72041      0.02929         2.006349     -5.781229     -4.800645
      8.62842      2.42539      8.00297         6.184711      3.177680     -1.487531
      0.17003      1.18813      4.90981        -5.148520      1.195620      1.961342
      9.73555      4.93137      5.69362       -10.283078     -5.861911     -1.385946
      4.23255     11.78196     10.25898         1.293902     -0.901050     -0.886761
      9.44522      7.15188      2.82713         4.858638      2.609334     -0.710472
     10.93281      5.48360      6.20329        11.599062      0.467677     -4.064800
      4.81247      4.48767      4.96041         3.846622     -2.720191     -7.104710
      2.64586      9.24791     10.40460        -0.879571      1.490169     -2.771282
      5.12511     10.40043      7.56716         0.864062     -0.889123     -0.355929
      8.14053      0.94757      8.43324        -2.657866      2.235337      4.270263
      2.00518      8.51746      4.29239         1.351532      0.892611     -0.956861
     10.25486      4.69758     11.12712        -0.870665     -1.051091     -2.790834
     10.84868     11.65548      7.93934        -0.267901      1.009380     -0.601726
      9.23332      3.26049      9.34631         0.105160     -0.761840      2.536524
      5.66129     10.15866      0.10557         4.849902      3.838978     -0.897015
      5.56394      5.99685      2.76407        -3.086769     -3.552863      2.635219
      7.30800      1.99862      5.68616        -0.076154     -0.068033      0.431952
      8.05855      7.64832      0.63954        -0.653541      0.757589     -1.138162
      7.73595      5.69729      2.03396         4.053645     -4.433404      0.144709
      7.18184      2.95721      8.28867        -2.708959      2.294888      1.112045
      4.30339      1.52358      5.41056        -2.044412      0.807632     -3.122223
      9.08975      0.80935      1.09577         1.103571     -1.199036      1.568790
      3.06348      1.70405      9.64251        -0.030571      1.064839      0.023364
      5.76970      7.97650      5.99869         1.663931      3.333919      0.789267
      6.88288     11.96004      1.56366        -0.324332      3.228309      6.701592
      1.52246      0.33891     10.56904        -0.000440     -1.055996     -1.667088
      9.79695      1.46349      7.00928        -2.637777      1.449408      0.192420
     10.97993     11.97136      5.12184         1.532384      5.181671     -0.640956
      3.65872      8.26870      0.02897         0.658556     -4.332669     -2.585871
      8.24972     10.86864     11.84038        -1.431324      1.364638     -0.149113
      2.18310     11.43410      8.02069         3.635542      3.265678      3.259341
      0.60242     10.32271      6.59326        -0.807866      0.513117     -0.099879
      2.41366      3.74715     11.87369        -0.161529     -0.833990     -0.510410
     10.19324      8.02332      6.93876        -0.030505      0.399380      3.402760
      5.67059      3.99431      6.93210        -0.867426     -0.035106      0.036478
     11.19894      1.09634     10.44057        -1.476285      0.710969     -1.571807
      9.42578     10.22595      7.16766         1.982963      2.670069     -3.300582
      2.36485      4.10355      6.82246         3.774816     -0.235673     -0.099151
      7.56728     11.28044      6.38587         2.688561      1.079419     -1.223098
      1.93661     11.40453      0.35031        -0.015366     -1.049326      3.777563
      4.07498      5.61829      7.65455        -1.482898      1.330040     -1.086550
      0.47517      4.79842      8.54114         2.377177     -1.300841     -0.814008
      2.67882      5.79138      4.58609         7.367553     -0.480794      0.384611
      7.22194      8.68873      3.86250         1.107269      0.246445     -0.265717
      1.55268      2.74289      2.58389         0.519555      0.891699     -4.015498
      2.66910      4.74714      9.64627         3.175028     -1.696676      4.722380
      7.84721     10.88257      8.78469         0.252058     -1.644819      1.612155
      5.56963     10.53814      4.20075        -0.540444     -2.617096      0.158332
     11.04430      7.60632      0.44768         0.153887      0.490686      0.486601
      8.89549      5.97946      8.78410        -0.037492     -0.996576      2.237598
      6.50511      0.89577     11.22758         0.097575      1.404106      0.057479
      7.99922      8.51460      7.68961       -11.779170     -3.647587      2.599437
      5.20614      1.39770      7.38012         3.683675      0.207159      2.793755
      2.06943      7.13944      9.38674         2.730234     -0.662666      2.016908
     10.97478      9.58333      5.05300        -1.914214      1.989483     -0.015141
      5.90563      6.21288     11.63584        -1.241298      0.486980      0.331865
      0.50372      1.92196      0.29111         0.819329      6.992830      3.751082
      3.37872      4.90879      2.32613         0.590199     -3.743480      1.971753
     11.98627      9.58374     10.48240        -1.641981     -0.137769      2.768108
     10.38567     11.19446      2.97024        -9.326914      5.499921     -0.785556
      5.83412      7.83558      8.65947        -0.417417      0.865895     -1.234781
     11.21845      2.10471      3.75089         1.048104     -0.080662     -0.140200
      5.51587      7.90054      1.52335         1.411348     -1.537787      0.213258
      8.60857      1.10824      3.68224        -1.000108      1.458089     -3.268012
      4.68016      7.86167      3.83156        -4.545889     -2.577475     -0.161031
      7.55867      5.39444     10.78132         0.701828     -3.299787     -0.150607
      9.55357      8.96356     10.06543        -0.421932     -1.545638     -1.768967
      2.65539      7.40903      1.66804        -1.390531     -1.810529      2.371170
      1.34485      0.36591      4.39687         2.656832     -1.774405     -1.489349
     10.04185      9.72718      1.22717         1.687519     -0.215013     -0.141422
      7.12696      2.76358      1.91805        -2.381593     -3.423636      0.612822
      8.93806      6.29850      5.45436        -3.307901     -0.710232     -0.954911
      0.50643      2.27006      6.48771         2.883763     -3.821799     -8.116566
      3.50738      9.73657      2.36375         0.061277      0.858606      0.166692
      3.75041      1.77772      0.38246         0.987506     -1.601477      3.146157
      0.65349      5.74790      4.52825        -5.116982      5.737995     -2.826832
     11.71149      7.09620     10.08684        -2.501831      1.809698      1.554939
      4.83501      3.21508     10.38069        -0.532437      0.832414      1.445666
      9.44542      4.21169      7.23625        -2.247198     -3.191941     -1.965643
      9.34059      3.39687      4.68514         0.157332      3.775869     -1.219627
     11.52807      0.10408      0.62180        -2.981346     -3.529856      1.579704
      9.21536      3.37738      1.20677         1.631334      1.786335      6.041781
      1.48180      7.44033      6.78279        -0.699140     -0.679887     -3.568654
     12.06979      8.43998      2.89734        -1.003885     -1.538187     -2.014734
 -----------------------------------------------------------------------------------
    total drift:                               -0.002431     -0.013156     -0.006120


--------------------------------------------------------------------------------------------------------



  FREE ENERGIE OF THE ION-ELECTRON SYSTEM (eV)
  ---------------------------------------------------
  free  energy   TOTEN  =      -875.47453410 eV

  energy  without entropy=     -875.44249781  energy(sigma->0) =     -875.45851596
 


--------------------------------------------------------------------------------------------------------


    POTLOK:  cpu time    0.4367: real time    0.4367


--------------------------------------------------------------------------------------------------------


     LOOP+:  cpu time 1299.7670: real time 1300.0767
    4ORBIT:  cpu time    0.0000: real time    0.0000

 total amount of memory used by VASP MPI-rank0   166778. kBytes
=======================================================================

   base      :      30000. kBytes
   nonlr-proj:      21289. kBytes
   fftplans  :      24448. kBytes
   grid      :      12995. kBytes
   one-center:        171. kBytes
   wavefun   :      77875. kBytes
 
  
  
 General timing and accounting informations for this job:
 ========================================================
  
                  Total CPU time used (sec):     1323.586
                            User time (sec):     1319.539
                          System time (sec):        4.047
                         Elapsed time (sec):     1324.102
  
                   Maximum memory used (kb):      314368.
                   Average memory used (kb):           0.
  
                          Minor page faults:       119441
                          Major page faults:            0
                 Voluntary context switches:         2081
