<?xml version="1.0" encoding="ISO-8859-1"?>
<modeling>
 <generator>
  <i name="program" type="string">vasp </i>
  <i name="version" type="string">5.4.4.18Apr17-6-g9f103f2a35  </i>
  <i name="subversion" type="string">(build Oct 31 2019 15:01:46) complex            parallel </i>
  <i name="platform" type="string">LinuxIFC </i>
  <i name="date" type="string">2024 04 30 </i>
  <i name="time" type="string">03:04:17 </i>
 </generator>
 <incar>
  <i type="int" name="ISTART">     0</i>
  <i type="string" name="PREC">a</i>
  <i type="logical" name="ADDGRID"> T  </i>
  <i type="int" name="IBRION">    -1</i>
  <i name="EDIFF">      0.00000100</i>
  <i name="EDIFFG">     -0.01000000</i>
  <i type="int" name="NSW">     1</i>
  <i type="int" name="ISIF">     2</i>
  <i type="int" name="ISYM">     0</i>
  <i name="ENCUT">    600.00000000</i>
  <i name="POTIM">      1.00000000</i>
  <i type="string" name="LREAL">  Auto</i>
  <i type="int" name="ISMEAR">     0</i>
  <i name="SIGMA">      0.05000000</i>
  <i name="KSPACING">      0.30000000</i>
  <i type="logical" name="KGAMMA"> T  </i>
  <i type="logical" name="LWAVE"> F  </i>
  <i type="logical" name="LCHARG"> F  </i>
  <i type="logical" name="LSCALAPACK"> F  </i>
  <v type="int" name="KPOINT_BSE">    -1     0     0     0</v>
 </incar>
 <structure name="primitive_cell" >
  <crystal>
   <varray name="basis" >
    <v>      12.09378762       0.00000000       0.00000000 </v>
    <v>       0.00000000      12.09378762       0.00000000 </v>
    <v>       0.00000000       0.00000000      12.09378762 </v>
   </varray>
   <i name="volume">   1768.83373704 </i>
   <varray name="rec_basis" >
    <v>       0.08268708       0.00000000       0.00000000 </v>
    <v>       0.00000000       0.08268708       0.00000000 </v>
    <v>       0.00000000       0.00000000       0.08268708 </v>
   </varray>
  </crystal>
  <varray name="positions" >
   <v>      -0.06499907      -0.37659523       0.42146419 </v>
   <v>      -0.09252766      -0.20758269       0.41781773 </v>
   <v>      -0.15715091      -0.33657535      -0.42625424 </v>
   <v>      -0.09599820       0.45342323      -0.48706803 </v>
   <v>       0.05403525       0.47527688       0.37442771 </v>
   <v>       0.12756478      -0.41423899       0.39182804 </v>
   <v>      -0.00198411      -0.30212234       0.23957248 </v>
   <v>      -0.26093810      -0.47919556       0.45100507 </v>
   <v>       0.12252560      -0.38478102      -0.43915095 </v>
   <v>      -0.21900229      -0.40863176       0.23376689 </v>
   <v>      -0.07771832      -0.48355368      -0.35277688 </v>
   <v>      -0.11973116      -0.32565422       0.18103878 </v>
   <v>       0.16580255      -0.29571630       0.35492531 </v>
   <v>      -0.19499594       0.40776019       0.47078862 </v>
   <v>      -0.31352879      -0.29401003       0.48016519 </v>
   <v>       0.04981263      -0.14644558      -0.45482247 </v>
   <v>      -0.07336104      -0.09964271      -0.48567810 </v>
   <v>      -0.01261178      -0.13028212       0.26340471 </v>
   <v>      -0.22808272      -0.25940778      -0.33285093 </v>
   <v>      -0.22061012      -0.15444591      -0.40732749 </v>
   <v>       0.22150409       0.47887265       0.37921048 </v>
   <v>       0.08840162       0.33318713       0.42591047 </v>
   <v>      -0.33856751      -0.29595248      -0.36416890 </v>
   <v>      -0.14123948      -0.07436257       0.24560024 </v>
   <v>       0.20907858      -0.15326802       0.49118635 </v>
   <v>      -0.21898552       0.34825224      -0.40165590 </v>
   <v>      -0.40283902      -0.28155438       0.31937866 </v>
   <v>      -0.09210177      -0.01012306       0.42350993 </v>
   <v>       0.03929029       0.39676720      -0.29375807 </v>
   <v>      -0.30514991      -0.09272079       0.34539817 </v>
   <v>       0.11432420      -0.21110726      -0.28745223 </v>
   <v>      -0.22765367       0.28087744       0.38740087 </v>
   <v>      -0.16966845      -0.19568770       0.10147126 </v>
   <v>      -0.08677887      -0.37105571       0.03701727 </v>
   <v>      -0.26445831       0.49442412      -0.27366836 </v>
   <v>       0.21956639      -0.38736880       0.13792527 </v>
   <v>       0.19554280       0.33931083      -0.43587049 </v>
   <v>       0.07846076      -0.26832215       0.04985661 </v>
   <v>      -0.10295451      -0.03624220      -0.34351939 </v>
   <v>      -0.03161137      -0.41323567      -0.16594842 </v>
   <v>       0.29815872      -0.32464175       0.22245824 </v>
   <v>      -0.36033659       0.47109266       0.16818234 </v>
   <v>       0.18662671       0.41140224      -0.31882473 </v>
   <v>      -0.20214702       0.46625445       0.05780467 </v>
   <v>      -0.40748885       0.47091621      -0.37669068 </v>
   <v>       0.17111528      -0.40966048      -0.22383810 </v>
   <v>      -0.19097257       0.22972707       0.26396531 </v>
   <v>       0.11120184       0.03025588       0.36356466 </v>
   <v>      -0.37428357      -0.06725373      -0.47197145 </v>
   <v>      -0.21004315      -0.25882910      -0.16771902 </v>
   <v>      -0.15095444      -0.05342224       0.11779962 </v>
   <v>      -0.33366186      -0.36758306       0.05288210 </v>
   <v>       0.29001482      -0.19491149       0.19545197 </v>
   <v>      -0.07237895       0.17403268       0.31015025 </v>
   <v>       0.04187503       0.18770501      -0.46355047 </v>
   <v>      -0.42618974       0.37236786       0.27363308 </v>
   <v>       0.38698845      -0.34994139       0.31682084 </v>
   <v>       0.47707928      -0.34044664       0.49601393 </v>
   <v>      -0.05579390       0.21589424      -0.35171601 </v>
   <v>       0.27937659       0.40589371       0.19234116 </v>
   <v>      -0.25880736      -0.00031373      -0.37444141 </v>
   <v>       0.18051432      -0.05454788      -0.33679283 </v>
   <v>       0.34875315       0.42724560       0.30544657 </v>
   <v>       0.47252412      -0.27472666       0.36525167 </v>
   <v>      -0.42638947      -0.43986598       0.11636202 </v>
   <v>      -0.00889055      -0.20754851      -0.13324114 </v>
   <v>       0.34825161       0.39654703      -0.48230544 </v>
   <v>       0.33694803       0.46456030      -0.36706772 </v>
   <v>       0.01405891       0.09824323       0.40597771 </v>
   <v>      -0.48492845      -0.23976727      -0.37314669 </v>
   <v>       0.12838639       0.22680190       0.21365427 </v>
   <v>      -0.09738663      -0.30782243      -0.09235037 </v>
   <v>      -0.45072840      -0.20296224       0.15596723 </v>
   <v>      -0.35113689      -0.10015219      -0.27362003 </v>
   <v>      -0.23800890       0.27926589       0.09978406 </v>
   <v>      -0.27038420       0.39545186      -0.16942957 </v>
   <v>       0.03624212       0.43804035      -0.10924326 </v>
   <v>       0.22070044       0.39252719      -0.20237787 </v>
   <v>      -0.23652384       0.26960039      -0.22718071 </v>
   <v>       0.39792882       0.37107245       0.41016157 </v>
   <v>       0.46006624       0.49586213       0.22855280 </v>
   <v>       0.26241106      -0.02542193       0.19653471 </v>
   <v>      -0.28818264       0.09163736       0.30447367 </v>
   <v>      -0.28654080       0.20054877      -0.33825817 </v>
   <v>      -0.04677775       0.00860594       0.05141519 </v>
   <v>      -0.17833553      -0.07098724      -0.15481526 </v>
   <v>      -0.18991848       0.12101189      -0.42042320 </v>
   <v>       0.46053653      -0.12863222       0.34734791 </v>
   <v>       0.11147034       0.25416814       0.06836763 </v>
   <v>       0.48240655      -0.35209899      -0.28397340 </v>
   <v>       0.21877861      -0.23531745      -0.13967392 </v>
   <v>       0.16013254      -0.05699260       0.02896585 </v>
   <v>      -0.15205518       0.38842905      -0.07993105 </v>
   <v>       0.30252872      -0.31628509       0.00239510 </v>
   <v>       0.26466986      -0.36073269      -0.12415582 </v>
   <v>      -0.42127116      -0.31053223      -0.14899913 </v>
   <v>       0.45609087      -0.34672722       0.12596172 </v>
   <v>      -0.39572259       0.16525985       0.47017165 </v>
   <v>       0.34983292       0.48543926       0.05653794 </v>
   <v>       0.46888423       0.33027775      -0.42680504 </v>
   <v>      -0.40615480       0.24452272      -0.31463409 </v>
   <v>      -0.31785465      -0.10130391      -0.02095333 </v>
   <v>       0.42378060      -0.14001901      -0.37429339 </v>
   <v>      -0.24839515       0.06692258       0.09060617 </v>
   <v>      -0.41069226       0.22851200       0.15859765 </v>
   <v>      -0.37499559       0.44605016      -0.10852376 </v>
   <v>      -0.32688306       0.07835153      -0.30268029 </v>
   <v>      -0.43087495      -0.01105925       0.12929459 </v>
   <v>       0.47609389       0.00095342       0.47832253 </v>
   <v>       0.19957844       0.30984125      -0.01819945 </v>
   <v>      -0.46320940       0.19537375      -0.42497946 </v>
   <v>       0.23815125      -0.00306878      -0.20894326 </v>
   <v>      -0.35146369       0.10176758       0.17968164 </v>
   <v>       0.26495435       0.13921600      -0.38452557 </v>
   <v>      -0.16159284       0.19110981      -0.01079704 </v>
   <v>       0.04165106       0.15892145       0.02407063 </v>
   <v>       0.31189223      -0.14198715      -0.02926367 </v>
   <v>       0.12588767       0.02802310      -0.12607731 </v>
   <v>       0.43308119       0.45232829      -0.21456316 </v>
   <v>      -0.07399259       0.09065279      -0.13669969 </v>
   <v>       0.37401985       0.20320652       0.20009695 </v>
   <v>       0.48831895      -0.48627531      -0.03786668 </v>
   <v>       0.35583510       0.12598025       0.44738318 </v>
   <v>       0.02266538       0.07006439      -0.05317909 </v>
   <v>       0.46811575      -0.16001040       0.00872938 </v>
   <v>      -0.44135157      -0.03087375       0.00242156 </v>
   <v>      -0.49826762       0.01488192      -0.24747912 </v>
   <v>       0.25331032       0.14090274      -0.20268921 </v>
   <v>       0.34997724      -0.02578419      -0.15171522 </v>
   <v>      -0.44791246       0.27865535      -0.06093150 </v>
   <v>       0.31011083       0.14699413       0.03162452 </v>
   <v>       0.43048026       0.11557164      -0.38975962 </v>
   <v>       0.39979292       0.26584556      -0.14165124 </v>
   <v>       0.29179057       0.20468745      -0.08114372 </v>
   <v>      -0.46211124       0.07406863      -0.07162442 </v>
  </varray>
 </structure>
 <varray name="primitive_index" >
  <v type="int" >        1 </v>
  <v type="int" >      106 </v>
  <v type="int" >       85 </v>
  <v type="int" >       57 </v>
  <v type="int" >      127 </v>
  <v type="int" >       31 </v>
  <v type="int" >      135 </v>
  <v type="int" >      123 </v>
  <v type="int" >      134 </v>
  <v type="int" >       56 </v>
  <v type="int" >       16 </v>
  <v type="int" >       50 </v>
  <v type="int" >       62 </v>
  <v type="int" >       54 </v>
  <v type="int" >       25 </v>
  <v type="int" >       83 </v>
  <v type="int" >       47 </v>
  <v type="int" >       10 </v>
  <v type="int" >       49 </v>
  <v type="int" >       88 </v>
  <v type="int" >       94 </v>
  <v type="int" >        9 </v>
  <v type="int" >      103 </v>
  <v type="int" >      111 </v>
  <v type="int" >        2 </v>
  <v type="int" >      130 </v>
  <v type="int" >       95 </v>
  <v type="int" >       79 </v>
  <v type="int" >       93 </v>
  <v type="int" >       14 </v>
  <v type="int" >       15 </v>
  <v type="int" >      131 </v>
  <v type="int" >      121 </v>
  <v type="int" >      100 </v>
  <v type="int" >      101 </v>
  <v type="int" >      119 </v>
  <v type="int" >       89 </v>
  <v type="int" >       21 </v>
  <v type="int" >       64 </v>
  <v type="int" >      128 </v>
  <v type="int" >       36 </v>
  <v type="int" >       70 </v>
  <v type="int" >       30 </v>
  <v type="int" >       12 </v>
  <v type="int" >        4 </v>
  <v type="int" >      105 </v>
  <v type="int" >       42 </v>
  <v type="int" >      120 </v>
  <v type="int" >       90 </v>
  <v type="int" >      118 </v>
  <v type="int" >       37 </v>
  <v type="int" >       69 </v>
  <v type="int" >      125 </v>
  <v type="int" >      113 </v>
  <v type="int" >      124 </v>
  <v type="int" >       20 </v>
  <v type="int" >      116 </v>
  <v type="int" >       75 </v>
  <v type="int" >       13 </v>
  <v type="int" >      109 </v>
  <v type="int" >       29 </v>
  <v type="int" >       82 </v>
  <v type="int" >       45 </v>
  <v type="int" >       44 </v>
  <v type="int" >       34 </v>
  <v type="int" >      110 </v>
  <v type="int" >       48 </v>
  <v type="int" >       92 </v>
  <v type="int" >       53 </v>
  <v type="int" >       41 </v>
  <v type="int" >       96 </v>
  <v type="int" >       32 </v>
  <v type="int" >       23 </v>
  <v type="int" >       98 </v>
  <v type="int" >      133 </v>
  <v type="int" >       35 </v>
  <v type="int" >       22 </v>
  <v type="int" >       97 </v>
  <v type="int" >       65 </v>
  <v type="int" >       58 </v>
  <v type="int" >       67 </v>
  <v type="int" >       17 </v>
  <v type="int" >      115 </v>
  <v type="int" >       52 </v>
  <v type="int" >      132 </v>
  <v type="int" >       26 </v>
  <v type="int" >       78 </v>
  <v type="int" >       99 </v>
  <v type="int" >       46 </v>
  <v type="int" >      112 </v>
  <v type="int" >       59 </v>
  <v type="int" >       91 </v>
  <v type="int" >       63 </v>
  <v type="int" >       80 </v>
  <v type="int" >       43 </v>
  <v type="int" >       27 </v>
  <v type="int" >      114 </v>
  <v type="int" >       68 </v>
  <v type="int" >       24 </v>
  <v type="int" >       86 </v>
  <v type="int" >       71 </v>
  <v type="int" >       81 </v>
  <v type="int" >       60 </v>
  <v type="int" >       73 </v>
  <v type="int" >      122 </v>
  <v type="int" >      117 </v>
  <v type="int" >       61 </v>
  <v type="int" >       76 </v>
  <v type="int" >        8 </v>
  <v type="int" >       84 </v>
  <v type="int" >       40 </v>
  <v type="int" >       28 </v>
  <v type="int" >       38 </v>
  <v type="int" >       18 </v>
  <v type="int" >        3 </v>
  <v type="int" >      108 </v>
  <v type="int" >       11 </v>
  <v type="int" >       77 </v>
  <v type="int" >        7 </v>
  <v type="int" >       87 </v>
  <v type="int" >        5 </v>
  <v type="int" >      107 </v>
  <v type="int" >       72 </v>
  <v type="int" >       39 </v>
  <v type="int" >       66 </v>
  <v type="int" >       51 </v>
  <v type="int" >        6 </v>
  <v type="int" >       74 </v>
  <v type="int" >       55 </v>
  <v type="int" >       19 </v>
  <v type="int" >      126 </v>
  <v type="int" >      104 </v>
  <v type="int" >      129 </v>
  <v type="int" >       33 </v>
  <v type="int" >      102 </v>
 </varray>
 <kpoints>
  <generation param="Gamma">
   <v type="int" name="divisions">       2        2        2 </v>
   <v name="usershift">      0.00000000       0.00000000       0.00000000 </v>
   <v name="genvec1">      0.50000000       0.00000000       0.00000000 </v>
   <v name="genvec2">      0.00000000       0.50000000       0.00000000 </v>
   <v name="genvec3">      0.00000000       0.00000000       0.50000000 </v>
   <v name="shift">      0.00000000       0.00000000       0.00000000 </v>
  </generation>
  <varray name="kpointlist" >
   <v>       0.00000000       0.00000000       0.00000000 </v>
   <v>       0.50000000       0.00000000       0.00000000 </v>
   <v>       0.00000000       0.50000000       0.00000000 </v>
   <v>       0.50000000       0.50000000       0.00000000 </v>
   <v>       0.00000000       0.00000000       0.50000000 </v>
   <v>       0.50000000       0.00000000       0.50000000 </v>
   <v>       0.00000000       0.50000000       0.50000000 </v>
   <v>       0.50000000       0.50000000       0.50000000 </v>
  </varray>
  <varray name="weights" >
   <v>       0.12500000 </v>
   <v>       0.12500000 </v>
   <v>       0.12500000 </v>
   <v>       0.12500000 </v>
   <v>       0.12500000 </v>
   <v>       0.12500000 </v>
   <v>       0.12500000 </v>
   <v>       0.12500000 </v>
  </varray>
 </kpoints>
 <parameters>
  <separator name="general" >
   <i type="string" name="SYSTEM">unknown system</i>
   <i type="logical" name="LCOMPAT"> F  </i>
  </separator>
  <separator name="electronic" >
   <i type="string" name="PREC">a</i>
   <i name="ENMAX">    600.00000000</i>
   <i name="ENAUG">    605.39200000</i>
   <i name="EDIFF">      0.00000100</i>
   <i type="int" name="IALGO">    38</i>
   <i type="int" name="IWAVPR">    10</i>
   <i type="int" name="NBANDS">   520</i>
   <i name="NELECT">    864.00000000</i>
   <i type="int" name="TURBO">     0</i>
   <i type="int" name="IRESTART">     0</i>
   <i type="int" name="NREBOOT">     0</i>
   <i type="int" name="NMIN">     0</i>
   <i name="EREF">      0.00000000</i>
   <separator name="electronic smearing" >
    <i type="int" name="ISMEAR">     0</i>
    <i name="SIGMA">      0.05000000</i>
    <i name="KSPACING">      0.30000000</i>
    <i type="logical" name="KGAMMA"> T  </i>
   </separator>
   <separator name="electronic projectors" >
    <i type="logical" name="LREAL"> T  </i>
    <v name="ROPT">     -0.00025000     -0.00025000     -0.00025000</v>
    <i type="int" name="LMAXPAW">  -100</i>
    <i type="int" name="LMAXMIX">     2</i>
    <i type="logical" name="NLSPLINE"> F  </i>
   </separator>
   <separator name="electronic startup" >
    <i type="int" name="ISTART">     0</i>
    <i type="int" name="ICHARG">     2</i>
    <i type="int" name="INIWAV">     1</i>
   </separator>
   <separator name="electronic spin" >
    <i type="int" name="ISPIN">     1</i>
    <i type="logical" name="LNONCOLLINEAR"> F  </i>
    <v name="MAGMOM">      1.00000000      1.00000000      1.00000000      1.00000000      1.00000000      1.00000000      1.00000000      1.00000000      1.00000000      1.00000000      1.00000000      1.00000000      1.00000000      1.00000000      1.00000000      1.00000000      1.00000000      1.00000000      1.00000000      1.00000000
      1.00000000      1.00000000      1.00000000      1.00000000      1.00000000      1.00000000      1.00000000      1.00000000      1.00000000      1.00000000      1.00000000      1.00000000      1.00000000      1.00000000      1.00000000      1.00000000      1.00000000      1.00000000      1.00000000      1.00000000
      1.00000000      1.00000000      1.00000000      1.00000000      1.00000000      1.00000000      1.00000000      1.00000000      1.00000000      1.00000000      1.00000000      1.00000000      1.00000000      1.00000000      1.00000000      1.00000000      1.00000000      1.00000000      1.00000000      1.00000000
      1.00000000      1.00000000      1.00000000      1.00000000      1.00000000      1.00000000      1.00000000      1.00000000      1.00000000      1.00000000      1.00000000      1.00000000      1.00000000      1.00000000      1.00000000      1.00000000      1.00000000      1.00000000      1.00000000      1.00000000
      1.00000000      1.00000000      1.00000000      1.00000000      1.00000000      1.00000000      1.00000000      1.00000000      1.00000000      1.00000000      1.00000000      1.00000000      1.00000000      1.00000000      1.00000000      1.00000000      1.00000000      1.00000000      1.00000000      1.00000000
      1.00000000      1.00000000      1.00000000      1.00000000      1.00000000      1.00000000      1.00000000      1.00000000      1.00000000      1.00000000      1.00000000      1.00000000      1.00000000      1.00000000      1.00000000      1.00000000      1.00000000      1.00000000      1.00000000      1.00000000
      1.00000000      1.00000000      1.00000000      1.00000000      1.00000000      1.00000000      1.00000000      1.00000000      1.00000000      1.00000000      1.00000000      1.00000000      1.00000000      1.00000000      1.00000000</v>
    <i name="NUPDOWN">     -1.00000000</i>
    <i type="logical" name="LSORBIT"> F  </i>
    <v name="SAXIS">      0.00000000      0.00000000      1.00000000</v>
    <i type="logical" name="LSPIRAL"> F  </i>
    <v name="QSPIRAL">      0.00000000      0.00000000      0.00000000</v>
    <i type="logical" name="LZEROZ"> F  </i>
   </separator>
   <separator name="electronic exchange-correlation" >
    <i type="logical" name="LASPH"> F  </i>
    <i type="logical" name="LMETAGGA"> F  </i>
   </separator>
   <separator name="electronic convergence" >
    <i type="int" name="NELM">    60</i>
    <i type="int" name="NELMDL">    -5</i>
    <i type="int" name="NELMIN">     2</i>
    <i name="ENINI">    600.00000000</i>
    <separator name="electronic convergence detail" >
     <i type="logical" name="LDIAG"> T  </i>
     <i type="logical" name="LSUBROT"> F  </i>
     <i name="WEIMIN">      0.00000000</i>
     <i name="EBREAK">      0.00000000</i>
     <i name="DEPER">      0.30000000</i>
     <i type="int" name="NRMM">     4</i>
     <i name="TIME">      0.40000000</i>
    </separator>
   </separator>
   <separator name="electronic mixer" >
    <i name="AMIX">      0.40000000</i>
    <i name="BMIX">      1.00000000</i>
    <i name="AMIN">      0.10000000</i>
    <i name="AMIX_MAG">      1.60000000</i>
    <i name="BMIX_MAG">      1.00000000</i>
    <separator name="electronic mixer details" >
     <i type="int" name="IMIX">     4</i>
     <i type="logical" name="MIXFIRST"> F  </i>
     <i type="int" name="MAXMIX">   -45</i>
     <i name="WC">    100.00000000</i>
     <i type="int" name="INIMIX">     1</i>
     <i type="int" name="MIXPRE">     1</i>
     <i type="int" name="MREMOVE">     5</i>
    </separator>
   </separator>
   <separator name="electronic dipolcorrection" >
    <i type="logical" name="LDIPOL"> F  </i>
    <i type="logical" name="LMONO"> F  </i>
    <i type="int" name="IDIPOL">     0</i>
    <i name="EPSILON">      1.00000000</i>
    <v name="DIPOL">   -100.00000000   -100.00000000   -100.00000000</v>
    <i name="EFIELD">      0.00000000</i>
   </separator>
  </separator>
  <separator name="grids" >
   <i type="int" name="NGX">    98</i>
   <i type="int" name="NGY">    98</i>
   <i type="int" name="NGZ">    98</i>
   <i type="int" name="NGXF">   196</i>
   <i type="int" name="NGYF">   196</i>
   <i type="int" name="NGZF">   196</i>
   <i type="logical" name="ADDGRID"> T  </i>
  </separator>
  <separator name="ionic" >
   <i type="int" name="NSW">     1</i>
   <i type="int" name="IBRION">    -1</i>
   <i type="int" name="MDALGO">     0</i>
   <i type="int" name="ISIF">     2</i>
   <i name="PSTRESS">      0.00000000</i>
   <i name="EDIFFG">     -0.01000000</i>
   <i type="int" name="NFREE">     0</i>
   <i name="POTIM">      1.00000000</i>
   <i name="SMASS">     -3.00000000</i>
   <i name="SCALEE">      1.00000000</i>
  </separator>
  <separator name="ionic md" >
   <i name="TEBEG">      0.00010000</i>
   <i name="TEEND">      0.00010000</i>
   <i type="int" name="NBLOCK">     1</i>
   <i type="int" name="KBLOCK">     1</i>
   <i type="int" name="NPACO">   256</i>
   <i name="APACO">     16.00000000</i>
  </separator>
  <separator name="symmetry" >
   <i type="int" name="ISYM">     0</i>
   <i name="SYMPREC">      0.00001000</i>
  </separator>
  <separator name="dos" >
   <i type="int" name="LORBIT">     0</i>
   <v name="RWIGS">     -1.00000000     -1.00000000     -1.00000000</v>
   <i type="int" name="NEDOS">   301</i>
   <i name="EMIN">     10.00000000</i>
   <i name="EMAX">    -10.00000000</i>
   <i name="EFERMI">      0.00000000</i>
  </separator>
  <separator name="writing" >
   <i type="int" name="NWRITE">     2</i>
   <i type="logical" name="LWAVE"> F  </i>
   <i type="logical" name="LDOWNSAMPLE"> F  </i>
   <i type="logical" name="LCHARG"> F  </i>
   <i type="logical" name="LPARD"> F  </i>
   <i type="logical" name="LVTOT"> F  </i>
   <i type="logical" name="LVHAR"> F  </i>
   <i type="logical" name="LELF"> F  </i>
   <i type="logical" name="LOPTICS"> F  </i>
   <v name="STM">      0.00000000      0.00000000      0.00000000      0.00000000      0.00000000      0.00000000      0.00000000</v>
  </separator>
  <separator name="performance" >
   <i type="int" name="NPAR">     4</i>
   <i type="int" name="NSIM">     4</i>
   <i type="int" name="NBLK">    -1</i>
   <i type="logical" name="LPLANE"> T  </i>
   <i type="logical" name="LSCALAPACK"> F  </i>
   <i type="logical" name="LSCAAWARE"> F  </i>
   <i type="logical" name="LSCALU"> F  </i>
   <i type="logical" name="LASYNC"> F  </i>
   <i type="logical" name="LORBITALREAL"> F  </i>
  </separator>
  <separator name="miscellaneous" >
   <i type="int" name="IDIOT">     3</i>
   <i type="int" name="ISPECIAL">     0</i>
   <i type="logical" name="LMUSIC"> F  </i>
   <v name="POMASS">     40.07800000     28.08500000     16.00000000</v>
   <v name="DARWINR">      0.00000000      0.00000000      0.00000000</v>
   <v name="DARWINV">      1.00000000      1.00000000      1.00000000</v>
   <i type="logical" name="LCORR"> T  </i>
  </separator>
  <i type="logical" name="GGA_COMPAT"> T  </i>
  <i type="logical" name="LBERRY"> F  </i>
  <i type="int" name="ICORELEVEL">     0</i>
  <i type="logical" name="LDAU"> F  </i>
  <i type="int" name="I_CONSTRAINED_M">     0</i>
  <separator name="electronic exchange-correlation" >
   <i type="string" name="GGA">--</i>
   <i type="int" name="VOSKOWN">     0</i>
   <i type="logical" name="LHFCALC"> F  </i>
   <i type="string" name="PRECFOCK"></i>
   <i type="logical" name="LSYMGRAD"> F  </i>
   <i type="logical" name="LHFONE"> F  </i>
   <i type="logical" name="LRHFCALC"> F  </i>
   <i type="logical" name="LTHOMAS"> F  </i>
   <i type="logical" name="LMODELHF"> F  </i>
   <i name="ENCUT4O">     -1.00000000</i>
   <i type="int" name="EXXOEP">     0</i>
   <i type="int" name="FOURORBIT">     0</i>
   <i name="AEXX">      0.00000000</i>
   <i name="HFALPHA">      0.00000000</i>
   <i name="MCALPHA">      0.00000000</i>
   <i name="ALDAX">      1.00000000</i>
   <i name="AGGAX">      1.00000000</i>
   <i name="ALDAC">      1.00000000</i>
   <i name="AGGAC">      1.00000000</i>
   <i type="int" name="NKREDX">     1</i>
   <i type="int" name="NKREDY">     1</i>
   <i type="int" name="NKREDZ">     1</i>
   <i type="logical" name="SHIFTRED"> F  </i>
   <i type="logical" name="ODDONLY"> F  </i>
   <i type="logical" name="EVENONLY"> F  </i>
   <i type="int" name="LMAXFOCK">     0</i>
   <i type="int" name="NMAXFOCKAE">     0</i>
   <i type="logical" name="LFOCKAEDFT"> F  </i>
   <i name="HFSCREEN">      0.00000000</i>
   <i name="HFSCREENC">      0.00000000</i>
   <i type="int" name="NBANDSGWLOW">     0</i>
  </separator>
  <separator name="vdW DFT" >
   <i type="logical" name="LUSE_VDW"> F  </i>
   <i name="Zab_VDW">     -0.84910000</i>
   <i name="PARAM1">      0.12340000</i>
   <i name="PARAM2">      1.00000000</i>
   <i name="PARAM3">      0.00000000</i>
  </separator>
  <separator name="model GW" >
   <i type="int" name="MODEL_GW">     0</i>
   <i name="MODEL_EPS0">      7.86148328</i>
   <i name="MODEL_ALPHA">      1.00000000</i>
  </separator>
  <separator name="linear response parameters" >
   <i type="logical" name="LEPSILON"> F  </i>
   <i type="logical" name="LRPA"> F  </i>
   <i type="logical" name="LNABLA"> F  </i>
   <i type="logical" name="LVEL"> F  </i>
   <i type="int" name="KINTER">     0</i>
   <i name="CSHIFT">      0.10000000</i>
   <i name="OMEGAMAX">     -1.00000000</i>
   <i name="DEG_THRESHOLD">      0.00200000</i>
   <i name="RTIME">     -0.10000000</i>
   <i name="WPLASMAI">      0.00000000</i>
   <v name="DFIELD">      0.00000000      0.00000000      0.00000000</v>
   <v name="WPLASMA">      0.00000000      0.00000000      0.00000000      0.00000000      0.00000000      0.00000000      0.00000000      0.00000000      0.00000000</v>
  </separator>
  <separator name="orbital magnetization" >
   <i type="logical" name="NUCIND"> F  </i>
   <v name="MAGPOS">      0.00000000      0.00000000      0.00000000</v>
   <i type="logical" name="LNICSALL"> T  </i>
   <i type="logical" name="ORBITALMAG"> F  </i>
   <i type="logical" name="LMAGBLOCH"> F  </i>
   <i type="logical" name="LCHIMAG"> F  </i>
   <i type="logical" name="LGAUGE"> T  </i>
   <i type="int" name="MAGATOM">     0</i>
   <v name="MAGDIPOL">      0.00000000      0.00000000      0.00000000</v>
   <v name="AVECCONST">      0.00000000      0.00000000      0.00000000</v>
  </separator>
  <separator name="response functions" >
   <i type="logical" name="LADDER"> F  </i>
   <i type="logical" name="LRPAFORCE"> F  </i>
   <i type="logical" name="LFXC"> F  </i>
   <i type="logical" name="LHARTREE"> T  </i>
   <i type="int" name="IBSE">     0</i>
   <v type="int" name="KPOINT">    -1     0     0     0</v>
   <i type="logical" name="LTCTE"> F  </i>
   <i type="logical" name="LTETE"> F  </i>
   <i type="logical" name="LTRIPLET"> F  </i>
   <i type="logical" name="LFXCEPS"> F  </i>
   <i type="logical" name="LFXHEG"> F  </i>
   <i type="int" name="NATURALO">     2</i>
   <i type="logical" name="L2ORDER"> F  </i>
   <i type="logical" name="LMP2LT"> F  </i>
   <i type="logical" name="LUSEW"> F  </i>
   <i name="ENCUTGW">     -2.00000000</i>
   <i name="ENCUTGWSOFT">     -2.00000000</i>
   <i name="ENCUTLF">     -1.00000000</i>
   <i type="int" name="LMAXMP2">    -1</i>
   <i name="SCISSOR">      0.00000000</i>
   <i type="int" name="NOMEGA">     0</i>
   <i type="int" name="NOMEGAR">     0</i>
   <i type="int" name="NBANDSGW">    -1</i>
   <i type="int" name="NBANDSO">    -1</i>
   <i type="int" name="NBANDSV">    -1</i>
   <i type="int" name="NELM">     1</i>
   <i type="int" name="NELMHF">     1</i>
   <i type="int" name="DIM">     3</i>
   <i type="int" name="ANTIRES">     0</i>
   <i name="OMEGAMAX">    -30.00000000</i>
   <i name="OMEGAMIN">    -30.00000000</i>
   <i name="OMEGATL">   -200.00000000</i>
   <i type="int" name="OMEGAGRID">   140</i>
   <i name="CSHIFT">     -0.10000000</i>
   <i type="logical" name="SELFENERGY"> F  </i>
   <i type="logical" name="LSPECTRAL"> F  </i>
   <i type="logical" name="LSPECTRALGW"> F  </i>
   <i type="logical" name="LSINGLES"> F  </i>
   <i type="logical" name="LFERMIGW"> F  </i>
   <i type="logical" name="ODDONLYGW"> F  </i>
   <i type="logical" name="EVENONLYGW"> F  </i>
   <i type="int" name="NKREDLFX">     1</i>
   <i type="int" name="NKREDLFY">     1</i>
   <i type="int" name="NKREDLFZ">     1</i>
   <i type="int" name="MAXMEM">  2800</i>
   <i type="int" name="TELESCOPE">     0</i>
   <i type="int" name="TAUPAR">     1</i>
   <i type="int" name="OMEGAPAR">    -1</i>
   <i name="LAMBDA">      1.00000000</i>
  </separator>
  <separator name="External order field" >
   <i name="OFIELD_KAPPA">      0.00000000</i>
   <v name="OFIELD_K">      0.00000000      0.00000000      0.00000000</v>
   <i name="OFIELD_Q6_NEAR">      0.00000000</i>
   <i name="OFIELD_Q6_FAR">      0.00000000</i>
   <i name="OFIELD_A">      0.00000000</i>
  </separator>
 </parameters>
 <atominfo>
  <atoms>     135 </atoms>
  <types>       3 </types>
  <array name="atoms" >
   <dimension dim="1">ion</dimension>
   <field type="string">element</field>
   <field type="int">atomtype</field>
   <set>
    <rc><c>Ca</c><c>   1</c></rc>
    <rc><c>Ca</c><c>   1</c></rc>
    <rc><c>Ca</c><c>   1</c></rc>
    <rc><c>Ca</c><c>   1</c></rc>
    <rc><c>Ca</c><c>   1</c></rc>
    <rc><c>Ca</c><c>   1</c></rc>
    <rc><c>Ca</c><c>   1</c></rc>
    <rc><c>Ca</c><c>   1</c></rc>
    <rc><c>Ca</c><c>   1</c></rc>
    <rc><c>Ca</c><c>   1</c></rc>
    <rc><c>Ca</c><c>   1</c></rc>
    <rc><c>Ca</c><c>   1</c></rc>
    <rc><c>Ca</c><c>   1</c></rc>
    <rc><c>Ca</c><c>   1</c></rc>
    <rc><c>Ca</c><c>   1</c></rc>
    <rc><c>Ca</c><c>   1</c></rc>
    <rc><c>Ca</c><c>   1</c></rc>
    <rc><c>Ca</c><c>   1</c></rc>
    <rc><c>Ca</c><c>   1</c></rc>
    <rc><c>Ca</c><c>   1</c></rc>
    <rc><c>Ca</c><c>   1</c></rc>
    <rc><c>Ca</c><c>   1</c></rc>
    <rc><c>Ca</c><c>   1</c></rc>
    <rc><c>Ca</c><c>   1</c></rc>
    <rc><c>Ca</c><c>   1</c></rc>
    <rc><c>Ca</c><c>   1</c></rc>
    <rc><c>Ca</c><c>   1</c></rc>
    <rc><c>Si</c><c>   2</c></rc>
    <rc><c>Si</c><c>   2</c></rc>
    <rc><c>Si</c><c>   2</c></rc>
    <rc><c>Si</c><c>   2</c></rc>
    <rc><c>Si</c><c>   2</c></rc>
    <rc><c>Si</c><c>   2</c></rc>
    <rc><c>Si</c><c>   2</c></rc>
    <rc><c>Si</c><c>   2</c></rc>
    <rc><c>Si</c><c>   2</c></rc>
    <rc><c>Si</c><c>   2</c></rc>
    <rc><c>Si</c><c>   2</c></rc>
    <rc><c>Si</c><c>   2</c></rc>
    <rc><c>Si</c><c>   2</c></rc>
    <rc><c>Si</c><c>   2</c></rc>
    <rc><c>Si</c><c>   2</c></rc>
    <rc><c>Si</c><c>   2</c></rc>
    <rc><c>Si</c><c>   2</c></rc>
    <rc><c>Si</c><c>   2</c></rc>
    <rc><c>Si</c><c>   2</c></rc>
    <rc><c>Si</c><c>   2</c></rc>
    <rc><c>Si</c><c>   2</c></rc>
    <rc><c>Si</c><c>   2</c></rc>
    <rc><c>Si</c><c>   2</c></rc>
    <rc><c>Si</c><c>   2</c></rc>
    <rc><c>Si</c><c>   2</c></rc>
    <rc><c>Si</c><c>   2</c></rc>
    <rc><c>Si</c><c>   2</c></rc>
    <rc><c>O </c><c>   3</c></rc>
    <rc><c>O </c><c>   3</c></rc>
    <rc><c>O </c><c>   3</c></rc>
    <rc><c>O </c><c>   3</c></rc>
    <rc><c>O </c><c>   3</c></rc>
    <rc><c>O </c><c>   3</c></rc>
    <rc><c>O </c><c>   3</c></rc>
    <rc><c>O </c><c>   3</c></rc>
    <rc><c>O </c><c>   3</c></rc>
    <rc><c>O </c><c>   3</c></rc>
    <rc><c>O </c><c>   3</c></rc>
    <rc><c>O </c><c>   3</c></rc>
    <rc><c>O </c><c>   3</c></rc>
    <rc><c>O </c><c>   3</c></rc>
    <rc><c>O </c><c>   3</c></rc>
    <rc><c>O </c><c>   3</c></rc>
    <rc><c>O </c><c>   3</c></rc>
    <rc><c>O </c><c>   3</c></rc>
    <rc><c>O </c><c>   3</c></rc>
    <rc><c>O </c><c>   3</c></rc>
    <rc><c>O </c><c>   3</c></rc>
    <rc><c>O </c><c>   3</c></rc>
    <rc><c>O </c><c>   3</c></rc>
    <rc><c>O </c><c>   3</c></rc>
    <rc><c>O </c><c>   3</c></rc>
    <rc><c>O </c><c>   3</c></rc>
    <rc><c>O </c><c>   3</c></rc>
    <rc><c>O </c><c>   3</c></rc>
    <rc><c>O </c><c>   3</c></rc>
    <rc><c>O </c><c>   3</c></rc>
    <rc><c>O </c><c>   3</c></rc>
    <rc><c>O </c><c>   3</c></rc>
    <rc><c>O </c><c>   3</c></rc>
    <rc><c>O </c><c>   3</c></rc>
    <rc><c>O </c><c>   3</c></rc>
    <rc><c>O </c><c>   3</c></rc>
    <rc><c>O </c><c>   3</c></rc>
    <rc><c>O </c><c>   3</c></rc>
    <rc><c>O </c><c>   3</c></rc>
    <rc><c>O </c><c>   3</c></rc>
    <rc><c>O </c><c>   3</c></rc>
    <rc><c>O </c><c>   3</c></rc>
    <rc><c>O </c><c>   3</c></rc>
    <rc><c>O </c><c>   3</c></rc>
    <rc><c>O </c><c>   3</c></rc>
    <rc><c>O </c><c>   3</c></rc>
    <rc><c>O </c><c>   3</c></rc>
    <rc><c>O </c><c>   3</c></rc>
    <rc><c>O </c><c>   3</c></rc>
    <rc><c>O </c><c>   3</c></rc>
    <rc><c>O </c><c>   3</c></rc>
    <rc><c>O </c><c>   3</c></rc>
    <rc><c>O </c><c>   3</c></rc>
    <rc><c>O </c><c>   3</c></rc>
    <rc><c>O </c><c>   3</c></rc>
    <rc><c>O </c><c>   3</c></rc>
    <rc><c>O </c><c>   3</c></rc>
    <rc><c>O </c><c>   3</c></rc>
    <rc><c>O </c><c>   3</c></rc>
    <rc><c>O </c><c>   3</c></rc>
    <rc><c>O </c><c>   3</c></rc>
    <rc><c>O </c><c>   3</c></rc>
    <rc><c>O </c><c>   3</c></rc>
    <rc><c>O </c><c>   3</c></rc>
    <rc><c>O </c><c>   3</c></rc>
    <rc><c>O </c><c>   3</c></rc>
    <rc><c>O </c><c>   3</c></rc>
    <rc><c>O </c><c>   3</c></rc>
    <rc><c>O </c><c>   3</c></rc>
    <rc><c>O </c><c>   3</c></rc>
    <rc><c>O </c><c>   3</c></rc>
    <rc><c>O </c><c>   3</c></rc>
    <rc><c>O </c><c>   3</c></rc>
    <rc><c>O </c><c>   3</c></rc>
    <rc><c>O </c><c>   3</c></rc>
    <rc><c>O </c><c>   3</c></rc>
    <rc><c>O </c><c>   3</c></rc>
    <rc><c>O </c><c>   3</c></rc>
    <rc><c>O </c><c>   3</c></rc>
    <rc><c>O </c><c>   3</c></rc>
    <rc><c>O </c><c>   3</c></rc>
   </set>
  </array>
  <array name="atomtypes" >
   <dimension dim="1">type</dimension>
   <field type="int">atomspertype</field>
   <field type="string">element</field>
   <field>mass</field>
   <field>valence</field>
   <field type="string">pseudopotential</field>
   <set>
    <rc><c>  27</c><c>Ca</c><c>     40.07800000</c><c>     10.00000000</c><c>  PAW_PBE Ca_sv 06Sep2000               </c></rc>
    <rc><c>  27</c><c>Si</c><c>     28.08500000</c><c>      4.00000000</c><c>  PAW_PBE Si 05Jan2001                  </c></rc>
    <rc><c>  81</c><c>O </c><c>     16.00000000</c><c>      6.00000000</c><c>  PAW_PBE O 08Apr2002                   </c></rc>
   </set>
  </array>
 </atominfo>
 <structure name="initialpos" >
  <crystal>
   <varray name="basis" >
    <v>      12.09378762       0.00000000       0.00000000 </v>
    <v>       0.00000000      12.09378762       0.00000000 </v>
    <v>       0.00000000       0.00000000      12.09378762 </v>
   </varray>
   <i name="volume">   1768.83373704 </i>
   <varray name="rec_basis" >
    <v>       0.08268708       0.00000000       0.00000000 </v>
    <v>       0.00000000       0.08268708       0.00000000 </v>
    <v>       0.00000000       0.00000000       0.08268708 </v>
   </varray>
  </crystal>
  <varray name="positions" >
   <v>       0.93500093       0.62340477       0.42146419 </v>
   <v>       0.20907858       0.84673198       0.49118635 </v>
   <v>       0.83840716       0.19110981       0.98920296 </v>
   <v>       0.59251115       0.47091621       0.62330932 </v>
   <v>       0.37401985       0.20320652       0.20009695 </v>
   <v>       0.50173238       0.01488192       0.75252088 </v>
   <v>       0.43308119       0.45232829       0.78543684 </v>
   <v>       0.47609389       0.00095342       0.47832253 </v>
   <v>       0.08840162       0.33318713       0.42591047 </v>
   <v>       0.98738822       0.86971788       0.26340471 </v>
   <v>       0.31189223       0.85801285       0.97073633 </v>
   <v>       0.79785298       0.46625445       0.05780467 </v>
   <v>       0.94420610       0.21589424       0.64828399 </v>
   <v>       0.69485009       0.90727921       0.34539817 </v>
   <v>       0.11432420       0.78889274       0.71254777 </v>
   <v>       0.92228168       0.51644632       0.64722312 </v>
   <v>       0.26241106       0.97457807       0.19653471 </v>
   <v>       0.26495435       0.13921600       0.61547443 </v>
   <v>       0.55208754       0.27865535       0.93906850 </v>
   <v>       0.57381026       0.37236786       0.27363308 </v>
   <v>       0.07846076       0.73167785       0.04985661 </v>
   <v>       0.03624212       0.43804035       0.89075674 </v>
   <v>       0.54927160       0.79703776       0.15596723 </v>
   <v>       0.34983292       0.48543926       0.05653794 </v>
   <v>       0.68647121       0.70598997       0.48016519 </v>
   <v>       0.82166447       0.92901276       0.84518474 </v>
   <v>       0.57872884       0.68946777       0.85100087 </v>
   <v>       0.23815125       0.99693122       0.79105674 </v>
   <v>       0.74119264       0.99968627       0.62555859 </v>
   <v>       0.18662671       0.41140224       0.68117527 </v>
   <v>       0.12756478       0.58576101       0.39182804 </v>
   <v>       0.90261337       0.69217757       0.90764963 </v>
   <v>       0.29179057       0.20468745       0.91885628 </v>
   <v>       0.57361053       0.56013402       0.11636202 </v>
   <v>       0.72961580       0.39545186       0.83057043 </v>
   <v>       0.29815872       0.67535825       0.22245824 </v>
   <v>       0.84904556       0.94657776       0.11779962 </v>
   <v>       0.64853631       0.10176758       0.17968164 </v>
   <v>       0.02266538       0.07006439       0.94682091 </v>
   <v>       0.53679060       0.19537375       0.57502054 </v>
   <v>       0.51507155       0.76023273       0.62685331 </v>
   <v>       0.80902743       0.22972707       0.26396531 </v>
   <v>       0.26466986       0.63926731       0.87584418 </v>
   <v>       0.47252412       0.72527334       0.36525167 </v>
   <v>       0.34875315       0.42724560       0.30544657 </v>
   <v>       0.11147034       0.25416814       0.06836763 </v>
   <v>       0.92663896       0.90035729       0.51432190 </v>
   <v>       0.34825161       0.39654703       0.51769456 </v>
   <v>       0.77191728       0.74059222       0.66714907 </v>
   <v>       0.88026884       0.67434578       0.18103878 </v>
   <v>       0.55864843       0.96912625       0.00242156 </v>
   <v>       0.71345920       0.20054877       0.66174183 </v>
   <v>       0.01405891       0.09824323       0.40597771 </v>
   <v>       0.80500406       0.40776019       0.47078862 </v>
   <v>       0.34997724       0.97421581       0.84828478 </v>
   <v>       0.78099771       0.59136824       0.23376689 </v>
   <v>       0.90400180       0.45342323       0.51293197 </v>
   <v>       0.39792882       0.37107245       0.41016157 </v>
   <v>       0.21877861       0.76468255       0.86032608 </v>
   <v>       0.42378060       0.85998099       0.62570661 </v>
   <v>       0.67311694       0.07835153       0.69731971 </v>
   <v>       0.16580255       0.70428370       0.35492531 </v>
   <v>       0.84794482       0.38842905       0.92006895 </v>
   <v>       0.89704549       0.96375780       0.65648061 </v>
   <v>       0.76347616       0.26960039       0.77281929 </v>
   <v>       0.46811575       0.83998960       0.00872938 </v>
   <v>       0.46006624       0.49586213       0.22855280 </v>
   <v>       0.60427741       0.16525985       0.47017165 </v>
   <v>       0.66633814       0.63241694       0.05288210 </v>
   <v>       0.63966341       0.47109266       0.16818234 </v>
   <v>       0.59384520       0.24452272       0.68536591 </v>
   <v>       0.35583510       0.12598025       0.44738318 </v>
   <v>       0.75160485       0.06692258       0.09060617 </v>
   <v>       0.25331032       0.14090274       0.79731079 </v>
   <v>       0.47707928       0.65955336       0.49601393 </v>
   <v>       0.56912505       0.98894075       0.12929459 </v>
   <v>       0.12588767       0.02802310       0.87392269 </v>
   <v>       0.81008152       0.12101189       0.57957680 </v>
   <v>       0.90789823       0.98987694       0.42350993 </v>
   <v>       0.30252872       0.68371491       0.00239510 </v>
   <v>       0.68214535       0.89869609       0.97904667 </v>
   <v>       0.18051432       0.94545212       0.66320717 </v>
   <v>       0.04981263       0.85355442       0.54517753 </v>
   <v>       0.19957844       0.30984125       0.98180055 </v>
   <v>       0.84284909       0.66342465       0.57374576 </v>
   <v>       0.46888423       0.33027775       0.57319496 </v>
   <v>       0.92600741       0.09065279       0.86330031 </v>
   <v>       0.77938988       0.84555409       0.59267251 </v>
   <v>       0.19554280       0.33931083       0.56412951 </v>
   <v>       0.62571643       0.93274627       0.52802855 </v>
   <v>       0.16013254       0.94300740       0.02896585 </v>
   <v>       0.33694803       0.46456030       0.63293228 </v>
   <v>       0.03929029       0.39676720       0.70624193 </v>
   <v>       0.22150409       0.47887265       0.37921048 </v>
   <v>       0.59716098       0.71844562       0.31937866 </v>
   <v>       0.12838639       0.22680190       0.21365427 </v>
   <v>       0.22070044       0.39252719       0.79762213 </v>
   <v>       0.64886311       0.89984781       0.72637997 </v>
   <v>       0.46053653       0.87136778       0.34734791 </v>
   <v>       0.91322113       0.62894429       0.03701727 </v>
   <v>       0.73554169       0.49442412       0.72633164 </v>
   <v>       0.53788876       0.07406863       0.92837558 </v>
   <v>       0.66143249       0.70404752       0.63583110 </v>
   <v>       0.43048026       0.11557164       0.61024038 </v>
   <v>       0.17111528       0.59033952       0.77616190 </v>
   <v>       0.90747234       0.79241731       0.41781773 </v>
   <v>       0.48831895       0.51372469       0.96213332 </v>
   <v>       0.04165106       0.15892145       0.02407063 </v>
   <v>       0.27937659       0.40589371       0.19234116 </v>
   <v>       0.99110945       0.79245149       0.86675886 </v>
   <v>       0.85876052       0.92563743       0.24560024 </v>
   <v>       0.48240655       0.64790101       0.71602660 </v>
   <v>       0.92762105       0.17403268       0.31015025 </v>
   <v>       0.45609087       0.65327278       0.12596172 </v>
   <v>       0.71181736       0.09163736       0.30447367 </v>
   <v>       0.38698845       0.65005861       0.31682084 </v>
   <v>       0.62500441       0.44605016       0.89147624 </v>
   <v>       0.78995685       0.74117090       0.83228098 </v>
   <v>       0.21956639       0.61263120       0.13792527 </v>
   <v>       0.11120184       0.03025588       0.36356466 </v>
   <v>       0.83033155       0.80431230       0.10147126 </v>
   <v>       0.58930774       0.22851200       0.15859765 </v>
   <v>       0.73906190       0.52080444       0.45100507 </v>
   <v>       0.04187503       0.18770501       0.53644953 </v>
   <v>       0.29001482       0.80508851       0.19545197 </v>
   <v>       0.31011083       0.14699413       0.03162452 </v>
   <v>       0.05403525       0.47527688       0.37442771 </v>
   <v>       0.96838863       0.58676433       0.83405158 </v>
   <v>       0.39979292       0.26584556       0.85834876 </v>
   <v>       0.78101448       0.34825224       0.59834410 </v>
   <v>       0.77234633       0.28087744       0.38740087 </v>
   <v>       0.95322225       0.00860594       0.05141519 </v>
   <v>       0.76199110       0.27926589       0.09978406 </v>
   <v>       0.12252560       0.61521898       0.56084905 </v>
   <v>       0.99801589       0.69787766       0.23957248 </v>
  </varray>
  <varray name="velocities" >
   <v>       0.00000000       0.00000000       0.00000000 </v>
   <v>       0.00000000       0.00000000       0.00000000 </v>
   <v>       0.00000000       0.00000000       0.00000000 </v>
   <v>       0.00000000       0.00000000       0.00000000 </v>
   <v>       0.00000000       0.00000000       0.00000000 </v>
   <v>       0.00000000       0.00000000       0.00000000 </v>
   <v>       0.00000000       0.00000000       0.00000000 </v>
   <v>       0.00000000       0.00000000       0.00000000 </v>
   <v>       0.00000000       0.00000000       0.00000000 </v>
   <v>       0.00000000       0.00000000       0.00000000 </v>
   <v>       0.00000000       0.00000000       0.00000000 </v>
   <v>       0.00000000       0.00000000       0.00000000 </v>
   <v>       0.00000000       0.00000000       0.00000000 </v>
   <v>       0.00000000       0.00000000       0.00000000 </v>
   <v>       0.00000000       0.00000000       0.00000000 </v>
   <v>       0.00000000       0.00000000       0.00000000 </v>
   <v>       0.00000000       0.00000000       0.00000000 </v>
   <v>       0.00000000       0.00000000       0.00000000 </v>
   <v>       0.00000000       0.00000000       0.00000000 </v>
   <v>       0.00000000       0.00000000       0.00000000 </v>
   <v>       0.00000000       0.00000000       0.00000000 </v>
   <v>       0.00000000       0.00000000       0.00000000 </v>
   <v>       0.00000000       0.00000000       0.00000000 </v>
   <v>       0.00000000       0.00000000       0.00000000 </v>
   <v>       0.00000000       0.00000000       0.00000000 </v>
   <v>       0.00000000       0.00000000       0.00000000 </v>
   <v>       0.00000000       0.00000000       0.00000000 </v>
   <v>       0.00000000       0.00000000       0.00000000 </v>
   <v>       0.00000000       0.00000000       0.00000000 </v>
   <v>       0.00000000       0.00000000       0.00000000 </v>
   <v>       0.00000000       0.00000000       0.00000000 </v>
   <v>       0.00000000       0.00000000       0.00000000 </v>
   <v>       0.00000000       0.00000000       0.00000000 </v>
   <v>       0.00000000       0.00000000       0.00000000 </v>
   <v>       0.00000000       0.00000000       0.00000000 </v>
   <v>       0.00000000       0.00000000       0.00000000 </v>
   <v>       0.00000000       0.00000000       0.00000000 </v>
   <v>       0.00000000       0.00000000       0.00000000 </v>
   <v>       0.00000000       0.00000000       0.00000000 </v>
   <v>       0.00000000       0.00000000       0.00000000 </v>
   <v>       0.00000000       0.00000000       0.00000000 </v>
   <v>       0.00000000       0.00000000       0.00000000 </v>
   <v>       0.00000000       0.00000000       0.00000000 </v>
   <v>       0.00000000       0.00000000       0.00000000 </v>
   <v>       0.00000000       0.00000000       0.00000000 </v>
   <v>       0.00000000       0.00000000       0.00000000 </v>
   <v>       0.00000000       0.00000000       0.00000000 </v>
   <v>       0.00000000       0.00000000       0.00000000 </v>
   <v>       0.00000000       0.00000000       0.00000000 </v>
   <v>       0.00000000       0.00000000       0.00000000 </v>
   <v>       0.00000000       0.00000000       0.00000000 </v>
   <v>       0.00000000       0.00000000       0.00000000 </v>
   <v>       0.00000000       0.00000000       0.00000000 </v>
   <v>       0.00000000       0.00000000       0.00000000 </v>
   <v>       0.00000000       0.00000000       0.00000000 </v>
   <v>       0.00000000       0.00000000       0.00000000 </v>
   <v>       0.00000000       0.00000000       0.00000000 </v>
   <v>       0.00000000       0.00000000       0.00000000 </v>
   <v>       0.00000000       0.00000000       0.00000000 </v>
   <v>       0.00000000       0.00000000       0.00000000 </v>
   <v>       0.00000000       0.00000000       0.00000000 </v>
   <v>       0.00000000       0.00000000       0.00000000 </v>
   <v>       0.00000000       0.00000000       0.00000000 </v>
   <v>       0.00000000       0.00000000       0.00000000 </v>
   <v>       0.00000000       0.00000000       0.00000000 </v>
   <v>       0.00000000       0.00000000       0.00000000 </v>
   <v>       0.00000000       0.00000000       0.00000000 </v>
   <v>       0.00000000       0.00000000       0.00000000 </v>
   <v>       0.00000000       0.00000000       0.00000000 </v>
   <v>       0.00000000       0.00000000       0.00000000 </v>
   <v>       0.00000000       0.00000000       0.00000000 </v>
   <v>       0.00000000       0.00000000       0.00000000 </v>
   <v>       0.00000000       0.00000000       0.00000000 </v>
   <v>       0.00000000       0.00000000       0.00000000 </v>
   <v>       0.00000000       0.00000000       0.00000000 </v>
   <v>       0.00000000       0.00000000       0.00000000 </v>
   <v>       0.00000000       0.00000000       0.00000000 </v>
   <v>       0.00000000       0.00000000       0.00000000 </v>
   <v>       0.00000000       0.00000000       0.00000000 </v>
   <v>       0.00000000       0.00000000       0.00000000 </v>
   <v>       0.00000000       0.00000000       0.00000000 </v>
   <v>       0.00000000       0.00000000       0.00000000 </v>
   <v>       0.00000000       0.00000000       0.00000000 </v>
   <v>       0.00000000       0.00000000       0.00000000 </v>
   <v>       0.00000000       0.00000000       0.00000000 </v>
   <v>       0.00000000       0.00000000       0.00000000 </v>
   <v>       0.00000000       0.00000000       0.00000000 </v>
   <v>       0.00000000       0.00000000       0.00000000 </v>
   <v>       0.00000000       0.00000000       0.00000000 </v>
   <v>       0.00000000       0.00000000       0.00000000 </v>
   <v>       0.00000000       0.00000000       0.00000000 </v>
   <v>       0.00000000       0.00000000       0.00000000 </v>
   <v>       0.00000000       0.00000000       0.00000000 </v>
   <v>       0.00000000       0.00000000       0.00000000 </v>
   <v>       0.00000000       0.00000000       0.00000000 </v>
   <v>       0.00000000       0.00000000       0.00000000 </v>
   <v>       0.00000000       0.00000000       0.00000000 </v>
   <v>       0.00000000       0.00000000       0.00000000 </v>
   <v>       0.00000000       0.00000000       0.00000000 </v>
   <v>       0.00000000       0.00000000       0.00000000 </v>
   <v>       0.00000000       0.00000000       0.00000000 </v>
   <v>       0.00000000       0.00000000       0.00000000 </v>
   <v>       0.00000000       0.00000000       0.00000000 </v>
   <v>       0.00000000       0.00000000       0.00000000 </v>
   <v>       0.00000000       0.00000000       0.00000000 </v>
   <v>       0.00000000       0.00000000       0.00000000 </v>
   <v>       0.00000000       0.00000000       0.00000000 </v>
   <v>       0.00000000       0.00000000       0.00000000 </v>
   <v>       0.00000000       0.00000000       0.00000000 </v>
   <v>       0.00000000       0.00000000       0.00000000 </v>
   <v>       0.00000000       0.00000000       0.00000000 </v>
   <v>       0.00000000       0.00000000       0.00000000 </v>
   <v>       0.00000000       0.00000000       0.00000000 </v>
   <v>       0.00000000       0.00000000       0.00000000 </v>
   <v>       0.00000000       0.00000000       0.00000000 </v>
   <v>       0.00000000       0.00000000       0.00000000 </v>
   <v>       0.00000000       0.00000000       0.00000000 </v>
   <v>       0.00000000       0.00000000       0.00000000 </v>
   <v>       0.00000000       0.00000000       0.00000000 </v>
   <v>       0.00000000       0.00000000       0.00000000 </v>
   <v>       0.00000000       0.00000000       0.00000000 </v>
   <v>       0.00000000       0.00000000       0.00000000 </v>
   <v>       0.00000000       0.00000000       0.00000000 </v>
   <v>       0.00000000       0.00000000       0.00000000 </v>
   <v>       0.00000000       0.00000000       0.00000000 </v>
   <v>       0.00000000       0.00000000       0.00000000 </v>
   <v>       0.00000000       0.00000000       0.00000000 </v>
   <v>       0.00000000       0.00000000       0.00000000 </v>
   <v>       0.00000000       0.00000000       0.00000000 </v>
   <v>       0.00000000       0.00000000       0.00000000 </v>
   <v>       0.00000000       0.00000000       0.00000000 </v>
   <v>       0.00000000       0.00000000       0.00000000 </v>
   <v>       0.00000000       0.00000000       0.00000000 </v>
   <v>       0.00000000       0.00000000       0.00000000 </v>
   <v>       0.00000000       0.00000000       0.00000000 </v>
  </varray>
 </structure>
 <calculation>
  <scstep>
   <time name="dav">   35.85   35.85</time>
   <time name="total">   36.34   36.35</time>
   <energy>
    <i name="alphaZ">   2701.53174423 </i>
    <i name="ewald"> -44354.55221833 </i>
    <i name="hartreedc"> -19050.25206565 </i>
    <i name="XCdc">   3169.79431573 </i>
    <i name="pawpsdc">  50594.51003143 </i>
    <i name="pawaedc"> -49994.65612350 </i>
    <i name="eentropy">     -0.04156298 </i>
    <i name="bandstr">   1531.86215822 </i>
    <i name="atom">  64968.54023382 </i>
    <i name="e_fr_energy">   9566.73651297 </i>
    <i name="e_wo_entrp">   9566.77807595 </i>
    <i name="e_0_energy">   9566.75729446 </i>
   </energy>
  </scstep>
  <scstep>
   <time name="dav">   40.79   40.80</time>
   <time name="total">   40.79   40.80</time>
   <energy>
    <i name="e_fr_energy">     75.35645753 </i>
    <i name="e_wo_entrp">     75.35645753 </i>
    <i name="e_0_energy">     75.35645753 </i>
   </energy>
  </scstep>
  <scstep>
   <time name="dav">   42.15   42.16</time>
   <time name="total">   42.15   42.17</time>
   <energy>
    <i name="e_fr_energy">   -977.61552792 </i>
    <i name="e_wo_entrp">   -977.61552792 </i>
    <i name="e_0_energy">   -977.61552792 </i>
   </energy>
  </scstep>
  <scstep>
   <time name="dav">   45.86   45.87</time>
   <time name="total">   45.87   45.87</time>
   <energy>
    <i name="e_fr_energy">  -1030.49298234 </i>
    <i name="e_wo_entrp">  -1030.49298234 </i>
    <i name="e_0_energy">  -1030.49298234 </i>
   </energy>
  </scstep>
  <scstep>
   <time name="dav">   56.07   56.08</time>
   <time name="total">   57.49   57.50</time>
   <energy>
    <i name="e_fr_energy">  -1036.28212812 </i>
    <i name="e_wo_entrp">  -1036.28212812 </i>
    <i name="e_0_energy">  -1036.28212812 </i>
   </energy>
  </scstep>
  <scstep>
   <time name="dav">   41.04   41.04</time>
   <time name="total">   42.90   42.91</time>
   <energy>
    <i name="e_fr_energy">   -879.05385489 </i>
    <i name="e_wo_entrp">   -879.02464720 </i>
    <i name="e_0_energy">   -879.03925105 </i>
   </energy>
  </scstep>
  <scstep>
   <time name="dav">   42.95   42.94</time>
   <time name="total">   44.83   44.84</time>
   <energy>
    <i name="e_fr_energy">   -884.65658425 </i>
    <i name="e_wo_entrp">   -884.63505516 </i>
    <i name="e_0_energy">   -884.64581971 </i>
   </energy>
  </scstep>
  <scstep>
   <time name="dav">   48.95   48.95</time>
   <time name="total">   50.76   50.76</time>
   <energy>
    <i name="e_fr_energy">   -876.11690399 </i>
    <i name="e_wo_entrp">   -876.11690395 </i>
    <i name="e_0_energy">   -876.11690397 </i>
   </energy>
  </scstep>
  <scstep>
   <time name="dav">   40.06   40.06</time>
   <time name="total">   41.93   41.95</time>
   <energy>
    <i name="e_fr_energy">   -879.84722774 </i>
    <i name="e_wo_entrp">   -879.80445462 </i>
    <i name="e_0_energy">   -879.82584118 </i>
   </energy>
  </scstep>
  <scstep>
   <time name="dav">   41.78   41.78</time>
   <time name="total">   43.66   43.66</time>
   <energy>
    <i name="e_fr_energy">   -875.77668159 </i>
    <i name="e_wo_entrp">   -875.74256920 </i>
    <i name="e_0_energy">   -875.75962539 </i>
   </energy>
  </scstep>
  <scstep>
   <time name="dav">   42.29   42.29</time>
   <time name="total">   44.16   44.17</time>
   <energy>
    <i name="e_fr_energy">   -875.74254308 </i>
    <i name="e_wo_entrp">   -875.74193012 </i>
    <i name="e_0_energy">   -875.74223660 </i>
   </energy>
  </scstep>
  <scstep>
   <time name="dav">   45.23   45.23</time>
   <time name="total">   47.06   47.07</time>
   <energy>
    <i name="e_fr_energy">   -875.72886642 </i>
    <i name="e_wo_entrp">   -875.68592431 </i>
    <i name="e_0_energy">   -875.70739536 </i>
   </energy>
  </scstep>
  <scstep>
   <time name="dav">   43.45   43.45</time>
   <time name="total">   45.30   45.31</time>
   <energy>
    <i name="e_fr_energy">   -875.57322755 </i>
    <i name="e_wo_entrp">   -875.56800568 </i>
    <i name="e_0_energy">   -875.57061661 </i>
   </energy>
  </scstep>
  <scstep>
   <time name="dav">   43.53   43.53</time>
   <time name="total">   45.32   45.33</time>
   <energy>
    <i name="e_fr_energy">   -875.53754835 </i>
    <i name="e_wo_entrp">   -875.49678200 </i>
    <i name="e_0_energy">   -875.51716518 </i>
   </energy>
  </scstep>
  <scstep>
   <time name="dav">   43.92   43.91</time>
   <time name="total">   45.72   45.73</time>
   <energy>
    <i name="e_fr_energy">   -875.50332003 </i>
    <i name="e_wo_entrp">   -875.46472069 </i>
    <i name="e_0_energy">   -875.48402036 </i>
   </energy>
  </scstep>
  <scstep>
   <time name="dav">   43.56   43.56</time>
   <time name="total">   45.39   45.39</time>
   <energy>
    <i name="e_fr_energy">   -875.50208636 </i>
    <i name="e_wo_entrp">   -875.46813912 </i>
    <i name="e_0_energy">   -875.48511274 </i>
   </energy>
  </scstep>
  <scstep>
   <time name="dav">   41.93   41.94</time>
   <time name="total">   43.77   43.78</time>
   <energy>
    <i name="e_fr_energy">   -875.50103823 </i>
    <i name="e_wo_entrp">   -875.45827665 </i>
    <i name="e_0_energy">   -875.47965744 </i>
   </energy>
  </scstep>
  <scstep>
   <time name="dav">   43.23   43.23</time>
   <time name="total">   45.02   45.02</time>
   <energy>
    <i name="e_fr_energy">   -875.48186846 </i>
    <i name="e_wo_entrp">   -875.44642922 </i>
    <i name="e_0_energy">   -875.46414884 </i>
   </energy>
  </scstep>
  <scstep>
   <time name="dav">   42.24   42.24</time>
   <time name="total">   44.11   44.13</time>
   <energy>
    <i name="e_fr_energy">   -875.47605684 </i>
    <i name="e_wo_entrp">   -875.43919990 </i>
    <i name="e_0_energy">   -875.45762837 </i>
   </energy>
  </scstep>
  <scstep>
   <time name="dav">   41.84   41.84</time>
   <time name="total">   43.61   43.61</time>
   <energy>
    <i name="e_fr_energy">   -875.47474296 </i>
    <i name="e_wo_entrp">   -875.44183164 </i>
    <i name="e_0_energy">   -875.45828730 </i>
   </energy>
  </scstep>
  <scstep>
   <time name="dav">   45.25   45.25</time>
   <time name="total">   47.15   47.16</time>
   <energy>
    <i name="e_fr_energy">   -875.47483053 </i>
    <i name="e_wo_entrp">   -875.44139182 </i>
    <i name="e_0_energy">   -875.45811117 </i>
   </energy>
  </scstep>
  <scstep>
   <time name="dav">   42.36   42.36</time>
   <time name="total">   44.16   44.17</time>
   <energy>
    <i name="e_fr_energy">   -875.47451120 </i>
    <i name="e_wo_entrp">   -875.44215658 </i>
    <i name="e_0_energy">   -875.45833389 </i>
   </energy>
  </scstep>
  <scstep>
   <time name="dav">   45.36   45.36</time>
   <time name="total">   47.18   47.20</time>
   <energy>
    <i name="e_fr_energy">   -875.47451837 </i>
    <i name="e_wo_entrp">   -875.44254341 </i>
    <i name="e_0_energy">   -875.45853089 </i>
   </energy>
  </scstep>
  <scstep>
   <time name="dav">   45.24   45.24</time>
   <time name="total">   47.09   47.10</time>
   <energy>
    <i name="e_fr_energy">   -875.47454508 </i>
    <i name="e_wo_entrp">   -875.44292016 </i>
    <i name="e_0_energy">   -875.45873262 </i>
   </energy>
  </scstep>
  <scstep>
   <time name="dav">   41.55   41.55</time>
   <time name="total">   43.35   43.36</time>
   <energy>
    <i name="e_fr_energy">   -875.47453817 </i>
    <i name="e_wo_entrp">   -875.44273055 </i>
    <i name="e_0_energy">   -875.45863436 </i>
   </energy>
  </scstep>
  <scstep>
   <time name="dav">   36.78   36.78</time>
   <time name="total">   38.58   38.59</time>
   <energy>
    <i name="e_fr_energy">   -875.47453329 </i>
    <i name="e_wo_entrp">   -875.44259917 </i>
    <i name="e_0_energy">   -875.45856623 </i>
   </energy>
  </scstep>
  <scstep>
   <time name="dav">   35.14   35.14</time>
   <time name="total">   36.93   36.94</time>
   <energy>
    <i name="e_fr_energy">   -875.47453496 </i>
    <i name="e_wo_entrp">   -875.44243300 </i>
    <i name="e_0_energy">   -875.45848398 </i>
   </energy>
  </scstep>
  <scstep>
   <time name="dav">   27.44   27.44</time>
   <time name="total">   29.33   29.33</time>
   <energy>
    <i name="e_fr_energy">   -875.47453389 </i>
    <i name="e_wo_entrp">   -875.44250869 </i>
    <i name="e_0_energy">   -875.45852129 </i>
   </energy>
  </scstep>
  <scstep>
   <time name="dav">   25.94   25.93</time>
   <time name="total">   26.43   26.44</time>
   <energy>
    <i name="alphaZ">   2701.53174423 </i>
    <i name="ewald"> -44354.55221833 </i>
    <i name="hartreedc"> -20711.19817623 </i>
    <i name="XCdc">   3268.75317688 </i>
    <i name="pawpsdc">  90288.07367201 </i>
    <i name="pawaedc"> -89939.30697175 </i>
    <i name="eentropy">     -0.03203630 </i>
    <i name="bandstr">  -7097.28395844 </i>
    <i name="atom">  64968.54023382 </i>
    <i name="e_fr_energy">   -875.47453410 </i>
    <i name="e_wo_entrp">   -875.44249781 </i>
    <i name="e_0_energy">   -875.45851596 </i>
   </energy>
  </scstep>
  <structure>
   <crystal>
    <varray name="basis" >
     <v>      12.09378762       0.00000000       0.00000000 </v>
     <v>       0.00000000      12.09378762       0.00000000 </v>
     <v>       0.00000000       0.00000000      12.09378762 </v>
    </varray>
    <i name="volume">   1768.83373704 </i>
    <varray name="rec_basis" >
     <v>       0.08268708       0.00000000       0.00000000 </v>
     <v>       0.00000000       0.08268708       0.00000000 </v>
     <v>       0.00000000       0.00000000       0.08268708 </v>
    </varray>
   </crystal>
   <varray name="positions" >
    <v>       0.93500093       0.62340477       0.42146419 </v>
    <v>       0.20907858       0.84673198       0.49118635 </v>
    <v>       0.83840716       0.19110981       0.98920296 </v>
    <v>       0.59251115       0.47091621       0.62330932 </v>
    <v>       0.37401985       0.20320652       0.20009695 </v>
    <v>       0.50173238       0.01488192       0.75252088 </v>
    <v>       0.43308119       0.45232829       0.78543684 </v>
    <v>       0.47609389       0.00095342       0.47832253 </v>
    <v>       0.08840162       0.33318713       0.42591047 </v>
    <v>       0.98738822       0.86971788       0.26340471 </v>
    <v>       0.31189223       0.85801285       0.97073633 </v>
    <v>       0.79785298       0.46625445       0.05780467 </v>
    <v>       0.94420610       0.21589424       0.64828399 </v>
    <v>       0.69485009       0.90727921       0.34539817 </v>
    <v>       0.11432420       0.78889274       0.71254777 </v>
    <v>       0.92228168       0.51644632       0.64722312 </v>
    <v>       0.26241106       0.97457807       0.19653471 </v>
    <v>       0.26495435       0.13921600       0.61547443 </v>
    <v>       0.55208754       0.27865535       0.93906850 </v>
    <v>       0.57381026       0.37236786       0.27363308 </v>
    <v>       0.07846076       0.73167785       0.04985661 </v>
    <v>       0.03624212       0.43804035       0.89075674 </v>
    <v>       0.54927160       0.79703776       0.15596723 </v>
    <v>       0.34983292       0.48543926       0.05653794 </v>
    <v>       0.68647121       0.70598997       0.48016519 </v>
    <v>       0.82166447       0.92901276       0.84518474 </v>
    <v>       0.57872884       0.68946777       0.85100087 </v>
    <v>       0.23815125       0.99693122       0.79105674 </v>
    <v>       0.74119264       0.99968627       0.62555859 </v>
    <v>       0.18662671       0.41140224       0.68117527 </v>
    <v>       0.12756478       0.58576101       0.39182804 </v>
    <v>       0.90261337       0.69217757       0.90764963 </v>
    <v>       0.29179057       0.20468745       0.91885628 </v>
    <v>       0.57361053       0.56013402       0.11636202 </v>
    <v>       0.72961580       0.39545186       0.83057043 </v>
    <v>       0.29815872       0.67535825       0.22245824 </v>
    <v>       0.84904556       0.94657776       0.11779962 </v>
    <v>       0.64853631       0.10176758       0.17968164 </v>
    <v>       0.02266538       0.07006439       0.94682091 </v>
    <v>       0.53679060       0.19537375       0.57502054 </v>
    <v>       0.51507155       0.76023273       0.62685331 </v>
    <v>       0.80902743       0.22972707       0.26396531 </v>
    <v>       0.26466986       0.63926731       0.87584418 </v>
    <v>       0.47252412       0.72527334       0.36525167 </v>
    <v>       0.34875315       0.42724560       0.30544657 </v>
    <v>       0.11147034       0.25416814       0.06836763 </v>
    <v>       0.92663896       0.90035729       0.51432190 </v>
    <v>       0.34825161       0.39654703       0.51769456 </v>
    <v>       0.77191728       0.74059222       0.66714907 </v>
    <v>       0.88026884       0.67434578       0.18103878 </v>
    <v>       0.55864843       0.96912625       0.00242156 </v>
    <v>       0.71345920       0.20054877       0.66174183 </v>
    <v>       0.01405891       0.09824323       0.40597771 </v>
    <v>       0.80500406       0.40776019       0.47078862 </v>
    <v>       0.34997724       0.97421581       0.84828478 </v>
    <v>       0.78099771       0.59136824       0.23376689 </v>
    <v>       0.90400180       0.45342323       0.51293197 </v>
    <v>       0.39792882       0.37107245       0.41016157 </v>
    <v>       0.21877861       0.76468255       0.86032608 </v>
    <v>       0.42378060       0.85998099       0.62570661 </v>
    <v>       0.67311694       0.07835153       0.69731971 </v>
    <v>       0.16580255       0.70428370       0.35492531 </v>
    <v>       0.84794482       0.38842905       0.92006895 </v>
    <v>       0.89704549       0.96375780       0.65648061 </v>
    <v>       0.76347616       0.26960039       0.77281929 </v>
    <v>       0.46811575       0.83998960       0.00872938 </v>
    <v>       0.46006624       0.49586213       0.22855280 </v>
    <v>       0.60427741       0.16525985       0.47017165 </v>
    <v>       0.66633814       0.63241694       0.05288210 </v>
    <v>       0.63966341       0.47109266       0.16818234 </v>
    <v>       0.59384520       0.24452272       0.68536591 </v>
    <v>       0.35583510       0.12598025       0.44738318 </v>
    <v>       0.75160485       0.06692258       0.09060617 </v>
    <v>       0.25331032       0.14090274       0.79731079 </v>
    <v>       0.47707928       0.65955336       0.49601393 </v>
    <v>       0.56912505       0.98894075       0.12929459 </v>
    <v>       0.12588767       0.02802310       0.87392269 </v>
    <v>       0.81008152       0.12101189       0.57957680 </v>
    <v>       0.90789823       0.98987694       0.42350993 </v>
    <v>       0.30252872       0.68371491       0.00239510 </v>
    <v>       0.68214535       0.89869609       0.97904667 </v>
    <v>       0.18051432       0.94545212       0.66320717 </v>
    <v>       0.04981263       0.85355442       0.54517753 </v>
    <v>       0.19957844       0.30984125       0.98180055 </v>
    <v>       0.84284909       0.66342465       0.57374576 </v>
    <v>       0.46888423       0.33027775       0.57319496 </v>
    <v>       0.92600741       0.09065279       0.86330031 </v>
    <v>       0.77938988       0.84555409       0.59267251 </v>
    <v>       0.19554280       0.33931083       0.56412951 </v>
    <v>       0.62571643       0.93274627       0.52802855 </v>
    <v>       0.16013254       0.94300740       0.02896585 </v>
    <v>       0.33694803       0.46456030       0.63293228 </v>
    <v>       0.03929029       0.39676720       0.70624193 </v>
    <v>       0.22150409       0.47887265       0.37921048 </v>
    <v>       0.59716098       0.71844562       0.31937866 </v>
    <v>       0.12838639       0.22680190       0.21365427 </v>
    <v>       0.22070044       0.39252719       0.79762213 </v>
    <v>       0.64886311       0.89984781       0.72637997 </v>
    <v>       0.46053653       0.87136778       0.34734791 </v>
    <v>       0.91322113       0.62894429       0.03701727 </v>
    <v>       0.73554169       0.49442412       0.72633164 </v>
    <v>       0.53788876       0.07406863       0.92837558 </v>
    <v>       0.66143249       0.70404752       0.63583110 </v>
    <v>       0.43048026       0.11557164       0.61024038 </v>
    <v>       0.17111528       0.59033952       0.77616190 </v>
    <v>       0.90747234       0.79241731       0.41781773 </v>
    <v>       0.48831895       0.51372469       0.96213332 </v>
    <v>       0.04165106       0.15892145       0.02407063 </v>
    <v>       0.27937659       0.40589371       0.19234116 </v>
    <v>       0.99110945       0.79245149       0.86675886 </v>
    <v>       0.85876052       0.92563743       0.24560024 </v>
    <v>       0.48240655       0.64790101       0.71602660 </v>
    <v>       0.92762105       0.17403268       0.31015025 </v>
    <v>       0.45609087       0.65327278       0.12596172 </v>
    <v>       0.71181736       0.09163736       0.30447367 </v>
    <v>       0.38698845       0.65005861       0.31682084 </v>
    <v>       0.62500441       0.44605016       0.89147624 </v>
    <v>       0.78995685       0.74117090       0.83228098 </v>
    <v>       0.21956639       0.61263120       0.13792527 </v>
    <v>       0.11120184       0.03025588       0.36356466 </v>
    <v>       0.83033155       0.80431230       0.10147126 </v>
    <v>       0.58930774       0.22851200       0.15859765 </v>
    <v>       0.73906190       0.52080444       0.45100507 </v>
    <v>       0.04187503       0.18770501       0.53644953 </v>
    <v>       0.29001482       0.80508851       0.19545197 </v>
    <v>       0.31011083       0.14699413       0.03162452 </v>
    <v>       0.05403525       0.47527688       0.37442771 </v>
    <v>       0.96838863       0.58676433       0.83405158 </v>
    <v>       0.39979292       0.26584556       0.85834876 </v>
    <v>       0.78101448       0.34825224       0.59834410 </v>
    <v>       0.77234633       0.28087744       0.38740087 </v>
    <v>       0.95322225       0.00860594       0.05141519 </v>
    <v>       0.76199110       0.27926589       0.09978406 </v>
    <v>       0.12252560       0.61521898       0.56084905 </v>
    <v>       0.99801589       0.69787766       0.23957248 </v>
   </varray>
  </structure>
  <varray name="forces" >
   <v>      -2.83062285      -0.26298231       0.37791919 </v>
   <v>       0.60637037      -0.22694893      -0.65363742 </v>
   <v>       0.91088778      -0.34165177      -2.81357804 </v>
   <v>       1.94394742       0.81494311      -1.81994813 </v>
   <v>      -1.03831868       0.36322975      -0.18634035 </v>
   <v>       0.49660444      -1.11763936       0.29034918 </v>
   <v>      -1.59695922      -0.17247391       1.74606867 </v>
   <v>      -0.93198758      -0.99755745      -1.30144842 </v>
   <v>       0.18764200      -2.90282902      -0.94540112 </v>
   <v>      10.77719024      -2.16419835       4.21052340 </v>
   <v>      -2.39261394       0.47297852       1.30099658 </v>
   <v>      -1.80074071       2.06263922       3.00839901 </v>
   <v>      -2.52487150       1.53627881       5.43385916 </v>
   <v>       0.60883650       0.47081188       1.12836879 </v>
   <v>      -1.99580799      -2.49813183       0.82675745 </v>
   <v>       0.71236482       3.22433240       7.38597493 </v>
   <v>      -1.52266156       0.07174257      -0.47996806 </v>
   <v>      -2.20827304       1.00562779      -2.38216202 </v>
   <v>       0.33150828      -1.32231104       1.30995341 </v>
   <v>       1.85614547      -1.87533108       3.18039722 </v>
   <v>       2.68442639       0.95494191      -0.46697300 </v>
   <v>       0.85523564      -0.14520284      -1.29285089 </v>
   <v>       1.09164149      -0.63516176      -0.63569772 </v>
   <v>      -1.54375777       1.78725442       0.14047495 </v>
   <v>       1.81722644      -1.49768018      -6.12390934 </v>
   <v>      -0.42118757      -0.32507378      -0.22468823 </v>
   <v>       1.88928221       0.54322928       3.71132705 </v>
   <v>      -5.00822811       1.44619717      -0.42482080 </v>
   <v>       2.31292520      -8.43149608      -3.57393446 </v>
   <v>      -4.06657076       2.90949019      -2.76764240 </v>
   <v>       4.73683395      -2.87142181       4.85130786 </v>
   <v>       2.00489169      -1.38188744      -4.89846424 </v>
   <v>       0.71045830       2.31508997      -4.37323400 </v>
   <v>      -5.28270033       6.67453284      -4.44253072 </v>
   <v>       5.87026648       2.12728104      -3.41596804 </v>
   <v>      -1.11625744       1.94983468      -2.59751712 </v>
   <v>      -2.89993586       0.33808097      -3.72355568 </v>
   <v>       0.22987906       0.42897477      -1.25024306 </v>
   <v>       1.02659882     -10.79162270      -5.70440256 </v>
   <v>      -6.33993568       3.14337522      -1.20157596 </v>
   <v>      -1.85039768      -2.25626993       0.49472989 </v>
   <v>       0.25753320      -1.88990364       1.91434856 </v>
   <v>      -2.64739931       2.69093183      -1.56861675 </v>
   <v>       3.93582369       4.76707258       4.39856285 </v>
   <v>      -4.00826715       6.77976890      -6.11692501 </v>
   <v>       3.27479525       2.37763397       7.65190390 </v>
   <v>       0.25303199      -5.03982178       4.31190157 </v>
   <v>      -3.32478722      -0.61022341      10.75688055 </v>
   <v>       9.11991901       0.70917502       4.14626676 </v>
   <v>      -4.33081640      -0.88104688      -2.13245774 </v>
   <v>       2.00634908      -5.78122862      -4.80064511 </v>
   <v>       6.18471094       3.17768031      -1.48753120 </v>
   <v>      -5.14851989       1.19561976       1.96134185 </v>
   <v>     -10.28307762      -5.86191057      -1.38594637 </v>
   <v>       1.29390181      -0.90104998      -0.88676129 </v>
   <v>       4.85863813       2.60933397      -0.71047228 </v>
   <v>      11.59906194       0.46767732      -4.06479961 </v>
   <v>       3.84662167      -2.72019088      -7.10470974 </v>
   <v>      -0.87957077       1.49016948      -2.77128234 </v>
   <v>       0.86406195      -0.88912350      -0.35592865 </v>
   <v>      -2.65786582       2.23533705       4.27026258 </v>
   <v>       1.35153209       0.89261058      -0.95686125 </v>
   <v>      -0.87066486      -1.05109119      -2.79083373 </v>
   <v>      -0.26790122       1.00937975      -0.60172556 </v>
   <v>       0.10516048      -0.76183986       2.53652429 </v>
   <v>       4.84990202       3.83897802      -0.89701549 </v>
   <v>      -3.08676872      -3.55286342       2.63521922 </v>
   <v>      -0.07615386      -0.06803340       0.43195219 </v>
   <v>      -0.65354097       0.75758926      -1.13816216 </v>
   <v>       4.05364519      -4.43340411       0.14470939 </v>
   <v>      -2.70895877       2.29488791       1.11204547 </v>
   <v>      -2.04441216       0.80763205      -3.12222283 </v>
   <v>       1.10357085      -1.19903554       1.56878991 </v>
   <v>      -0.03057149       1.06483946       0.02336377 </v>
   <v>       1.66393129       3.33391884       0.78926670 </v>
   <v>      -0.32433216       3.22830893       6.70159171 </v>
   <v>      -0.00044018      -1.05599570      -1.66708777 </v>
   <v>      -2.63777687       1.44940770       0.19241969 </v>
   <v>       1.53238424       5.18167067      -0.64095640 </v>
   <v>       0.65855562      -4.33266908      -2.58587142 </v>
   <v>      -1.43132412       1.36463809      -0.14911262 </v>
   <v>       3.63554165       3.26567848       3.25934148 </v>
   <v>      -0.80786640       0.51311699      -0.09987947 </v>
   <v>      -0.16152893      -0.83399015      -0.51041022 </v>
   <v>      -0.03050538       0.39938030       3.40276035 </v>
   <v>      -0.86742627      -0.03510561       0.03647784 </v>
   <v>      -1.47628540       0.71096877      -1.57180675 </v>
   <v>       1.98296289       2.67006944      -3.30058211 </v>
   <v>       3.77481623      -0.23567268      -0.09915114 </v>
   <v>       2.68856053       1.07941924      -1.22309791 </v>
   <v>      -0.01536623      -1.04932599       3.77756255 </v>
   <v>      -1.48289784       1.33003985      -1.08654989 </v>
   <v>       2.37717655      -1.30084097      -0.81400846 </v>
   <v>       7.36755341      -0.48079428       0.38461057 </v>
   <v>       1.10726939       0.24644498      -0.26571699 </v>
   <v>       0.51955461       0.89169936      -4.01549757 </v>
   <v>       3.17502771      -1.69667561       4.72237955 </v>
   <v>       0.25205791      -1.64481903       1.61215529 </v>
   <v>      -0.54044403      -2.61709558       0.15833235 </v>
   <v>       0.15388689       0.49068607       0.48660069 </v>
   <v>      -0.03749205      -0.99657587       2.23759753 </v>
   <v>       0.09757544       1.40410579       0.05747852 </v>
   <v>     -11.77916967      -3.64758685       2.59943740 </v>
   <v>       3.68367501       0.20715873       2.79375509 </v>
   <v>       2.73023437      -0.66266619       2.01690758 </v>
   <v>      -1.91421357       1.98948266      -0.01514134 </v>
   <v>      -1.24129778       0.48698002       0.33186480 </v>
   <v>       0.81932918       6.99282984       3.75108153 </v>
   <v>       0.59019877      -3.74348035       1.97175271 </v>
   <v>      -1.64198132      -0.13776851       2.76810803 </v>
   <v>      -9.32691386       5.49992079      -0.78555582 </v>
   <v>      -0.41741736       0.86589467      -1.23478058 </v>
   <v>       1.04810446      -0.08066167      -0.14019998 </v>
   <v>       1.41134758      -1.53778731       0.21325783 </v>
   <v>      -1.00010812       1.45808877      -3.26801209 </v>
   <v>      -4.54588928      -2.57747456      -0.16103143 </v>
   <v>       0.70182845      -3.29978711      -0.15060673 </v>
   <v>      -0.42193223      -1.54563784      -1.76896745 </v>
   <v>      -1.39053085      -1.81052856       2.37117001 </v>
   <v>       2.65683225      -1.77440497      -1.48934850 </v>
   <v>       1.68751917      -0.21501333      -0.14142172 </v>
[...]
       <r>     4.1483     6.7654   866.0060 </r>
       <r>     4.3232    11.7008   868.0521 </r>
       <r>     4.4981    11.1274   869.9980 </r>
       <r>     4.6729     0.0114   870.0000 </r>
       <r>     4.8478     0.0000   870.0000 </r>
       <r>     5.0227     5.1859   870.9069 </r>
       <r>     5.1975     6.2510   872.0000 </r>
       <r>     5.3724     0.0001   872.0000 </r>
       <r>     5.5473     1.7614   872.3080 </r>
       <r>     5.7222    11.1049   874.2499 </r>
       <r>     5.8970     8.4913   875.7348 </r>
       <r>     6.0719    14.5024   878.2709 </r>
       <r>     6.2468    16.1553   881.0960 </r>
       <r>     6.4216    24.7661   885.4268 </r>
       <r>     6.5965    28.7571   890.4556 </r>
       <r>     6.7714    27.5788   895.2784 </r>
       <r>     6.9463    24.5505   899.5716 </r>
       <r>     7.1211    24.4185   903.8416 </r>
       <r>     7.2960    36.0686   910.1490 </r>
       <r>     7.4709    46.1941   918.2270 </r>
       <r>     7.6457    52.3589   927.3831 </r>
       <r>     7.8206    56.9335   937.3391 </r>
       <r>     7.9955    48.5478   945.8287 </r>
       <r>     8.1704    56.4946   955.7080 </r>
       <r>     8.3452    54.5369   965.2449 </r>
       <r>     8.5201    61.4171   975.9850 </r>
       <r>     8.6950    72.2828   988.6252 </r>
       <r>     8.8698    62.1757   999.4980 </r>
       <r>     9.0447    62.7143  1010.4649 </r>
       <r>     9.2196    73.0067  1023.2316 </r>
       <r>     9.3945    74.9782  1036.3432 </r>
       <r>     9.5693    20.9091  1039.9996 </r>
       <r>     9.7442     0.0024  1040.0000 </r>
       <r>     9.9191     0.0000  1040.0000 </r>
       <r>    10.0939     0.0000  1040.0000 </r>
       <r>    10.2688     0.0000  1040.0000 </r>
       <r>    10.4437     0.0000  1040.0000 </r>
       <r>    10.6186     0.0000  1040.0000 </r>
       <r>    10.7934     0.0000  1040.0000 </r>
       <r>    10.9683     0.0000  1040.0000 </r>
       <r>    11.1432     0.0000  1040.0000 </r>
       <r>    11.3180     0.0000  1040.0000 </r>
       <r>    11.4929     0.0000  1040.0000 </r>
       <r>    11.6678     0.0000  1040.0000 </r>
       <r>    11.8426     0.0000  1040.0000 </r>
      </set>
     </set>
    </array>
   </total>
  </dos>
 </calculation>
 <structure name="finalpos" >
  <crystal>
   <varray name="basis" >
    <v>      12.09378762       0.00000000       0.00000000 </v>
    <v>       0.00000000      12.09378762       0.00000000 </v>
    <v>       0.00000000       0.00000000      12.09378762 </v>
   </varray>
   <i name="volume">   1768.83373704 </i>
   <varray name="rec_basis" >
    <v>       0.08268708       0.00000000       0.00000000 </v>
    <v>       0.00000000       0.08268708       0.00000000 </v>
    <v>       0.00000000       0.00000000       0.08268708 </v>
   </varray>
  </crystal>
  <varray name="positions" >
   <v>       0.93500093       0.62340477       0.42146419 </v>
   <v>       0.20907858       0.84673198       0.49118635 </v>
   <v>       0.83840716       0.19110981       0.98920296 </v>
   <v>       0.59251115       0.47091621       0.62330932 </v>
   <v>       0.37401985       0.20320652       0.20009695 </v>
   <v>       0.50173238       0.01488192       0.75252088 </v>
   <v>       0.43308119       0.45232829       0.78543684 </v>
   <v>       0.47609389       0.00095342       0.47832253 </v>
   <v>       0.08840162       0.33318713       0.42591047 </v>
   <v>       0.98738822       0.86971788       0.26340471 </v>
   <v>       0.31189223       0.85801285       0.97073633 </v>
   <v>       0.79785298       0.46625445       0.05780467 </v>
   <v>       0.94420610       0.21589424       0.64828399 </v>
   <v>       0.69485009       0.90727921       0.34539817 </v>
   <v>       0.11432420       0.78889274       0.71254777 </v>
   <v>       0.92228168       0.51644632       0.64722312 </v>
   <v>       0.26241106       0.97457807       0.19653471 </v>
   <v>       0.26495435       0.13921600       0.61547443 </v>
   <v>       0.55208754       0.27865535       0.93906850 </v>
   <v>       0.57381026       0.37236786       0.27363308 </v>
   <v>       0.07846076       0.73167785       0.04985661 </v>
   <v>       0.03624212       0.43804035       0.89075674 </v>
   <v>       0.54927160       0.79703776       0.15596723 </v>
   <v>       0.34983292       0.48543926       0.05653794 </v>
   <v>       0.68647121       0.70598997       0.48016519 </v>
   <v>       0.82166447       0.92901276       0.84518474 </v>
   <v>       0.57872884       0.68946777       0.85100087 </v>
   <v>       0.23815125       0.99693122       0.79105674 </v>
   <v>       0.74119264       0.99968627       0.62555859 </v>
   <v>       0.18662671       0.41140224       0.68117527 </v>
   <v>       0.12756478       0.58576101       0.39182804 </v>
   <v>       0.90261337       0.69217757       0.90764963 </v>
   <v>       0.29179057       0.20468745       0.91885628 </v>
   <v>       0.57361053       0.56013402       0.11636202 </v>
   <v>       0.72961580       0.39545186       0.83057043 </v>
   <v>       0.29815872       0.67535825       0.22245824 </v>
   <v>       0.84904556       0.94657776       0.11779962 </v>
   <v>       0.64853631       0.10176758       0.17968164 </v>
   <v>       0.02266538       0.07006439       0.94682091 </v>
   <v>       0.53679060       0.19537375       0.57502054 </v>
   <v>       0.51507155       0.76023273       0.62685331 </v>
   <v>       0.80902743       0.22972707       0.26396531 </v>
   <v>       0.26466986       0.63926731       0.87584418 </v>
   <v>       0.47252412       0.72527334       0.36525167 </v>
   <v>       0.34875315       0.42724560       0.30544657 </v>
   <v>       0.11147034       0.25416814       0.06836763 </v>
   <v>       0.92663896       0.90035729       0.51432190 </v>
   <v>       0.34825161       0.39654703       0.51769456 </v>
   <v>       0.77191728       0.74059222       0.66714907 </v>
   <v>       0.88026884       0.67434578       0.18103878 </v>
   <v>       0.55864843       0.96912625       0.00242156 </v>
   <v>       0.71345920       0.20054877       0.66174183 </v>
   <v>       0.01405891       0.09824323       0.40597771 </v>
   <v>       0.80500406       0.40776019       0.47078862 </v>
   <v>       0.34997724       0.97421581       0.84828478 </v>
   <v>       0.78099771       0.59136824       0.23376689 </v>
   <v>       0.90400180       0.45342323       0.51293197 </v>
   <v>       0.39792882       0.37107245       0.41016157 </v>
   <v>       0.21877861       0.76468255       0.86032608 </v>
   <v>       0.42378060       0.85998099       0.62570661 </v>
   <v>       0.67311694       0.07835153       0.69731971 </v>
   <v>       0.16580255       0.70428370       0.35492531 </v>
   <v>       0.84794482       0.38842905       0.92006895 </v>
   <v>       0.89704549       0.96375780       0.65648061 </v>
   <v>       0.76347616       0.26960039       0.77281929 </v>
   <v>       0.46811575       0.83998960       0.00872938 </v>
   <v>       0.46006624       0.49586213       0.22855280 </v>
   <v>       0.60427741       0.16525985       0.47017165 </v>
   <v>       0.66633814       0.63241694       0.05288210 </v>
   <v>       0.63966341       0.47109266       0.16818234 </v>
   <v>       0.59384520       0.24452272       0.68536591 </v>
   <v>       0.35583510       0.12598025       0.44738318 </v>
   <v>       0.75160485       0.06692258       0.09060617 </v>
   <v>       0.25331032       0.14090274       0.79731079 </v>
   <v>       0.47707928       0.65955336       0.49601393 </v>
   <v>       0.56912505       0.98894075       0.12929459 </v>
   <v>       0.12588767       0.02802310       0.87392269 </v>
   <v>       0.81008152       0.12101189       0.57957680 </v>
   <v>       0.90789823       0.98987694       0.42350993 </v>
   <v>       0.30252872       0.68371491       0.00239510 </v>
   <v>       0.68214535       0.89869609       0.97904667 </v>
   <v>       0.18051432       0.94545212       0.66320717 </v>
   <v>       0.04981263       0.85355442       0.54517753 </v>
   <v>       0.19957844       0.30984125       0.98180055 </v>
   <v>       0.84284909       0.66342465       0.57374576 </v>
   <v>       0.46888423       0.33027775       0.57319496 </v>
   <v>       0.92600741       0.09065279       0.86330031 </v>
   <v>       0.77938988       0.84555409       0.59267251 </v>
   <v>       0.19554280       0.33931083       0.56412951 </v>
   <v>       0.62571643       0.93274627       0.52802855 </v>
   <v>       0.16013254       0.94300740       0.02896585 </v>
   <v>       0.33694803       0.46456030       0.63293228 </v>
   <v>       0.03929029       0.39676720       0.70624193 </v>
   <v>       0.22150409       0.47887265       0.37921048 </v>
   <v>       0.59716098       0.71844562       0.31937866 </v>
   <v>       0.12838639       0.22680190       0.21365427 </v>
   <v>       0.22070044       0.39252719       0.79762213 </v>
   <v>       0.64886311       0.89984781       0.72637997 </v>
   <v>       0.46053653       0.87136778       0.34734791 </v>
   <v>       0.91322113       0.62894429       0.03701727 </v>
   <v>       0.73554169       0.49442412       0.72633164 </v>
   <v>       0.53788876       0.07406863       0.92837558 </v>
   <v>       0.66143249       0.70404752       0.63583110 </v>
   <v>       0.43048026       0.11557164       0.61024038 </v>
   <v>       0.17111528       0.59033952       0.77616190 </v>
   <v>       0.90747234       0.79241731       0.41781773 </v>
   <v>       0.48831895       0.51372469       0.96213332 </v>
   <v>       0.04165106       0.15892145       0.02407063 </v>
   <v>       0.27937659       0.40589371       0.19234116 </v>
   <v>       0.99110945       0.79245149       0.86675886 </v>
   <v>       0.85876052       0.92563743       0.24560024 </v>
   <v>       0.48240655       0.64790101       0.71602660 </v>
   <v>       0.92762105       0.17403268       0.31015025 </v>
   <v>       0.45609087       0.65327278       0.12596172 </v>
   <v>       0.71181736       0.09163736       0.30447367 </v>
   <v>       0.38698845       0.65005861       0.31682084 </v>
   <v>       0.62500441       0.44605016       0.89147624 </v>
   <v>       0.78995685       0.74117090       0.83228098 </v>
   <v>       0.21956639       0.61263120       0.13792527 </v>
   <v>       0.11120184       0.03025588       0.36356466 </v>
   <v>       0.83033155       0.80431230       0.10147126 </v>
   <v>       0.58930774       0.22851200       0.15859765 </v>
   <v>       0.73906190       0.52080444       0.45100507 </v>
   <v>       0.04187503       0.18770501       0.53644953 </v>
   <v>       0.29001482       0.80508851       0.19545197 </v>
   <v>       0.31011083       0.14699413       0.03162452 </v>
   <v>       0.05403525       0.47527688       0.37442771 </v>
   <v>       0.96838863       0.58676433       0.83405158 </v>
   <v>       0.39979292       0.26584556       0.85834876 </v>
   <v>       0.78101448       0.34825224       0.59834410 </v>
   <v>       0.77234633       0.28087744       0.38740087 </v>
   <v>       0.95322225       0.00860594       0.05141519 </v>
   <v>       0.76199110       0.27926589       0.09978406 </v>
   <v>       0.12252560       0.61521898       0.56084905 </v>
   <v>       0.99801589       0.69787766       0.23957248 </v>
  </varray>
  <varray name="velocities" >
   <v>       0.00000000       0.00000000       0.00000000 </v>
   <v>       0.00000000       0.00000000       0.00000000 </v>
   <v>       0.00000000       0.00000000       0.00000000 </v>
   <v>       0.00000000       0.00000000       0.00000000 </v>
   <v>       0.00000000       0.00000000       0.00000000 </v>
   <v>       0.00000000       0.00000000       0.00000000 </v>
   <v>       0.00000000       0.00000000       0.00000000 </v>
   <v>       0.00000000       0.00000000       0.00000000 </v>
   <v>       0.00000000       0.00000000       0.00000000 </v>
   <v>       0.00000000       0.00000000       0.00000000 </v>
   <v>       0.00000000       0.00000000       0.00000000 </v>
   <v>       0.00000000       0.00000000       0.00000000 </v>
   <v>       0.00000000       0.00000000       0.00000000 </v>
   <v>       0.00000000       0.00000000       0.00000000 </v>
   <v>       0.00000000       0.00000000       0.00000000 </v>
   <v>       0.00000000       0.00000000       0.00000000 </v>
   <v>       0.00000000       0.00000000       0.00000000 </v>
   <v>       0.00000000       0.00000000       0.00000000 </v>
   <v>       0.00000000       0.00000000       0.00000000 </v>
   <v>       0.00000000       0.00000000       0.00000000 </v>
   <v>       0.00000000       0.00000000       0.00000000 </v>
   <v>       0.00000000       0.00000000       0.00000000 </v>
   <v>       0.00000000       0.00000000       0.00000000 </v>
   <v>       0.00000000       0.00000000       0.00000000 </v>
   <v>       0.00000000       0.00000000       0.00000000 </v>
   <v>       0.00000000       0.00000000       0.00000000 </v>
   <v>       0.00000000       0.00000000       0.00000000 </v>
   <v>       0.00000000       0.00000000       0.00000000 </v>
   <v>       0.00000000       0.00000000       0.00000000 </v>
   <v>       0.00000000       0.00000000       0.00000000 </v>
   <v>       0.00000000       0.00000000       0.00000000 </v>
   <v>       0.00000000       0.00000000       0.00000000 </v>
   <v>       0.00000000       0.00000000       0.00000000 </v>
   <v>       0.00000000       0.00000000       0.00000000 </v>
   <v>       0.00000000       0.00000000       0.00000000 </v>
   <v>       0.00000000       0.00000000       0.00000000 </v>
   <v>       0.00000000       0.00000000       0.00000000 </v>
   <v>       0.00000000       0.00000000       0.00000000 </v>
   <v>       0.00000000       0.00000000       0.00000000 </v>
   <v>       0.00000000       0.00000000       0.00000000 </v>
   <v>       0.00000000       0.00000000       0.00000000 </v>
   <v>       0.00000000       0.00000000       0.00000000 </v>
   <v>       0.00000000       0.00000000       0.00000000 </v>
   <v>       0.00000000       0.00000000       0.00000000 </v>
   <v>       0.00000000       0.00000000       0.00000000 </v>
   <v>       0.00000000       0.00000000       0.00000000 </v>
   <v>       0.00000000       0.00000000       0.00000000 </v>
   <v>       0.00000000       0.00000000       0.00000000 </v>
   <v>       0.00000000       0.00000000       0.00000000 </v>
   <v>       0.00000000       0.00000000       0.00000000 </v>
   <v>       0.00000000       0.00000000       0.00000000 </v>
   <v>       0.00000000       0.00000000       0.00000000 </v>
   <v>       0.00000000       0.00000000       0.00000000 </v>
   <v>       0.00000000       0.00000000       0.00000000 </v>
   <v>       0.00000000       0.00000000       0.00000000 </v>
   <v>       0.00000000       0.00000000       0.00000000 </v>
   <v>       0.00000000       0.00000000       0.00000000 </v>
   <v>       0.00000000       0.00000000       0.00000000 </v>
   <v>       0.00000000       0.00000000       0.00000000 </v>
   <v>       0.00000000       0.00000000       0.00000000 </v>
   <v>       0.00000000       0.00000000       0.00000000 </v>
   <v>       0.00000000       0.00000000       0.00000000 </v>
   <v>       0.00000000       0.00000000       0.00000000 </v>
   <v>       0.00000000       0.00000000       0.00000000 </v>
   <v>       0.00000000       0.00000000       0.00000000 </v>
   <v>       0.00000000       0.00000000       0.00000000 </v>
   <v>       0.00000000       0.00000000       0.00000000 </v>
   <v>       0.00000000       0.00000000       0.00000000 </v>
   <v>       0.00000000       0.00000000       0.00000000 </v>
   <v>       0.00000000       0.00000000       0.00000000 </v>
   <v>       0.00000000       0.00000000       0.00000000 </v>
   <v>       0.00000000       0.00000000       0.00000000 </v>
   <v>       0.00000000       0.00000000       0.00000000 </v>
   <v>       0.00000000       0.00000000       0.00000000 </v>
   <v>       0.00000000       0.00000000       0.00000000 </v>
   <v>       0.00000000       0.00000000       0.00000000 </v>
   <v>       0.00000000       0.00000000       0.00000000 </v>
   <v>       0.00000000       0.00000000       0.00000000 </v>
   <v>       0.00000000       0.00000000       0.00000000 </v>
   <v>       0.00000000       0.00000000       0.00000000 </v>
   <v>       0.00000000       0.00000000       0.00000000 </v>
   <v>       0.00000000       0.00000000       0.00000000 </v>
   <v>       0.00000000       0.00000000       0.00000000 </v>
   <v>       0.00000000       0.00000000       0.00000000 </v>
   <v>       0.00000000       0.00000000       0.00000000 </v>
   <v>       0.00000000       0.00000000       0.00000000 </v>
   <v>       0.00000000       0.00000000       0.00000000 </v>
   <v>       0.00000000       0.00000000       0.00000000 </v>
   <v>       0.00000000       0.00000000       0.00000000 </v>
   <v>       0.00000000       0.00000000       0.00000000 </v>
   <v>       0.00000000       0.00000000       0.00000000 </v>
   <v>       0.00000000       0.00000000       0.00000000 </v>
   <v>       0.00000000       0.00000000       0.00000000 </v>
   <v>       0.00000000       0.00000000       0.00000000 </v>
   <v>       0.00000000       0.00000000       0.00000000 </v>
   <v>       0.00000000       0.00000000       0.00000000 </v>
   <v>       0.00000000       0.00000000       0.00000000 </v>
   <v>       0.00000000       0.00000000       0.00000000 </v>
   <v>       0.00000000       0.00000000       0.00000000 </v>
   <v>       0.00000000       0.00000000       0.00000000 </v>
   <v>       0.00000000       0.00000000       0.00000000 </v>
   <v>       0.00000000       0.00000000       0.00000000 </v>
   <v>       0.00000000       0.00000000       0.00000000 </v>
   <v>       0.00000000       0.00000000       0.00000000 </v>
   <v>       0.00000000       0.00000000       0.00000000 </v>
   <v>       0.00000000       0.00000000       0.00000000 </v>
   <v>       0.00000000       0.00000000       0.00000000 </v>
   <v>       0.00000000       0.00000000       0.00000000 </v>
   <v>       0.00000000       0.00000000       0.00000000 </v>
   <v>       0.00000000       0.00000000       0.00000000 </v>
   <v>       0.00000000       0.00000000       0.00000000 </v>
   <v>       0.00000000       0.00000000       0.00000000 </v>
   <v>       0.00000000       0.00000000       0.00000000 </v>
   <v>       0.00000000       0.00000000       0.00000000 </v>
   <v>       0.00000000       0.00000000       0.00000000 </v>
   <v>       0.00000000       0.00000000       0.00000000 </v>
   <v>       0.00000000       0.00000000       0.00000000 </v>
   <v>       0.00000000       0.00000000       0.00000000 </v>
   <v>       0.00000000       0.00000000       0.00000000 </v>
   <v>       0.00000000       0.00000000       0.00000000 </v>
   <v>       0.00000000       0.00000000       0.00000000 </v>
   <v>       0.00000000       0.00000000       0.00000000 </v>
   <v>       0.00000000       0.00000000       0.00000000 </v>
   <v>       0.00000000       0.00000000       0.00000000 </v>
   <v>       0.00000000       0.00000000       0.00000000 </v>
   <v>       0.00000000       0.00000000       0.00000000 </v>
   <v>       0.00000000       0.00000000       0.00000000 </v>
   <v>       0.00000000       0.00000000       0.00000000 </v>
   <v>       0.00000000       0.00000000       0.00000000 </v>
   <v>       0.00000000       0.00000000       0.00000000 </v>
   <v>       0.00000000       0.00000000       0.00000000 </v>
   <v>       0.00000000       0.00000000       0.00000000 </v>
   <v>       0.00000000       0.00000000       0.00000000 </v>
   <v>       0.00000000       0.00000000       0.00000000 </v>
   <v>       0.00000000       0.00000000       0.00000000 </v>
  </varray>
 </structure>
</modeling>
