 vasp.5.4.4.18Apr17-6-g9f103f2a35 (build Oct 31 2019 15:01:46) complex          
  
 executed on             LinuxIFC date 2024.05.01  23:24:25
 running on   52 total cores
 distrk:  each k-point on   52 cores,    1 groups
 distr:  one band on NCORES_PER_BAND=  13 cores,    4 groups


--------------------------------------------------------------------------------------------------------


 INCAR:
 POTCAR:    PAW_PBE Sc_sv 07Sep2000               
 POTCAR:    PAW_PBE Cl 06Sep2000                  
 POTCAR:    PAW_PBE C 08Apr2002                   
 POTCAR:    PAW_PBE Sc_sv 07Sep2000               
   VRHFIN =Sc: 3p4s3d                                                           
   LEXCH  = PE                                                                  
   EATOM  =  1273.2868 eV,   93.5839 Ry                                         
                                                                                
   TITEL  = PAW_PBE Sc_sv 07Sep2000                                             
   LULTRA =        F    use ultrasoft PP ?                                      
   IUNSCR =        1    unscreen: 0-lin 1-nonlin 2-no                           
   RPACOR =    2.200    partial core radius                                     
   POMASS =   44.956; ZVAL   =   11.000    mass and valenz                      
   RCORE  =    2.500    outmost cutoff radius                                   
   RWIGS  =    2.700; RWIGS  =    1.429    wigner-seitz radius (au A)           
   ENMAX  =  222.660; ENMIN  =  166.995 eV                                      
   RCLOC  =    1.805    cutoff for local pot                                    
   LCOR   =        T    correct aug charges                                     
   LPAW   =        T    paw PP                                                  
   EAUG   =  443.063                                                            
   RMAX   =    2.551    core radius for proj-oper                               
   RAUG   =    1.300    factor for augmentation sphere                          
   RDEP   =    2.650    radius for radial grids                                 
   RDEPT  =    2.038    core radius for aug-charge                              
                                                                                
   Atomic configuration                                                         
    8 entries                                                                   
     n  l   j            E        occ.                                          
     1  0  0.50     -4394.2533   2.0000                                         
     2  0  0.50      -471.0040   2.0000                                         
     2  1  1.50      -384.9788   6.0000                                         
     3  0  0.50       -52.1410   2.0000                                         
     4  0  0.50        -3.5584   1.0000                                         
     3  1  1.50       -30.8841   6.0000                                         
     3  2  2.50        -1.3655   2.0000                                         
     4  3  2.50        -1.3606   0.0000                                         
   Description                                                                  
     l       E           TYP  RCUT    TYP  RCUT                                 
     0    -52.1409870     23  1.800                                             
     0     -3.5583698     23  2.500                                             
     1    -30.8840697     23  2.300                                             
     1      4.0817478     23  2.300                                             
     2     -1.3655397     23  2.500                                             
     2      0.3564476     23  2.500                                             
  local pseudopotential read in
  partial core-charges read in
  partial kinetic energy density read in
  atomic valenz-charges read in
  non local Contribution for L=           0  read in
    real space projection operators read in
  non local Contribution for L=           0  read in
    real space projection operators read in
  non local Contribution for L=           1  read in
    real space projection operators read in
  non local Contribution for L=           1  read in
    real space projection operators read in
  non local Contribution for L=           2  read in
    real space projection operators read in
  non local Contribution for L=           2  read in
    real space projection operators read in
    PAW grid and wavefunctions read in
 
   number of l-projection  operators is LMAX  =           6
   number of lm-projection operators is LMMAX =          18
 
 POTCAR:    PAW_PBE Cl 06Sep2000                  
   VRHFIN =Cl: s2p5                                                             
   LEXCH  = PE                                                                  
   EATOM  =   409.7259 eV,   30.1140 Ry                                         
                                                                                
   TITEL  = PAW_PBE Cl 06Sep2000                                                
   LULTRA =        F    use ultrasoft PP ?                                      
   IUNSCR =        1    unscreen: 0-lin 1-nonlin 2-no                           
   RPACOR =    1.500    partial core radius                                     
   POMASS =   35.453; ZVAL   =    7.000    mass and valenz                      
   RCORE  =    1.900    outmost cutoff radius                                   
   RWIGS  =    2.100; RWIGS  =    1.111    wigner-seitz radius (au A)           
   ENMAX  =  262.472; ENMIN  =  196.854 eV                                      
   ICORE  =        2    local potential                                         
   LCOR   =        T    correct aug charges                                     
   LPAW   =        T    paw PP                                                  
   EAUG   =  356.192                                                            
   DEXC   =    0.000                                                            
   RMAX   =    1.945    core radius for proj-oper                               
   RAUG   =    1.300    factor for augmentation sphere                          
   RDEP   =    2.020    radius for radial grids                                 
   RDEPT  =    1.678    core radius for aug-charge                              
                                                                                
   Atomic configuration                                                         
    6 entries                                                                   
     n  l   j            E        occ.                                          
     1  0  0.50     -2751.1850   2.0000                                         
     2  0  0.50      -252.6861   2.0000                                         
     2  1  1.50      -191.6157   6.0000                                         
     3  0  0.50       -20.6916   2.0000                                         
     3  1  0.50        -8.5949   5.0000                                         
     3  2  1.50        -8.1635   0.0000                                         
   Description                                                                  
     l       E           TYP  RCUT    TYP  RCUT                                 
     0    -20.6915656     23  1.900                                             
     0    -22.0521482     23  1.900                                             
     1     -8.5948577     23  1.900                                             
     1     -5.3847331     23  1.900                                             
     2     -8.1634956     23  1.900                                             
  local pseudopotential read in
  partial core-charges read in
  partial kinetic energy density read in
  atomic valenz-charges read in
  non local Contribution for L=           0  read in
    real space projection operators read in
  non local Contribution for L=           0  read in
    real space projection operators read in
  non local Contribution for L=           1  read in
    real space projection operators read in
  non local Contribution for L=           1  read in
    real space projection operators read in
    PAW grid and wavefunctions read in
 
   number of l-projection  operators is LMAX  =           4
   number of lm-projection operators is LMMAX =           8
 
 POTCAR:    PAW_PBE C 08Apr2002                   
   VRHFIN =C: s2p2                                                              
   LEXCH  = PE                                                                  
   EATOM  =   147.1560 eV,   10.8157 Ry                                         
                                                                                
   TITEL  = PAW_PBE C 08Apr2002                                                 
   LULTRA =        F    use ultrasoft PP ?                                      
   IUNSCR =        1    unscreen: 0-lin 1-nonlin 2-no                           
   RPACOR =    1.200    partial core radius                                     
   POMASS =   12.011; ZVAL   =    4.000    mass and valenz                      
   RCORE  =    1.500    outmost cutoff radius                                   
   RWIGS  =    1.630; RWIGS  =    0.863    wigner-seitz radius (au A)           
   ENMAX  =  400.000; ENMIN  =  300.000 eV                                      
   ICORE  =        2    local potential                                         
   LCOR   =        T    correct aug charges                                     
   LPAW   =        T    paw PP                                                  
   EAUG   =  644.873                                                            
   DEXC   =    0.000                                                            
   RMAX   =    1.529    core radius for proj-oper                               
   RAUG   =    1.300    factor for augmentation sphere                          
   RDEP   =    1.501    radius for radial grids                                 
   RDEPT  =    1.300    core radius for aug-charge                              
                                                                                
   Atomic configuration                                                         
    4 entries                                                                   
     n  l   j            E        occ.                                          
     1  0  0.50      -273.3789   2.0000                                         
     2  0  0.50       -13.7508   2.0000                                         
     2  1  0.50        -5.2854   2.0000                                         
     3  2  1.50        -5.4423   0.0000                                         
   Description                                                                  
     l       E           TYP  RCUT    TYP  RCUT                                 
     0    -13.7508458     23  1.200                                             
     0     -8.2022199     23  1.200                                             
     1     -5.2854383     23  1.500                                             
     1     34.0145650     23  1.500                                             
     2     -5.4423304      7  1.500                                             
  local pseudopotential read in
  partial core-charges read in
  partial kinetic energy density read in
  atomic valenz-charges read in
  non local Contribution for L=           0  read in
    real space projection operators read in
  non local Contribution for L=           0  read in
    real space projection operators read in
  non local Contribution for L=           1  read in
    real space projection operators read in
  non local Contribution for L=           1  read in
    real space projection operators read in
    PAW grid and wavefunctions read in
 
   number of l-projection  operators is LMAX  =           4
   number of lm-projection operators is LMMAX =           8
 
 Optimization of the real space projectors (new method)

 maximal supplied QI-value         = 15.12
 optimisation between [QCUT,QGAM] = [ 12.55, 25.10] = [ 44.09,176.36] Ry 
 Optimized for a Real-space Cutoff    1.56 Angstroem

   l    n(q)    QCUT    max X(q) W(low)/X(q) W(high)/X(q)  e(spline) 
   0     12    12.548     2.962    0.12E-05    0.11E-06    0.46E-07
   0     12    12.548    26.414    0.30E-04    0.15E-05    0.76E-07
   1     11    12.548     3.969    0.45E-05    0.12E-05    0.60E-07
   1     11    12.548     5.137    0.15E-04    0.18E-04    0.36E-06
   2     11    12.548   143.970    0.20E-03    0.19E-03    0.76E-06
   2     11    12.548   121.201    0.20E-03    0.19E-03    0.76E-06
 Optimization of the real space projectors (new method)

 maximal supplied QI-value         = 19.84
 optimisation between [QCUT,QGAM] = [ 12.50, 25.00] = [ 43.76,175.03] Ry 
 Optimized for a Real-space Cutoff    1.20 Angstroem

   l    n(q)    QCUT    max X(q) W(low)/X(q) W(high)/X(q)  e(spline) 
   0      9    12.501   168.010    0.44E-04    0.61E-04    0.77E-07
   0      9    12.501   164.674    0.43E-04    0.60E-04    0.75E-07
   1      8    12.501    69.222    0.11E-03    0.13E-03    0.91E-07
   1      8    12.501    56.786    0.11E-03    0.13E-03    0.90E-07
 Optimization of the real space projectors (new method)

 maximal supplied QI-value         = 25.13
 optimisation between [QCUT,QGAM] = [ 12.32, 24.88] = [ 42.47,173.37] Ry 
 Optimized for a Real-space Cutoff    1.16 Angstroem

   l    n(q)    QCUT    max X(q) W(low)/X(q) W(high)/X(q)  e(spline) 
   0      9    12.315   115.676    0.19E-03    0.80E-05    0.34E-06
   0      9    12.315    87.132    0.19E-03    0.82E-05    0.34E-06
   1      8    12.315     4.429    0.18E-03    0.13E-03    0.22E-06
   1      8    12.315     2.733    0.14E-03    0.10E-03    0.18E-06
  PAW_PBE Sc_sv 07Sep2000               :
 energy of atom  1       EATOM=-1273.2868
 kinetic energy error for atom=    0.0014 (will be added to EATOM!!)
  PAW_PBE Cl 06Sep2000                  :
 energy of atom  2       EATOM= -409.7259
 kinetic energy error for atom=    0.0013 (will be added to EATOM!!)
  PAW_PBE C 08Apr2002                   :
 energy of atom  3       EATOM= -147.1560
 kinetic energy error for atom=    0.0057 (will be added to EATOM!!)
 
 
 POSCAR: Sc Cl  C                                
  positions in cartesian coordinates
  No initial velocities read in
 exchange correlation table for  LEXCH =        8
   RHO(1)=    0.500       N(1)  =     2000
   RHO(2)=  100.500       N(2)  =     4000
 


--------------------------------------------------------------------------------------------------------


 ion  position               nearest neighbor table
   1  0.077  0.163  0.541-  66 2.19  65 2.28  70 2.36  61 2.55  49 2.55  50 2.70  29 3.01  18 3.17
                            17 3.17   5 3.38   4 3.42
   2  0.072  0.413  0.548-  66 2.29  67 2.34  51 2.44  71 2.45  62 2.58  50 2.64  30 3.10  19 3.24
                            18 3.30  14 3.36
   3  0.076  0.664  0.541-  67 2.21  72 2.37  52 2.47  68 2.48  51 2.58  63 2.63  31 2.96  19 3.16
                            20 3.21  15 3.33
   4  0.090  0.922  0.543-  69 2.28  68 2.29  65 2.35  64 2.50  49 2.64  52 2.71  17 3.14  32 3.25
                             5 3.27  20 3.29   1 3.42
   5  0.322  0.163  0.546-  69 2.25  70 2.35  49 2.55  74 2.59  53 2.63  54 2.70  17 3.09  21 3.19
                             4 3.27  22 3.29   1 3.38
   6  0.323  0.416  0.547-  71 2.26  70 2.33  50 2.37  75 2.42  55 2.70  54 2.76  23 3.10  18 3.15
                             7 3.28  22 3.31
   7  0.337  0.661  0.551-  71 2.34  76 2.39  55 2.60  51 2.61  72 2.63  56 2.68  19 3.16  23 3.25
                             6 3.28  12 3.34  24 3.38  11 3.43
   8  0.336  0.916  0.542-  73 2.15  69 2.39  72 2.40  52 2.47  56 2.61  53 2.67  24 2.99  21 3.15
                            20 3.20  12 3.30   9 3.39
   9  0.580  0.163  0.540-  78 2.32  74 2.35  73 2.39  58 2.56  53 2.70  57 2.73  21 2.99  25 3.05
                            26 3.24   8 3.39  14 3.41  13 3.42
  10  0.578  0.414  0.545-  75 2.22  74 2.25  79 2.44  54 2.45  58 2.53  59 2.62  22 3.18  27 3.29
                            26 3.31  11 3.42
  11  0.589  0.667  0.547-  76 2.27  80 2.34  75 2.41  59 2.53  60 2.60  55 2.73  23 3.14  28 3.19
                            27 3.22  16 3.35  10 3.42  15 3.42   7 3.43
  12  0.571  0.910  0.545-  76 2.24  73 2.36  77 2.41  57 2.60  56 2.70  60 2.70  24 3.16  28 3.23
                            25 3.23   8 3.30   7 3.34
  13  0.826  0.161  0.548-  77 2.31  78 2.32  66 2.42  61 2.51  57 2.57  62 2.79  29 3.12  25 3.22
                            30 3.24   9 3.42
  14  0.827  0.410  0.546-  67 2.28  78 2.38  79 2.44  63 2.45  58 2.50  62 2.70  30 3.20  26 3.28
                            31 3.28   2 3.36   9 3.41
  15  0.838  0.671  0.541-  80 2.26  68 2.29  79 2.38  59 2.46  63 2.59  64 2.65  31 2.98  27 3.14
                            32 3.21   3 3.33  16 3.36  11 3.42
  16  0.830  0.911  0.544-  80 2.28  77 2.41  65 2.48  60 2.55  61 2.58  64 2.62  28 3.12  29 3.19
                            32 3.23  11 3.35  15 3.36
  17  0.175  0.086  0.455-  69 2.27  65 2.33  70 2.37  37 2.54  33 2.58  36 2.63   5 3.09   4 3.14
                             1 3.17  21 3.35  22 3.40
  18  0.169  0.338  0.455-  70 2.31  71 2.35  66 2.42  34 2.46  33 2.49  38 2.79   6 3.15   1 3.17
                             2 3.30  19 3.36  23 3.38  30 3.39  22 3.42
  19  0.180  0.586  0.459-  72 2.18  71 2.21  39 2.53  67 2.58  34 2.64  35 2.70   3 3.16   7 3.16
                             2 3.24  24 3.31  18 3.36  23 3.41  20 3.43
  20  0.172  0.830  0.451-  72 2.24  68 2.45  69 2.54  35 2.58  36 2.69  40 2.70   8 3.20  24 3.20
                             3 3.21   4 3.29  31 3.37  19 3.43
  21  0.419  0.091  0.458-  69 2.31  74 2.32  73 2.33  41 2.54  37 2.68  40 2.70   9 2.99   8 3.15
                             5 3.19  17 3.35  26 3.41  22 3.41  25 3.42  24 3.43
  22  0.417  0.337  0.454-  75 2.29  74 2.34  70 2.36  42 2.50  38 2.61  37 2.63  10 3.18  23 3.25
                             5 3.29   6 3.31  17 3.40  21 3.41  18 3.42
  23  0.421  0.575  0.460-  75 2.26  71 2.39  76 2.43  43 2.49  38 2.55  39 2.72   6 3.10  11 3.14
                             7 3.25  22 3.25  27 3.37  18 3.38  19 3.41
  24  0.407  0.837  0.456-  73 2.15  72 2.25  40 2.56  39 2.61  76 2.63  44 2.73   8 2.99  12 3.16
                            20 3.20  19 3.31   7 3.38  21 3.43
  25  0.662  0.081  0.456-  78 2.29  77 2.32  73 2.43  44 2.61  45 2.70  41 2.74   9 3.05  13 3.22
                            12 3.23  29 3.42  21 3.42
  26  0.667  0.336  0.451-  74 2.32  79 2.35  78 2.51  46 2.52  42 2.54  41 2.55   9 3.24  14 3.28
                            10 3.31  21 3.41
  27  0.672  0.588  0.454-  79 2.30  80 2.32  75 2.50  47 2.55  43 2.57  42 2.60  15 3.14  11 3.22
                            10 3.29  23 3.37  28 3.39  31 3.39
  28  0.667  0.831  0.457-  76 2.34  80 2.35  77 2.37  44 2.53  48 2.61  43 2.68  16 3.12  11 3.19
                            12 3.23  27 3.39
  29  0.913  0.088  0.459-  66 2.32  77 2.33  65 2.38  48 2.62  33 2.62  45 2.68   1 3.01  13 3.12
                            16 3.19  30 3.32  25 3.42
  30  0.921  0.333  0.458-  66 2.35  78 2.36  67 2.40  46 2.61  34 2.62  45 2.80   2 3.10  14 3.20
                            13 3.24  29 3.32  18 3.39
  31  0.921  0.595  0.459-  68 2.28  79 2.32  67 2.37  46 2.74  47 2.75  35 2.77   3 2.96  15 2.98
                            14 3.28  20 3.37  32 3.38  27 3.39
  32  0.921  0.840  0.451-  68 2.21  65 2.32  80 2.43  48 2.51  36 2.55  47 2.61  15 3.21  16 3.23
                             4 3.25  31 3.38
  33  0.086  0.173  0.400-  18 2.49  17 2.58  29 2.62
  34  0.092  0.417  0.398-  18 2.46  30 2.62  19 2.64
  35  0.093  0.662  0.393-  20 2.58  19 2.70  31 2.77
  36  0.085  0.922  0.392-  32 2.55  17 2.63  20 2.69
  37  0.331  0.169  0.393-  17 2.54  22 2.63  21 2.68
  38  0.350  0.431  0.391-  23 2.55  22 2.61  18 2.79
  39  0.336  0.666  0.398-  19 2.53  24 2.61  23 2.72
  40  0.349  0.928  0.391-  24 2.56  21 2.70  20 2.70
  41  0.571  0.169  0.394-  21 2.54  26 2.55  25 2.74
  42  0.577  0.417  0.396-  22 2.50  26 2.54  27 2.60
  43  0.570  0.655  0.397-  23 2.49  27 2.57  28 2.68
  44  0.588  0.912  0.397-  28 2.53  25 2.61  24 2.73
  45  0.828  0.160  0.390-  29 2.68  25 2.70  30 2.80
  46  0.837  0.416  0.397-  26 2.52  30 2.61  31 2.74
  47  0.828  0.671  0.392-  27 2.55  32 2.61  31 2.75
  48  0.835  0.922  0.397-  32 2.51  28 2.61  29 2.62
  49  0.158  0.089  0.605-   5 2.55   1 2.55   4 2.64
  50  0.174  0.335  0.603-   6 2.37   2 2.64   1 2.70
  51  0.153  0.575  0.601-   2 2.44   3 2.58   7 2.61
  52  0.176  0.821  0.598-   3 2.47   8 2.47   4 2.71
  53  0.414  0.084  0.605-   5 2.63   8 2.67   9 2.70
  54  0.430  0.339  0.606-  10 2.45   5 2.70   6 2.76
  55  0.420  0.581  0.613-   7 2.60   6 2.70  11 2.73
  56  0.405  0.835  0.611-   8 2.61   7 2.68  12 2.70
  57  0.660  0.074  0.606-  13 2.57  12 2.60   9 2.73
  58  0.659  0.326  0.600-  14 2.50  10 2.53   9 2.56
  59  0.684  0.592  0.600-  15 2.46  11 2.53  10 2.62
  60  0.672  0.834  0.606-  16 2.55  11 2.60  12 2.70
  61  0.916  0.081  0.601-  13 2.51   1 2.55  16 2.58
  62  0.918  0.338  0.613-   2 2.58  14 2.70  13 2.79
  63  0.905  0.571  0.601-  14 2.45  15 2.59   3 2.63
  64  0.932  0.841  0.602-   4 2.50  16 2.62  15 2.65
  65  0.006  0.002  0.497-   1 2.28  32 2.32  17 2.33   4 2.35  29 2.38  16 2.48
  66  0.002  0.250  0.505-   1 2.19   2 2.29  29 2.32  30 2.35  13 2.42  18 2.42
  67  0.992  0.500  0.505-   3 2.21  14 2.28   2 2.34  31 2.37  30 2.40  19 2.58
  68  0.998  0.765  0.496-  32 2.21  31 2.28   4 2.29  15 2.29  20 2.45   3 2.48
  69  0.253  0.008  0.501-   5 2.25  17 2.27   4 2.28  21 2.31   8 2.39  20 2.54
  70  0.250  0.255  0.500-  18 2.31   6 2.33   5 2.35  22 2.36   1 2.36  17 2.37
  71  0.249  0.500  0.503-  19 2.21   6 2.26   7 2.34  18 2.35  23 2.39   2 2.45
  72  0.244  0.746  0.496-  19 2.18  20 2.24  24 2.25   3 2.37   8 2.40   7 2.63
  73  0.485  0.988  0.499-  24 2.15   8 2.15  21 2.33  12 2.36   9 2.39  25 2.43
  74  0.508  0.260  0.498-  10 2.25  21 2.32  26 2.32  22 2.34   9 2.35   5 2.59
  75  0.498  0.492  0.503-  10 2.22  23 2.26  22 2.29  11 2.41   6 2.42  27 2.50
  76  0.507  0.748  0.505-  12 2.24  11 2.27  28 2.34   7 2.39  23 2.43  24 2.63
  77  0.744  0.000  0.501-  13 2.31  25 2.32  29 2.33  28 2.37  12 2.41  16 2.41
  78  0.750  0.243  0.500-  25 2.29   9 2.32  13 2.32  30 2.36  14 2.38  26 2.51
  79  0.748  0.501  0.497-  27 2.30  31 2.32  26 2.35  15 2.38  14 2.44  10 2.44
  80  0.753  0.749  0.501-  15 2.26  16 2.28  27 2.32  11 2.34  28 2.35  32 2.43
 
  LATTYP: Found a hexagonal cell.
 ALAT       =    13.7939866762
 C/A-ratio  =     2.0161119278
  
  Lattice vectors:
  
 A1 = (  13.7939866800,   0.0000000000,   0.0000000000)
 A2 = (  -6.8969933400,  11.9459428800,   0.0000000000)
 A3 = (   0.0000000000,   0.0000000000,  27.8102210700)


Analysis of symmetry for initial positions (statically):
=====================================================================
 Subroutine PRICEL returns:
 Original cell was already a primitive cell.
 

 Routine SETGRP: Setting up the symmetry group for a 
 hexagonal supercell.


 Subroutine GETGRP returns: Found  1 space group operations
 (whereof  1 operations were pure point group operations)
 out of a pool of 24 trial point group operations.


The static configuration has the point symmetry C_1 .


Analysis of symmetry for dynamics (positions and initial velocities):
=====================================================================
 Subroutine PRICEL returns:
 Original cell was already a primitive cell.
 

 Routine SETGRP: Setting up the symmetry group for a 
 hexagonal supercell.


 Subroutine GETGRP returns: Found  1 space group operations
 (whereof  1 operations were pure point group operations)
 out of a pool of 24 trial point group operations.


The dynamic configuration has the point symmetry C_1 .


 Subroutine INISYM returns: Found  1 space group operations
 (whereof  1 operations are pure point group operations),
 and found     1 'primitive' translations

 
 

Automatic generation of k-mesh.
 generate k-points for:    3    3    1
Space group operators:
 irot       det(A)        alpha          n_x          n_y          n_z        tau_x        tau_y        tau_z
    1     1.000000     0.000000     1.000000     0.000000     0.000000     0.000000     0.000000     0.000000
 
 Subroutine IBZKPT returns following result:
 ===========================================
 
 Found      5 irreducible k-points:
 
 Following reciprocal coordinates:
            Coordinates               Weight
  0.000000  0.000000  0.000000      1.000000
  0.333333 -0.000000  0.000000      2.000000
  0.000000  0.333333  0.000000      2.000000
  0.333333  0.333333  0.000000      2.000000
 -0.333333  0.333333  0.000000      2.000000
 
 Following cartesian coordinates:
            Coordinates               Weight
  0.000000  0.000000  0.000000      1.000000
  0.024165  0.013952  0.000000      2.000000
  0.000000  0.027903  0.000000      2.000000
  0.024165  0.041855  0.000000      2.000000
 -0.024165  0.013952  0.000000      2.000000
 


--------------------------------------------------------------------------------------------------------




 Dimension of arrays:
   k-points           NKPTS =      5   k-points in BZ     NKDIM =      5   number of bands    NBANDS=    384
   number of dos      NEDOS =    301   number of ions     NIONS =     80
   non local maximal  LDIM  =      6   non local SUM 2l+1 LMDIM =     18
   total plane-waves  NPLWV = ******
   max r-space proj   IRMAX =   9806   max aug-charges    IRDMAX= 216835
   dimension x,y,z NGX =   112 NGY =  112 NGZ =  224
   dimension x,y,z NGXF=   224 NGYF=  224 NGZF=  448
   support grid    NGXF=   448 NGYF=  448 NGZF=  896
   ions per type =              32  32  16
   NGX,Y,Z   is equivalent  to a cutoff of  13.50, 13.50, 13.39 a.u.
   NGXF,Y,Z  is equivalent  to a cutoff of  27.00, 27.00, 26.78 a.u.

 SYSTEM =  unknown system                          
 POSCAR =  Sc Cl  C                                

 Startparameter for this run:
   NWRITE =      2    write-flag & timer
   PREC   = anorma    normal or accurate (medium, high low for compatibility)
   ISTART =      0    job   : 0-new  1-cont  2-samecut
   ICHARG =      2    charge: 1-file 2-atom 10-const
   ISPIN  =      1    spin polarized calculation?
   LNONCOLLINEAR =      F non collinear calculations
   LSORBIT =      F    spin-orbit coupling
   INIWAV =      1    electr: 0-lowe 1-rand  2-diag
   LASPH  =      F    aspherical Exc in radial PAW
   METAGGA=      F    non-selfconsistent MetaGGA calc.

 Electronic Relaxation 1
   ENCUT  =  600.0 eV  44.10 Ry    6.64 a.u.  27.55 27.55 55.54*2*pi/ulx,y,z
   ENINI  =  600.0     initial cutoff
   ENAUG  =  644.9 eV  augmentation charge cutoff
   NELM   =     60;   NELMIN=  2; NELMDL= -5     # of ELM steps 
   EDIFF  = 0.1E-05   stopping-criterion for ELM
   LREAL  =      T    real-space projection
   NLSPLINE    = F    spline interpolate recip. space projectors
   LCOMPAT=      F    compatible to vasp.4.4
   GGA_COMPAT  = T    GGA compatible to vasp.4.4-vasp.4.6
   LMAXPAW     = -100 max onsite density
   LMAXMIX     =    2 max onsite mixed and CHGCAR
   VOSKOWN=      0    Vosko Wilk Nusair interpolation
   ROPT   =   -0.00025  -0.00025  -0.00025
 Ionic relaxation
   EDIFFG = -.1E-01   stopping-criterion for IOM
   NSW    =      1    number of steps for IOM
   NBLOCK =      1;   KBLOCK =      1    inner block; outer block 
   IBRION =     -1    ionic relax: 0-MD 1-quasi-New 2-CG
   NFREE  =      0    steps in history (QN), initial steepest desc. (CG)
   ISIF   =      2    stress and relaxation
   IWAVPR =     10    prediction:  0-non 1-charg 2-wave 3-comb
   ISYM   =      2    0-nonsym 1-usesym 2-fastsym
   LCORR  =      T    Harris-Foulkes like correction to forces

   POTIM  = 1.0000    time-step for ionic-motion
   TEIN   =    0.0    initial temperature
   TEBEG  =    0.0;   TEEND  =   0.0 temperature during run
   SMASS  =  -3.00    Nose mass-parameter (am)
   estimated Nose-frequenzy (Omega)   =  0.10E-29 period in steps =****** mass=  -0.435E-26a.u.
   SCALEE = 1.0000    scale energy and forces
   NPACO  =    256;   APACO  = 16.0  distance and # of slots for P.C.
   PSTRESS=    0.0 pullay stress

  Mass of Ions in am
   POMASS =  44.96 35.45 12.01
  Ionic Valenz
   ZVAL   =  11.00  7.00  4.00
  Atomic Wigner-Seitz radii
   RWIGS  =  -1.00 -1.00 -1.00
  virtual crystal weights 
   VCA    =   1.00  1.00  1.00
   NELECT =     640.0000    total number of electrons
   NUPDOWN=      -1.0000    fix difference up-down

 DOS related values:
   EMIN   =  10.00;   EMAX   =-10.00  energy-range for DOS
   EFERMI =   0.00
   ISMEAR =     0;   SIGMA  =   0.05  broadening in eV -4-tet -1-fermi 0-gaus

 Electronic relaxation 2 (details)
   IALGO  =     38    algorithm
   LDIAG  =      T    sub-space diagonalisation (order eigenvalues)
   LSUBROT=      F    optimize rotation matrix (better conditioning)
   TURBO    =      0    0=normal 1=particle mesh
   IRESTART =      0    0=no restart 2=restart with 2 vectors
   NREBOOT  =      0    no. of reboots
   NMIN     =      0    reboot dimension
   EREF     =   0.00    reference energy to select bands
   IMIX   =      4    mixing-type and parameters
     AMIX     =   0.40;   BMIX     =  1.00
     AMIX_MAG =   1.60;   BMIX_MAG =  1.00
     AMIN     =   0.10
     WC   =   100.;   INIMIX=   1;  MIXPRE=   1;  MAXMIX= -45

 Intra band minimization:
   WEIMIN = 0.0000     energy-eigenvalue tresh-hold
   EBREAK =  0.65E-09  absolut break condition
   DEPER  =   0.30     relativ break condition  

   TIME   =   0.40     timestep for ELM

  volume/ion in A,a.u.               =      57.28       386.56
  Fermi-wavevector in a.u.,A,eV,Ry     =   0.849369  1.605075  9.815628  0.721428
  Thomas-Fermi vector in A             =   1.965179
 
 Write flags
   LWAVE        =      F    write WAVECAR
   LDOWNSAMPLE  =      F    k-point downsampling of WAVECAR
   LCHARG       =      F    write CHGCAR
   LVTOT        =      F    write LOCPOT, total local potential
   LVHAR        =      F    write LOCPOT, Hartree potential only
   LELF         =      F    write electronic localiz. function (ELF)
   LORBIT       =      0    0 simple, 1 ext, 2 COOP (PROOUT), +10 PAW based schemes


 Dipole corrections
   LMONO  =      F    monopole corrections only (constant potential shift)
   LDIPOL =      F    correct potential (dipole corrections)
   IDIPOL =      0    1-x, 2-y, 3-z, 4-all directions 
   EPSILON=  1.0000000 bulk dielectric constant

 Exchange correlation treatment:
   GGA     =    --    GGA type
   LEXCH   =     8    internal setting for exchange type
   VOSKOWN=      0    Vosko Wilk Nusair interpolation
   LHFCALC =     F    Hartree Fock is set to
   LHFONE  =     F    Hartree Fock one center treatment
   AEXX    =    0.0000 exact exchange contribution

 Linear response parameters
   LEPSILON=     F    determine dielectric tensor
   LRPA    =     F    only Hartree local field effects (RPA)
   LNABLA  =     F    use nabla operator in PAW spheres
   LVEL    =     F    velocity operator in full k-point grid
   LINTERFAST=   F  fast interpolation
   KINTER  =     0    interpolate to denser k-point grid
   CSHIFT  =0.1000    complex shift for real part using Kramers Kronig
   OMEGAMAX=  -1.0    maximum frequency
   DEG_THRESHOLD= 0.2000000E-02 threshold for treating states as degnerate
   RTIME   =   -0.100 relaxation time in fs
  (WPLASMAI=    0.000 imaginary part of plasma frequency in eV, 0.658/RTIME)
   DFIELD  = 0.0000000 0.0000000 0.0000000 field for delta impulse in time
 
 Orbital magnetization related:
   ORBITALMAG=     F  switch on orbital magnetization
   LCHIMAG   =     F  perturbation theory with respect to B field
   DQ        =  0.001000  dq finite difference perturbation B field
   LLRAUG    =     F  two centre corrections for induced B field



--------------------------------------------------------------------------------------------------------


 Static calculation
 charge density and potential will be updated during run
 non-spin polarized calculation
 Variant of blocked Davidson
 Davidson routine will perform the subspace rotation
 perform sub-space diagonalisation
    after iterative eigenvector-optimisation
 modified Broyden-mixing scheme, WC =      100.0
 initial mixing is a Kerker type mixing with AMIX =  0.4000 and BMIX =      1.0000
 Hartree-type preconditioning will be used
 using additional bands           64
 real space projection scheme for non local part
 use partial core corrections
 calculate Harris-corrections to forces 
   (improved forces if not selfconsistent)
 use gradient corrections 
 use of overlap-Matrix (Vanderbilt PP)
 Gauss-broadening in eV      SIGMA  =   0.05


--------------------------------------------------------------------------------------------------------


  energy-cutoff  :      600.00
  volume of cell :     4582.63
      direct lattice vectors                 reciprocal lattice vectors
    13.793986680  0.000000000  0.000000000     0.072495358  0.041855214  0.000000000
    -6.896993340 11.945942880  0.000000000     0.000000000  0.083710429  0.000000000
     0.000000000  0.000000000 27.810221070     0.000000000  0.000000000  0.035958003

  length of vectors
    13.793986680 13.793986676 27.810221070     0.083710429  0.083710429  0.035958003


 
 k-points in units of 2pi/SCALE and weight: read from INCAR                         
   0.00000000  0.00000000  0.00000000       0.111
   0.02416512  0.01395174  0.00000000       0.222
   0.00000000  0.02790348  0.00000000       0.222
   0.02416512  0.04185521  0.00000000       0.222
  -0.02416512  0.01395174  0.00000000       0.222
 
 k-points in reciprocal lattice and weights: read from INCAR                         
   0.00000000  0.00000000  0.00000000       0.111
   0.33333333 -0.00000000  0.00000000       0.222
   0.00000000  0.33333333  0.00000000       0.222
   0.33333333  0.33333333  0.00000000       0.222
  -0.33333333  0.33333333  0.00000000       0.222
 
 position of ions in fractional coordinates (direct lattice) 
   0.07680058  0.16251169  0.54101658
   0.07231773  0.41258463  0.54814522
   0.07604636  0.66410479  0.54142577
   0.08988146  0.92173987  0.54290391
   0.32205332  0.16309247  0.54629988
   0.32290424  0.41567689  0.54725025
   0.33745662  0.66057080  0.55084387
   0.33573846  0.91555001  0.54220870
   0.58038738  0.16287316  0.53994598
   0.57761399  0.41368192  0.54545642
   0.58855449  0.66658450  0.54652027
   0.57148680  0.90952722  0.54524520
   0.82636774  0.16052532  0.54758943
   0.82723149  0.41012371  0.54605239
   0.83848542  0.67126193  0.54127281
   0.83003836  0.91074894  0.54420650
   0.17451876  0.08628692  0.45486974
   0.16933906  0.33750968  0.45529692
   0.18020956  0.58620724  0.45934515
   0.17241869  0.83014240  0.45112034
   0.41935700  0.09093872  0.45786765
   0.41660319  0.33660272  0.45446394
   0.42118846  0.57451512  0.45954854
   0.40732292  0.83675763  0.45621100
   0.66232917  0.08116545  0.45570535
   0.66703204  0.33634186  0.45051177
   0.67179220  0.58819488  0.45395297
   0.66705012  0.83142814  0.45651504
   0.91325477  0.08806547  0.45857547
   0.92138464  0.33283083  0.45758391
   0.92091839  0.59504529  0.45870643
   0.92063373  0.83982516  0.45124240
   0.08605292  0.17268274  0.40049388
   0.09156705  0.41683873  0.39828806
   0.09292493  0.66236677  0.39253362
   0.08450301  0.92169896  0.39243043
   0.33054988  0.16864628  0.39311113
   0.34960157  0.43102323  0.39147188
   0.33623982  0.66634836  0.39767805
   0.34929300  0.92823268  0.39091142
   0.57139412  0.16854709  0.39386457
   0.57653718  0.41701955  0.39638503
   0.57048333  0.65537621  0.39722038
   0.58805010  0.91183294  0.39682124
   0.82801319  0.16017149  0.38980932
   0.83729834  0.41565117  0.39720130
   0.82829478  0.67147677  0.39153659
   0.83524776  0.92218648  0.39693742
   0.15785533  0.08916024  0.60450634
   0.17437854  0.33538239  0.60346693
   0.15314343  0.57547353  0.60101977
   0.17581526  0.82083265  0.59812746
   0.41382894  0.08354970  0.60533214
   0.43025869  0.33868985  0.60649423
   0.42004814  0.58087618  0.61287172
   0.40456437  0.83476013  0.61073303
   0.65982173  0.07446552  0.60635289
   0.65935894  0.32568288  0.59985439
   0.68430487  0.59169803  0.59989385
   0.67211158  0.83420218  0.60613599
   0.91562669  0.08111171  0.60111859
   0.91793752  0.33789165  0.61303789
   0.90450198  0.57115213  0.60052615
   0.93214417  0.84122529  0.60214984
   0.00564520  0.00222366  0.49678944
   0.00224485  0.25014224  0.50453556
   0.99185178  0.49991385  0.50479574
   0.99798067  0.76489154  0.49621034
   0.25338340  0.00829068  0.50066569
   0.24973078  0.25472785  0.49974673
   0.24858858  0.49991714  0.50276949
   0.24405303  0.74636869  0.49611424
   0.48476873  0.98757683  0.49863289
   0.50772536  0.26044560  0.49824879
   0.49751265  0.49151815  0.50317544
   0.50700720  0.74847250  0.50510039
   0.74449940  0.00024570  0.50086094
   0.75005776  0.24300199  0.49954807
   0.74838248  0.50068587  0.49708985
   0.75251465  0.74926353  0.50063454
 
 position of ions in cartesian coordinates  (Angst):
  -0.06145593  1.94135540 15.04579063
  -1.84804367  4.92871245 15.24403986
  -3.53134379  7.93335789 15.05717043
  -5.11741016 11.01105186 15.09827764
   3.31755152  1.94829328 15.19272040
   1.58721595  4.96565243 15.21915056
   0.09891978  7.89114100 15.31908986
  -1.68337047 10.93710815 15.07894373
   6.88252069  1.94567342 15.01601715
   5.11443822  4.94182056 15.16926373
   3.52108392  7.96298034 15.19884953
   1.61007807 10.86516023 15.16338951
  10.29176354  1.91762632 15.22858303
   8.58219966  4.89931436 15.18583761
   6.93636771  8.01885664 15.05291661
   5.16810869 10.87975485 15.13450305
   1.81218913  1.03077866 12.65002791
   0.00805876  4.03187132 12.66190800
  -1.55725908  7.00279816 12.77449030
  -3.34714558  9.91683373 12.54575647
   5.15740111  1.08634873 12.73340065
   3.42507214  4.02103685 12.63874263
   1.84744102  6.86312480 12.78014654
  -0.15250489  9.99585884 12.68732864
   8.57636222  0.96959786 12.67326658
   6.88128353  4.01792069 12.52883188
   5.20991644  7.02654249 12.62453244
   3.46692605  9.93219310 12.69578427
  11.99003712  1.05202505 12.75308526
  10.41403539  3.97597810 12.72550958
   8.59911259  7.10837709 12.75672722
   6.90694081 10.03250340 12.54915093
  -0.00397884  2.06285816 11.13782327
  -1.61185925  4.97953168 11.07647892
  -3.28653398  7.91259564 10.91644686
  -5.19131821 11.01056313 10.91357697
   3.39644830  2.01463885 10.93250748
   1.84963502  5.14897883 10.88691963
   0.04228736  7.96015941 11.05951442
  -1.58387161 11.08861453 10.87133294
   6.71933471  2.01345388 10.95346067
   5.07656508  4.98169174 11.02355539
   3.34911412  7.82908672 11.04678656
   1.82264947 10.89270422 11.03568639
  10.31690123  1.91339953 10.84068347
   8.68293885  4.96534513 11.04625610
   6.79431638  8.02142315 10.88871911
   5.16108251 11.01638702 11.03891754
   1.56251673  1.06510309 16.81145495
   0.09224511  4.00645886 16.78254864
  -1.85657862  6.87457390 16.71449256
  -3.23608394  9.80561998 16.63405678
   5.13210918  0.99808000 16.83442074
   3.59904105  4.04596955 16.86673862
   1.78783932  6.93911371 17.04409794
  -0.17677959  9.97199683 16.98462057
   8.58798392  0.88956080 16.86280794
   6.84895583  3.89058906 16.68208310
   5.35835486  7.06839088 16.68318055
   3.51761134  9.96533156 16.85677585
  12.07071548  0.96895588 16.71724077
  10.33158151  4.03643434 17.04871915
   8.53745578  6.82295077 16.70076495
   7.05605908 10.04922928 16.74592013
   0.06253324  0.02656367 13.81582403
  -1.69426385  2.98818486 14.03124554
  10.23368775  5.97194225 14.03848115
   8.49068021  9.13735059 13.79971932
   3.43798653  0.09903994 13.92362343
   1.68792685  3.04296430 13.89806710
  -0.01889764  5.97198159 13.98213054
  -1.78123565  8.91607770 13.79704681
  -0.12441745 11.79753644 13.86709092
   5.20726522  3.11126826 13.85640902
   3.47268550  5.87164779 13.99342036
   1.83144068  8.94120973 14.04695354
  10.26792018  0.00293510 13.92905334
   8.67030373  2.90288784 13.89254222
   6.86995077  5.98116484 13.82417870
   5.21251140  8.95065938 13.92275736
 


--------------------------------------------------------------------------------------------------------


 k-point  1 :   0.0000 0.0000 0.0000  plane waves:  153003
 k-point  2 :   0.3333-0.0000 0.0000  plane waves:  152954
 k-point  3 :   0.0000 0.3333 0.0000  plane waves:  152954
 k-point  4 :   0.3333 0.3333 0.0000  plane waves:  152898
 k-point  5 :  -0.3333 0.3333 0.0000  plane waves:  152954

 maximum and minimum number of plane-waves per node :     11814    11730

 maximum number of plane-waves:    153003
 maximum index in each direction: 
   IXMAX=   27   IYMAX=   27   IZMAX=   55
   IXMIN=  -27   IYMIN=  -27   IZMIN=  -55


 real space projection operators:
  total allocation   :      55042.83 KBytes
  max/ min on nodes  :       4488.67       3859.45


 parallel 3D FFT for wavefunctions:
    minimum data exchange during FFTs selected (reduces bandwidth)
 parallel 3D FFT for charge:
    minimum data exchange during FFTs selected (reduces bandwidth)


 total amount of memory used by VASP MPI-rank0   253940. kBytes
=======================================================================

   base      :      30000. kBytes
   nonlr-proj:      18756. kBytes
   fftplans  :      72602. kBytes
   grid      :      41267. kBytes
   one-center:        108. kBytes
   wavefun   :      91207. kBytes
 
     INWAV:  cpu time    0.0000: real time    0.0000
 Broyden mixing: mesh for mixing (old mesh)
   NGX = 55   NGY = 55   NGZ =111
  (NGX  =224   NGY  =224   NGZ  =448)
  gives a total of 335775 points

 initial charge density was supplied:
 charge density of overlapping atoms calculated
 number of electron     640.0000000 magnetization 
 keeping initial charge density in first step


--------------------------------------------------------------------------------------------------------


 Maximum index for non-local projection operator          946
 Maximum index for augmentation-charges         4817 (set IRDMAX)


--------------------------------------------------------------------------------------------------------


 First call to EWALD:  gamma=   0.107
 Maximum number of real-space cells 4x 4x 2
 Maximum number of reciprocal cells 2x 2x 4

    FEWALD:  cpu time    0.0029: real time    0.0034


--------------------------------------- Iteration      1(   1)  ---------------------------------------


    POTLOK:  cpu time    0.4139: real time    0.4180
    SETDIJ:  cpu time    0.4400: real time    0.4407
     EDDAV:  cpu time   51.0021: real time   51.0247
       DOS:  cpu time    0.0012: real time    0.0011
    --------------------------------------------
      LOOP:  cpu time   51.8573: real time   51.8845

 eigenvalue-minimisations  :  4448
 total energy-change (2. order) : 0.1221748E+05  (-0.2682103E+05)
 number of electron     640.0000000 magnetization 
 augmentation part      640.0000000 magnetization 

 Free energy of the ion-electron system (eV)
  ---------------------------------------------------
  alpha Z        PSCENC =       784.57699423
  Ewald energy   TEWEN  =    253025.58086167
  -Hartree energ DENC   =   -300675.52297749
  -exchange      EXHF   =         0.00000000
  -V(xc)+E(xc)   XCENC  =      2503.35837809
  PAW double counting   =     43679.68029659   -43417.33247688
  entropy T*S    EENTRO =        -0.06415195
  eigenvalues    EBANDS =       106.47997245
  atomic energy  EATOM  =     56210.72393729
  Solvation  Ediel_sol  =         0.00000000
  ---------------------------------------------------
  free energy    TOTEN  =     12217.48083399 eV

  energy without entropy =    12217.54498594  energy(sigma->0) =    12217.51290997


--------------------------------------------------------------------------------------------------------




--------------------------------------- Iteration      1(   2)  ---------------------------------------


     EDDAV:  cpu time   57.7204: real time   57.7651
       DOS:  cpu time    0.0010: real time    0.0010
    --------------------------------------------
      LOOP:  cpu time   57.7215: real time   57.7661

 eigenvalue-minimisations  :  5224
 total energy-change (2. order) :-0.1047554E+05  (-0.1020750E+05)
 number of electron     640.0000000 magnetization 
 augmentation part      640.0000000 magnetization 

 Free energy of the ion-electron system (eV)
  ---------------------------------------------------
  alpha Z        PSCENC =       784.57699423
  Ewald energy   TEWEN  =    253025.58086167
  -Hartree energ DENC   =   -300675.52297749
  -exchange      EXHF   =         0.00000000
  -V(xc)+E(xc)   XCENC  =      2503.35837809
  PAW double counting   =     43679.68029659   -43417.33247688
  entropy T*S    EENTRO =        -0.04007998
  eigenvalues    EBANDS =    -10369.08510303
  atomic energy  EATOM  =     56210.72393729
  Solvation  Ediel_sol  =         0.00000000
  ---------------------------------------------------
  free energy    TOTEN  =      1741.93983049 eV

  energy without entropy =     1741.97991047  energy(sigma->0) =     1741.95987048


--------------------------------------------------------------------------------------------------------




--------------------------------------- Iteration      1(   3)  ---------------------------------------


     EDDAV:  cpu time   71.8349: real time   71.8725
       DOS:  cpu time    0.0010: real time    0.0010
    --------------------------------------------
      LOOP:  cpu time   71.8359: real time   71.8735

 eigenvalue-minimisations  :  6800
 total energy-change (2. order) :-0.2147339E+04  (-0.2060606E+04)
 number of electron     640.0000000 magnetization 
 augmentation part      640.0000000 magnetization 

 Free energy of the ion-electron system (eV)
  ---------------------------------------------------
  alpha Z        PSCENC =       784.57699423
  Ewald energy   TEWEN  =    253025.58086167
  -Hartree energ DENC   =   -300675.52297749
  -exchange      EXHF   =         0.00000000
  -V(xc)+E(xc)   XCENC  =      2503.35837809
  PAW double counting   =     43679.68029659   -43417.33247688
  entropy T*S    EENTRO =        -0.00313377
  eigenvalues    EBANDS =    -12516.46126236
  atomic energy  EATOM  =     56210.72393729
  Solvation  Ediel_sol  =         0.00000000
  ---------------------------------------------------
  free energy    TOTEN  =      -405.39938264 eV

  energy without entropy =     -405.39624887  energy(sigma->0) =     -405.39781575


--------------------------------------------------------------------------------------------------------




--------------------------------------- Iteration      1(   4)  ---------------------------------------


     EDDAV:  cpu time   65.5025: real time   65.5418
       DOS:  cpu time    0.0004: real time    0.0004
    --------------------------------------------
      LOOP:  cpu time   65.5030: real time   65.5423

 eigenvalue-minimisations  :  6088
 total energy-change (2. order) :-0.2386628E+03  (-0.2339863E+03)
 number of electron     640.0000000 magnetization 
 augmentation part      640.0000000 magnetization 

 Free energy of the ion-electron system (eV)
  ---------------------------------------------------
  alpha Z        PSCENC =       784.57699423
  Ewald energy   TEWEN  =    253025.58086167
  -Hartree energ DENC   =   -300675.52297749
  -exchange      EXHF   =         0.00000000
  -V(xc)+E(xc)   XCENC  =      2503.35837809
  PAW double counting   =     43679.68029659   -43417.33247688
  entropy T*S    EENTRO =        -0.00000000
  eigenvalues    EBANDS =    -12755.12718146
  atomic energy  EATOM  =     56210.72393729
  Solvation  Ediel_sol  =         0.00000000
  ---------------------------------------------------
  free energy    TOTEN  =      -644.06216797 eV

  energy without entropy =     -644.06216797  energy(sigma->0) =     -644.06216797


--------------------------------------------------------------------------------------------------------




--------------------------------------- Iteration      1(   5)  ---------------------------------------


     EDDAV:  cpu time   65.3745: real time   65.4134
       DOS:  cpu time    0.0005: real time    0.0005
    CHARGE:  cpu time    3.9622: real time    3.9640
    MIXING:  cpu time    0.0123: real time    0.0123
    --------------------------------------------
      LOOP:  cpu time   69.3494: real time   69.3902

 eigenvalue-minimisations  :  6072
 total energy-change (2. order) :-0.1053784E+02  (-0.1048449E+02)
 number of electron     640.0000003 magnetization 
 augmentation part       59.2304123 magnetization 

 Broyden mixing:
  rms(total) = 0.69532E+01    rms(broyden)= 0.69531E+01
  rms(prec ) = 0.73160E+01
  weight for this iteration     100.00

 Free energy of the ion-electron system (eV)
  ---------------------------------------------------
  alpha Z        PSCENC =       784.57699423
  Ewald energy   TEWEN  =    253025.58086167
  -Hartree energ DENC   =   -300675.52297749
  -exchange      EXHF   =         0.00000000
  -V(xc)+E(xc)   XCENC  =      2503.35837809
  PAW double counting   =     43679.68029659   -43417.33247688
  entropy T*S    EENTRO =        -0.00000000
  eigenvalues    EBANDS =    -12765.66501843
  atomic energy  EATOM  =     56210.72393729
  Solvation  Ediel_sol  =         0.00000000
  ---------------------------------------------------
  free energy    TOTEN  =      -654.60000494 eV

  energy without entropy =     -654.60000494  energy(sigma->0) =     -654.60000494


--------------------------------------------------------------------------------------------------------




--------------------------------------- Iteration      1(   6)  ---------------------------------------


    POTLOK:  cpu time    0.3888: real time    0.4001
    SETDIJ:  cpu time    0.4370: real time    0.4370
     EDDAV:  cpu time   63.4524: real time   63.4807
       DOS:  cpu time    0.0006: real time    0.0006
    CHARGE:  cpu time    3.9558: real time    3.9575
    MIXING:  cpu time    0.0120: real time    0.0121
    --------------------------------------------
      LOOP:  cpu time   68.2466: real time   68.2881

 eigenvalue-minimisations  :  5840
 total energy-change (2. order) : 0.1306014E+03  (-0.6950306E+02)
 number of electron     640.0000004 magnetization 
 augmentation part       70.0795707 magnetization 

 Broyden mixing:
  rms(total) = 0.30272E+01    rms(broyden)= 0.30270E+01
  rms(prec ) = 0.30596E+01
  weight for this iteration     100.00

 eigenvalues of (default mixing * dielectric matrix)
  average eigenvalue GAMMA=   0.9536
  0.9536

 Free energy of the ion-electron system (eV)
  ---------------------------------------------------
  alpha Z        PSCENC =       784.57699423
  Ewald energy   TEWEN  =    253025.58086167
  -Hartree energ DENC   =   -300486.99648889
  -exchange      EXHF   =         0.00000000
  -V(xc)+E(xc)   XCENC  =      2492.90396958
  PAW double counting   =     49235.81424854   -49028.06354100
  entropy T*S    EENTRO =        -0.00000000
  eigenvalues    EBANDS =    -12758.53855514
  atomic energy  EATOM  =     56210.72393729
  Solvation  Ediel_sol  =         0.00000000
  ---------------------------------------------------
  free energy    TOTEN  =      -523.99857372 eV

  energy without entropy =     -523.99857372  energy(sigma->0) =     -523.99857372


--------------------------------------------------------------------------------------------------------




--------------------------------------- Iteration      1(   7)  ---------------------------------------


    POTLOK:  cpu time    0.3894: real time    0.4029
    SETDIJ:  cpu time    0.4372: real time    0.4372
     EDDAV:  cpu time   63.7877: real time   63.8160
       DOS:  cpu time    0.0006: real time    0.0006
    CHARGE:  cpu time    3.9590: real time    3.9604
    MIXING:  cpu time    0.0114: real time    0.0114
    --------------------------------------------
      LOOP:  cpu time   68.5854: real time   68.6286

 eigenvalue-minimisations  :  5880
 total energy-change (2. order) :-0.4898657E+01  (-0.8731306E+01)
 number of electron     640.0000004 magnetization 
 augmentation part       69.5207661 magnetization 

 Broyden mixing:
  rms(total) = 0.15306E+01    rms(broyden)= 0.15305E+01
  rms(prec ) = 0.15662E+01
  weight for this iteration     100.00

 eigenvalues of (default mixing * dielectric matrix)
  average eigenvalue GAMMA=   1.0022
  1.0022  1.0022

 Free energy of the ion-electron system (eV)
  ---------------------------------------------------
  alpha Z        PSCENC =       784.57699423
  Ewald energy   TEWEN  =    253025.58086167
  -Hartree energ DENC   =   -300587.50515378
  -exchange      EXHF   =         0.00000000
  -V(xc)+E(xc)   XCENC  =      2488.94564050
  PAW double counting   =     54270.57788821   -54077.21893350
  entropy T*S    EENTRO =        -0.00000000
  eigenvalues    EBANDS =    -12644.57846522
  atomic energy  EATOM  =     56210.72393729
  Solvation  Ediel_sol  =         0.00000000
  ---------------------------------------------------
  free energy    TOTEN  =      -528.89723061 eV

  energy without entropy =     -528.89723061  energy(sigma->0) =     -528.89723061


--------------------------------------------------------------------------------------------------------




--------------------------------------- Iteration      1(   8)  ---------------------------------------


    POTLOK:  cpu time    0.3886: real time    0.4000
    SETDIJ:  cpu time    0.4372: real time    0.4376
     EDDAV:  cpu time   62.6265: real time   62.6539
       DOS:  cpu time    0.0006: real time    0.0006
    CHARGE:  cpu time    3.9588: real time    3.9602
    MIXING:  cpu time    0.0125: real time    0.0125
    --------------------------------------------
      LOOP:  cpu time   67.4242: real time   67.4649

 eigenvalue-minimisations  :  5752
 total energy-change (2. order) : 0.2240866E+01  (-0.9595270E+00)
 number of electron     640.0000004 magnetization 
 augmentation part       69.2678432 magnetization 

 Broyden mixing:
  rms(total) = 0.92752E+00    rms(broyden)= 0.92751E+00
  rms(prec ) = 0.94331E+00
  weight for this iteration     100.00

 eigenvalues of (default mixing * dielectric matrix)
  average eigenvalue GAMMA=   1.4278
  2.5438  0.8699  0.8699

 Free energy of the ion-electron system (eV)
  ---------------------------------------------------
  alpha Z        PSCENC =       784.57699423
  Ewald energy   TEWEN  =    253025.58086167
  -Hartree energ DENC   =   -300658.08117853
  -exchange      EXHF   =         0.00000000
  -V(xc)+E(xc)   XCENC  =      2488.98517508
  PAW double counting   =     56231.71838653   -56049.10610790
  entropy T*S    EENTRO =        -0.00000000
  eigenvalues    EBANDS =    -12561.05443262
  atomic energy  EATOM  =     56210.72393729
  Solvation  Ediel_sol  =         0.00000000
  ---------------------------------------------------
  free energy    TOTEN  =      -526.65636426 eV

  energy without entropy =     -526.65636426  energy(sigma->0) =     -526.65636426


--------------------------------------------------------------------------------------------------------




--------------------------------------- Iteration      1(   9)  ---------------------------------------


    POTLOK:  cpu time    0.3890: real time    0.3989
    SETDIJ:  cpu time    0.4368: real time    0.4368
     EDDAV:  cpu time   59.7825: real time   59.8097
       DOS:  cpu time    0.0006: real time    0.0006
    CHARGE:  cpu time    3.9625: real time    3.9642
    MIXING:  cpu time    0.0125: real time    0.0125
    --------------------------------------------
      LOOP:  cpu time   64.5838: real time   64.6228

 eigenvalue-minimisations  :  5432
 total energy-change (2. order) : 0.5202222E+00  (-0.3712794E+00)
 number of electron     640.0000004 magnetization 
 augmentation part       69.9828665 magnetization 

 Broyden mixing:
  rms(total) = 0.30024E+00    rms(broyden)= 0.30023E+00
  rms(prec ) = 0.31325E+00
  weight for this iteration     100.00

 eigenvalues of (default mixing * dielectric matrix)
  average eigenvalue GAMMA=   1.2238
  2.1661  0.8630  0.8630  1.0032

 Free energy of the ion-electron system (eV)
  ---------------------------------------------------
  alpha Z        PSCENC =       784.57699423
  Ewald energy   TEWEN  =    253025.58086167
  -Hartree energ DENC   =   -300787.59900290
  -exchange      EXHF   =         0.00000000
  -V(xc)+E(xc)   XCENC  =      2488.50226643
  PAW double counting   =     60015.89236731   -59850.40877744
  entropy T*S    EENTRO =        -0.00000000
  eigenvalues    EBANDS =    -12413.40478865
  atomic energy  EATOM  =     56210.72393729
  Solvation  Ediel_sol  =         0.00000000
  ---------------------------------------------------
  free energy    TOTEN  =      -526.13614208 eV

  energy without entropy =     -526.13614208  energy(sigma->0) =     -526.13614208


--------------------------------------------------------------------------------------------------------




--------------------------------------- Iteration      1(  10)  ---------------------------------------


    POTLOK:  cpu time    0.3886: real time    0.4028
    SETDIJ:  cpu time    0.4368: real time    0.4369
     EDDAV:  cpu time   61.7848: real time   61.8138
       DOS:  cpu time    0.0006: real time    0.0006
    CHARGE:  cpu time    3.9604: real time    3.9618
    MIXING:  cpu time    0.0126: real time    0.0126
    --------------------------------------------
      LOOP:  cpu time   66.5838: real time   66.6285

 eigenvalue-minimisations  :  5656
 total energy-change (2. order) : 0.1284533E+00  (-0.5819839E-01)
 number of electron     640.0000004 magnetization 
 augmentation part       69.8018938 magnetization 

 Broyden mixing:
  rms(total) = 0.17048E+00    rms(broyden)= 0.17048E+00
  rms(prec ) = 0.17742E+00
  weight for this iteration     100.00

 eigenvalues of (default mixing * dielectric matrix)
  average eigenvalue GAMMA=   1.2275
  2.0941  1.5789  0.9066  0.9066  0.6512

 Free energy of the ion-electron system (eV)
  ---------------------------------------------------
  alpha Z        PSCENC =       784.57699423
  Ewald energy   TEWEN  =    253025.58086167
  -Hartree energ DENC   =   -300814.50723471
  -exchange      EXHF   =         0.00000000
  -V(xc)+E(xc)   XCENC  =      2489.10012986
  PAW double counting   =     59479.06443568   -59311.20630009
  entropy T*S    EENTRO =        -0.00000000
  eigenvalues    EBANDS =    -12389.34051270
  atomic energy  EATOM  =     56210.72393729
  Solvation  Ediel_sol  =         0.00000000
  ---------------------------------------------------
  free energy    TOTEN  =      -526.00768876 eV

  energy without entropy =     -526.00768876  energy(sigma->0) =     -526.00768876


--------------------------------------------------------------------------------------------------------




--------------------------------------- Iteration      1(  11)  ---------------------------------------


    POTLOK:  cpu time    0.3891: real time    0.3992
    SETDIJ:  cpu time    0.4358: real time    0.4362
     EDDAV:  cpu time   61.5818: real time   61.6060
       DOS:  cpu time    0.0006: real time    0.0005
    CHARGE:  cpu time    3.9465: real time    3.9479
    MIXING:  cpu time    0.0136: real time    0.0136
    --------------------------------------------
      LOOP:  cpu time   66.3673: real time   66.4035

 eigenvalue-minimisations  :  5632
 total energy-change (2. order) : 0.2083963E-01  (-0.2169143E-01)
 number of electron     640.0000004 magnetization 
 augmentation part       69.7259107 magnetization 

 Broyden mixing:
  rms(total) = 0.77008E-01    rms(broyden)= 0.77007E-01
  rms(prec ) = 0.83120E-01
  weight for this iteration     100.00

 eigenvalues of (default mixing * dielectric matrix)
  average eigenvalue GAMMA=   1.2719
  2.5219  1.6950  0.8918  0.8918  0.8962  0.7347

 Free energy of the ion-electron system (eV)
  ---------------------------------------------------
  alpha Z        PSCENC =       784.57699423
  Ewald energy   TEWEN  =    253025.58086167
  -Hartree energ DENC   =   -300864.60798356
  -exchange      EXHF   =         0.00000000
  -V(xc)+E(xc)   XCENC  =      2489.71203522
  PAW double counting   =     59576.95882517   -59409.19484948
  entropy T*S    EENTRO =        -0.00000000
  eigenvalues    EBANDS =    -12339.73666968
  atomic energy  EATOM  =     56210.72393729
  Solvation  Ediel_sol  =         0.00000000
  ---------------------------------------------------
  free energy    TOTEN  =      -525.98684914 eV

  energy without entropy =     -525.98684914  energy(sigma->0) =     -525.98684914


--------------------------------------------------------------------------------------------------------




--------------------------------------- Iteration      1(  12)  ---------------------------------------


    POTLOK:  cpu time    0.3892: real time    0.3982
    SETDIJ:  cpu time    0.4363: real time    0.4364
     EDDAV:  cpu time   65.1346: real time   65.1632
       DOS:  cpu time    0.0005: real time    0.0005
    CHARGE:  cpu time    3.9559: real time    3.9577
    MIXING:  cpu time    0.0135: real time    0.0135
    --------------------------------------------
      LOOP:  cpu time   69.9300: real time   69.9694

 eigenvalue-minimisations  :  6032
 total energy-change (2. order) : 0.1432707E-01  (-0.3571772E-02)
 number of electron     640.0000004 magnetization 
 augmentation part       69.7345629 magnetization 

 Broyden mixing:
  rms(total) = 0.30113E-01    rms(broyden)= 0.30113E-01
  rms(prec ) = 0.36997E-01
  weight for this iteration     100.00

 eigenvalues of (default mixing * dielectric matrix)
  average eigenvalue GAMMA=   1.2681
  2.2355  2.2355  0.9395  0.9395  0.9237  0.9237  0.6792

 Free energy of the ion-electron system (eV)
  ---------------------------------------------------
  alpha Z        PSCENC =       784.57699423
  Ewald energy   TEWEN  =    253025.58086167
  -Hartree energ DENC   =   -300899.23162809
  -exchange      EXHF   =         0.00000000
  -V(xc)+E(xc)   XCENC  =      2490.08800842
  PAW double counting   =     59701.95065990   -59534.57031692
  entropy T*S    EENTRO =        -0.00000000
  eigenvalues    EBANDS =    -12305.09103856
  atomic energy  EATOM  =     56210.72393729
  Solvation  Ediel_sol  =         0.00000000
  ---------------------------------------------------
  free energy    TOTEN  =      -525.97252207 eV

  energy without entropy =     -525.97252207  energy(sigma->0) =     -525.97252207


--------------------------------------------------------------------------------------------------------




--------------------------------------- Iteration      1(  13)  ---------------------------------------


    POTLOK:  cpu time    0.3869: real time    0.3973
    SETDIJ:  cpu time    0.4360: real time    0.4360
     EDDAV:  cpu time   59.6362: real time   59.6608
       DOS:  cpu time    0.0006: real time    0.0006
    CHARGE:  cpu time    3.9555: real time    3.9572
    MIXING:  cpu time    0.0132: real time    0.0132
    --------------------------------------------
      LOOP:  cpu time   64.4283: real time   64.4652

 eigenvalue-minimisations  :  5416
 total energy-change (2. order) : 0.2348005E-02  (-0.9144120E-03)
 number of electron     640.0000004 magnetization 
 augmentation part       69.7376536 magnetization 

 Broyden mixing:
  rms(total) = 0.18839E-01    rms(broyden)= 0.18839E-01
  rms(prec ) = 0.25506E-01
  weight for this iteration     100.00

 eigenvalues of (default mixing * dielectric matrix)
  average eigenvalue GAMMA=   1.3201
  2.7688  1.9049  1.6128  0.9068  0.9068  0.9032  0.9032  0.6541

 Free energy of the ion-electron system (eV)
  ---------------------------------------------------
  alpha Z        PSCENC =       784.57699423
  Ewald energy   TEWEN  =    253025.58086167
  -Hartree energ DENC   =   -300919.28747145
  -exchange      EXHF   =         0.00000000
  -V(xc)+E(xc)   XCENC  =      2490.26454266
  PAW double counting   =     59648.73084277   -59481.13060771
  entropy T*S    EENTRO =        -0.00000000
  eigenvalues    EBANDS =    -12285.42927352
  atomic energy  EATOM  =     56210.72393729
  Solvation  Ediel_sol  =         0.00000000
  ---------------------------------------------------
  free energy    TOTEN  =      -525.97017406 eV

  energy without entropy =     -525.97017406  energy(sigma->0) =     -525.97017406


--------------------------------------------------------------------------------------------------------




--------------------------------------- Iteration      1(  14)  ---------------------------------------


    POTLOK:  cpu time    0.3877: real time    0.3970
    SETDIJ:  cpu time    0.4360: real time    0.4360
     EDDAV:  cpu time   59.2131: real time   59.2385
       DOS:  cpu time    0.0006: real time    0.0006
    CHARGE:  cpu time    3.9577: real time    3.9594
    MIXING:  cpu time    0.0135: real time    0.0135
    --------------------------------------------
      LOOP:  cpu time   64.0087: real time   64.0450

 eigenvalue-minimisations  :  5368
 total energy-change (2. order) : 0.2001150E-02  (-0.7560304E-03)
 number of electron     640.0000004 magnetization 
 augmentation part       69.7490997 magnetization 

 Broyden mixing:
  rms(total) = 0.17617E-01    rms(broyden)= 0.17617E-01
  rms(prec ) = 0.21118E-01
  weight for this iteration     100.00

 eigenvalues of (default mixing * dielectric matrix)
  average eigenvalue GAMMA=   1.3440
  2.6329  2.6329  1.7363  0.9434  0.9434  0.8980  0.8980  0.7154  0.6956

 Free energy of the ion-electron system (eV)
  ---------------------------------------------------
  alpha Z        PSCENC =       784.57699423
  Ewald energy   TEWEN  =    253025.58086167
  -Hartree energ DENC   =   -300946.68084196
  -exchange      EXHF   =         0.00000000
  -V(xc)+E(xc)   XCENC  =      2490.43743155
  PAW double counting   =     59660.85105864   -59493.32705145
  entropy T*S    EENTRO =        -0.00000000
  eigenvalues    EBANDS =    -12258.13056288
  atomic energy  EATOM  =     56210.72393729
  Solvation  Ediel_sol  =         0.00000000
  ---------------------------------------------------
  free energy    TOTEN  =      -525.96817291 eV

  energy without entropy =     -525.96817291  energy(sigma->0) =     -525.96817291


--------------------------------------------------------------------------------------------------------




--------------------------------------- Iteration      1(  15)  ---------------------------------------


    POTLOK:  cpu time    0.3873: real time    0.3971
    SETDIJ:  cpu time    0.4361: real time    0.4361
     EDDAV:  cpu time   59.8333: real time   59.8592
       DOS:  cpu time    0.0005: real time    0.0005
    CHARGE:  cpu time    3.9575: real time    3.9592
    MIXING:  cpu time    0.0134: real time    0.0134
    --------------------------------------------
      LOOP:  cpu time   64.6280: real time   64.6655

 eigenvalue-minimisations  :  5432
 total energy-change (2. order) :-0.1568631E-02  (-0.2227772E-03)
 number of electron     640.0000004 magnetization 
 augmentation part       69.7513269 magnetization 

 Broyden mixing:
  rms(total) = 0.10475E-01    rms(broyden)= 0.10475E-01
  rms(prec ) = 0.13388E-01
  weight for this iteration     100.00

 eigenvalues of (default mixing * dielectric matrix)
  average eigenvalue GAMMA=   1.3499
  2.8034  2.8034  1.4546  1.2378  0.9734  0.9734  0.8698  0.8698  0.8747  0.6387

 Free energy of the ion-electron system (eV)
  ---------------------------------------------------
  alpha Z        PSCENC =       784.57699423
  Ewald energy   TEWEN  =    253025.58086167
  -Hartree energ DENC   =   -300963.91511679
  -exchange      EXHF   =         0.00000000
  -V(xc)+E(xc)   XCENC  =      2490.51760346
  PAW double counting   =     59622.20614487   -59454.56082491
  entropy T*S    EENTRO =        -0.00000000
  eigenvalues    EBANDS =    -12241.09934137
  atomic energy  EATOM  =     56210.72393729
  Solvation  Ediel_sol  =         0.00000000
  ---------------------------------------------------
  free energy    TOTEN  =      -525.96974155 eV

  energy without entropy =     -525.96974155  energy(sigma->0) =     -525.96974155


--------------------------------------------------------------------------------------------------------




--------------------------------------- Iteration      1(  16)  ---------------------------------------


    POTLOK:  cpu time    0.3881: real time    0.3976
    SETDIJ:  cpu time    0.4360: real time    0.4360
     EDDAV:  cpu time   64.3582: real time   64.3857
       DOS:  cpu time    0.0005: real time    0.0005
    CHARGE:  cpu time    4.0046: real time    4.0064
    MIXING:  cpu time    0.0133: real time    0.0133
    --------------------------------------------
      LOOP:  cpu time   69.2007: real time   69.2395

 eigenvalue-minimisations  :  5936
 total energy-change (2. order) :-0.1981685E-02  (-0.1207781E-03)
 number of electron     640.0000004 magnetization 
 augmentation part       69.7493121 magnetization 

 Broyden mixing:
  rms(total) = 0.56177E-02    rms(broyden)= 0.56176E-02
  rms(prec ) = 0.80159E-02
  weight for this iteration     100.00

 eigenvalues of (default mixing * dielectric matrix)
  average eigenvalue GAMMA=   1.4034
  3.3937  2.5010  2.1477  1.1312  1.1312  0.9795  0.9795  0.8853  0.8853  0.6423
  0.7605

 Free energy of the ion-electron system (eV)
  ---------------------------------------------------
  alpha Z        PSCENC =       784.57699423
  Ewald energy   TEWEN  =    253025.58086167
  -Hartree energ DENC   =   -300976.04666313
  -exchange      EXHF   =         0.00000000
  -V(xc)+E(xc)   XCENC  =      2490.57399185
  PAW double counting   =     59613.08013435   -59445.43218961
  entropy T*S    EENTRO =        -0.00000000
  eigenvalues    EBANDS =    -12229.02878987
  atomic energy  EATOM  =     56210.72393729
  Solvation  Ediel_sol  =         0.00000000
  ---------------------------------------------------
  free energy    TOTEN  =      -525.97172323 eV

  energy without entropy =     -525.97172323  energy(sigma->0) =     -525.97172323


--------------------------------------------------------------------------------------------------------




--------------------------------------- Iteration      1(  17)  ---------------------------------------


    POTLOK:  cpu time    0.3920: real time    0.4016
    SETDIJ:  cpu time    0.4355: real time    0.4355
     EDDAV:  cpu time   55.6445: real time   55.6681
       DOS:  cpu time    0.0005: real time    0.0005
    CHARGE:  cpu time    3.9963: real time    3.9980
    MIXING:  cpu time    0.0136: real time    0.0136
    --------------------------------------------
      LOOP:  cpu time   60.4823: real time   60.5174

 eigenvalue-minimisations  :  4960
 total energy-change (2. order) :-0.3538724E-02  (-0.7141256E-04)
 number of electron     640.0000004 magnetization 
 augmentation part       69.7490133 magnetization 

 Broyden mixing:
  rms(total) = 0.33813E-02    rms(broyden)= 0.33812E-02
  rms(prec ) = 0.48706E-02
  weight for this iteration     100.00

 eigenvalues of (default mixing * dielectric matrix)
  average eigenvalue GAMMA=   1.4603
  4.1583  2.6983  2.3501  1.3729  1.0458  0.9133  0.9133  0.9105  0.9105  0.6416
  0.8046  0.8046

 Free energy of the ion-electron system (eV)
  ---------------------------------------------------
  alpha Z        PSCENC =       784.57699423
  Ewald energy   TEWEN  =    253025.58086167
  -Hartree energ DENC   =   -300989.01339462
  -exchange      EXHF   =         0.00000000
  -V(xc)+E(xc)   XCENC  =      2490.61280016
  PAW double counting   =     59610.90467020   -59443.29586892
  entropy T*S    EENTRO =        -0.00000000
  eigenvalues    EBANDS =    -12216.06526196
  atomic energy  EATOM  =     56210.72393729
  Solvation  Ediel_sol  =         0.00000000
  ---------------------------------------------------
  free energy    TOTEN  =      -525.97526195 eV

  energy without entropy =     -525.97526195  energy(sigma->0) =     -525.97526195


--------------------------------------------------------------------------------------------------------




--------------------------------------- Iteration      1(  18)  ---------------------------------------


    POTLOK:  cpu time    0.3933: real time    0.4040
    SETDIJ:  cpu time    0.4360: real time    0.4360
     EDDAV:  cpu time   53.6516: real time   53.6530
       DOS:  cpu time    0.0005: real time    0.0005
    CHARGE:  cpu time    3.9925: real time    3.9927
    MIXING:  cpu time    0.0140: real time    0.0140
    --------------------------------------------
      LOOP:  cpu time   58.4879: real time   58.5001

 eigenvalue-minimisations  :  4736
 total energy-change (2. order) :-0.2214199E-02  (-0.2400772E-04)
 number of electron     640.0000004 magnetization 
 augmentation part       69.7493300 magnetization 

 Broyden mixing:
  rms(total) = 0.25635E-02    rms(broyden)= 0.25635E-02
  rms(prec ) = 0.33432E-02
  weight for this iteration     100.00

 eigenvalues of (default mixing * dielectric matrix)
  average eigenvalue GAMMA=   1.4779
  4.4862  2.6472  2.2607  1.6808  1.1052  1.1052  0.9201  0.9201  0.9141  0.9141
  0.8761  0.6453  0.7375

 Free energy of the ion-electron system (eV)
  ---------------------------------------------------
  alpha Z        PSCENC =       784.57699423
  Ewald energy   TEWEN  =    253025.58086167
  -Hartree energ DENC   =   -300997.21059815
  -exchange      EXHF   =         0.00000000
  -V(xc)+E(xc)   XCENC  =      2490.63661173
  PAW double counting   =     59606.72897881   -59439.12779422
  entropy T*S    EENTRO =        -0.00000000
  eigenvalues    EBANDS =    -12207.88646750
  atomic energy  EATOM  =     56210.72393729
  Solvation  Ediel_sol  =         0.00000000
  ---------------------------------------------------
  free energy    TOTEN  =      -525.97747615 eV

  energy without entropy =     -525.97747615  energy(sigma->0) =     -525.97747615


--------------------------------------------------------------------------------------------------------




--------------------------------------- Iteration      1(  19)  ---------------------------------------


    POTLOK:  cpu time    0.3943: real time    0.4021
    SETDIJ:  cpu time    0.4364: real time    0.4365
     EDDAV:  cpu time   55.2771: real time   55.2790
       DOS:  cpu time    0.0005: real time    0.0005
    CHARGE:  cpu time    3.9701: real time    3.9703
    MIXING:  cpu time    0.0143: real time    0.0143
    --------------------------------------------
      LOOP:  cpu time   60.0927: real time   60.1026

 eigenvalue-minimisations  :  4912
 total energy-change (2. order) :-0.1186829E-02  (-0.1418412E-04)
 number of electron     640.0000004 magnetization 
 augmentation part       69.7491810 magnetization 

 Broyden mixing:
  rms(total) = 0.14856E-02    rms(broyden)= 0.14855E-02
  rms(prec ) = 0.21234E-02
  weight for this iteration     100.00

 eigenvalues of (default mixing * dielectric matrix)
  average eigenvalue GAMMA=   1.5676
  5.3898  2.9364  2.2047  2.2047  1.2165  1.2165  0.9902  0.9902  0.8905  0.8905
  0.8304  0.8304  0.6411  0.7137

 Free energy of the ion-electron system (eV)
  ---------------------------------------------------
  alpha Z        PSCENC =       784.57699423
  Ewald energy   TEWEN  =    253025.58086167
  -Hartree energ DENC   =   -301000.89962223
  -exchange      EXHF   =         0.00000000
  -V(xc)+E(xc)   XCENC  =      2490.64777800
  PAW double counting   =     59606.25070676   -59438.64774572
  entropy T*S    EENTRO =        -0.00000000
  eigenvalues    EBANDS =    -12204.21157298
  atomic energy  EATOM  =     56210.72393729
  Solvation  Ediel_sol  =         0.00000000
  ---------------------------------------------------
  free energy    TOTEN  =      -525.97866298 eV

  energy without entropy =     -525.97866298  energy(sigma->0) =     -525.97866298


--------------------------------------------------------------------------------------------------------




--------------------------------------- Iteration      1(  20)  ---------------------------------------


    POTLOK:  cpu time    0.3967: real time    0.4063
    SETDIJ:  cpu time    0.4360: real time    0.4360
     EDDAV:  cpu time   50.5408: real time   50.5427
       DOS:  cpu time    0.0005: real time    0.0005
    CHARGE:  cpu time    3.9681: real time    3.9682
    MIXING:  cpu time    0.0151: real time    0.0151
    --------------------------------------------
      LOOP:  cpu time   55.3571: real time   55.3689

 eigenvalue-minimisations  :  4376
 total energy-change (2. order) :-0.1130544E-02  (-0.4986048E-05)
 number of electron     640.0000004 magnetization 
 augmentation part       69.7488265 magnetization 

 Broyden mixing:
  rms(total) = 0.11683E-02    rms(broyden)= 0.11681E-02
  rms(prec ) = 0.14754E-02
  weight for this iteration     100.00

 eigenvalues of (default mixing * dielectric matrix)
  average eigenvalue GAMMA=   1.5818
  6.0617  3.0107  2.4199  2.0739  1.3011  1.0521  1.0521  0.9863  0.9863  0.8844
  0.8844  0.8885  0.6398  0.7642  0.7220

 Free energy of the ion-electron system (eV)
  ---------------------------------------------------
  alpha Z        PSCENC =       784.57699423
  Ewald energy   TEWEN  =    253025.58086167
  -Hartree energ DENC   =   -301004.43428176
  -exchange      EXHF   =         0.00000000
  -V(xc)+E(xc)   XCENC  =      2490.65319606
  PAW double counting   =     59605.16611906   -59437.56141259
  entropy T*S    EENTRO =        -0.00000000
  eigenvalues    EBANDS =    -12200.68520748
  atomic energy  EATOM  =     56210.72393729
  Solvation  Ediel_sol  =         0.00000000
  ---------------------------------------------------
  free energy    TOTEN  =      -525.97979353 eV

  energy without entropy =     -525.97979353  energy(sigma->0) =     -525.97979353


--------------------------------------------------------------------------------------------------------




--------------------------------------- Iteration      1(  21)  ---------------------------------------


    POTLOK:  cpu time    0.3972: real time    0.4055
    SETDIJ:  cpu time    0.4365: real time    0.4365
     EDDAV:  cpu time   49.9456: real time   49.9467
       DOS:  cpu time    0.0005: real time    0.0005
    CHARGE:  cpu time    3.9703: real time    3.9704
    MIXING:  cpu time    0.0156: real time    0.0156
    --------------------------------------------
      LOOP:  cpu time   54.7658: real time   54.7753

 eigenvalue-minimisations  :  4312
 total energy-change (2. order) :-0.4400518E-03  (-0.1693444E-05)
 number of electron     640.0000004 magnetization 
 augmentation part       69.7491047 magnetization 

 Broyden mixing:
  rms(total) = 0.80776E-03    rms(broyden)= 0.80759E-03
  rms(prec ) = 0.10475E-02
  weight for this iteration     100.00

 eigenvalues of (default mixing * dielectric matrix)
  average eigenvalue GAMMA=   1.5775
  6.3615  2.9820  2.4909  1.6498  1.6498  1.2591  1.2591  0.9959  0.9959  0.8805
  0.8805  0.8408  0.8408  0.8379  0.6410  0.6744

 Free energy of the ion-electron system (eV)
  ---------------------------------------------------
  alpha Z        PSCENC =       784.57699423
  Ewald energy   TEWEN  =    253025.58086167
  -Hartree energ DENC   =   -301005.62074177
  -exchange      EXHF   =         0.00000000
  -V(xc)+E(xc)   XCENC  =      2490.65332345
[...]
    -6.896993340 11.945942880  0.000000000     0.000000000  0.083710429  0.000000000
     0.000000000  0.000000000 27.810221070     0.000000000  0.000000000  0.035958003

  length of vectors
    13.793986680 13.793986676 27.810221070     0.083710429  0.083710429  0.035958003


 FORCES acting on ions
    electron-ion (+dipol)            ewald-force                    non-local-force                 convergence-correction
 -----------------------------------------------------------------------------------------------
   -.534E+01 -.335E+01 -.101E+04   0.568E+01 0.355E+01 0.100E+04   0.307E+00 0.132E+00 0.484E+01   -.279E-04 0.762E-05 0.127E-04
   0.540E+00 0.137E+02 -.112E+04   -.712E+00 -.139E+02 0.112E+04   0.591E+00 0.966E-01 0.371E+01   0.124E-04 -.161E-04 -.266E-04
   0.389E+01 -.233E+02 -.999E+03   -.285E+01 0.225E+02 0.996E+03   -.555E+00 0.721E+00 0.394E+01   -.137E-04 -.334E-05 0.150E-04
   -.216E+02 0.184E+02 -.106E+04   0.205E+02 -.185E+02 0.106E+04   0.746E+00 -.647E-01 0.501E+01   -.131E-04 -.843E-05 -.741E-05
   -.314E+02 -.275E+02 -.113E+04   0.316E+02 0.277E+02 0.113E+04   0.463E+00 0.514E+00 0.414E+01   -.918E-05 -.112E-06 -.216E-05
   -.438E+02 -.661E+01 -.113E+04   0.446E+02 0.609E+01 0.113E+04   0.865E+00 0.347E+00 0.437E+01   -.233E-04 0.519E-05 -.260E-04
   0.968E+01 -.328E+02 -.119E+04   -.866E+01 0.323E+02 0.119E+04   -.109E+01 0.664E+00 0.393E+01   0.579E-05 -.867E-05 0.132E-04
   0.217E+02 -.464E-02 -.104E+04   -.225E+02 0.593E+00 0.104E+04   -.176E+00 -.354E+00 0.409E+01   0.327E-04 0.355E-04 -.721E-05
   -.886E+01 0.102E+01 -.990E+03   0.862E+01 0.408E+00 0.987E+03   0.850E-01 -.763E+00 0.410E+01   -.205E-05 -.302E-04 -.244E-04
   -.227E+02 -.105E+02 -.109E+04   0.222E+02 0.104E+02 0.108E+04   0.109E+01 0.519E+00 0.458E+01   -.164E-04 -.270E-05 -.129E-04
   0.195E+02 0.114E+02 -.112E+04   -.198E+02 -.111E+02 0.112E+04   0.867E-01 -.342E+00 0.434E+01   0.106E-04 -.624E-05 -.239E-04
   -.128E+02 -.356E+01 -.109E+04   0.142E+02 0.305E+01 0.109E+04   -.514E+00 0.529E+00 0.444E+01   -.204E-04 0.269E-04 -.192E-04
   0.208E+02 -.212E+02 -.114E+04   -.213E+02 0.207E+02 0.114E+04   0.204E+00 0.771E+00 0.438E+01   0.245E-04 0.622E-05 -.182E-04
   0.867E+01 0.309E+02 -.106E+04   -.845E+01 -.301E+02 0.106E+04   -.199E+00 -.540E+00 0.395E+01   0.133E-04 0.120E-04 -.793E-05
   -.159E+02 -.269E+01 -.102E+04   0.147E+02 0.266E+01 0.101E+04   0.856E+00 0.451E-01 0.444E+01   -.608E-05 0.230E-04 -.194E-04
   -.981E+00 -.115E+02 -.106E+04   0.885E+00 0.113E+02 0.106E+04   0.324E+00 0.570E+00 0.404E+01   0.935E-05 0.656E-06 -.137E-04
   0.824E+01 0.114E+02 0.110E+04   -.912E+01 -.114E+02 -.110E+04   0.544E-01 -.201E-01 -.419E+01   -.609E-05 0.199E-05 0.865E-05
   0.564E+01 -.991E+01 0.109E+04   -.513E+01 0.917E+01 -.108E+04   -.144E+00 0.445E+00 -.407E+01   -.219E-04 0.128E-04 0.230E-04
   0.427E+02 0.308E+02 0.999E+03   -.425E+02 -.302E+02 -.996E+03   -.113E+01 -.102E+01 -.395E+01   0.316E-04 -.546E-04 -.291E-05
   0.320E+02 -.118E+02 0.118E+04   -.327E+02 0.111E+02 -.118E+04   -.885E-01 0.925E+00 -.383E+01   -.320E-04 0.153E-04 -.520E-05
   0.984E+01 0.440E+01 0.102E+04   -.107E+02 -.410E+01 -.102E+04   0.258E+00 -.425E+00 -.416E+01   0.328E-04 -.100E-04 0.241E-05
   0.104E+02 0.244E+02 0.107E+04   -.102E+02 -.244E+02 -.107E+04   -.352E+00 -.318E+00 -.433E+01   0.108E-04 0.207E-04 0.144E-04
   0.425E+02 -.467E+02 0.963E+03   -.422E+02 0.471E+02 -.959E+03   -.998E+00 0.395E+00 -.389E+01   0.905E-05 -.290E-04 0.544E-06
   -.680E+02 0.412E+02 0.107E+04   0.681E+02 -.416E+02 -.107E+04   0.126E+01 -.590E+00 -.378E+01   0.268E-04 0.711E-04 0.258E-05
   -.831E+01 -.120E+02 0.109E+04   0.102E+02 0.121E+02 -.109E+04   -.106E+01 -.958E-01 -.432E+01   -.196E-04 -.332E-04 -.315E-05
   -.547E+02 -.824E+01 0.116E+04   0.541E+02 0.904E+01 -.116E+04   0.482E+00 -.537E+00 -.371E+01   -.431E-05 0.282E-07 -.187E-05
   -.683E+01 0.376E+01 0.110E+04   0.781E+01 -.425E+01 -.109E+04   -.889E+00 -.133E+00 -.413E+01   -.174E-04 0.141E-05 0.979E-05
   0.188E+02 -.198E+01 0.106E+04   -.194E+02 0.237E+01 -.105E+04   0.157E+00 -.395E+00 -.434E+01   0.123E-04 0.105E-04 -.344E-05
   0.243E+02 -.896E+00 0.103E+04   -.238E+02 0.259E+00 -.103E+04   -.186E+00 0.104E+00 -.417E+01   -.378E-06 0.166E-04 0.106E-04
   0.215E+02 -.759E+01 0.106E+04   -.227E+02 0.754E+01 -.105E+04   0.432E+00 0.152E-01 -.459E+01   0.274E-04 -.909E-05 0.181E-04
   -.316E+02 0.370E+02 0.107E+04   0.307E+02 -.385E+02 -.107E+04   0.709E+00 0.150E+00 -.487E+01   0.199E-05 0.750E-05 0.905E-05
   0.575E+01 -.956E+00 0.117E+04   -.512E+01 0.169E+01 -.117E+04   -.627E+00 -.508E+00 -.410E+01   -.176E-05 -.197E-05 0.319E-04
   0.154E+02 0.945E+01 0.143E+04   -.154E+02 -.942E+01 -.143E+04   -.118E+00 -.205E+00 0.156E+01   -.105E-05 0.467E-05 0.626E-05
   0.334E+02 -.890E+01 0.144E+04   -.333E+02 0.891E+01 -.144E+04   -.634E+00 0.140E+00 0.179E+01   0.389E-05 0.141E-05 0.115E-04
   0.158E+02 0.302E+02 0.146E+04   -.157E+02 -.304E+02 -.146E+04   -.687E+00 0.391E+00 0.271E+01   0.108E-04 0.316E-05 0.843E-05
   -.110E+02 0.581E+01 0.147E+04   0.109E+02 -.567E+01 -.147E+04   0.494E+00 -.220E+00 0.222E+01   0.497E-05 -.145E-05 0.142E-04
   -.921E+00 0.349E+01 0.147E+04   0.894E+00 -.355E+01 -.148E+04   0.207E+00 0.921E-01 0.231E+01   0.461E-05 0.414E-05 -.259E-05
   0.305E+02 0.138E+02 0.149E+04   -.304E+02 -.134E+02 -.149E+04   -.793E+00 -.108E+01 0.259E+01   0.270E-05 0.578E-05 -.531E-05
   -.135E+02 -.555E+01 0.143E+04   0.135E+02 0.550E+01 -.143E+04   0.760E-01 0.650E-01 0.228E+01   -.828E-06 -.133E-05 -.195E-05
   0.453E+01 0.579E+00 0.149E+04   -.426E+01 -.355E+00 -.149E+04   -.796E+00 -.616E+00 0.265E+01   0.127E-04 -.690E-06 0.655E-05
   -.334E+02 0.450E+01 0.147E+04   0.332E+02 -.463E+01 -.147E+04   0.933E+00 0.856E-01 0.217E+01   0.358E-05 -.693E-05 -.202E-05
   -.216E+02 -.859E+01 0.146E+04   0.213E+02 0.858E+01 -.146E+04   0.703E+00 0.199E+00 0.157E+01   -.725E-05 0.246E-05 -.287E-05
   0.231E+01 -.361E+02 0.145E+04   -.257E+01 0.359E+02 -.145E+04   0.775E+00 0.107E+01 0.197E+01   -.343E-06 -.647E-05 -.442E-05
   0.774E+01 0.505E+01 0.143E+04   -.758E+01 -.510E+01 -.144E+04   -.655E+00 0.100E+00 0.217E+01   -.201E-05 0.687E-05 0.406E-05
   0.487E+01 -.172E+02 0.147E+04   -.484E+01 0.170E+02 -.147E+04   -.363E-01 0.467E+00 0.321E+01   -.865E-05 -.331E-05 0.775E-05
   -.233E+02 -.174E+02 0.143E+04   0.235E+02 0.174E+02 -.143E+04   0.137E-01 0.252E+00 0.201E+01   0.113E-05 -.126E-04 -.129E-05
   -.256E+02 0.137E+02 0.148E+04   0.255E+02 -.137E+02 -.149E+04   0.440E+00 -.144E+00 0.234E+01   -.123E-04 -.168E-05 0.514E-05
   0.142E+02 -.109E+02 0.145E+04   -.142E+02 0.111E+02 -.145E+04   -.189E+00 -.140E+00 0.190E+01   -.117E-04 -.193E-05 0.942E-05
   -.721E+01 0.134E+02 -.147E+04   0.698E+01 -.133E+02 0.147E+04   0.848E+00 -.296E+00 -.185E+01   -.753E-05 -.119E-04 -.252E-05
   0.178E+02 0.238E+02 -.146E+04   -.174E+02 -.238E+02 0.146E+04   -.125E+01 -.482E+00 -.108E+01   -.638E-05 0.108E-05 -.129E-04
   0.796E+00 -.254E+02 -.143E+04   -.103E+01 0.254E+02 0.143E+04   0.645E+00 0.769E+00 -.136E+01   0.226E-05 -.678E-05 -.814E-05
   0.308E+02 -.918E+01 -.142E+04   -.304E+02 0.899E+01 0.142E+04   -.153E+01 0.651E+00 -.120E+01   0.363E-05 0.276E-05 0.316E-05
   0.270E+00 -.350E+01 -.145E+04   -.167E+00 0.355E+01 0.145E+04   -.901E-01 -.119E+00 -.267E+01   -.441E-05 -.106E-04 0.575E-06
   0.112E+02 0.111E+02 -.147E+04   -.109E+02 -.110E+02 0.147E+04   -.109E+01 -.455E+00 -.188E+01   -.109E-05 -.445E-05 -.980E-05
   -.162E+02 -.478E+01 -.150E+04   0.163E+02 0.468E+01 0.150E+04   -.272E+00 0.261E+00 -.278E+01   -.188E-04 0.472E-05 -.123E-04
   -.734E+01 0.382E+00 -.149E+04   0.702E+01 -.180E+00 0.149E+04   0.107E+01 -.451E+00 -.284E+01   0.138E-05 -.293E-05 -.153E-04
   0.103E+02 -.778E+01 -.146E+04   -.104E+02 0.772E+01 0.146E+04   -.894E-01 0.302E+00 -.241E+01   0.554E-06 -.120E-04 -.812E-05
   -.132E+01 0.117E+02 -.143E+04   0.122E+01 -.118E+02 0.143E+04   0.350E+00 -.970E-01 -.134E+01   -.537E-05 -.131E-05 -.729E-05
   -.291E+01 0.896E+01 -.144E+04   0.312E+01 -.889E+01 0.144E+04   -.738E+00 -.443E+00 -.113E+01   -.182E-06 -.706E-06 -.691E-05
   0.784E+01 -.765E+01 -.146E+04   -.775E+01 0.775E+01 0.147E+04   -.248E+00 -.148E+00 -.218E+01   -.117E-05 0.108E-04 -.534E-05
   -.201E+01 0.402E+01 -.144E+04   0.210E+01 -.405E+01 0.144E+04   -.522E-01 -.521E-01 -.149E+01   0.139E-04 -.510E-05 -.677E-05
   0.114E+02 0.208E+02 -.150E+04   -.114E+02 -.206E+02 0.150E+04   -.124E+00 -.656E+00 -.283E+01   0.114E-04 0.843E-05 -.853E-05
   0.269E+01 -.252E+02 -.144E+04   -.285E+01 0.250E+02 0.144E+04   0.346E+00 0.101E+01 -.147E+01   0.178E-04 0.169E-05 0.520E-05
   -.616E+01 0.967E+01 -.145E+04   0.624E+01 -.959E+01 0.145E+04   -.445E+00 -.430E+00 -.182E+01   0.772E-05 0.202E-04 0.342E-05
   0.950E+01 0.111E+02 0.313E+02   -.920E+01 -.110E+02 -.316E+02   -.933E+00 -.492E-01 0.722E+00   0.301E-05 -.519E-05 0.461E-05
   0.162E+02 -.105E+02 -.309E+02   -.160E+02 0.105E+02 0.312E+02   -.116E+01 0.157E+00 -.129E+01   0.677E-06 0.645E-05 0.327E-05
   -.738E+01 0.953E+01 -.583E+01   0.705E+01 -.953E+01 0.616E+01   0.996E+00 -.401E+00 -.116E+01   0.683E-05 -.902E-05 0.104E-05
   -.241E+02 -.712E+01 0.335E+02   0.236E+02 0.758E+01 -.336E+02   0.216E+01 -.172E+01 0.371E+00   0.790E-06 0.144E-04 -.182E-05
   -.101E+02 0.239E+02 -.503E+00   0.998E+01 -.236E+02 0.650E+00   0.496E+00 -.630E+00 -.300E+00   -.697E-05 -.421E-05 0.755E-06
   -.738E+01 -.149E+01 0.150E+01   0.731E+01 0.165E+01 -.149E+01   0.300E+00 -.397E+00 0.902E-01   -.175E-05 0.318E-06 -.213E-05
   0.763E+01 -.256E+01 -.233E+02   -.770E+01 0.260E+01 0.232E+02   0.509E+00 0.226E+00 0.395E+00   -.866E-05 -.602E-05 -.271E-05
   -.645E+01 0.824E+01 0.599E+01   0.619E+01 -.834E+01 -.644E+01   0.418E+00 0.791E+00 0.103E+01   0.829E-06 0.567E-06 -.712E-06
   -.272E+02 -.217E+02 0.144E+02   0.270E+02 0.215E+02 -.146E+02   0.108E+01 0.167E+01 0.420E+00   0.835E-05 -.656E-05 -.594E-05
   0.596E+01 0.538E+01 0.337E+01   -.583E+01 -.491E+01 -.344E+01   -.162E+00 -.183E+01 0.735E-02   -.994E-06 0.626E-05 -.343E-05
   -.354E+01 -.829E+01 -.402E+02   0.361E+01 0.789E+01 0.403E+02   -.647E+00 0.133E+01 -.686E+00   0.478E-05 -.486E-05 -.520E-05
   0.226E+02 0.235E+01 -.219E+02   -.221E+02 -.220E+01 0.221E+02   -.122E+01 -.436E+00 -.272E+00   -.104E-05 0.864E-05 0.416E-06
   0.497E+01 0.771E+01 -.822E+01   -.509E+01 -.761E+01 0.811E+01   0.362E+00 -.222E+00 0.170E+00   -.544E-05 -.431E-05 -.199E-05
   0.128E+00 -.166E+02 0.171E+02   0.898E-01 0.165E+02 -.172E+02   -.563E+00 0.958E-01 0.111E+00   0.508E-05 0.853E-06 -.633E-05
   -.650E+01 0.177E+02 0.213E+02   0.630E+01 -.178E+02 -.216E+02   0.643E+00 0.507E+00 0.279E+00   -.327E-05 -.740E-05 -.495E-05
   0.263E+01 -.505E+01 0.462E+01   -.252E+01 0.500E+01 -.444E+01   -.545E+00 0.327E+00 -.523E+00   -.170E-05 0.546E-05 -.782E-05
 -----------------------------------------------------------------------------------------------
   0.245E+00 -.860E-01 -.632E+01   -.180E-12 -.238E-12 -.224E-11   -.240E+00 0.813E-01 0.632E+01   0.405E-04 0.427E-04 -.125E-03
 
 
 POSITION                                       TOTAL-FORCE (eV/Angst)
 -----------------------------------------------------------------------------------
     -0.06146      1.94136     15.04579         0.644552      0.330819      0.530031
     -1.84804      4.92871     15.24404         0.419039     -0.122322     -0.438384
     -3.53134      7.93336     15.05717         0.485993     -0.062979      0.336741
     -5.11741     11.01105     15.09828        -0.390720     -0.215476     -0.523377
      3.31755      1.94829     15.19272         0.722010      0.766970     -0.077110
      1.58722      4.96565     15.21915         1.715457     -0.174967     -0.607946
      0.09892      7.89114     15.31909        -0.066369      0.207167     -0.501323
     -1.68337     10.93711     15.07894        -0.925227      0.234471      0.683851
      6.88252      1.94567     15.01602        -0.145578      0.664477      1.007121
      5.11444      4.94182     15.16926         0.596770      0.413371     -0.959918
      3.52108      7.96298     15.19885        -0.212256     -0.114279     -0.102715
      1.61008     10.86516     15.16339         0.886287      0.027756      0.188692
     10.29176      1.91763     15.22858        -0.249635      0.212446     -0.379268
      8.58220      4.89931     15.18584         0.022564      0.229850     -1.022083
      6.93637      8.01886     15.05292        -0.328636      0.019535      0.039808
      5.16811     10.87975     15.13450         0.228238      0.377358     -0.230802
      1.81219      1.03078     12.65003        -0.830922      0.002361     -0.122069
      0.00806      4.03187     12.66191         0.360442     -0.291914      0.725368
     -1.55726      7.00280     12.77449        -0.916309     -0.334659     -0.788033
     -3.34715      9.91683     12.54576        -0.795026      0.323519     -0.127613
      5.15740      1.08635     12.73340        -0.600621     -0.124729     -0.842182
      3.42507      4.02104     12.63874        -0.078185     -0.227248      0.807642
      1.84744      6.86312     12.78015        -0.699469      0.710879      0.114610
     -0.15250      9.99586     12.68733         1.386709     -0.994971     -0.940708
      8.57636      0.96960     12.67327         0.787966     -0.014405     -0.599260
      6.88128      4.01792     12.52883        -0.107881      0.263518      1.098033
      5.20992      7.02654     12.62453         0.092407     -0.629950      0.557939
      3.46693      9.93219     12.69578        -0.357595     -0.003703      0.205960
     11.99004      1.05203     12.75309         0.292328     -0.532920     -0.776864
     10.41404      3.97598     12.72551        -0.775826     -0.034311     -0.089164
      8.59911      7.10838     12.75673        -0.157453     -1.369847     -1.486450
      6.90694     10.03250     12.54915         0.010549      0.223263      0.502965
     -0.00398      2.06286     11.13782        -0.157663     -0.167434     -0.602872
     -1.61186      4.97953     11.07648        -0.550036      0.155155     -0.253262
     -3.28653      7.91260     10.91645        -0.512102      0.167102      0.515879
     -5.19132     11.01056     10.91358         0.373281     -0.087771      0.042282
      3.39645      2.01464     10.93251         0.179922      0.029529      0.218010
      1.84964      5.14898     10.88692        -0.594723     -0.738742      0.516210
      0.04229      7.96016     11.05951         0.111818      0.015659      0.183171
     -1.58387     11.08861     10.87133        -0.521384     -0.391651      0.518411
      6.71933      2.01345     10.95346         0.704724     -0.041472      0.027237
      5.07657      4.98169     11.02356         0.499929      0.192020     -0.535990
      3.34911      7.82909     11.04679         0.517283      0.860701     -0.104972
      1.82265     10.89270     11.03569        -0.497804      0.050174      0.027211
     10.31690      1.91340     10.84068        -0.000693      0.313453      0.961409
      8.68294      4.96535     11.04626         0.157520      0.274364     -0.118329
      6.79432      8.02142     10.88872         0.360043     -0.157849      0.214047
      5.16108     11.01639     11.03892        -0.240463      0.000442     -0.219043
      1.56252      1.06510     16.81145         0.609128     -0.206024      0.154790
      0.09225      4.00646     16.78255        -0.915032     -0.464403      0.837164
     -1.85658      6.87457     16.71449         0.407140      0.713494      0.780095
     -3.23608      9.80562     16.63406        -1.186908      0.458265      0.800337
      5.13211      0.99808     16.83442         0.012288     -0.070250     -0.428586
      3.59904      4.04597     16.86674        -0.809904     -0.371545      0.177096
      1.78784      6.93911     17.04410        -0.166078      0.166501     -0.608350
     -0.17678      9.97200     16.98462         0.742377     -0.248943     -0.683185
      8.58798      0.88956     16.86281        -0.150704      0.243463     -0.248160
      6.84896      3.89059     16.68208         0.249108     -0.192357      0.677848
      5.35835      7.06839     16.68318        -0.534937     -0.375222      0.910006
      3.51761      9.96533     16.85678        -0.161785     -0.043997     -0.029970
     12.07072      0.96896     16.71724         0.043901     -0.074922      0.603836
     10.33158      4.03643     17.04872        -0.114120     -0.471959     -0.647778
      8.53746      6.82295     16.70076         0.192860      0.886281      0.662918
      7.05606     10.04923     16.74592        -0.363322     -0.356135      0.278322
      0.06253      0.02656     13.81582        -0.636287      0.014714      0.464421
     -1.69426      2.98818     14.03125        -0.928391      0.218424     -0.975302
     10.23369      5.97194     14.03848         0.664562     -0.406497     -0.829250
      8.49068      9.13735     13.79972         1.606474     -1.260061      0.242096
      3.43799      0.09904     13.92362         0.389906     -0.339466     -0.152213
      1.68793      3.04296     13.89807         0.234872     -0.236826      0.099049
     -0.01890      5.97198     13.98213         0.440836      0.257155      0.319336
     -1.78124      8.91608     13.79705         0.157261      0.685137      0.569649
     -0.12442     11.79754     13.86709         0.854013      1.428687      0.283612
      5.20727      3.11127     13.85641        -0.031795     -1.364216     -0.069757
      3.47269      5.87165     13.99342        -0.577834      0.930233     -0.512331
      1.83144      8.94121     14.04695        -0.770663     -0.288154     -0.056038
     10.26792      0.00294     13.92905         0.238476     -0.129399      0.061208
      8.67030      2.90289     13.89254        -0.345401     -0.024902      0.068664
      6.86995      5.98116     13.82418         0.445363      0.416467      0.022709
      5.21251      8.95066     13.92276        -0.438655      0.273695     -0.345127
 -----------------------------------------------------------------------------------
    total drift:                                0.005183     -0.004683      0.003231


--------------------------------------------------------------------------------------------------------



  FREE ENERGIE OF THE ION-ELECTRON SYSTEM (eV)
  ---------------------------------------------------
  free  energy   TOTEN  =      -525.98159486 eV

  energy  without entropy=     -525.98159486  energy(sigma->0) =     -525.98159486
 


--------------------------------------------------------------------------------------------------------


    POTLOK:  cpu time    0.8338: real time    0.8339


--------------------------------------------------------------------------------------------------------


     LOOP+:  cpu time 1919.9725: real time 1920.8614
    4ORBIT:  cpu time    0.0000: real time    0.0000

 total amount of memory used by VASP MPI-rank0   253940. kBytes
=======================================================================

   base      :      30000. kBytes
   nonlr-proj:      18756. kBytes
   fftplans  :      72602. kBytes
   grid      :      41267. kBytes
   one-center:        108. kBytes
   wavefun   :      91207. kBytes
 
  
  
 General timing and accounting informations for this job:
 ========================================================
  
                  Total CPU time used (sec):     1950.396
                            User time (sec):     1944.609
                          System time (sec):        5.786
                         Elapsed time (sec):     1951.385
  
                   Maximum memory used (kb):      466700.
                   Average memory used (kb):           0.
  
                          Minor page faults:       434328
                          Major page faults:            0
                 Voluntary context switches:         1948
