<?xml version="1.0" encoding="ISO-8859-1"?>
<modeling>
 <generator>
  <i name="program" type="string">vasp </i>
  <i name="version" type="string">5.4.4.18Apr17-6-g9f103f2a35  </i>
  <i name="subversion" type="string">(build Oct 31 2019 15:01:46) complex            parallel </i>
  <i name="platform" type="string">LinuxIFC </i>
  <i name="date" type="string">2024 05 01 </i>
  <i name="time" type="string">23:24:25 </i>
 </generator>
 <incar>
  <i type="int" name="ISTART">     0</i>
  <i type="string" name="PREC">anormal</i>
  <i type="logical" name="ADDGRID"> T  </i>
  <i type="int" name="IBRION">    -1</i>
  <i name="EDIFF">      0.00000100</i>
  <i name="EDIFFG">     -0.01000000</i>
  <i type="int" name="NSW">     1</i>
  <i type="int" name="ISIF">     2</i>
  <i type="int" name="ISYM">     2</i>
  <i name="ENCUT">    600.00000000</i>
  <i name="POTIM">      1.00000000</i>
  <i type="string" name="LREAL"> Auto.</i>
  <i type="int" name="ISMEAR">     0</i>
  <i name="SIGMA">      0.05000000</i>
  <i name="KSPACING">      0.25000000</i>
  <i type="logical" name="LWAVE"> F  </i>
  <i type="logical" name="LCHARG"> F  </i>
  <i type="logical" name="LSCALAPACK"> F  </i>
  <v type="int" name="KPOINT_BSE">    -1     0     0     0</v>
 </incar>
 <structure name="primitive_cell" >
  <crystal>
   <varray name="basis" >
    <v>      13.79398668       0.00000000       0.00000000 </v>
    <v>      -6.89699334      11.94594288       0.00000000 </v>
    <v>       0.00000000       0.00000000      27.81022107 </v>
   </varray>
   <i name="volume">   4582.62876984 </i>
   <varray name="rec_basis" >
    <v>       0.07249536       0.04185521       0.00000000 </v>
    <v>       0.00000000       0.08371043       0.00000000 </v>
    <v>       0.00000000       0.00000000       0.03595800 </v>
   </varray>
  </crystal>
  <varray name="positions" >
   <v>       0.07680058       0.16251169      -0.45898342 </v>
   <v>       0.00224485       0.25014224      -0.49546444 </v>
   <v>       0.00564520       0.00222366       0.49678944 </v>
   <v>       0.24973078       0.25472785       0.49974673 </v>
   <v>      -0.08437331       0.08111171      -0.39888141 </v>
   <v>       0.15785533       0.08916024      -0.39549366 </v>
   <v>       0.17437854       0.33538239      -0.39653307 </v>
   <v>      -0.08674523       0.08806547       0.45857547 </v>
   <v>       0.16933906       0.33750968       0.45529692 </v>
   <v>       0.17451876       0.08628692       0.45486974 </v>
   <v>       0.32205332       0.16309247      -0.45370012 </v>
   <v>       0.08988146      -0.07826013      -0.45709609 </v>
   <v>      -0.16996164      -0.08925106      -0.45579350 </v>
   <v>      -0.17363226       0.16052532      -0.45241057 </v>
   <v>       0.32290424       0.41567689      -0.45274975 </v>
   <v>       0.07231773       0.41258463      -0.45185478 </v>
   <v>       0.08605292       0.17268274       0.40049388 </v>
   <v>       0.25338340       0.00829068      -0.49933431 </v>
   <v>      -0.25550060       0.00024570      -0.49913906 </v>
   <v>       0.24858858       0.49991714      -0.49723051 </v>
   <v>      -0.06785583      -0.15877471      -0.39785016 </v>
   <v>      -0.08206248       0.33789165      -0.38696211 </v>
   <v>      -0.07861536       0.33283083       0.45758391 </v>
   <v>      -0.07936627      -0.16017484       0.45124240 </v>
   <v>       0.43025869       0.33868985      -0.39350577 </v>
   <v>       0.41660319       0.33660272       0.45446394 </v>
   <v>      -0.00201933      -0.23510846       0.49621034 </v>
   <v>      -0.16475224      -0.07781352       0.39693742 </v>
   <v>       0.09156705       0.41683873       0.39828806 </v>
   <v>      -0.24994224       0.24300199       0.49954807 </v>
   <v>      -0.24748535      -0.25073647      -0.49936546 </v>
   <v>       0.08450301      -0.07830104       0.39243043 </v>
   <v>       0.33054988       0.16864628       0.39311113 </v>
   <v>       0.49751265       0.49151815      -0.49682456 </v>
   <v>      -0.17198681       0.16017149       0.38980932 </v>
   <v>      -0.00814822       0.49991385      -0.49520426 </v>
   <v>      -0.32788842      -0.16579782      -0.39386401 </v>
   <v>       0.15314343      -0.42452647      -0.39898023 </v>
   <v>      -0.49227464       0.26044560       0.49824879 </v>
   <v>      -0.34017827       0.07446552      -0.39364711 </v>
   <v>       0.41382894       0.08354970      -0.39466786 </v>
   <v>       0.34960157       0.43102323       0.39147188 </v>
   <v>       0.42004814      -0.41912382      -0.38712828 </v>
   <v>      -0.33294988      -0.16857186       0.45651504 </v>
   <v>       0.42118846      -0.42548488       0.45954854 </v>
   <v>       0.18020956      -0.41379276       0.45934515 </v>
   <v>       0.17581526      -0.17916735      -0.40187254 </v>
   <v>      -0.33767083       0.08116545       0.45570535 </v>
   <v>       0.41935700       0.09093872       0.45786765 </v>
   <v>      -0.16151458      -0.32873807      -0.45872719 </v>
   <v>       0.17241869      -0.16985760       0.45112034 </v>
   <v>      -0.17276851       0.41012371      -0.45394761 </v>
   <v>       0.33745662      -0.33942920      -0.44915613 </v>
   <v>      -0.42238601       0.41368192      -0.45454358 </v>
   <v>      -0.42851320      -0.09047278      -0.45475480 </v>
   <v>       0.33573846      -0.08444999      -0.45779130 </v>
   <v>      -0.41144551      -0.33341550      -0.45347973 </v>
   <v>      -0.41961262       0.16287316      -0.46005402 </v>
   <v>       0.07604636      -0.33589521      -0.45857423 </v>
   <v>      -0.41194990      -0.08816706       0.39682124 </v>
   <v>      -0.49299280      -0.25152750      -0.49489961 </v>
   <v>      -0.16270166       0.41565117       0.39720130 </v>
   <v>      -0.31569513      -0.40830197      -0.40010615 </v>
   <v>      -0.17170522      -0.32852323       0.39153659 </v>
   <v>      -0.42346282       0.41701955       0.39638503 </v>
   <v>       0.33623982      -0.33365164       0.39767805 </v>
   <v>       0.48476873      -0.01242317       0.49863289 </v>
   <v>       0.24405303      -0.25363131       0.49611424 </v>
   <v>      -0.09549802      -0.42884787      -0.39947385 </v>
   <v>      -0.34064106       0.32568288      -0.40014561 </v>
   <v>       0.34929300      -0.07176732       0.39091142 </v>
   <v>      -0.07908161      -0.40495471       0.45870643 </v>
   <v>      -0.32820780      -0.41180512       0.45395297 </v>
   <v>      -0.33296796       0.33634186       0.45051177 </v>
   <v>      -0.42951667      -0.34462379       0.39722038 </v>
   <v>      -0.42860588       0.16854709       0.39386457 </v>
   <v>       0.09292493      -0.33763323       0.39253362 </v>
   <v>      -0.25161752      -0.49931413       0.49708985 </v>
   <v>       0.40456437      -0.16523987      -0.38926697 </v>
   <v>       0.40732292      -0.16324237       0.45621100 </v>
  </varray>
 </structure>
 <varray name="primitive_index" >
  <v type="int" >        1 </v>
  <v type="int" >       66 </v>
  <v type="int" >       65 </v>
  <v type="int" >       70 </v>
  <v type="int" >       61 </v>
  <v type="int" >       49 </v>
  <v type="int" >       50 </v>
  <v type="int" >       29 </v>
  <v type="int" >       18 </v>
  <v type="int" >       17 </v>
  <v type="int" >        5 </v>
  <v type="int" >        4 </v>
  <v type="int" >       16 </v>
  <v type="int" >       13 </v>
  <v type="int" >        6 </v>
  <v type="int" >        2 </v>
  <v type="int" >       33 </v>
  <v type="int" >       69 </v>
  <v type="int" >       77 </v>
  <v type="int" >       71 </v>
  <v type="int" >       64 </v>
  <v type="int" >       62 </v>
  <v type="int" >       30 </v>
  <v type="int" >       32 </v>
  <v type="int" >       54 </v>
  <v type="int" >       22 </v>
  <v type="int" >       68 </v>
  <v type="int" >       48 </v>
  <v type="int" >       34 </v>
  <v type="int" >       78 </v>
  <v type="int" >       80 </v>
  <v type="int" >       36 </v>
  <v type="int" >       37 </v>
  <v type="int" >       75 </v>
  <v type="int" >       45 </v>
  <v type="int" >       67 </v>
  <v type="int" >       60 </v>
  <v type="int" >       51 </v>
  <v type="int" >       74 </v>
  <v type="int" >       57 </v>
  <v type="int" >       53 </v>
  <v type="int" >       38 </v>
  <v type="int" >       55 </v>
  <v type="int" >       28 </v>
  <v type="int" >       23 </v>
  <v type="int" >       19 </v>
  <v type="int" >       52 </v>
  <v type="int" >       25 </v>
  <v type="int" >       21 </v>
  <v type="int" >       15 </v>
  <v type="int" >       20 </v>
  <v type="int" >       14 </v>
  <v type="int" >        7 </v>
  <v type="int" >       10 </v>
  <v type="int" >       12 </v>
  <v type="int" >        8 </v>
  <v type="int" >       11 </v>
  <v type="int" >        9 </v>
  <v type="int" >        3 </v>
  <v type="int" >       44 </v>
  <v type="int" >       76 </v>
  <v type="int" >       46 </v>
  <v type="int" >       59 </v>
  <v type="int" >       47 </v>
  <v type="int" >       42 </v>
  <v type="int" >       39 </v>
  <v type="int" >       73 </v>
  <v type="int" >       72 </v>
  <v type="int" >       63 </v>
  <v type="int" >       58 </v>
  <v type="int" >       40 </v>
  <v type="int" >       31 </v>
  <v type="int" >       27 </v>
  <v type="int" >       26 </v>
  <v type="int" >       43 </v>
  <v type="int" >       41 </v>
  <v type="int" >       35 </v>
  <v type="int" >       79 </v>
  <v type="int" >       56 </v>
  <v type="int" >       24 </v>
 </varray>
 <kpoints>
  <generation param="Gamma">
   <v type="int" name="divisions">       3        3        1 </v>
   <v name="usershift">      0.00000000       0.00000000       0.00000000 </v>
   <v name="genvec1">      0.33333333      -0.00000000       0.00000000 </v>
   <v name="genvec2">      0.00000000       0.33333333       0.00000000 </v>
   <v name="genvec3">      0.00000000       0.00000000       1.00000000 </v>
   <v name="shift">      0.00000000       0.00000000       0.00000000 </v>
  </generation>
  <varray name="kpointlist" >
   <v>       0.00000000       0.00000000       0.00000000 </v>
   <v>       0.33333333      -0.00000000       0.00000000 </v>
   <v>       0.00000000       0.33333333       0.00000000 </v>
   <v>       0.33333333       0.33333333       0.00000000 </v>
   <v>      -0.33333333       0.33333333       0.00000000 </v>
  </varray>
  <varray name="weights" >
   <v>       0.11111111 </v>
   <v>       0.22222222 </v>
   <v>       0.22222222 </v>
   <v>       0.22222222 </v>
   <v>       0.22222222 </v>
  </varray>
 </kpoints>
 <parameters>
  <separator name="general" >
   <i type="string" name="SYSTEM">unknown system</i>
   <i type="logical" name="LCOMPAT"> F  </i>
  </separator>
  <separator name="electronic" >
   <i type="string" name="PREC">anorma</i>
   <i name="ENMAX">    600.00000000</i>
   <i name="ENAUG">    644.87300000</i>
   <i name="EDIFF">      0.00000100</i>
   <i type="int" name="IALGO">    38</i>
   <i type="int" name="IWAVPR">    10</i>
   <i type="int" name="NBANDS">   384</i>
   <i name="NELECT">    640.00000000</i>
   <i type="int" name="TURBO">     0</i>
   <i type="int" name="IRESTART">     0</i>
   <i type="int" name="NREBOOT">     0</i>
   <i type="int" name="NMIN">     0</i>
   <i name="EREF">      0.00000000</i>
   <separator name="electronic smearing" >
    <i type="int" name="ISMEAR">     0</i>
    <i name="SIGMA">      0.05000000</i>
    <i name="KSPACING">      0.25000000</i>
    <i type="logical" name="KGAMMA"> T  </i>
   </separator>
   <separator name="electronic projectors" >
    <i type="logical" name="LREAL"> T  </i>
    <v name="ROPT">     -0.00025000     -0.00025000     -0.00025000</v>
    <i type="int" name="LMAXPAW">  -100</i>
    <i type="int" name="LMAXMIX">     2</i>
    <i type="logical" name="NLSPLINE"> F  </i>
   </separator>
   <separator name="electronic startup" >
    <i type="int" name="ISTART">     0</i>
    <i type="int" name="ICHARG">     2</i>
    <i type="int" name="INIWAV">     1</i>
   </separator>
   <separator name="electronic spin" >
    <i type="int" name="ISPIN">     1</i>
    <i type="logical" name="LNONCOLLINEAR"> F  </i>
    <v name="MAGMOM">      1.00000000      1.00000000      1.00000000      1.00000000      1.00000000      1.00000000      1.00000000      1.00000000      1.00000000      1.00000000      1.00000000      1.00000000      1.00000000      1.00000000      1.00000000      1.00000000      1.00000000      1.00000000      1.00000000      1.00000000
      1.00000000      1.00000000      1.00000000      1.00000000      1.00000000      1.00000000      1.00000000      1.00000000      1.00000000      1.00000000      1.00000000      1.00000000      1.00000000      1.00000000      1.00000000      1.00000000      1.00000000      1.00000000      1.00000000      1.00000000
      1.00000000      1.00000000      1.00000000      1.00000000      1.00000000      1.00000000      1.00000000      1.00000000      1.00000000      1.00000000      1.00000000      1.00000000      1.00000000      1.00000000      1.00000000      1.00000000      1.00000000      1.00000000      1.00000000      1.00000000
      1.00000000      1.00000000      1.00000000      1.00000000      1.00000000      1.00000000      1.00000000      1.00000000      1.00000000      1.00000000      1.00000000      1.00000000      1.00000000      1.00000000      1.00000000      1.00000000      1.00000000      1.00000000      1.00000000      1.00000000
</v>
    <i name="NUPDOWN">     -1.00000000</i>
    <i type="logical" name="LSORBIT"> F  </i>
    <v name="SAXIS">      0.00000000      0.00000000      1.00000000</v>
    <i type="logical" name="LSPIRAL"> F  </i>
    <v name="QSPIRAL">      0.00000000      0.00000000      0.00000000</v>
    <i type="logical" name="LZEROZ"> F  </i>
   </separator>
   <separator name="electronic exchange-correlation" >
    <i type="logical" name="LASPH"> F  </i>
    <i type="logical" name="LMETAGGA"> F  </i>
   </separator>
   <separator name="electronic convergence" >
    <i type="int" name="NELM">    60</i>
    <i type="int" name="NELMDL">    -5</i>
    <i type="int" name="NELMIN">     2</i>
    <i name="ENINI">    600.00000000</i>
    <separator name="electronic convergence detail" >
     <i type="logical" name="LDIAG"> T  </i>
     <i type="logical" name="LSUBROT"> F  </i>
     <i name="WEIMIN">      0.00000000</i>
     <i name="EBREAK">      0.00000000</i>
     <i name="DEPER">      0.30000000</i>
     <i type="int" name="NRMM">     4</i>
     <i name="TIME">      0.40000000</i>
    </separator>
   </separator>
   <separator name="electronic mixer" >
    <i name="AMIX">      0.40000000</i>
    <i name="BMIX">      1.00000000</i>
    <i name="AMIN">      0.10000000</i>
    <i name="AMIX_MAG">      1.60000000</i>
    <i name="BMIX_MAG">      1.00000000</i>
    <separator name="electronic mixer details" >
     <i type="int" name="IMIX">     4</i>
     <i type="logical" name="MIXFIRST"> F  </i>
     <i type="int" name="MAXMIX">   -45</i>
     <i name="WC">    100.00000000</i>
     <i type="int" name="INIMIX">     1</i>
     <i type="int" name="MIXPRE">     1</i>
     <i type="int" name="MREMOVE">     5</i>
    </separator>
   </separator>
   <separator name="electronic dipolcorrection" >
    <i type="logical" name="LDIPOL"> F  </i>
    <i type="logical" name="LMONO"> F  </i>
    <i type="int" name="IDIPOL">     0</i>
    <i name="EPSILON">      1.00000000</i>
    <v name="DIPOL">   -100.00000000   -100.00000000   -100.00000000</v>
    <i name="EFIELD">      0.00000000</i>
   </separator>
  </separator>
  <separator name="grids" >
   <i type="int" name="NGX">   112</i>
   <i type="int" name="NGY">   112</i>
   <i type="int" name="NGZ">   224</i>
   <i type="int" name="NGXF">   224</i>
   <i type="int" name="NGYF">   224</i>
   <i type="int" name="NGZF">   448</i>
   <i type="logical" name="ADDGRID"> T  </i>
  </separator>
  <separator name="ionic" >
   <i type="int" name="NSW">     1</i>
   <i type="int" name="IBRION">    -1</i>
   <i type="int" name="MDALGO">     0</i>
   <i type="int" name="ISIF">     2</i>
   <i name="PSTRESS">      0.00000000</i>
   <i name="EDIFFG">     -0.01000000</i>
   <i type="int" name="NFREE">     0</i>
   <i name="POTIM">      1.00000000</i>
   <i name="SMASS">     -3.00000000</i>
   <i name="SCALEE">      1.00000000</i>
  </separator>
  <separator name="ionic md" >
   <i name="TEBEG">      0.00010000</i>
   <i name="TEEND">      0.00010000</i>
   <i type="int" name="NBLOCK">     1</i>
   <i type="int" name="KBLOCK">     1</i>
   <i type="int" name="NPACO">   256</i>
   <i name="APACO">     16.00000000</i>
  </separator>
  <separator name="symmetry" >
   <i type="int" name="ISYM">     2</i>
   <i name="SYMPREC">      0.00001000</i>
  </separator>
  <separator name="dos" >
   <i type="int" name="LORBIT">     0</i>
   <v name="RWIGS">     -1.00000000     -1.00000000     -1.00000000</v>
   <i type="int" name="NEDOS">   301</i>
   <i name="EMIN">     10.00000000</i>
   <i name="EMAX">    -10.00000000</i>
   <i name="EFERMI">      0.00000000</i>
  </separator>
  <separator name="writing" >
   <i type="int" name="NWRITE">     2</i>
   <i type="logical" name="LWAVE"> F  </i>
   <i type="logical" name="LDOWNSAMPLE"> F  </i>
   <i type="logical" name="LCHARG"> F  </i>
   <i type="logical" name="LPARD"> F  </i>
   <i type="logical" name="LVTOT"> F  </i>
   <i type="logical" name="LVHAR"> F  </i>
   <i type="logical" name="LELF"> F  </i>
   <i type="logical" name="LOPTICS"> F  </i>
   <v name="STM">      0.00000000      0.00000000      0.00000000      0.00000000      0.00000000      0.00000000      0.00000000</v>
  </separator>
  <separator name="performance" >
   <i type="int" name="NPAR">     4</i>
   <i type="int" name="NSIM">     4</i>
   <i type="int" name="NBLK">    -1</i>
   <i type="logical" name="LPLANE"> T  </i>
   <i type="logical" name="LSCALAPACK"> F  </i>
   <i type="logical" name="LSCAAWARE"> F  </i>
   <i type="logical" name="LSCALU"> F  </i>
   <i type="logical" name="LASYNC"> F  </i>
   <i type="logical" name="LORBITALREAL"> F  </i>
  </separator>
  <separator name="miscellaneous" >
   <i type="int" name="IDIOT">     3</i>
   <i type="int" name="ISPECIAL">     0</i>
   <i type="logical" name="LMUSIC"> F  </i>
   <v name="POMASS">     44.95600000     35.45300000     12.01100000</v>
   <v name="DARWINR">      0.00000000      0.00000000      0.00000000</v>
   <v name="DARWINV">      1.00000000      1.00000000      1.00000000</v>
   <i type="logical" name="LCORR"> T  </i>
  </separator>
  <i type="logical" name="GGA_COMPAT"> T  </i>
  <i type="logical" name="LBERRY"> F  </i>
  <i type="int" name="ICORELEVEL">     0</i>
  <i type="logical" name="LDAU"> F  </i>
  <i type="int" name="I_CONSTRAINED_M">     0</i>
  <separator name="electronic exchange-correlation" >
   <i type="string" name="GGA">--</i>
   <i type="int" name="VOSKOWN">     0</i>
   <i type="logical" name="LHFCALC"> F  </i>
   <i type="string" name="PRECFOCK"></i>
   <i type="logical" name="LSYMGRAD"> F  </i>
   <i type="logical" name="LHFONE"> F  </i>
   <i type="logical" name="LRHFCALC"> F  </i>
   <i type="logical" name="LTHOMAS"> F  </i>
   <i type="logical" name="LMODELHF"> F  </i>
   <i name="ENCUT4O">     -1.00000000</i>
   <i type="int" name="EXXOEP">     0</i>
   <i type="int" name="FOURORBIT">     0</i>
   <i name="AEXX">      0.00000000</i>
   <i name="HFALPHA">      0.00000000</i>
   <i name="MCALPHA">      0.00000000</i>
   <i name="ALDAX">      1.00000000</i>
   <i name="AGGAX">      1.00000000</i>
   <i name="ALDAC">      1.00000000</i>
   <i name="AGGAC">      1.00000000</i>
   <i type="int" name="NKREDX">     1</i>
   <i type="int" name="NKREDY">     1</i>
   <i type="int" name="NKREDZ">     1</i>
   <i type="logical" name="SHIFTRED"> F  </i>
   <i type="logical" name="ODDONLY"> F  </i>
   <i type="logical" name="EVENONLY"> F  </i>
   <i type="int" name="LMAXFOCK">     0</i>
   <i type="int" name="NMAXFOCKAE">     0</i>
   <i type="logical" name="LFOCKAEDFT"> F  </i>
   <i name="HFSCREEN">      0.00000000</i>
   <i name="HFSCREENC">      0.00000000</i>
   <i type="int" name="NBANDSGWLOW">     0</i>
  </separator>
  <separator name="vdW DFT" >
   <i type="logical" name="LUSE_VDW"> F  </i>
   <i name="Zab_VDW">     -0.84910000</i>
   <i name="PARAM1">      0.12340000</i>
   <i name="PARAM2">      1.00000000</i>
   <i name="PARAM3">      0.00000000</i>
  </separator>
  <separator name="model GW" >
   <i type="int" name="MODEL_GW">     0</i>
   <i name="MODEL_EPS0">     34.36971577</i>
   <i name="MODEL_ALPHA">      1.00000000</i>
  </separator>
  <separator name="linear response parameters" >
   <i type="logical" name="LEPSILON"> F  </i>
   <i type="logical" name="LRPA"> F  </i>
   <i type="logical" name="LNABLA"> F  </i>
   <i type="logical" name="LVEL"> F  </i>
   <i type="int" name="KINTER">     0</i>
   <i name="CSHIFT">      0.10000000</i>
   <i name="OMEGAMAX">     -1.00000000</i>
   <i name="DEG_THRESHOLD">      0.00200000</i>
   <i name="RTIME">     -0.10000000</i>
   <i name="WPLASMAI">      0.00000000</i>
   <v name="DFIELD">      0.00000000      0.00000000      0.00000000</v>
   <v name="WPLASMA">      0.00000000      0.00000000      0.00000000      0.00000000      0.00000000      0.00000000      0.00000000      0.00000000      0.00000000</v>
  </separator>
  <separator name="orbital magnetization" >
   <i type="logical" name="NUCIND"> F  </i>
   <v name="MAGPOS">      0.00000000      0.00000000      0.00000000</v>
   <i type="logical" name="LNICSALL"> T  </i>
   <i type="logical" name="ORBITALMAG"> F  </i>
   <i type="logical" name="LMAGBLOCH"> F  </i>
   <i type="logical" name="LCHIMAG"> F  </i>
   <i type="logical" name="LGAUGE"> T  </i>
   <i type="int" name="MAGATOM">     0</i>
   <v name="MAGDIPOL">      0.00000000      0.00000000      0.00000000</v>
   <v name="AVECCONST">      0.00000000      0.00000000      0.00000000</v>
  </separator>
  <separator name="response functions" >
   <i type="logical" name="LADDER"> F  </i>
   <i type="logical" name="LRPAFORCE"> F  </i>
   <i type="logical" name="LFXC"> F  </i>
   <i type="logical" name="LHARTREE"> T  </i>
   <i type="int" name="IBSE">     0</i>
   <v type="int" name="KPOINT">    -1     0     0     0</v>
   <i type="logical" name="LTCTE"> F  </i>
   <i type="logical" name="LTETE"> F  </i>
   <i type="logical" name="LTRIPLET"> F  </i>
   <i type="logical" name="LFXCEPS"> F  </i>
   <i type="logical" name="LFXHEG"> F  </i>
   <i type="int" name="NATURALO">     2</i>
   <i type="logical" name="L2ORDER"> F  </i>
   <i type="logical" name="LMP2LT"> F  </i>
   <i type="logical" name="LUSEW"> F  </i>
   <i name="ENCUTGW">     -2.00000000</i>
   <i name="ENCUTGWSOFT">     -2.00000000</i>
   <i name="ENCUTLF">     -1.00000000</i>
   <i type="int" name="LMAXMP2">    -1</i>
   <i name="SCISSOR">      0.00000000</i>
   <i type="int" name="NOMEGA">     0</i>
   <i type="int" name="NOMEGAR">     0</i>
   <i type="int" name="NBANDSGW">    -1</i>
   <i type="int" name="NBANDSO">    -1</i>
   <i type="int" name="NBANDSV">    -1</i>
   <i type="int" name="NELM">     1</i>
   <i type="int" name="NELMHF">     1</i>
   <i type="int" name="DIM">     3</i>
   <i type="int" name="ANTIRES">     0</i>
   <i name="OMEGAMAX">    -30.00000000</i>
   <i name="OMEGAMIN">    -30.00000000</i>
   <i name="OMEGATL">   -200.00000000</i>
   <i type="int" name="OMEGAGRID">   140</i>
   <i name="CSHIFT">     -0.10000000</i>
   <i type="logical" name="SELFENERGY"> F  </i>
   <i type="logical" name="LSPECTRAL"> F  </i>
   <i type="logical" name="LSPECTRALGW"> F  </i>
   <i type="logical" name="LSINGLES"> F  </i>
   <i type="logical" name="LFERMIGW"> F  </i>
   <i type="logical" name="ODDONLYGW"> F  </i>
   <i type="logical" name="EVENONLYGW"> F  </i>
   <i type="int" name="NKREDLFX">     1</i>
   <i type="int" name="NKREDLFY">     1</i>
   <i type="int" name="NKREDLFZ">     1</i>
   <i type="int" name="MAXMEM">  2800</i>
   <i type="int" name="TELESCOPE">     0</i>
   <i type="int" name="TAUPAR">     1</i>
   <i type="int" name="OMEGAPAR">    -1</i>
   <i name="LAMBDA">      1.00000000</i>
  </separator>
  <separator name="External order field" >
   <i name="OFIELD_KAPPA">      0.00000000</i>
   <v name="OFIELD_K">      0.00000000      0.00000000      0.00000000</v>
   <i name="OFIELD_Q6_NEAR">      0.00000000</i>
   <i name="OFIELD_Q6_FAR">      0.00000000</i>
   <i name="OFIELD_A">      0.00000000</i>
  </separator>
 </parameters>
 <atominfo>
  <atoms>      80 </atoms>
  <types>       3 </types>
  <array name="atoms" >
   <dimension dim="1">ion</dimension>
   <field type="string">element</field>
   <field type="int">atomtype</field>
   <set>
    <rc><c>Sc</c><c>   1</c></rc>
    <rc><c>Sc</c><c>   1</c></rc>
    <rc><c>Sc</c><c>   1</c></rc>
    <rc><c>Sc</c><c>   1</c></rc>
    <rc><c>Sc</c><c>   1</c></rc>
    <rc><c>Sc</c><c>   1</c></rc>
    <rc><c>Sc</c><c>   1</c></rc>
    <rc><c>Sc</c><c>   1</c></rc>
    <rc><c>Sc</c><c>   1</c></rc>
    <rc><c>Sc</c><c>   1</c></rc>
    <rc><c>Sc</c><c>   1</c></rc>
    <rc><c>Sc</c><c>   1</c></rc>
    <rc><c>Sc</c><c>   1</c></rc>
    <rc><c>Sc</c><c>   1</c></rc>
    <rc><c>Sc</c><c>   1</c></rc>
    <rc><c>Sc</c><c>   1</c></rc>
    <rc><c>Sc</c><c>   1</c></rc>
    <rc><c>Sc</c><c>   1</c></rc>
    <rc><c>Sc</c><c>   1</c></rc>
    <rc><c>Sc</c><c>   1</c></rc>
    <rc><c>Sc</c><c>   1</c></rc>
    <rc><c>Sc</c><c>   1</c></rc>
    <rc><c>Sc</c><c>   1</c></rc>
    <rc><c>Sc</c><c>   1</c></rc>
    <rc><c>Sc</c><c>   1</c></rc>
    <rc><c>Sc</c><c>   1</c></rc>
    <rc><c>Sc</c><c>   1</c></rc>
    <rc><c>Sc</c><c>   1</c></rc>
    <rc><c>Sc</c><c>   1</c></rc>
    <rc><c>Sc</c><c>   1</c></rc>
    <rc><c>Sc</c><c>   1</c></rc>
    <rc><c>Sc</c><c>   1</c></rc>
    <rc><c>Cl</c><c>   2</c></rc>
    <rc><c>Cl</c><c>   2</c></rc>
    <rc><c>Cl</c><c>   2</c></rc>
    <rc><c>Cl</c><c>   2</c></rc>
    <rc><c>Cl</c><c>   2</c></rc>
    <rc><c>Cl</c><c>   2</c></rc>
    <rc><c>Cl</c><c>   2</c></rc>
    <rc><c>Cl</c><c>   2</c></rc>
    <rc><c>Cl</c><c>   2</c></rc>
    <rc><c>Cl</c><c>   2</c></rc>
    <rc><c>Cl</c><c>   2</c></rc>
    <rc><c>Cl</c><c>   2</c></rc>
    <rc><c>Cl</c><c>   2</c></rc>
    <rc><c>Cl</c><c>   2</c></rc>
    <rc><c>Cl</c><c>   2</c></rc>
    <rc><c>Cl</c><c>   2</c></rc>
    <rc><c>Cl</c><c>   2</c></rc>
    <rc><c>Cl</c><c>   2</c></rc>
    <rc><c>Cl</c><c>   2</c></rc>
    <rc><c>Cl</c><c>   2</c></rc>
    <rc><c>Cl</c><c>   2</c></rc>
    <rc><c>Cl</c><c>   2</c></rc>
    <rc><c>Cl</c><c>   2</c></rc>
    <rc><c>Cl</c><c>   2</c></rc>
    <rc><c>Cl</c><c>   2</c></rc>
    <rc><c>Cl</c><c>   2</c></rc>
    <rc><c>Cl</c><c>   2</c></rc>
    <rc><c>Cl</c><c>   2</c></rc>
    <rc><c>Cl</c><c>   2</c></rc>
    <rc><c>Cl</c><c>   2</c></rc>
    <rc><c>Cl</c><c>   2</c></rc>
    <rc><c>Cl</c><c>   2</c></rc>
    <rc><c>C </c><c>   3</c></rc>
    <rc><c>C </c><c>   3</c></rc>
    <rc><c>C </c><c>   3</c></rc>
    <rc><c>C </c><c>   3</c></rc>
    <rc><c>C </c><c>   3</c></rc>
    <rc><c>C </c><c>   3</c></rc>
    <rc><c>C </c><c>   3</c></rc>
    <rc><c>C </c><c>   3</c></rc>
    <rc><c>C </c><c>   3</c></rc>
    <rc><c>C </c><c>   3</c></rc>
    <rc><c>C </c><c>   3</c></rc>
    <rc><c>C </c><c>   3</c></rc>
    <rc><c>C </c><c>   3</c></rc>
    <rc><c>C </c><c>   3</c></rc>
    <rc><c>C </c><c>   3</c></rc>
    <rc><c>C </c><c>   3</c></rc>
   </set>
  </array>
  <array name="atomtypes" >
   <dimension dim="1">type</dimension>
   <field type="int">atomspertype</field>
   <field type="string">element</field>
   <field>mass</field>
   <field>valence</field>
   <field type="string">pseudopotential</field>
   <set>
    <rc><c>  32</c><c>Sc</c><c>     44.95600000</c><c>     11.00000000</c><c>  PAW_PBE Sc_sv 07Sep2000               </c></rc>
    <rc><c>  32</c><c>Cl</c><c>     35.45300000</c><c>      7.00000000</c><c>  PAW_PBE Cl 06Sep2000                  </c></rc>
    <rc><c>  16</c><c>C </c><c>     12.01100000</c><c>      4.00000000</c><c>  PAW_PBE C 08Apr2002                   </c></rc>
   </set>
  </array>
 </atominfo>
 <structure name="initialpos" >
  <crystal>
   <varray name="basis" >
    <v>      13.79398668       0.00000000       0.00000000 </v>
    <v>      -6.89699334      11.94594288       0.00000000 </v>
    <v>       0.00000000       0.00000000      27.81022107 </v>
   </varray>
   <i name="volume">   4582.62876984 </i>
   <varray name="rec_basis" >
    <v>       0.07249536       0.04185521       0.00000000 </v>
    <v>       0.00000000       0.08371043       0.00000000 </v>
    <v>       0.00000000       0.00000000       0.03595800 </v>
   </varray>
  </crystal>
  <varray name="positions" >
   <v>       0.07680058       0.16251169       0.54101658 </v>
   <v>       0.07231773       0.41258463       0.54814522 </v>
   <v>       0.07604636       0.66410479       0.54142577 </v>
   <v>       0.08988146       0.92173987       0.54290391 </v>
   <v>       0.32205332       0.16309247       0.54629988 </v>
   <v>       0.32290424       0.41567689       0.54725025 </v>
   <v>       0.33745662       0.66057080       0.55084387 </v>
   <v>       0.33573846       0.91555001       0.54220870 </v>
   <v>       0.58038738       0.16287316       0.53994598 </v>
   <v>       0.57761399       0.41368192       0.54545642 </v>
   <v>       0.58855449       0.66658450       0.54652027 </v>
   <v>       0.57148680       0.90952722       0.54524520 </v>
   <v>       0.82636774       0.16052532       0.54758943 </v>
   <v>       0.82723149       0.41012371       0.54605239 </v>
   <v>       0.83848542       0.67126193       0.54127281 </v>
   <v>       0.83003836       0.91074894       0.54420650 </v>
   <v>       0.17451876       0.08628692       0.45486974 </v>
   <v>       0.16933906       0.33750968       0.45529692 </v>
   <v>       0.18020956       0.58620724       0.45934515 </v>
   <v>       0.17241869       0.83014240       0.45112034 </v>
   <v>       0.41935700       0.09093872       0.45786765 </v>
   <v>       0.41660319       0.33660272       0.45446394 </v>
   <v>       0.42118846       0.57451512       0.45954854 </v>
   <v>       0.40732292       0.83675763       0.45621100 </v>
   <v>       0.66232917       0.08116545       0.45570535 </v>
   <v>       0.66703204       0.33634186       0.45051177 </v>
   <v>       0.67179220       0.58819488       0.45395297 </v>
   <v>       0.66705012       0.83142814       0.45651504 </v>
   <v>       0.91325477       0.08806547       0.45857547 </v>
   <v>       0.92138464       0.33283083       0.45758391 </v>
   <v>       0.92091839       0.59504529       0.45870643 </v>
   <v>       0.92063373       0.83982516       0.45124240 </v>
   <v>       0.08605292       0.17268274       0.40049388 </v>
   <v>       0.09156705       0.41683873       0.39828806 </v>
   <v>       0.09292493       0.66236677       0.39253362 </v>
   <v>       0.08450301       0.92169896       0.39243043 </v>
   <v>       0.33054988       0.16864628       0.39311113 </v>
   <v>       0.34960157       0.43102323       0.39147188 </v>
   <v>       0.33623982       0.66634836       0.39767805 </v>
   <v>       0.34929300       0.92823268       0.39091142 </v>
   <v>       0.57139412       0.16854709       0.39386457 </v>
   <v>       0.57653718       0.41701955       0.39638503 </v>
   <v>       0.57048333       0.65537621       0.39722038 </v>
   <v>       0.58805010       0.91183294       0.39682124 </v>
   <v>       0.82801319       0.16017149       0.38980932 </v>
   <v>       0.83729834       0.41565117       0.39720130 </v>
   <v>       0.82829478       0.67147677       0.39153659 </v>
   <v>       0.83524776       0.92218648       0.39693742 </v>
   <v>       0.15785533       0.08916024       0.60450634 </v>
   <v>       0.17437854       0.33538239       0.60346693 </v>
   <v>       0.15314343       0.57547353       0.60101977 </v>
   <v>       0.17581526       0.82083265       0.59812746 </v>
   <v>       0.41382894       0.08354970       0.60533214 </v>
   <v>       0.43025869       0.33868985       0.60649423 </v>
   <v>       0.42004814       0.58087618       0.61287172 </v>
   <v>       0.40456437       0.83476013       0.61073303 </v>
   <v>       0.65982173       0.07446552       0.60635289 </v>
   <v>       0.65935894       0.32568288       0.59985439 </v>
   <v>       0.68430487       0.59169803       0.59989385 </v>
   <v>       0.67211158       0.83420218       0.60613599 </v>
   <v>       0.91562669       0.08111171       0.60111859 </v>
   <v>       0.91793752       0.33789165       0.61303789 </v>
   <v>       0.90450198       0.57115213       0.60052615 </v>
   <v>       0.93214417       0.84122529       0.60214984 </v>
   <v>       0.00564520       0.00222366       0.49678944 </v>
   <v>       0.00224485       0.25014224       0.50453556 </v>
   <v>       0.99185178       0.49991385       0.50479574 </v>
   <v>       0.99798067       0.76489154       0.49621034 </v>
   <v>       0.25338340       0.00829068       0.50066569 </v>
   <v>       0.24973078       0.25472785       0.49974673 </v>
   <v>       0.24858858       0.49991714       0.50276949 </v>
   <v>       0.24405303       0.74636869       0.49611424 </v>
   <v>       0.48476873       0.98757683       0.49863289 </v>
   <v>       0.50772536       0.26044560       0.49824879 </v>
   <v>       0.49751265       0.49151815       0.50317544 </v>
   <v>       0.50700720       0.74847250       0.50510039 </v>
   <v>       0.74449940       0.00024570       0.50086094 </v>
   <v>       0.75005776       0.24300199       0.49954807 </v>
   <v>       0.74838248       0.50068587       0.49708985 </v>
   <v>       0.75251465       0.74926353       0.50063454 </v>
  </varray>
  <varray name="velocities" >
   <v>       0.00000000       0.00000000       0.00000000 </v>
   <v>       0.00000000       0.00000000       0.00000000 </v>
   <v>       0.00000000       0.00000000       0.00000000 </v>
   <v>       0.00000000       0.00000000       0.00000000 </v>
   <v>       0.00000000       0.00000000       0.00000000 </v>
   <v>       0.00000000       0.00000000       0.00000000 </v>
   <v>       0.00000000       0.00000000       0.00000000 </v>
   <v>       0.00000000       0.00000000       0.00000000 </v>
   <v>       0.00000000       0.00000000       0.00000000 </v>
   <v>       0.00000000       0.00000000       0.00000000 </v>
   <v>       0.00000000       0.00000000       0.00000000 </v>
   <v>       0.00000000       0.00000000       0.00000000 </v>
   <v>       0.00000000       0.00000000       0.00000000 </v>
   <v>       0.00000000       0.00000000       0.00000000 </v>
   <v>       0.00000000       0.00000000       0.00000000 </v>
   <v>       0.00000000       0.00000000       0.00000000 </v>
   <v>       0.00000000       0.00000000       0.00000000 </v>
   <v>       0.00000000       0.00000000       0.00000000 </v>
   <v>       0.00000000       0.00000000       0.00000000 </v>
   <v>       0.00000000       0.00000000       0.00000000 </v>
   <v>       0.00000000       0.00000000       0.00000000 </v>
   <v>       0.00000000       0.00000000       0.00000000 </v>
   <v>       0.00000000       0.00000000       0.00000000 </v>
   <v>       0.00000000       0.00000000       0.00000000 </v>
   <v>       0.00000000       0.00000000       0.00000000 </v>
   <v>       0.00000000       0.00000000       0.00000000 </v>
   <v>       0.00000000       0.00000000       0.00000000 </v>
   <v>       0.00000000       0.00000000       0.00000000 </v>
   <v>       0.00000000       0.00000000       0.00000000 </v>
   <v>       0.00000000       0.00000000       0.00000000 </v>
   <v>       0.00000000       0.00000000       0.00000000 </v>
   <v>       0.00000000       0.00000000       0.00000000 </v>
   <v>       0.00000000       0.00000000       0.00000000 </v>
   <v>       0.00000000       0.00000000       0.00000000 </v>
   <v>       0.00000000       0.00000000       0.00000000 </v>
   <v>       0.00000000       0.00000000       0.00000000 </v>
   <v>       0.00000000       0.00000000       0.00000000 </v>
   <v>       0.00000000       0.00000000       0.00000000 </v>
   <v>       0.00000000       0.00000000       0.00000000 </v>
   <v>       0.00000000       0.00000000       0.00000000 </v>
   <v>       0.00000000       0.00000000       0.00000000 </v>
   <v>       0.00000000       0.00000000       0.00000000 </v>
   <v>       0.00000000       0.00000000       0.00000000 </v>
   <v>       0.00000000       0.00000000       0.00000000 </v>
   <v>       0.00000000       0.00000000       0.00000000 </v>
   <v>       0.00000000       0.00000000       0.00000000 </v>
   <v>       0.00000000       0.00000000       0.00000000 </v>
   <v>       0.00000000       0.00000000       0.00000000 </v>
   <v>       0.00000000       0.00000000       0.00000000 </v>
   <v>       0.00000000       0.00000000       0.00000000 </v>
   <v>       0.00000000       0.00000000       0.00000000 </v>
   <v>       0.00000000       0.00000000       0.00000000 </v>
   <v>       0.00000000       0.00000000       0.00000000 </v>
   <v>       0.00000000       0.00000000       0.00000000 </v>
   <v>       0.00000000       0.00000000       0.00000000 </v>
   <v>       0.00000000       0.00000000       0.00000000 </v>
   <v>       0.00000000       0.00000000       0.00000000 </v>
   <v>       0.00000000       0.00000000       0.00000000 </v>
   <v>       0.00000000       0.00000000       0.00000000 </v>
   <v>       0.00000000       0.00000000       0.00000000 </v>
   <v>       0.00000000       0.00000000       0.00000000 </v>
   <v>       0.00000000       0.00000000       0.00000000 </v>
   <v>       0.00000000       0.00000000       0.00000000 </v>
   <v>       0.00000000       0.00000000       0.00000000 </v>
   <v>       0.00000000       0.00000000       0.00000000 </v>
   <v>       0.00000000       0.00000000       0.00000000 </v>
   <v>       0.00000000       0.00000000       0.00000000 </v>
   <v>       0.00000000       0.00000000       0.00000000 </v>
   <v>       0.00000000       0.00000000       0.00000000 </v>
   <v>       0.00000000       0.00000000       0.00000000 </v>
   <v>       0.00000000       0.00000000       0.00000000 </v>
   <v>       0.00000000       0.00000000       0.00000000 </v>
   <v>       0.00000000       0.00000000       0.00000000 </v>
   <v>       0.00000000       0.00000000       0.00000000 </v>
   <v>       0.00000000       0.00000000       0.00000000 </v>
   <v>       0.00000000       0.00000000       0.00000000 </v>
   <v>       0.00000000       0.00000000       0.00000000 </v>
   <v>       0.00000000       0.00000000       0.00000000 </v>
   <v>       0.00000000       0.00000000       0.00000000 </v>
   <v>       0.00000000       0.00000000       0.00000000 </v>
  </varray>
 </structure>
 <calculation>
  <scstep>
   <time name="dav">   51.00   51.02</time>
   <time name="total">   51.86   51.88</time>
   <energy>
    <i name="alphaZ">    784.57699423 </i>
    <i name="ewald"> 253025.58086167 </i>
    <i name="hartreedc">-300675.52297749 </i>
    <i name="XCdc">   2503.35837809 </i>
    <i name="pawpsdc">  43679.68029659 </i>
    <i name="pawaedc"> -43417.33247688 </i>
    <i name="eentropy">     -0.06415195 </i>
    <i name="bandstr">    106.47997245 </i>
    <i name="atom">  56210.72393729 </i>
    <i name="e_fr_energy">  12217.48083399 </i>
    <i name="e_wo_entrp">  12217.54498594 </i>
    <i name="e_0_energy">  12217.51290997 </i>
   </energy>
  </scstep>
  <scstep>
   <time name="dav">   57.72   57.77</time>
   <time name="total">   57.72   57.77</time>
   <energy>
    <i name="e_fr_energy">   1741.93983049 </i>
    <i name="e_wo_entrp">   1741.97991047 </i>
    <i name="e_0_energy">   1741.95987048 </i>
   </energy>
  </scstep>
  <scstep>
   <time name="dav">   71.83   71.87</time>
   <time name="total">   71.84   71.87</time>
   <energy>
    <i name="e_fr_energy">   -405.39938264 </i>
    <i name="e_wo_entrp">   -405.39624887 </i>
    <i name="e_0_energy">   -405.39781575 </i>
   </energy>
  </scstep>
  <scstep>
   <time name="dav">   65.50   65.54</time>
   <time name="total">   65.50   65.54</time>
   <energy>
    <i name="e_fr_energy">   -644.06216797 </i>
    <i name="e_wo_entrp">   -644.06216797 </i>
    <i name="e_0_energy">   -644.06216797 </i>
   </energy>
  </scstep>
  <scstep>
   <time name="dav">   65.37   65.41</time>
   <time name="total">   69.35   69.39</time>
   <energy>
    <i name="e_fr_energy">   -654.60000494 </i>
    <i name="e_wo_entrp">   -654.60000494 </i>
    <i name="e_0_energy">   -654.60000494 </i>
   </energy>
  </scstep>
  <scstep>
   <time name="dav">   63.45   63.48</time>
   <time name="total">   68.25   68.29</time>
   <energy>
    <i name="e_fr_energy">   -523.99857372 </i>
    <i name="e_wo_entrp">   -523.99857372 </i>
    <i name="e_0_energy">   -523.99857372 </i>
   </energy>
  </scstep>
  <scstep>
   <time name="dav">   63.79   63.82</time>
   <time name="total">   68.59   68.63</time>
   <energy>
    <i name="e_fr_energy">   -528.89723061 </i>
    <i name="e_wo_entrp">   -528.89723061 </i>
    <i name="e_0_energy">   -528.89723061 </i>
   </energy>
  </scstep>
  <scstep>
   <time name="dav">   62.63   62.65</time>
   <time name="total">   67.42   67.46</time>
   <energy>
    <i name="e_fr_energy">   -526.65636426 </i>
    <i name="e_wo_entrp">   -526.65636426 </i>
    <i name="e_0_energy">   -526.65636426 </i>
   </energy>
  </scstep>
  <scstep>
   <time name="dav">   59.78   59.81</time>
   <time name="total">   64.58   64.62</time>
   <energy>
    <i name="e_fr_energy">   -526.13614208 </i>
    <i name="e_wo_entrp">   -526.13614208 </i>
    <i name="e_0_energy">   -526.13614208 </i>
   </energy>
  </scstep>
  <scstep>
   <time name="dav">   61.78   61.81</time>
   <time name="total">   66.58   66.63</time>
   <energy>
    <i name="e_fr_energy">   -526.00768876 </i>
    <i name="e_wo_entrp">   -526.00768876 </i>
    <i name="e_0_energy">   -526.00768876 </i>
   </energy>
  </scstep>
  <scstep>
   <time name="dav">   61.58   61.61</time>
   <time name="total">   66.37   66.40</time>
   <energy>
    <i name="e_fr_energy">   -525.98684914 </i>
    <i name="e_wo_entrp">   -525.98684914 </i>
    <i name="e_0_energy">   -525.98684914 </i>
   </energy>
  </scstep>
  <scstep>
   <time name="dav">   65.13   65.16</time>
   <time name="total">   69.93   69.97</time>
   <energy>
    <i name="e_fr_energy">   -525.97252207 </i>
    <i name="e_wo_entrp">   -525.97252207 </i>
    <i name="e_0_energy">   -525.97252207 </i>
   </energy>
  </scstep>
  <scstep>
   <time name="dav">   59.64   59.66</time>
   <time name="total">   64.43   64.47</time>
   <energy>
    <i name="e_fr_energy">   -525.97017406 </i>
    <i name="e_wo_entrp">   -525.97017406 </i>
    <i name="e_0_energy">   -525.97017406 </i>
   </energy>
  </scstep>
  <scstep>
   <time name="dav">   59.21   59.24</time>
   <time name="total">   64.01   64.05</time>
   <energy>
    <i name="e_fr_energy">   -525.96817291 </i>
    <i name="e_wo_entrp">   -525.96817291 </i>
    <i name="e_0_energy">   -525.96817291 </i>
   </energy>
  </scstep>
  <scstep>
   <time name="dav">   59.83   59.86</time>
   <time name="total">   64.63   64.67</time>
   <energy>
    <i name="e_fr_energy">   -525.96974155 </i>
    <i name="e_wo_entrp">   -525.96974155 </i>
    <i name="e_0_energy">   -525.96974155 </i>
   </energy>
  </scstep>
  <scstep>
   <time name="dav">   64.36   64.39</time>
   <time name="total">   69.20   69.24</time>
   <energy>
    <i name="e_fr_energy">   -525.97172323 </i>
    <i name="e_wo_entrp">   -525.97172323 </i>
    <i name="e_0_energy">   -525.97172323 </i>
   </energy>
  </scstep>
  <scstep>
   <time name="dav">   55.64   55.67</time>
   <time name="total">   60.48   60.52</time>
   <energy>
    <i name="e_fr_energy">   -525.97526195 </i>
    <i name="e_wo_entrp">   -525.97526195 </i>
    <i name="e_0_energy">   -525.97526195 </i>
   </energy>
  </scstep>
  <scstep>
   <time name="dav">   53.65   53.65</time>
   <time name="total">   58.49   58.50</time>
   <energy>
    <i name="e_fr_energy">   -525.97747615 </i>
    <i name="e_wo_entrp">   -525.97747615 </i>
    <i name="e_0_energy">   -525.97747615 </i>
   </energy>
  </scstep>
  <scstep>
   <time name="dav">   55.28   55.28</time>
   <time name="total">   60.09   60.10</time>
   <energy>
    <i name="e_fr_energy">   -525.97866298 </i>
    <i name="e_wo_entrp">   -525.97866298 </i>
    <i name="e_0_energy">   -525.97866298 </i>
   </energy>
  </scstep>
  <scstep>
   <time name="dav">   50.54   50.54</time>
   <time name="total">   55.36   55.37</time>
   <energy>
    <i name="e_fr_energy">   -525.97979353 </i>
    <i name="e_wo_entrp">   -525.97979353 </i>
    <i name="e_0_energy">   -525.97979353 </i>
   </energy>
  </scstep>
  <scstep>
   <time name="dav">   49.95   49.95</time>
   <time name="total">   54.77   54.78</time>
   <energy>
    <i name="e_fr_energy">   -525.98023358 </i>
    <i name="e_wo_entrp">   -525.98023358 </i>
    <i name="e_0_energy">   -525.98023358 </i>
   </energy>
  </scstep>
  <scstep>
   <time name="dav">   47.16   47.16</time>
   <time name="total">   51.98   51.99</time>
   <energy>
    <i name="e_fr_energy">   -525.98061920 </i>
    <i name="e_wo_entrp">   -525.98061920 </i>
    <i name="e_0_energy">   -525.98061920 </i>
   </energy>
  </scstep>
  <scstep>
   <time name="dav">   42.25   42.26</time>
   <time name="total">   47.08   47.09</time>
   <energy>
    <i name="e_fr_energy">   -525.98118688 </i>
    <i name="e_wo_entrp">   -525.98118688 </i>
    <i name="e_0_energy">   -525.98118688 </i>
   </energy>
  </scstep>
  <scstep>
   <time name="dav">   45.21   45.21</time>
   <time name="total">   50.04   50.05</time>
   <energy>
    <i name="e_fr_energy">   -525.98136614 </i>
    <i name="e_wo_entrp">   -525.98136614 </i>
    <i name="e_0_energy">   -525.98136614 </i>
   </energy>
  </scstep>
  <scstep>
   <time name="dav">   37.10   37.10</time>
   <time name="total">   41.92   41.93</time>
   <energy>
    <i name="e_fr_energy">   -525.98143217 </i>
    <i name="e_wo_entrp">   -525.98143217 </i>
    <i name="e_0_energy">   -525.98143217 </i>
   </energy>
  </scstep>
  <scstep>
   <time name="dav">   43.30   43.30</time>
   <time name="total">   48.11   48.12</time>
   <energy>
    <i name="e_fr_energy">   -525.98154642 </i>
    <i name="e_wo_entrp">   -525.98154642 </i>
    <i name="e_0_energy">   -525.98154642 </i>
   </energy>
  </scstep>
  <scstep>
   <time name="dav">   35.60   35.62</time>
   <time name="total">   40.42   40.44</time>
   <energy>
    <i name="e_fr_energy">   -525.98155487 </i>
    <i name="e_wo_entrp">   -525.98155487 </i>
    <i name="e_0_energy">   -525.98155487 </i>
   </energy>
  </scstep>
  <scstep>
   <time name="dav">   34.44   34.45</time>
   <time name="total">   39.25   39.28</time>
   <energy>
    <i name="e_fr_energy">   -525.98156301 </i>
    <i name="e_wo_entrp">   -525.98156301 </i>
    <i name="e_0_energy">   -525.98156301 </i>
   </energy>
  </scstep>
  <scstep>
   <time name="dav">   34.59   34.59</time>
   <time name="total">   39.41   39.42</time>
   <energy>
    <i name="e_fr_energy">   -525.98157290 </i>
    <i name="e_wo_entrp">   -525.98157290 </i>
    <i name="e_0_energy">   -525.98157290 </i>
   </energy>
  </scstep>
  <scstep>
   <time name="dav">   36.57   36.57</time>
   <time name="total">   41.39   41.40</time>
   <energy>
    <i name="e_fr_energy">   -525.98158680 </i>
    <i name="e_wo_entrp">   -525.98158680 </i>
    <i name="e_0_energy">   -525.98158680 </i>
   </energy>
  </scstep>
  <scstep>
   <time name="dav">   34.76   34.77</time>
   <time name="total">   39.64   39.66</time>
   <energy>
    <i name="e_fr_energy">   -525.98159216 </i>
    <i name="e_wo_entrp">   -525.98159216 </i>
    <i name="e_0_energy">   -525.98159216 </i>
   </energy>
  </scstep>
  <scstep>
   <time name="dav">   33.12   33.12</time>
   <time name="total">   38.00   38.01</time>
   <energy>
    <i name="e_fr_energy">   -525.98159390 </i>
    <i name="e_wo_entrp">   -525.98159390 </i>
    <i name="e_0_energy">   -525.98159390 </i>
   </energy>
  </scstep>
  <scstep>
   <time name="dav">   33.06   33.07</time>
   <time name="total">   33.90   33.91</time>
   <energy>
    <i name="alphaZ">    784.57699423 </i>
    <i name="ewald"> 253025.58086167 </i>
    <i name="hartreedc">-301007.28686000 </i>
    <i name="XCdc">   2490.65064376 </i>
    <i name="pawpsdc">  59606.23562451 </i>
    <i name="pawaedc"> -59438.63103620 </i>
    <i name="eentropy">     -0.00000000 </i>
    <i name="bandstr"> -12197.83176012 </i>
    <i name="atom">  56210.72393729 </i>
    <i name="e_fr_energy">   -525.98159486 </i>
    <i name="e_wo_entrp">   -525.98159486 </i>
    <i name="e_0_energy">   -525.98159486 </i>
   </energy>
  </scstep>
  <structure>
   <crystal>
    <varray name="basis" >
     <v>      13.79398668       0.00000000       0.00000000 </v>
     <v>      -6.89699334      11.94594288       0.00000000 </v>
     <v>       0.00000000       0.00000000      27.81022107 </v>
    </varray>
    <i name="volume">   4582.62876984 </i>
    <varray name="rec_basis" >
     <v>       0.07249536       0.04185521       0.00000000 </v>
     <v>       0.00000000       0.08371043       0.00000000 </v>
     <v>       0.00000000       0.00000000       0.03595800 </v>
    </varray>
   </crystal>
   <varray name="positions" >
    <v>       0.07680058       0.16251169       0.54101658 </v>
    <v>       0.07231773       0.41258463       0.54814522 </v>
    <v>       0.07604636       0.66410479       0.54142577 </v>
    <v>       0.08988146       0.92173987       0.54290391 </v>
    <v>       0.32205332       0.16309247       0.54629988 </v>
    <v>       0.32290424       0.41567689       0.54725025 </v>
    <v>       0.33745662       0.66057080       0.55084387 </v>
    <v>       0.33573846       0.91555001       0.54220870 </v>
    <v>       0.58038738       0.16287316       0.53994598 </v>
    <v>       0.57761399       0.41368192       0.54545642 </v>
    <v>       0.58855449       0.66658450       0.54652027 </v>
    <v>       0.57148680       0.90952722       0.54524520 </v>
    <v>       0.82636774       0.16052532       0.54758943 </v>
    <v>       0.82723149       0.41012371       0.54605239 </v>
    <v>       0.83848542       0.67126193       0.54127281 </v>
    <v>       0.83003836       0.91074894       0.54420650 </v>
    <v>       0.17451876       0.08628692       0.45486974 </v>
    <v>       0.16933906       0.33750968       0.45529692 </v>
    <v>       0.18020956       0.58620724       0.45934515 </v>
    <v>       0.17241869       0.83014240       0.45112034 </v>
    <v>       0.41935700       0.09093872       0.45786765 </v>
    <v>       0.41660319       0.33660272       0.45446394 </v>
    <v>       0.42118846       0.57451512       0.45954854 </v>
    <v>       0.40732292       0.83675763       0.45621100 </v>
    <v>       0.66232917       0.08116545       0.45570535 </v>
    <v>       0.66703204       0.33634186       0.45051177 </v>
    <v>       0.67179220       0.58819488       0.45395297 </v>
    <v>       0.66705012       0.83142814       0.45651504 </v>
    <v>       0.91325477       0.08806547       0.45857547 </v>
    <v>       0.92138464       0.33283083       0.45758391 </v>
    <v>       0.92091839       0.59504529       0.45870643 </v>
    <v>       0.92063373       0.83982516       0.45124240 </v>
    <v>       0.08605292       0.17268274       0.40049388 </v>
    <v>       0.09156705       0.41683873       0.39828806 </v>
    <v>       0.09292493       0.66236677       0.39253362 </v>
    <v>       0.08450301       0.92169896       0.39243043 </v>
    <v>       0.33054988       0.16864628       0.39311113 </v>
    <v>       0.34960157       0.43102323       0.39147188 </v>
    <v>       0.33623982       0.66634836       0.39767805 </v>
    <v>       0.34929300       0.92823268       0.39091142 </v>
    <v>       0.57139412       0.16854709       0.39386457 </v>
    <v>       0.57653718       0.41701955       0.39638503 </v>
    <v>       0.57048333       0.65537621       0.39722038 </v>
    <v>       0.58805010       0.91183294       0.39682124 </v>
    <v>       0.82801319       0.16017149       0.38980932 </v>
    <v>       0.83729834       0.41565117       0.39720130 </v>
    <v>       0.82829478       0.67147677       0.39153659 </v>
    <v>       0.83524776       0.92218648       0.39693742 </v>
    <v>       0.15785533       0.08916024       0.60450634 </v>
    <v>       0.17437854       0.33538239       0.60346693 </v>
    <v>       0.15314343       0.57547353       0.60101977 </v>
    <v>       0.17581526       0.82083265       0.59812746 </v>
    <v>       0.41382894       0.08354970       0.60533214 </v>
    <v>       0.43025869       0.33868985       0.60649423 </v>
    <v>       0.42004814       0.58087618       0.61287172 </v>
    <v>       0.40456437       0.83476013       0.61073303 </v>
    <v>       0.65982173       0.07446552       0.60635289 </v>
    <v>       0.65935894       0.32568288       0.59985439 </v>
    <v>       0.68430487       0.59169803       0.59989385 </v>
    <v>       0.67211158       0.83420218       0.60613599 </v>
    <v>       0.91562669       0.08111171       0.60111859 </v>
    <v>       0.91793752       0.33789165       0.61303789 </v>
    <v>       0.90450198       0.57115213       0.60052615 </v>
    <v>       0.93214417       0.84122529       0.60214984 </v>
    <v>       0.00564520       0.00222366       0.49678944 </v>
    <v>       0.00224485       0.25014224       0.50453556 </v>
    <v>       0.99185178       0.49991385       0.50479574 </v>
    <v>       0.99798067       0.76489154       0.49621034 </v>
    <v>       0.25338340       0.00829068       0.50066569 </v>
    <v>       0.24973078       0.25472785       0.49974673 </v>
    <v>       0.24858858       0.49991714       0.50276949 </v>
    <v>       0.24405303       0.74636869       0.49611424 </v>
    <v>       0.48476873       0.98757683       0.49863289 </v>
    <v>       0.50772536       0.26044560       0.49824879 </v>
    <v>       0.49751265       0.49151815       0.50317544 </v>
    <v>       0.50700720       0.74847250       0.50510039 </v>
    <v>       0.74449940       0.00024570       0.50086094 </v>
    <v>       0.75005776       0.24300199       0.49954807 </v>
    <v>       0.74838248       0.50068587       0.49708985 </v>
    <v>       0.75251465       0.74926353       0.50063454 </v>
   </varray>
  </structure>
  <varray name="forces" >
   <v>       0.64455244       0.33081863       0.53003060 </v>
   <v>       0.41903930      -0.12232246      -0.43838433 </v>
   <v>       0.48599285      -0.06297876       0.33674144 </v>
   <v>      -0.39071951      -0.21547592      -0.52337651 </v>
   <v>       0.72201042       0.76696956      -0.07710974 </v>
   <v>       1.71545726      -0.17496714      -0.60794632 </v>
   <v>      -0.06636921       0.20716746      -0.50132272 </v>
   <v>      -0.92522653       0.23447142       0.68385063 </v>
   <v>      -0.14557799       0.66447690       1.00712076 </v>
   <v>       0.59677021       0.41337146      -0.95991831 </v>
   <v>      -0.21225574      -0.11427949      -0.10271467 </v>
   <v>       0.88628735       0.02775645       0.18869153 </v>
   <v>      -0.24963483       0.21244563      -0.37926768 </v>
   <v>       0.02256365       0.22984961      -1.02208339 </v>
   <v>      -0.32863612       0.01953511       0.03980816 </v>
   <v>       0.22823776       0.37735757      -0.23080171 </v>
   <v>      -0.83092241       0.00236102      -0.12206888 </v>
   <v>       0.36044180      -0.29191379       0.72536845 </v>
   <v>      -0.91630900      -0.33465924      -0.78803303 </v>
   <v>      -0.79502560       0.32351873      -0.12761294 </v>
   <v>      -0.60062100      -0.12472877      -0.84218194 </v>
   <v>      -0.07818529      -0.22724759       0.80764205 </v>
   <v>      -0.69946925       0.71087909       0.11461019 </v>
   <v>       1.38670861      -0.99497066      -0.94070763 </v>
   <v>       0.78796575      -0.01440512      -0.59926003 </v>
   <v>      -0.10788097       0.26351849       1.09803277 </v>
   <v>       0.09240667      -0.62994976       0.55793915 </v>
   <v>      -0.35759482      -0.00370270       0.20595964 </v>
   <v>       0.29232761      -0.53291959      -0.77686379 </v>
   <v>      -0.77582642      -0.03431084      -0.08916450 </v>
   <v>      -0.15745308      -1.36984712      -1.48644958 </v>
   <v>       0.01054923       0.22326299       0.50296501 </v>
   <v>      -0.15766348      -0.16743383      -0.60287173 </v>
   <v>      -0.55003566       0.15515528      -0.25326242 </v>
   <v>      -0.51210205       0.16710217       0.51587939 </v>
   <v>       0.37328051      -0.08777132       0.04228172 </v>
   <v>       0.17992207       0.02952850       0.21801017 </v>
   <v>      -0.59472334      -0.73874216       0.51620991 </v>
   <v>       0.11181793       0.01565922       0.18317071 </v>
   <v>      -0.52138443      -0.39165121       0.51841060 </v>
   <v>       0.70472396      -0.04147158       0.02723651 </v>
   <v>       0.49992916       0.19202012      -0.53599048 </v>
   <v>       0.51728348       0.86070143      -0.10497211 </v>
   <v>      -0.49780449       0.05017398       0.02721067 </v>
   <v>      -0.00069320       0.31345324       0.96140913 </v>
   <v>       0.15751963       0.27436414      -0.11832908 </v>
   <v>       0.36004266      -0.15784922       0.21404686 </v>
   <v>      -0.24046279       0.00044202      -0.21904284 </v>
   <v>       0.60912762      -0.20602429       0.15479034 </v>
   <v>      -0.91503178      -0.46440254       0.83716371 </v>
   <v>       0.40714011       0.71349407       0.78009491 </v>
   <v>      -1.18690780       0.45826504       0.80033651 </v>
   <v>       0.01228844      -0.07025028      -0.42858650 </v>
   <v>      -0.80990381      -0.37154489       0.17709593 </v>
   <v>      -0.16607783       0.16650095      -0.60834971 </v>
   <v>       0.74237673      -0.24894275      -0.68318527 </v>
   <v>      -0.15070435       0.24346349      -0.24815982 </v>
   <v>       0.24910758      -0.19235736       0.67784784 </v>
   <v>      -0.53493738      -0.37522165       0.91000638 </v>
   <v>      -0.16178541      -0.04399734      -0.02997032 </v>
   <v>       0.04390056      -0.07492228       0.60383601 </v>
   <v>      -0.11411967      -0.47195897      -0.64777771 </v>
   <v>       0.19286010       0.88628116       0.66291816 </v>
   <v>      -0.36332247      -0.35613518       0.27832240 </v>
   <v>      -0.63628726       0.01471405       0.46442066 </v>
   <v>      -0.92839053       0.21842422      -0.97530223 </v>
   <v>       0.66456154      -0.40649676      -0.82924979 </v>
   <v>       1.60647366      -1.26006139       0.24209568 </v>
   <v>       0.38990632      -0.33946597      -0.15221280 </v>
   <v>       0.23487157      -0.23682636       0.09904917 </v>
   <v>       0.44083626       0.25715491       0.31933626 </v>
   <v>       0.15726099       0.68513673       0.56964883 </v>
   <v>       0.85401328       1.42868680       0.28361234 </v>
   <v>      -0.03179486      -1.36421591      -0.06975673 </v>
   <v>      -0.57783403       0.93023315      -0.51233085 </v>
   <v>      -0.77066313      -0.28815376      -0.05603840 </v>
   <v>       0.23847570      -0.12939906       0.06120835 </v>
   <v>      -0.34540123      -0.02490154       0.06866427 </v>
   <v>       0.44536339       0.41646713       0.02270923 </v>
   <v>      -0.43865543       0.27369464      -0.34512659 </v>
  </varray>
  <varray name="stress" >
   <v>       3.90943394       0.79877846       0.50410758 </v>
   <v>       0.79877848       2.11178802       1.51711426 </v>
   <v>       0.50410760       1.51711428       0.53166318 </v>
  </varray>
  <energy>
   <i name="e_fr_energy">   -525.98159486 </i>
   <i name="e_wo_entrp">   -525.98159486 </i>
   <i name="e_0_energy">     -0.00000000 </i>
  </energy>
  <time name="totalsc"> 1919.97 1920.86</time>
  <eigenvalues>
   <array>
    <dimension dim="1">band</dimension>
    <dimension dim="2">kpoint</dimension>
    <dimension dim="3">spin</dimension>
    <field>eigene</field>
    <field>occ</field>
    <set>
     <set comment="spin 1">
      <set comment="kpoint 1">
       <r>  -51.9457    1.0000 </r>
       <r>  -51.8107    1.0000 </r>
       <r>  -51.5758    1.0000 </r>
       <r>  -51.5606    1.0000 </r>
       <r>  -51.5392    1.0000 </r>
       <r>  -51.5376    1.0000 </r>
       <r>  -51.5171    1.0000 </r>
       <r>  -51.4881    1.0000 </r>
       <r>  -51.4749    1.0000 </r>
       <r>  -51.4618    1.0000 </r>
       <r>  -51.4561    1.0000 </r>
       <r>  -51.4514    1.0000 </r>
       <r>  -51.4288    1.0000 </r>
       <r>  -51.4263    1.0000 </r>
       <r>  -51.4233    1.0000 </r>
       <r>  -51.3900    1.0000 </r>
       <r>  -51.3844    1.0000 </r>
       <r>  -51.3701    1.0000 </r>
       <r>  -51.3679    1.0000 </r>
       <r>  -51.3572    1.0000 </r>
       <r>  -51.3547    1.0000 </r>
       <r>  -51.3119    1.0000 </r>
       <r>  -51.3112    1.0000 </r>
       <r>  -51.2865    1.0000 </r>
       <r>  -51.2846    1.0000 </r>
       <r>  -51.2263    1.0000 </r>
       <r>  -51.2230    1.0000 </r>
       <r>  -51.2189    1.0000 </r>
       <r>  -51.2113    1.0000 </r>
       <r>  -51.1652    1.0000 </r>
       <r>  -51.0166    1.0000 </r>
       <r>  -50.9988    1.0000 </r>
       <r>  -30.6384    1.0000 </r>
       <r>  -30.5629    1.0000 </r>
       <r>  -30.5581    1.0000 </r>
       <r>  -30.4993    1.0000 </r>
       <r>  -30.4627    1.0000 </r>
       <r>  -30.4363    1.0000 </r>
       <r>  -30.3641    1.0000 </r>
       <r>  -30.3116    1.0000 </r>
       <r>  -30.2929    1.0000 </r>
       <r>  -30.2894    1.0000 </r>
       <r>  -30.2821    1.0000 </r>
       <r>  -30.2733    1.0000 </r>
       <r>  -30.2643    1.0000 </r>
       <r>  -30.2608    1.0000 </r>
       <r>  -30.2503    1.0000 </r>
       <r>  -30.2415    1.0000 </r>
       <r>  -30.2375    1.0000 </r>
       <r>  -30.2300    1.0000 </r>
       <r>  -30.2188    1.0000 </r>
       <r>  -30.2095    1.0000 </r>
       <r>  -30.1992    1.0000 </r>
       <r>  -30.1930    1.0000 </r>
       <r>  -30.1870    1.0000 </r>
       <r>  -30.1764    1.0000 </r>
       <r>  -30.1679    1.0000 </r>
       <r>  -30.1637    1.0000 </r>
       <r>  -30.1615    1.0000 </r>
       <r>  -30.1516    1.0000 </r>
       <r>  -30.1505    1.0000 </r>
       <r>  -30.1403    1.0000 </r>
       <r>  -30.1394    1.0000 </r>
       <r>  -30.1358    1.0000 </r>
       <r>  -30.1261    1.0000 </r>
       <r>  -30.1124    1.0000 </r>
       <r>  -30.1102    1.0000 </r>
       <r>  -30.1095    1.0000 </r>
       <r>  -30.1031    1.0000 </r>
       <r>  -30.0964    1.0000 </r>
       <r>  -30.0907    1.0000 </r>
       <r>  -30.0878    1.0000 </r>
       <r>  -30.0810    1.0000 </r>
       <r>  -30.0775    1.0000 </r>
       <r>  -30.0726    1.0000 </r>
       <r>  -30.0675    1.0000 </r>
       <r>  -30.0644    1.0000 </r>
       <r>  -30.0621    1.0000 </r>
       <r>  -30.0595    1.0000 </r>
       <r>  -30.0577    1.0000 </r>
       <r>  -30.0474    1.0000 </r>
       <r>  -30.0462    1.0000 </r>
       <r>  -30.0358    1.0000 </r>
       <r>  -30.0325    1.0000 </r>
       <r>  -30.0273    1.0000 </r>
       <r>  -30.0191    1.0000 </r>
       <r>  -30.0156    1.0000 </r>
       <r>  -30.0136    1.0000 </r>
       <r>  -30.0090    1.0000 </r>
       <r>  -30.0056    1.0000 </r>
       <r>  -29.9984    1.0000 </r>
       <r>  -29.9936    1.0000 </r>
       <r>  -29.9832    1.0000 </r>
       <r>  -29.9782    1.0000 </r>
       <r>  -29.9734    1.0000 </r>
       <r>  -29.9714    1.0000 </r>
       <r>  -29.9693    1.0000 </r>
       <r>  -29.9616    1.0000 </r>
       <r>  -29.9600    1.0000 </r>
       <r>  -29.9515    1.0000 </r>
       <r>  -29.9447    1.0000 </r>
       <r>  -29.9370    1.0000 </r>
       <r>  -29.9284    1.0000 </r>
       <r>  -29.9258    1.0000 </r>
       <r>  -29.9190    1.0000 </r>
       <r>  -29.9120    1.0000 </r>
       <r>  -29.9011    1.0000 </r>
       <r>  -29.8964    1.0000 </r>
       <r>  -29.8867    1.0000 </r>
       <r>  -29.8850    1.0000 </r>
       <r>  -29.8812    1.0000 </r>
       <r>  -29.8780    1.0000 </r>
       <r>  -29.8683    1.0000 </r>
       <r>  -29.8630    1.0000 </r>
       <r>  -29.8495    1.0000 </r>
       <r>  -29.8390    1.0000 </r>
       <r>  -29.8342    1.0000 </r>
       <r>  -29.8223    1.0000 </r>
       <r>  -29.8144    1.0000 </r>
       <r>  -29.8054    1.0000 </r>
       <r>  -29.7948    1.0000 </r>
       <r>  -29.7842    1.0000 </r>
       <r>  -29.6995    1.0000 </r>
       <r>  -29.6866    1.0000 </r>
       <r>  -29.6839    1.0000 </r>
       <r>  -29.6580    1.0000 </r>
       <r>  -29.6545    1.0000 </r>
       <r>  -29.6502    1.0000 </r>
       <r>  -18.5787    1.0000 </r>
       <r>  -18.4367    1.0000 </r>
       <r>  -18.4174    1.0000 </r>
       <r>  -18.3858    1.0000 </r>
       <r>  -18.3004    1.0000 </r>
       <r>  -18.2776    1.0000 </r>
       <r>  -18.2569    1.0000 </r>
       <r>  -18.2048    1.0000 </r>
       <r>  -18.2010    1.0000 </r>
       <r>  -18.1821    1.0000 </r>
       <r>  -18.1602    1.0000 </r>
       <r>  -18.1168    1.0000 </r>
       <r>  -18.0863    1.0000 </r>
       <r>  -18.0585    1.0000 </r>
       <r>  -18.0238    1.0000 </r>
       <r>  -18.0163    1.0000 </r>
       <r>  -17.9851    1.0000 </r>
       <r>  -17.9307    1.0000 </r>
       <r>  -17.9289    1.0000 </r>
       <r>  -17.9054    1.0000 </r>
       <r>  -17.8869    1.0000 </r>
       <r>  -17.8506    1.0000 </r>
       <r>  -17.8464    1.0000 </r>
       <r>  -17.8161    1.0000 </r>
       <r>  -17.8136    1.0000 </r>
       <r>  -17.8050    1.0000 </r>
       <r>  -17.7855    1.0000 </r>
       <r>  -17.7575    1.0000 </r>
       <r>  -17.7357    1.0000 </r>
       <r>  -17.7186    1.0000 </r>
       <r>  -17.6650    1.0000 </r>
       <r>  -17.5504    1.0000 </r>
       <r>  -11.7960    1.0000 </r>
       <r>  -11.4902    1.0000 </r>
       <r>  -11.4220    1.0000 </r>
       <r>  -11.3943    1.0000 </r>
       <r>  -11.3363    1.0000 </r>
       <r>  -11.3170    1.0000 </r>
       <r>  -11.2536    1.0000 </r>
       <r>  -11.0408    1.0000 </r>
       <r>  -10.9660    1.0000 </r>
       <r>  -10.9249    1.0000 </r>
       <r>  -10.8823    1.0000 </r>
       <r>  -10.8668    1.0000 </r>
       <r>  -10.8224    1.0000 </r>
       <r>  -10.7689    1.0000 </r>
       <r>  -10.7458    1.0000 </r>
       <r>  -10.6862    1.0000 </r>
       <r>   -8.0277    1.0000 </r>
       <r>   -7.9959    1.0000 </r>
       <r>   -7.9658    1.0000 </r>
       <r>   -7.7971    1.0000 </r>
       <r>   -7.7451    1.0000 </r>
       <r>   -7.7272    1.0000 </r>
       <r>   -7.6539    1.0000 </r>
       <r>   -7.5707    1.0000 </r>
       <r>   -7.5306    1.0000 </r>
       <r>   -7.5265    1.0000 </r>
       <r>   -7.4895    1.0000 </r>
       <r>   -7.4648    1.0000 </r>
       <r>   -7.4362    1.0000 </r>
       <r>   -7.4092    1.0000 </r>
       <r>   -7.3985    1.0000 </r>
       <r>   -7.3359    1.0000 </r>
       <r>   -7.3176    1.0000 </r>
       <r>   -7.2760    1.0000 </r>
       <r>   -7.2324    1.0000 </r>
       <r>   -7.1231    1.0000 </r>
       <r>   -7.1048    1.0000 </r>
       <r>   -7.0353    1.0000 </r>
       <r>   -7.0093    1.0000 </r>
       <r>   -6.9881    1.0000 </r>
       <r>   -6.9829    1.0000 </r>
       <r>   -6.9503    1.0000 </r>
       <r>   -6.9429    1.0000 </r>
       <r>   -6.9180    1.0000 </r>
       <r>   -6.9147    1.0000 </r>
       <r>   -6.8698    1.0000 </r>
       <r>   -6.8375    1.0000 </r>
       <r>   -6.8227    1.0000 </r>
       <r>   -6.8020    1.0000 </r>
       <r>   -6.7901    1.0000 </r>
       <r>   -6.7505    1.0000 </r>
       <r>   -6.7367    1.0000 </r>
       <r>   -6.7268    1.0000 </r>
       <r>   -6.7076    1.0000 </r>
       <r>   -6.6927    1.0000 </r>
       <r>   -6.6824    1.0000 </r>
       <r>   -6.6768    1.0000 </r>
       <r>   -6.6487    1.0000 </r>
       <r>   -6.6307    1.0000 </r>
       <r>   -6.6189    1.0000 </r>
       <r>   -6.6129    1.0000 </r>
       <r>   -6.5918    1.0000 </r>
       <r>   -6.5787    1.0000 </r>
       <r>   -6.5712    1.0000 </r>
       <r>   -6.5579    1.0000 </r>
       <r>   -6.5383    1.0000 </r>
       <r>   -6.5221    1.0000 </r>
       <r>   -6.5172    1.0000 </r>
       <r>   -6.5087    1.0000 </r>
       <r>   -6.4963    1.0000 </r>
       <r>   -6.4868    1.0000 </r>
       <r>   -6.4682    1.0000 </r>
       <r>   -6.4626    1.0000 </r>
       <r>   -6.4545    1.0000 </r>
       <r>   -6.4428    1.0000 </r>
       <r>   -6.4276    1.0000 </r>
       <r>   -6.4108    1.0000 </r>
       <r>   -6.3982    1.0000 </r>
       <r>   -6.3949    1.0000 </r>
       <r>   -6.3822    1.0000 </r>
       <r>   -6.3742    1.0000 </r>
       <r>   -6.3516    1.0000 </r>
       <r>   -6.3412    1.0000 </r>
       <r>   -6.3296    1.0000 </r>
       <r>   -6.2985    1.0000 </r>
       <r>   -6.2837    1.0000 </r>
       <r>   -6.2486    1.0000 </r>
       <r>   -6.2143    1.0000 </r>
       <r>   -6.1926    1.0000 </r>
       <r>   -6.1552    1.0000 </r>
       <r>   -5.9604    1.0000 </r>
       <r>   -5.8850    1.0000 </r>
       <r>   -5.8209    1.0000 </r>
       <r>   -5.7917    1.0000 </r>
       <r>   -5.7515    1.0000 </r>
       <r>   -5.7127    1.0000 </r>
       <r>   -5.6958    1.0000 </r>
       <r>   -5.6615    1.0000 </r>
       <r>   -5.5923    1.0000 </r>
       <r>   -5.5761    1.0000 </r>
       <r>   -5.5686    1.0000 </r>
       <r>   -5.5483    1.0000 </r>
       <r>   -5.5306    1.0000 </r>
       <r>   -5.4625    1.0000 </r>
       <r>   -5.4371    1.0000 </r>
       <r>   -5.3987    1.0000 </r>
       <r>   -5.3816    1.0000 </r>
       <r>   -5.3374    1.0000 </r>
       <r>   -5.3038    1.0000 </r>
       <r>   -5.2767    1.0000 </r>
       <r>   -5.1591    1.0000 </r>
       <r>   -5.1304    1.0000 </r>
       <r>   -4.8655    1.0000 </r>
       <r>   -4.8362    1.0000 </r>
       <r>   -4.7887    1.0000 </r>
       <r>   -4.6292    1.0000 </r>
       <r>   -4.6031    1.0000 </r>
       <r>   -4.5895    1.0000 </r>
       <r>   -4.5661    1.0000 </r>
       <r>   -4.5356    1.0000 </r>
       <r>   -4.4768    1.0000 </r>
       <r>   -4.2314    1.0000 </r>
       <r>   -4.2000    1.0000 </r>
       <r>   -4.1673    1.0000 </r>
       <r>   -4.1325    1.0000 </r>
       <r>   -4.1026    1.0000 </r>
       <r>   -4.0920    1.0000 </r>
       <r>   -4.0589    1.0000 </r>
       <r>   -4.0439    1.0000 </r>
       <r>   -4.0227    1.0000 </r>
       <r>   -3.9979    1.0000 </r>
       <r>   -3.9576    1.0000 </r>
       <r>   -3.9393    1.0000 </r>
       <r>   -3.8968    1.0000 </r>
       <r>   -3.8777    1.0000 </r>
       <r>   -3.8323    1.0000 </r>
       <r>   -3.8178    1.0000 </r>
       <r>   -3.8086    1.0000 </r>
       <r>   -3.7837    1.0000 </r>
       <r>   -3.7503    1.0000 </r>
       <r>   -3.7036    1.0000 </r>
       <r>   -3.6663    1.0000 </r>
       <r>   -3.6246    1.0000 </r>
       <r>   -3.6100    1.0000 </r>
       <r>   -3.5653    1.0000 </r>
       <r>   -3.5365    1.0000 </r>
       <r>   -3.5084    1.0000 </r>
       <r>   -3.4697    1.0000 </r>
       <r>   -3.4280    1.0000 </r>
       <r>   -3.3809    1.0000 </r>
       <r>   -3.3457    1.0000 </r>
       <r>   -3.3222    1.0000 </r>
       <r>   -3.2558    1.0000 </r>
       <r>   -3.2289    1.0000 </r>
       <r>   -3.1989    1.0000 </r>
       <r>   -3.1446    1.0000 </r>
       <r>   -3.1202    1.0000 </r>
       <r>   -3.1150    1.0000 </r>
       <r>   -2.9520    1.0000 </r>
       <r>   -2.8928    1.0000 </r>
       <r>   -2.1118    0.0000 </r>
       <r>   -2.0650    0.0000 </r>
       <r>   -2.0406    0.0000 </r>
       <r>   -1.5368    0.0000 </r>
       <r>   -1.4662    0.0000 </r>
       <r>   -1.4340    0.0000 </r>
       <r>   -1.4295    0.0000 </r>
       <r>   -1.3736    0.0000 </r>
       <r>   -1.3332    0.0000 </r>
       <r>   -0.7291    0.0000 </r>
       <r>   -0.6537    0.0000 </r>
       <r>   -0.6367    0.0000 </r>
       <r>   -0.5821    0.0000 </r>
       <r>   -0.5590    0.0000 </r>
       <r>   -0.5410    0.0000 </r>
       <r>   -0.5192    0.0000 </r>
       <r>   -0.4908    0.0000 </r>
       <r>   -0.4546    0.0000 </r>
       <r>   -0.4349    0.0000 </r>
       <r>   -0.4105    0.0000 </r>
       <r>   -0.3796    0.0000 </r>
       <r>   -0.3423    0.0000 </r>
       <r>   -0.3112    0.0000 </r>
       <r>   -0.2097    0.0000 </r>
       <r>    0.0232    0.0000 </r>
       <r>    0.1175    0.0000 </r>
       <r>    0.1397    0.0000 </r>
       <r>    0.1630    0.0000 </r>
       <r>    0.1727    0.0000 </r>
       <r>    0.1950    0.0000 </r>
       <r>    0.2270    0.0000 </r>
       <r>    0.2510    0.0000 </r>
       <r>    0.2773    0.0000 </r>
       <r>    0.2922    0.0000 </r>
       <r>    0.3273    0.0000 </r>
       <r>    0.3452    0.0000 </r>
       <r>    0.5366    0.0000 </r>
       <r>    0.5478    0.0000 </r>
       <r>    0.5949    0.0000 </r>
       <r>    0.5990    0.0000 </r>
       <r>    0.6897    0.0000 </r>
       <r>    0.7094    0.0000 </r>
       <r>    0.7291    0.0000 </r>
       <r>    0.7417    0.0000 </r>
       <r>    0.7629    0.0000 </r>
       <r>    0.7700    0.0000 </r>
       <r>    0.7915    0.0000 </r>
       <r>    0.7950    0.0000 </r>
       <r>    0.8062    0.0000 </r>
       <r>    0.8236    0.0000 </r>
       <r>    0.8551    0.0000 </r>
       <r>    0.8680    0.0000 </r>
       <r>    0.8794    0.0000 </r>
       <r>    0.8882    0.0000 </r>
       <r>    0.9143    0.0000 </r>
       <r>    0.9403    0.0000 </r>
       <r>    0.9507    0.0000 </r>
       <r>    0.9593    0.0000 </r>
       <r>    0.9906    0.0000 </r>
       <r>    0.9955    0.0000 </r>
       <r>    1.0017    0.0000 </r>
       <r>    1.0253    0.0000 </r>
       <r>    1.0482    0.0000 </r>
       <r>    1.0733    0.0000 </r>
      </set>
      <set comment="kpoint 2">
       <r>  -51.9457    1.0000 </r>
       <r>  -51.8107    1.0000 </r>
       <r>  -51.5758    1.0000 </r>
       <r>  -51.5606    1.0000 </r>
       <r>  -51.5392    1.0000 </r>
       <r>  -51.5376    1.0000 </r>
       <r>  -51.5171    1.0000 </r>
       <r>  -51.4881    1.0000 </r>
       <r>  -51.4749    1.0000 </r>
       <r>  -51.4618    1.0000 </r>
       <r>  -51.4561    1.0000 </r>
       <r>  -51.4514    1.0000 </r>
       <r>  -51.4288    1.0000 </r>
       <r>  -51.4263    1.0000 </r>
       <r>  -51.4233    1.0000 </r>
       <r>  -51.3900    1.0000 </r>
       <r>  -51.3844    1.0000 </r>
       <r>  -51.3701    1.0000 </r>
       <r>  -51.3679    1.0000 </r>
       <r>  -51.3572    1.0000 </r>
       <r>  -51.3547    1.0000 </r>
       <r>  -51.3119    1.0000 </r>
       <r>  -51.3112    1.0000 </r>
       <r>  -51.2865    1.0000 </r>
       <r>  -51.2846    1.0000 </r>
       <r>  -51.2263    1.0000 </r>
       <r>  -51.2230    1.0000 </r>
       <r>  -51.2189    1.0000 </r>
       <r>  -51.2113    1.0000 </r>
       <r>  -51.1652    1.0000 </r>
       <r>  -51.0166    1.0000 </r>
       <r>  -50.9988    1.0000 </r>
       <r>  -30.6384    1.0000 </r>
       <r>  -30.5629    1.0000 </r>
       <r>  -30.5580    1.0000 </r>
       <r>  -30.4993    1.0000 </r>
       <r>  -30.4627    1.0000 </r>
       <r>  -30.4362    1.0000 </r>
       <r>  -30.3638    1.0000 </r>
       <r>  -30.3115    1.0000 </r>
       <r>  -30.2907    1.0000 </r>
       <r>  -30.2888    1.0000 </r>
       <r>  -30.2809    1.0000 </r>
       <r>  -30.2729    1.0000 </r>
       <r>  -30.2662    1.0000 </r>
       <r>  -30.2597    1.0000 </r>
       <r>  -30.2545    1.0000 </r>
       <r>  -30.2394    1.0000 </r>
       <r>  -30.2381    1.0000 </r>
       <r>  -30.2307    1.0000 </r>
       <r>  -30.2204    1.0000 </r>
       <r>  -30.2078    1.0000 </r>
       <r>  -30.2005    1.0000 </r>
       <r>  -30.1923    1.0000 </r>
       <r>  -30.1858    1.0000 </r>
       <r>  -30.1788    1.0000 </r>
       <r>  -30.1717    1.0000 </r>
       <r>  -30.1651    1.0000 </r>
       <r>  -30.1595    1.0000 </r>
       <r>  -30.1561    1.0000 </r>
       <r>  -30.1492    1.0000 </r>
       <r>  -30.1421    1.0000 </r>
       <r>  -30.1365    1.0000 </r>
       <r>  -30.1330    1.0000 </r>
       <r>  -30.1270    1.0000 </r>
       <r>  -30.1141    1.0000 </r>
       <r>  -30.1118    1.0000 </r>
       <r>  -30.1073    1.0000 </r>
       <r>  -30.1045    1.0000 </r>
       <r>  -30.0988    1.0000 </r>
       <r>  -30.0918    1.0000 </r>
       <r>  -30.0838    1.0000 </r>
       <r>  -30.0787    1.0000 </r>
       <r>  -30.0744    1.0000 </r>
       <r>  -30.0734    1.0000 </r>
       <r>  -30.0673    1.0000 </r>
       <r>  -30.0653    1.0000 </r>
       <r>  -30.0632    1.0000 </r>
       <r>  -30.0600    1.0000 </r>
       <r>  -30.0519    1.0000 </r>
       <r>  -30.0463    1.0000 </r>
       <r>  -30.0442    1.0000 </r>
       <r>  -30.0341    1.0000 </r>
       <r>  -30.0332    1.0000 </r>
       <r>  -30.0269    1.0000 </r>
       <r>  -30.0244    1.0000 </r>
       <r>  -30.0191    1.0000 </r>
       <r>  -30.0162    1.0000 </r>
       <r>  -30.0080    1.0000 </r>
       <r>  -30.0026    1.0000 </r>
       <r>  -29.9982    1.0000 </r>
       <r>  -29.9927    1.0000 </r>
       <r>  -29.9868    1.0000 </r>
       <r>  -29.9766    1.0000 </r>
       <r>  -29.9727    1.0000 </r>
       <r>  -29.9697    1.0000 </r>
       <r>  -29.9690    1.0000 </r>
       <r>  -29.9633    1.0000 </r>
       <r>  -29.9566    1.0000 </r>
       <r>  -29.9529    1.0000 </r>
       <r>  -29.9435    1.0000 </r>
       <r>  -29.9381    1.0000 </r>
       <r>  -29.9287    1.0000 </r>
       <r>  -29.9269    1.0000 </r>
       <r>  -29.9205    1.0000 </r>
       <r>  -29.9156    1.0000 </r>
       <r>  -29.8992    1.0000 </r>
       <r>  -29.8903    1.0000 </r>
       <r>  -29.8868    1.0000 </r>
       <r>  -29.8851    1.0000 </r>
       <r>  -29.8814    1.0000 </r>
       <r>  -29.8778    1.0000 </r>
       <r>  -29.8679    1.0000 </r>
       <r>  -29.8629    1.0000 </r>
       <r>  -29.8505    1.0000 </r>
       <r>  -29.8387    1.0000 </r>
       <r>  -29.8330    1.0000 </r>
       <r>  -29.8228    1.0000 </r>
       <r>  -29.8165    1.0000 </r>
       <r>  -29.8068    1.0000 </r>
       <r>  -29.7945    1.0000 </r>
       <r>  -29.7836    1.0000 </r>
       <r>  -29.6995    1.0000 </r>
       <r>  -29.6867    1.0000 </r>
       <r>  -29.6841    1.0000 </r>
       <r>  -29.6582    1.0000 </r>
       <r>  -29.6546    1.0000 </r>
       <r>  -29.6501    1.0000 </r>
       <r>  -18.5624    1.0000 </r>
       <r>  -18.4386    1.0000 </r>
       <r>  -18.4164    1.0000 </r>
       <r>  -18.4086    1.0000 </r>
       <r>  -18.3125    1.0000 </r>
       <r>  -18.3078    1.0000 </r>
       <r>  -18.2358    1.0000 </r>
       <r>  -18.2272    1.0000 </r>
       <r>  -18.1998    1.0000 </r>
       <r>  -18.1668    1.0000 </r>
       <r>  -18.1178    1.0000 </r>
       <r>  -18.1063    1.0000 </r>
       <r>  -18.0903    1.0000 </r>
       <r>  -18.0444    1.0000 </r>
       <r>  -18.0371    1.0000 </r>
       <r>  -18.0193    1.0000 </r>
       <r>  -17.9657    1.0000 </r>
       <r>  -17.9297    1.0000 </r>
       <r>  -17.9177    1.0000 </r>
       <r>  -17.9145    1.0000 </r>
       <r>  -17.8949    1.0000 </r>
       <r>  -17.8687    1.0000 </r>
       <r>  -17.8459    1.0000 </r>
       <r>  -17.8378    1.0000 </r>
       <r>  -17.8184    1.0000 </r>
       <r>  -17.8065    1.0000 </r>
       <r>  -17.7784    1.0000 </r>
       <r>  -17.7536    1.0000 </r>
       <r>  -17.7329    1.0000 </r>
[...]
       <r>   -32.4300     0.0000    64.0000 </r>
       <r>   -32.2356     0.0000    64.0000 </r>
       <r>   -32.0411     0.0000    64.0000 </r>
       <r>   -31.8467     0.0000    64.0000 </r>
       <r>   -31.6522     0.0000    64.0000 </r>
       <r>   -31.4578     0.0000    64.0000 </r>
       <r>   -31.2633     0.0000    64.0000 </r>
       <r>   -31.0689     0.0000    64.0000 </r>
       <r>   -30.8744     0.0000    64.0000 </r>
       <r>   -30.6800     1.2406    64.2412 </r>
       <r>   -30.4855    39.4667    71.9155 </r>
       <r>   -30.2911    63.7722    84.3160 </r>
       <r>   -30.0966   286.9629   140.1157 </r>
       <r>   -29.9022   377.5952   213.5389 </r>
       <r>   -29.7077   168.0297   246.2122 </r>
       <r>   -29.5133    50.3350   255.9998 </r>
       <r>   -29.3188     0.0011   256.0000 </r>
       <r>   -29.1244     0.0000   256.0000 </r>
       <r>   -28.9299     0.0000   256.0000 </r>
       <r>   -28.7355     0.0000   256.0000 </r>
       <r>   -28.5410     0.0000   256.0000 </r>
       <r>   -28.3466     0.0000   256.0000 </r>
       <r>   -28.1521     0.0000   256.0000 </r>
       <r>   -27.9577     0.0000   256.0000 </r>
       <r>   -27.7632     0.0000   256.0000 </r>
       <r>   -27.5688     0.0000   256.0000 </r>
       <r>   -27.3743     0.0000   256.0000 </r>
       <r>   -27.1799     0.0000   256.0000 </r>
       <r>   -26.9854     0.0000   256.0000 </r>
       <r>   -26.7910     0.0000   256.0000 </r>
       <r>   -26.5965     0.0000   256.0000 </r>
       <r>   -26.4021     0.0000   256.0000 </r>
       <r>   -26.2076     0.0000   256.0000 </r>
       <r>   -26.0132     0.0000   256.0000 </r>
       <r>   -25.8187     0.0000   256.0000 </r>
       <r>   -25.6243     0.0000   256.0000 </r>
       <r>   -25.4298     0.0000   256.0000 </r>
       <r>   -25.2354     0.0000   256.0000 </r>
       <r>   -25.0409     0.0000   256.0000 </r>
       <r>   -24.8465     0.0000   256.0000 </r>
       <r>   -24.6520     0.0000   256.0000 </r>
       <r>   -24.4576     0.0000   256.0000 </r>
       <r>   -24.2631     0.0000   256.0000 </r>
       <r>   -24.0687     0.0000   256.0000 </r>
       <r>   -23.8742     0.0000   256.0000 </r>
       <r>   -23.6798     0.0000   256.0000 </r>
       <r>   -23.4854     0.0000   256.0000 </r>
       <r>   -23.2909     0.0000   256.0000 </r>
       <r>   -23.0965     0.0000   256.0000 </r>
       <r>   -22.9020     0.0000   256.0000 </r>
       <r>   -22.7076     0.0000   256.0000 </r>
       <r>   -22.5131     0.0000   256.0000 </r>
       <r>   -22.3187     0.0000   256.0000 </r>
       <r>   -22.1242     0.0000   256.0000 </r>
       <r>   -21.9298     0.0000   256.0000 </r>
       <r>   -21.7353     0.0000   256.0000 </r>
       <r>   -21.5409     0.0000   256.0000 </r>
       <r>   -21.3464     0.0000   256.0000 </r>
       <r>   -21.1520     0.0000   256.0000 </r>
       <r>   -20.9575     0.0000   256.0000 </r>
       <r>   -20.7631     0.0000   256.0000 </r>
       <r>   -20.5686     0.0000   256.0000 </r>
       <r>   -20.3742     0.0000   256.0000 </r>
       <r>   -20.1797     0.0000   256.0000 </r>
       <r>   -19.9853     0.0000   256.0000 </r>
       <r>   -19.7908     0.0000   256.0000 </r>
       <r>   -19.5964     0.0000   256.0000 </r>
       <r>   -19.4019     0.0000   256.0000 </r>
       <r>   -19.2075     0.0000   256.0000 </r>
       <r>   -19.0130     0.0000   256.0000 </r>
       <r>   -18.8186     0.0000   256.0000 </r>
       <r>   -18.6241     0.3845   256.0748 </r>
       <r>   -18.4297    23.5723   260.6584 </r>
       <r>   -18.2352    50.5531   270.4884 </r>
       <r>   -18.0408    69.1404   283.9327 </r>
       <r>   -17.8463    90.3601   301.5032 </r>
       <r>   -17.6519    80.4957   317.1555 </r>
       <r>   -17.4574    14.5782   319.9903 </r>
       <r>   -17.2630     0.0501   320.0000 </r>
       <r>   -17.0685     0.0000   320.0000 </r>
       <r>   -16.8741     0.0000   320.0000 </r>
       <r>   -16.6796     0.0000   320.0000 </r>
       <r>   -16.4852     0.0000   320.0000 </r>
       <r>   -16.2907     0.0000   320.0000 </r>
       <r>   -16.0963     0.0000   320.0000 </r>
       <r>   -15.9018     0.0000   320.0000 </r>
       <r>   -15.7074     0.0000   320.0000 </r>
       <r>   -15.5129     0.0000   320.0000 </r>
       <r>   -15.3185     0.0000   320.0000 </r>
       <r>   -15.1240     0.0000   320.0000 </r>
       <r>   -14.9296     0.0000   320.0000 </r>
       <r>   -14.7351     0.0000   320.0000 </r>
       <r>   -14.5407     0.0000   320.0000 </r>
       <r>   -14.3462     0.0000   320.0000 </r>
       <r>   -14.1518     0.0000   320.0000 </r>
       <r>   -13.9573     0.0000   320.0000 </r>
       <r>   -13.7629     0.0000   320.0000 </r>
       <r>   -13.5684     0.0000   320.0000 </r>
       <r>   -13.3740     0.0000   320.0000 </r>
       <r>   -13.1795     0.0000   320.0000 </r>
       <r>   -12.9851     0.0000   320.0000 </r>
       <r>   -12.7906     0.0000   320.0000 </r>
       <r>   -12.5962     0.0000   320.0000 </r>
       <r>   -12.4017     0.0000   320.0000 </r>
       <r>   -12.2073     0.0000   320.0000 </r>
       <r>   -12.0128     0.0000   320.0000 </r>
       <r>   -11.8184     0.5189   320.1009 </r>
       <r>   -11.6239    12.4323   322.5183 </r>
       <r>   -11.4295    19.1274   326.2377 </r>
       <r>   -11.2350    23.2551   330.7596 </r>
       <r>   -11.0406    28.2850   336.2596 </r>
       <r>   -10.8461    42.1776   344.4610 </r>
       <r>   -10.6517    34.3541   351.1412 </r>
       <r>   -10.4572     4.4168   352.0000 </r>
       <r>   -10.2628     0.0000   352.0000 </r>
       <r>   -10.0683     0.0000   352.0000 </r>
       <r>    -9.8739     0.0000   352.0000 </r>
       <r>    -9.6794     0.0000   352.0000 </r>
       <r>    -9.4850     0.0000   352.0000 </r>
       <r>    -9.2905     0.0000   352.0000 </r>
       <r>    -9.0961     0.0000   352.0000 </r>
       <r>    -8.9016     0.0000   352.0000 </r>
       <r>    -8.7072     0.0000   352.0000 </r>
       <r>    -8.5127     0.0000   352.0000 </r>
       <r>    -8.3183     0.0000   352.0000 </r>
       <r>    -8.1238     0.0039   352.0008 </r>
       <r>    -7.9294     9.5461   353.8570 </r>
       <r>    -7.7349    32.5117   360.1789 </r>
       <r>    -7.5405    54.8765   370.8496 </r>
       <r>    -7.3460    70.1997   384.4999 </r>
       <r>    -7.1516    55.7315   395.3369 </r>
       <r>    -6.9571    56.6226   406.3471 </r>
       <r>    -6.7627    94.3893   424.7010 </r>
       <r>    -6.5683   125.2379   449.0535 </r>
       <r>    -6.3738   122.2842   472.8316 </r>
       <r>    -6.1794    71.8825   486.8091 </r>
       <r>    -5.9849    51.0158   496.7291 </r>
       <r>    -5.7905    63.9513   509.1644 </r>
       <r>    -5.5960    67.9178   522.3709 </r>
       <r>    -5.4016    59.1418   533.8710 </r>
       <r>    -5.2071    41.7325   541.9859 </r>
       <r>    -5.0127    10.3574   543.9999 </r>
       <r>    -4.8182     7.7492   545.5067 </r>
       <r>    -4.6238    41.5718   553.5903 </r>
       <r>    -4.4293    43.0953   561.9702 </r>
       <r>    -4.2349    29.3023   567.6680 </r>
       <r>    -4.0404    32.2335   573.9358 </r>
       <r>    -3.8460    64.3021   586.4393 </r>
       <r>    -3.6515    82.6713   602.5147 </r>
       <r>    -3.4571    78.6204   617.8024 </r>
       <r>    -3.2626    61.7140   629.8026 </r>
       <r>    -3.0682    37.3039   637.0564 </r>
       <r>    -2.8737    14.6294   639.9010 </r>
       <r>    -2.6793     0.5089   640.0000 </r>
       <r>    -2.4848     0.0000   640.0000 </r>
       <r>    -2.2904     0.0000   640.0000 </r>
       <r>    -2.0959     1.1083   640.2155 </r>
       <r>    -1.9015     9.4328   642.0497 </r>
       <r>    -1.7070    22.6189   646.4479 </r>
       <r>    -1.5126    12.4879   648.8762 </r>
       <r>    -1.3181    19.5656   652.6807 </r>
       <r>    -1.1237    22.4490   657.0459 </r>
       <r>    -0.9292    32.3777   663.3417 </r>
       <r>    -0.7348    14.9279   666.2445 </r>
       <r>    -0.5403    25.5881   671.2201 </r>
       <r>    -0.3459    39.4099   678.8833 </r>
       <r>    -0.1514    30.4549   684.8052 </r>
       <r>     0.0430    29.9578   690.6305 </r>
       <r>     0.2375    38.4539   698.1078 </r>
       <r>     0.4319    36.3242   705.1710 </r>
       <r>     0.6264    59.9787   716.8339 </r>
       <r>     0.8208   108.4876   737.9292 </r>
       <r>     1.0153   123.7433   761.9910 </r>
       <r>     1.2097    30.9017   767.9998 </r>
       <r>     1.4042     0.0008   768.0000 </r>
       <r>     1.5986     0.0000   768.0000 </r>
       <r>     1.7931     0.0000   768.0000 </r>
       <r>     1.9875     0.0000   768.0000 </r>
       <r>     2.1820     0.0000   768.0000 </r>
       <r>     2.3764     0.0000   768.0000 </r>
       <r>     2.5709     0.0000   768.0000 </r>
       <r>     2.7653     0.0000   768.0000 </r>
       <r>     2.9598     0.0000   768.0000 </r>
       <r>     3.1542     0.0000   768.0000 </r>
       <r>     3.3487     0.0000   768.0000 </r>
       <r>     3.5431     0.0000   768.0000 </r>
       <r>     3.7376     0.0000   768.0000 </r>
      </set>
     </set>
    </array>
   </total>
  </dos>
 </calculation>
 <structure name="finalpos" >
  <crystal>
   <varray name="basis" >
    <v>      13.79398668       0.00000000       0.00000000 </v>
    <v>      -6.89699334      11.94594288       0.00000000 </v>
    <v>       0.00000000       0.00000000      27.81022107 </v>
   </varray>
   <i name="volume">   4582.62876984 </i>
   <varray name="rec_basis" >
    <v>       0.07249536       0.04185521       0.00000000 </v>
    <v>       0.00000000       0.08371043       0.00000000 </v>
    <v>       0.00000000       0.00000000       0.03595800 </v>
   </varray>
  </crystal>
  <varray name="positions" >
   <v>       0.07680058       0.16251169       0.54101658 </v>
   <v>       0.07231773       0.41258463       0.54814522 </v>
   <v>       0.07604636       0.66410479       0.54142577 </v>
   <v>       0.08988146       0.92173987       0.54290391 </v>
   <v>       0.32205332       0.16309247       0.54629988 </v>
   <v>       0.32290424       0.41567689       0.54725025 </v>
   <v>       0.33745662       0.66057080       0.55084387 </v>
   <v>       0.33573846       0.91555001       0.54220870 </v>
   <v>       0.58038738       0.16287316       0.53994598 </v>
   <v>       0.57761399       0.41368192       0.54545642 </v>
   <v>       0.58855449       0.66658450       0.54652027 </v>
   <v>       0.57148680       0.90952722       0.54524520 </v>
   <v>       0.82636774       0.16052532       0.54758943 </v>
   <v>       0.82723149       0.41012371       0.54605239 </v>
   <v>       0.83848542       0.67126193       0.54127281 </v>
   <v>       0.83003836       0.91074894       0.54420650 </v>
   <v>       0.17451876       0.08628692       0.45486974 </v>
   <v>       0.16933906       0.33750968       0.45529692 </v>
   <v>       0.18020956       0.58620724       0.45934515 </v>
   <v>       0.17241869       0.83014240       0.45112034 </v>
   <v>       0.41935700       0.09093872       0.45786765 </v>
   <v>       0.41660319       0.33660272       0.45446394 </v>
   <v>       0.42118846       0.57451512       0.45954854 </v>
   <v>       0.40732292       0.83675763       0.45621100 </v>
   <v>       0.66232917       0.08116545       0.45570535 </v>
   <v>       0.66703204       0.33634186       0.45051177 </v>
   <v>       0.67179220       0.58819488       0.45395297 </v>
   <v>       0.66705012       0.83142814       0.45651504 </v>
   <v>       0.91325477       0.08806547       0.45857547 </v>
   <v>       0.92138464       0.33283083       0.45758391 </v>
   <v>       0.92091839       0.59504529       0.45870643 </v>
   <v>       0.92063373       0.83982516       0.45124240 </v>
   <v>       0.08605292       0.17268274       0.40049388 </v>
   <v>       0.09156705       0.41683873       0.39828806 </v>
   <v>       0.09292493       0.66236677       0.39253362 </v>
   <v>       0.08450301       0.92169896       0.39243043 </v>
   <v>       0.33054988       0.16864628       0.39311113 </v>
   <v>       0.34960157       0.43102323       0.39147188 </v>
   <v>       0.33623982       0.66634836       0.39767805 </v>
   <v>       0.34929300       0.92823268       0.39091142 </v>
   <v>       0.57139412       0.16854709       0.39386457 </v>
   <v>       0.57653718       0.41701955       0.39638503 </v>
   <v>       0.57048333       0.65537621       0.39722038 </v>
   <v>       0.58805010       0.91183294       0.39682124 </v>
   <v>       0.82801319       0.16017149       0.38980932 </v>
   <v>       0.83729834       0.41565117       0.39720130 </v>
   <v>       0.82829478       0.67147677       0.39153659 </v>
   <v>       0.83524776       0.92218648       0.39693742 </v>
   <v>       0.15785533       0.08916024       0.60450634 </v>
   <v>       0.17437854       0.33538239       0.60346693 </v>
   <v>       0.15314343       0.57547353       0.60101977 </v>
   <v>       0.17581526       0.82083265       0.59812746 </v>
   <v>       0.41382894       0.08354970       0.60533214 </v>
   <v>       0.43025869       0.33868985       0.60649423 </v>
   <v>       0.42004814       0.58087618       0.61287172 </v>
   <v>       0.40456437       0.83476013       0.61073303 </v>
   <v>       0.65982173       0.07446552       0.60635289 </v>
   <v>       0.65935894       0.32568288       0.59985439 </v>
   <v>       0.68430487       0.59169803       0.59989385 </v>
   <v>       0.67211158       0.83420218       0.60613599 </v>
   <v>       0.91562669       0.08111171       0.60111859 </v>
   <v>       0.91793752       0.33789165       0.61303789 </v>
   <v>       0.90450198       0.57115213       0.60052615 </v>
   <v>       0.93214417       0.84122529       0.60214984 </v>
   <v>       0.00564520       0.00222366       0.49678944 </v>
   <v>       0.00224485       0.25014224       0.50453556 </v>
   <v>       0.99185178       0.49991385       0.50479574 </v>
   <v>       0.99798067       0.76489154       0.49621034 </v>
   <v>       0.25338340       0.00829068       0.50066569 </v>
   <v>       0.24973078       0.25472785       0.49974673 </v>
   <v>       0.24858858       0.49991714       0.50276949 </v>
   <v>       0.24405303       0.74636869       0.49611424 </v>
   <v>       0.48476873       0.98757683       0.49863289 </v>
   <v>       0.50772536       0.26044560       0.49824879 </v>
   <v>       0.49751265       0.49151815       0.50317544 </v>
   <v>       0.50700720       0.74847250       0.50510039 </v>
   <v>       0.74449940       0.00024570       0.50086094 </v>
   <v>       0.75005776       0.24300199       0.49954807 </v>
   <v>       0.74838248       0.50068587       0.49708985 </v>
   <v>       0.75251465       0.74926353       0.50063454 </v>
  </varray>
  <varray name="velocities" >
   <v>       0.00000000       0.00000000       0.00000000 </v>
   <v>       0.00000000       0.00000000       0.00000000 </v>
   <v>       0.00000000       0.00000000       0.00000000 </v>
   <v>       0.00000000       0.00000000       0.00000000 </v>
   <v>       0.00000000       0.00000000       0.00000000 </v>
   <v>       0.00000000       0.00000000       0.00000000 </v>
   <v>       0.00000000       0.00000000       0.00000000 </v>
   <v>       0.00000000       0.00000000       0.00000000 </v>
   <v>       0.00000000       0.00000000       0.00000000 </v>
   <v>       0.00000000       0.00000000       0.00000000 </v>
   <v>       0.00000000       0.00000000       0.00000000 </v>
   <v>       0.00000000       0.00000000       0.00000000 </v>
   <v>       0.00000000       0.00000000       0.00000000 </v>
   <v>       0.00000000       0.00000000       0.00000000 </v>
   <v>       0.00000000       0.00000000       0.00000000 </v>
   <v>       0.00000000       0.00000000       0.00000000 </v>
   <v>       0.00000000       0.00000000       0.00000000 </v>
   <v>       0.00000000       0.00000000       0.00000000 </v>
   <v>       0.00000000       0.00000000       0.00000000 </v>
   <v>       0.00000000       0.00000000       0.00000000 </v>
   <v>       0.00000000       0.00000000       0.00000000 </v>
   <v>       0.00000000       0.00000000       0.00000000 </v>
   <v>       0.00000000       0.00000000       0.00000000 </v>
   <v>       0.00000000       0.00000000       0.00000000 </v>
   <v>       0.00000000       0.00000000       0.00000000 </v>
   <v>       0.00000000       0.00000000       0.00000000 </v>
   <v>       0.00000000       0.00000000       0.00000000 </v>
   <v>       0.00000000       0.00000000       0.00000000 </v>
   <v>       0.00000000       0.00000000       0.00000000 </v>
   <v>       0.00000000       0.00000000       0.00000000 </v>
   <v>       0.00000000       0.00000000       0.00000000 </v>
   <v>       0.00000000       0.00000000       0.00000000 </v>
   <v>       0.00000000       0.00000000       0.00000000 </v>
   <v>       0.00000000       0.00000000       0.00000000 </v>
   <v>       0.00000000       0.00000000       0.00000000 </v>
   <v>       0.00000000       0.00000000       0.00000000 </v>
   <v>       0.00000000       0.00000000       0.00000000 </v>
   <v>       0.00000000       0.00000000       0.00000000 </v>
   <v>       0.00000000       0.00000000       0.00000000 </v>
   <v>       0.00000000       0.00000000       0.00000000 </v>
   <v>       0.00000000       0.00000000       0.00000000 </v>
   <v>       0.00000000       0.00000000       0.00000000 </v>
   <v>       0.00000000       0.00000000       0.00000000 </v>
   <v>       0.00000000       0.00000000       0.00000000 </v>
   <v>       0.00000000       0.00000000       0.00000000 </v>
   <v>       0.00000000       0.00000000       0.00000000 </v>
   <v>       0.00000000       0.00000000       0.00000000 </v>
   <v>       0.00000000       0.00000000       0.00000000 </v>
   <v>       0.00000000       0.00000000       0.00000000 </v>
   <v>       0.00000000       0.00000000       0.00000000 </v>
   <v>       0.00000000       0.00000000       0.00000000 </v>
   <v>       0.00000000       0.00000000       0.00000000 </v>
   <v>       0.00000000       0.00000000       0.00000000 </v>
   <v>       0.00000000       0.00000000       0.00000000 </v>
   <v>       0.00000000       0.00000000       0.00000000 </v>
   <v>       0.00000000       0.00000000       0.00000000 </v>
   <v>       0.00000000       0.00000000       0.00000000 </v>
   <v>       0.00000000       0.00000000       0.00000000 </v>
   <v>       0.00000000       0.00000000       0.00000000 </v>
   <v>       0.00000000       0.00000000       0.00000000 </v>
   <v>       0.00000000       0.00000000       0.00000000 </v>
   <v>       0.00000000       0.00000000       0.00000000 </v>
   <v>       0.00000000       0.00000000       0.00000000 </v>
   <v>       0.00000000       0.00000000       0.00000000 </v>
   <v>       0.00000000       0.00000000       0.00000000 </v>
   <v>       0.00000000       0.00000000       0.00000000 </v>
   <v>       0.00000000       0.00000000       0.00000000 </v>
   <v>       0.00000000       0.00000000       0.00000000 </v>
   <v>       0.00000000       0.00000000       0.00000000 </v>
   <v>       0.00000000       0.00000000       0.00000000 </v>
   <v>       0.00000000       0.00000000       0.00000000 </v>
   <v>       0.00000000       0.00000000       0.00000000 </v>
   <v>       0.00000000       0.00000000       0.00000000 </v>
   <v>       0.00000000       0.00000000       0.00000000 </v>
   <v>       0.00000000       0.00000000       0.00000000 </v>
   <v>       0.00000000       0.00000000       0.00000000 </v>
   <v>       0.00000000       0.00000000       0.00000000 </v>
   <v>       0.00000000       0.00000000       0.00000000 </v>
   <v>       0.00000000       0.00000000       0.00000000 </v>
   <v>       0.00000000       0.00000000       0.00000000 </v>
  </varray>
 </structure>
</modeling>
